
Create H   file=/home/scicons/adf2014.04/atomicdata/TZP/H
End Input

 *******************************************************************************
 *                                                                             *
 *  -------------------------------------                                      *
 *   Amsterdam Density Functional  (ADF)         2014                          *
 *  -------------------------------------                                      *
 *                                               r44409 2014-10-25             *
 *                                                                             *
 *                                                                             *
 *                              =================                              *
 *                              |               |                              *
 *                              |     A D F     |                              *
 *                              |               |                              *
 *                              =================                              *
 *                                                                             *
 *                                                                             *
 *   Online information and documentation:  http://www.scm.com                 *
 *   E-mail:  support@scm.com   info@scm.com                                   *
 *                                                                             *
 *   Scientific publications using ADF results must be properly referenced     *
 *   See the User Manuals (or the web site) for recommended citations          *
 *   The terms and conditions of the End User License Agreement apply to       *
 *   the use of ADF, http://www.scm.com/Sales/LicAgreement.html                *
 *                                                                             *
 **********************  x86_64_linux_intel / intelmpi  ************************

 Licensed to: Dr. Yi-lei Wang / Dep. Chemistry, Tsinghua Univ. / Beijing / CHINA
 SCM User ID: u16688

 ADF 2014  RunTime: Dec01-2015 12:40:35  Nodes: 1  Procs: 1

 Temporary files are created in /tmp/kid_0.qVEd4K

 Hydrogen (TZP)



 ===========================
 A T T A C H E D   F I L E S
 ===========================

 CREATE - Data File:    /home/scicons/adf2014.04/atomicdata/TZP/H
                        Hydrogen (TZP)



 ===============================
 M O D E L   P A R A M E T E R S
 ===============================

 DENSITY FUNCTIONAL POTENTIAL (scf)
    LDA:                               VWN
    Gradient Corrections:              ---

 SPIN  (restricted / unrestr.)
    Molecule:                          Restricted

 OTHER ASPECTS
    Relativistic Corrections:          ---

    Nuclear Charge Density Model:      Point Charge Nuclei
    Core Treatment:                    Frozen Orbital(s)

    Hyperfine or Zeeman Interaction:   ---



 =====================================
 S Y M M E T R Y ,   E L E C T R O N S
 =====================================

 Symmetry: ATOM

 Irreducible Representations, including subspecies
 -------------------------------------------------
 S
 P:x  P:y  P:z
 D:z2  D:x2-y2  D:xy  D:xz  D:yz
 F:z3  F:z  F:xyz  F:z2x  F:z2y  F:x  F:y


 Configuration of Valence Electrons
 ==================================

          Occupation Numbers
          -------------------------------------------------
 S        1
 P        0
 D        0
 F        0
          -------------------------------------------------

 Total:   1

 Net Charge: 0 (Nuclei minus Electrons)

 Preset values for MO occupations will be applied through SCF cycle no. 1000000
 Thereafter, the program will assign electrons to MOs that are spatially
 similar to the occupied MOs in a "reference" cycle ("KeepOrbitals").
 The reference cycle is always the PREVIOUS cycle: it will evolve with
 the SCF procedure.



 ================================
 (Slater-type)  F U N C T I O N S  ***  (Basis and Fit)  ***
 ================================


 Atom Type    1  (H)
 ==============

 Valence Basis Sets:   4
 -----------------------
   1 S    0.690000
   1 S    0.920000
   1 S    1.580000
   2 P    1.250000


 BAS: List of all Elementary Cartesian Basis Functions
 =====================================================

 The numbering in the list below (to the right of the function characteristics) is referred
 to in print-outs of MO eigenvectors and Mulliken populations in the BAS representation
 (as contrasted to the SFO representation).

 Notes:
 1. The functions are characterized by a polynomial prefactor (powers of x,y,z and r) and
    an exponential decay factor alpha.
 2. Since the basis sets are specific for an atom TYPE, the individual functions occur on
    all atoms of that type.
 3. The word 'Core' in the left margin signals that it is a Core Function (CF) : not a
    degree of freedom in the valence set, but only used to ensure orthogonalization of
    the other valence basis functions on the frozen Core Orbitals.


 (power of) X  Y  Z  R     Alpha  on Atom
            ==========     =====     ==========

 H                                    1
                                  ---------------------------------------------------------------------------
            0  0  0  0     0.690      1
            0  0  0  0     0.920      2
            0  0  0  0     1.580      3
            1  0  0  0     1.250      4
            0  1  0  0     1.250      5
            0  0  1  0     1.250      6

 Total number of charge fitting functions (nprimf)        50
 Total number of Cartesian basis functions (naos)          6
 Total number of Cartesian core functions  (ncos)          0



 BAS: List of all Elementary Cartesian Basis Functions
 =====================================================

 The numbering in the list below (to the right of the function characteristics) is referred
 to in print-outs of MO eigenvectors and Mulliken populations in the BAS representation
 (as contrasted to the SFO representation).

 Notes:
 1. The functions are characterized by a polynomial prefactor (powers of x,y,z and r) and
    an exponential decay factor alpha.
 2. Since the basis sets are specific for an atom TYPE, the individual functions occur on
    all atoms of that type.
 3. The word 'Core' in the left margin signals that it is a Core Function (CF) : not a
    degree of freedom in the valence set, but only used to ensure orthogonalization of
    the other valence basis functions on the frozen Core Orbitals.


 (power of) X  Y  Z  R     Alpha  on Atom
            ==========     =====     ==========

 H                                    1
                                  ---------------------------------------------------------------------------
            0  0  0  0     0.690      1
            0  0  0  0     0.920      2
            0  0  0  0     1.580      3
            1  0  0  0     1.250      4
            0  1  0  0     1.250      5
            0  0  1  0     1.250      6
1
 ***************************************************************************************************



                                              ***********************
                                              *  T E C H N I C A L  *
                                              ***********************




 =============================================================
 P A R A L L E L I Z A T I O N  and  V E C T O R I Z A T I O N
 =============================================================

 Nr of parallel processes:                                1
 Maximum vector length in NumInt loops:                 128



 ===============
 I O  vs.  C P U  ***  (store numerical data on disk or recalculate)  ***
 ===============

 Basis functions:   recalculate when needed
 Fit functions:     recalculate when needed

 IO buffersize (Mb):                                     64.000000



 =====================
 S C F   U P D A T E S
 =====================

 Max. nr. of cycles:                               300
 Convergence criterion:                              0.0000000100
   secondary criterion:                              0.0000000100

 Mix parameter (when DIIS does not apply):           0.2000000000
 Special mix parameter for the first cycle:          1.0000000000


 DIIS (Direct Inversion in Iteration Space)
    Replace damping when SCF Error is below:         0.5000000000
    Apply anyway after SCF cycle:
                                                     5
    (Max.) nr. of expansion vectors:                10

    Upperbound on expansion coefficients:            5.0000000000
    (when exceeded, IterationSpace is re-built)
    2nd Upperbound on coefficients:                 25.0000000000
    (when exceeded, simple damping will be used)
 Automatic ElectronSmearing (in case of problematic SCF convergence) disabled



 =================
 P R E C I S I O N  ***  (General: NumInt, NeglectFunctionTails, ...)  ***
 =================


 NumInt:           Target precision:                10.0000000000
 -------           Initial precision:               10.0000000000
                   Min. precision (optimization):   10.0000000000

 Neglect Functions:          Basis functions:        0.1000000000E-11
 ------------------          Fit functions:          0.1000000000E-11



 ===========================
 L I N E A R   S C A L I N G
 ===========================


 Cut-off radii density fit:                        0.1000000000E-13
 Overlap cut-off criterion AO matrix elements:     0.1000000000E-11
 Cut-offs for Coulomb potential and fitted density:0.1000000000E-13
 Cut-off criterion for Coulomb multipole terms:    0.1000000000E-13
 Progressive Convergence parameter:                 0.000000000
1
 ***************************************************************************************************



                                            ***************************
                                            *  C O M P U T A T I O N  *
                                            ***************************


 Number of elements of the density matrix on this node (used, total):        21        21



 ===========================================
 Numerical Integration : Fuzzy Cells (Becke)
 ===========================================

 Becke grid quality: VERYGOOD

 Lebedev angular grid order:             min:  13 max:  41
 Nr. of radial points:                   min:  64 max:  64

 Total nr. of points:         64
 Nr. of blocks:                1
 Block length:                64
 Nr. of dummy points:          0


 Test of Precision of the Numerical Integration Grid
 ===================================================

 Integral of the Total Core Density:                   0.00000000000000



 ========================
 Density Fitting (zlmFit)
 ========================

 ZlmFit Fit Quality: VERYGOOD

 Max L-expansion:                        min:   0 max:   0
 Nr. of radial interpolation points:     min: 120 max: 120



 =====
 S C F
 =====


 CYCLE    1
 orbitals (Q,E):
 ---------------
 S :1...3            ( 1.00    -0.5000)  ( 0.00    -0.0900)  ( 0.00     1.2939)
 P :1...1            ( 0.00     0.1562)

 CYCLE    2
 d-Pmat  mean:  0.17E+00
 imax=      2: -0.95E+00
 orbitals (Q,E):
 ---------------
 S :1...2            ( 1.00    -0.2117)  ( 0.00     0.1099)
 P :1...1            ( 0.00     0.4210)

 CYCLE    3
 d-Pmat  mean:  0.20E-01
 imax=      2:  0.81E-01
 orbitals (Q,E):
 ---------------
 S :1...2            ( 1.00    -0.2329)  ( 0.00     0.0953)
 P :1...1            ( 0.00     0.4035)

 CYCLE    4
 d-Pmat  mean:  0.31E-03
 imax=      2: -0.14E-02
 orbitals (Q,E):
 ---------------
 S :1...2            ( 1.00    -0.2335)  ( 0.00     0.0945)
 P :1...1            ( 0.00     0.4030)

 CYCLE    5
 d-Pmat  mean:  0.46E-04
 imax=      2:  0.20E-03
 orbitals (Q,E):
 ---------------
 S :1...2            ( 1.00    -0.2335)  ( 0.00     0.0945)
 P :1...1            ( 0.00     0.4030)

 CYCLE    6
 d-Pmat  mean:  0.83E-07
 imax=      2:  0.37E-06
 orbitals (Q,E):
 ---------------
 S :1...2            ( 1.00    -0.2335)  ( 0.00     0.0945)
 P :1...1            ( 0.00     0.4030)

 CYCLE    7
 d-Pmat  mean:  0.94E-12
 imax=      2:  0.38E-11
 orbitals (Q,E):
 ---------------
 S :1...2            ( 1.00    -0.2335)  ( 0.00     0.0945)
 P :1...1            ( 0.00     0.4030)

 SCF CONVERGED

 CYCLE    8
1
 ***************************************************************************************************



                                                *******************
                                                *  R E S U L T S  *
                                                *******************

 *** Setting up for NEW gradients in focky
 *** Using FIT density in focky

 Orbital Energies, per Irrep and Spin:
 ======================================
                        Occup              E (au)              E (eV)       Diff (eV) with prev. cycle
                        -----      --------------------        ------       --------------------------
 S
               1        1.000     -0.23346375506902E+00        -6.353               7.29E-12
               2        0.000      0.94533034612281E-01         2.572
               3        0.000      0.15475827225322E+01        42.112
 P
               1        0.000      0.40302624558127E+00        10.967


 Partially Occupied:
               1 S                -0.23346375506902E+00

 LUMO :        2 S                 0.94533034612281E-01



 Orbital Energies, all Irreps
 ========================================

 Irrep        no.  (spin)   Occup              E (au)                E (eV)
 ---------------------------------------------------------------------------
 S             1             1.00       -0.23346375506902E+00        -6.3529
 S             2             0.00        0.94533034612281E-01         2.5724
 P             1             0.00        0.40302624558127E+00        10.9669
 S             3             0.00        0.15475827225322E+01        42.1119


 All Electron Calculation, thus no Orbital Energies of the Core Orbitals are calculated



 =======================================
 M U L L I K E N   P O P U L A T I O N S
 =======================================

 The survey below gives for each atom:
 a) the total charge (Z minus electrons)
 b) the net spin polarization (nr of electrons spin-A minus spin-B)
 c) for each spin the atomic electron valence density (integrated) per L-value.

 Atom              Charge    Spin density          S         P         D         F
 ----              ------    ------------       ------    ------    ------    ------
 1 H               0.0000                       1.0000    0.0000    0.0000    0.0000

 Populations of individual BAS functions
 ----------------------------------------
 1 H            0.2548  0.6549  0.0903  0.0000  0.0000  0.0000

 Gross Charges per Atom (Z minus electrons)
 ==========================================
             0.0000
 Net Total:  0.00000000



 ========================================================================
 Electrostatic potential at the Nuclei due to  electrons and other nuclei
 ========================================================================

         Atom                  Potential
         ----                  ---------
     1)   H                   0.92099829


 ========================
 No memory problems found
 ========================

 Maximum number of active allocate calls:         313

 *******************************************************************************

                             A D F   E X I T
 NORMAL TERMINATION



 =================
 Timing Statistics
 =================

 Total Used :                     CPU=        0.32      System=        0.03     Elapsed=        0.42

 Calls  Section                     ( Mean, Percentage )
 ---------------------------------------------------------------------------------------------------
     3  ><      ................      0.00    0.00             0.00    0.00             0.00    0.19
     1  INIT    ................      0.01    3.11             0.01   29.03             0.03    8.02
     1  GEOMET  ................      0.02    5.90             0.00   12.90             0.05   11.88
     1  INPUTA  ................      0.00    0.62             0.00    3.23             0.02    4.20
     1  MAINSY  ................      0.00    0.62             0.00    0.00             0.00    0.81
     1  SYMFIT  ................      0.00    0.31             0.00    0.00             0.00    0.12
     1  CORORT  ................      0.00    0.00             0.00    0.00             0.00    0.06
     1  SYMORB  ................      0.00    0.31             0.00    0.00             0.00    0.12
     1  CLSMAT  ................      0.00    0.31             0.00    3.23             0.00    0.59
     1  ORTHON  ................      0.00    0.31             0.00    0.00             0.00    0.19
     1  GENPT   ................      0.02    6.52             0.00   16.13             0.03    6.18
     1  PTBAS   ................      0.00    0.31             0.00    3.23             0.00    0.41
     8  FOCKY   ................      0.03   65.22             0.00   22.58             0.03   53.72
     8  FOCKTR  ................      0.00    0.00             0.00    0.00             0.00    0.45
     8  FOCKNM  ................      0.00    0.00             0.00    0.00             0.00    0.07
     8  SDIIS   ................      0.00    0.62             0.00    0.00             0.00    0.60
     8  EMERGE  ................      0.00    3.73             0.00    6.45             0.00    2.82
     1  COREPS  ................      0.01    4.35             0.00    0.00             0.01    3.36
     1  POPAN   ................      0.00    0.62             0.00    0.00             0.00    0.43
     1  DEBYE   ................      0.00    0.31             0.00    0.00             0.00    0.09
     1  EXIT PROCEDURE .........      0.02    6.83             0.00    3.22             0.02    5.68


 Currently Open Files (EXIT00)
 ====================

 Unit    Access Format  Status   Type       Ident (file)
 -------------------------------------------------------
   3      SEQ    FORM   TRANSP  NORMAL      LOGFILE
                                          ( logfile )


 Buffered I/O statistics
 =======================
 Memory available:                     67108864
 Number of records fitting in memory:     16131
 Input :   2.1% of                         1844  *4k bytes
 Output:  10.9% of                         1292  *4k bytes
 Records from serial files evicted:           0
                    others evicted:           0
 Hash table lookups:       8534 with          0 conflicts (  0.00%)

 ***************************************************************************************************
 (LOGFILE)
 <Dec01-2015> <12:40:35>  ADF 2014  RunTime: Dec01-2015 12:40:35  Nodes: 1  Procs: 1
 <Dec01-2015> <12:40:35>  Hydrogen (TZP)
 <Dec01-2015> <12:40:35>  RunType   : CREATE
 <Dec01-2015> <12:40:36>  Net Charge: 0 (Nuclei minus Electrons)
 <Dec01-2015> <12:40:36>  Symmetry  : ATOM
  Coordinates
    Atom         X           Y           Z   (Angstrom)
    1.H         0.000000    0.000000    0.000000
 <Dec01-2015> <12:40:36>  >>>> CORORT
 <Dec01-2015> <12:40:36>  >>>> CLSMAT
 <Dec01-2015> <12:40:36>  >>>> ORTHON
 <Dec01-2015> <12:40:36>  >>>> GENPT
 <Dec01-2015> <12:40:36>  Block Length=  64
 <Dec01-2015> <12:40:36>  >>>> PTBAS
 <Dec01-2015> <12:40:36>  >>>> CYCLE
 <Dec01-2015> <12:40:36>    1
 <Dec01-2015> <12:40:36>    2  ErrMat   0.04599043  MaxEl -0.04581380
 <Dec01-2015> <12:40:36>    3  ErrMat   0.01042691  MaxEl  0.01001652
 <Dec01-2015> <12:40:36>    4  ErrMat   0.00029286  MaxEl  0.00021096
 <Dec01-2015> <12:40:36>    5  ErrMat   0.00000895  MaxEl  0.00000721
 <Dec01-2015> <12:40:36>    6  ErrMat   0.00000002  MaxEl -0.00000002
 <Dec01-2015> <12:40:36>    7  ErrMat   0.00000000  MaxEl  0.00000000
 <Dec01-2015> <12:40:36>  SCF converged
 <Dec01-2015> <12:40:36>    8  ErrMat   0.00000000  MaxEl  0.00000000
 <Dec01-2015> <12:40:36>   Solutions with partially occupied orbitals may not be
 <Dec01-2015> <12:40:36>   lowest in energy. You might consider lowering the
 <Dec01-2015> <12:40:36>   symmetry in the input and explicitly specifying integer
 <Dec01-2015> <12:40:36>   occupations. In that case always check that you obtain
 <Dec01-2015> <12:40:36>   an aufbau solution.
 <Dec01-2015> <12:40:36>  >>>> POPAN
 <Dec01-2015> <12:40:36>  >>>> DEBYE
 <Dec01-2015> <12:40:36>  NORMAL TERMINATION
 <Dec01-2015> <12:40:36>  END

Create O   file=/home/scicons/adf2014.04/atomicdata/TZP/O.1s
End Input

 *******************************************************************************
 *                                                                             *
 *  -------------------------------------                                      *
 *   Amsterdam Density Functional  (ADF)         2014                          *
 *  -------------------------------------                                      *
 *                                               r44409 2014-10-25             *
 *                                                                             *
 *                                                                             *
 *                              =================                              *
 *                              |               |                              *
 *                              |     A D F     |                              *
 *                              |               |                              *
 *                              =================                              *
 *                                                                             *
 *                                                                             *
 *   Online information and documentation:  http://www.scm.com                 *
 *   E-mail:  support@scm.com   info@scm.com                                   *
 *                                                                             *
 *   Scientific publications using ADF results must be properly referenced     *
 *   See the User Manuals (or the web site) for recommended citations          *
 *   The terms and conditions of the End User License Agreement apply to       *
 *   the use of ADF, http://www.scm.com/Sales/LicAgreement.html                *
 *                                                                             *
 **********************  x86_64_linux_intel / intelmpi  ************************

 Licensed to: Dr. Yi-lei Wang / Dep. Chemistry, Tsinghua Univ. / Beijing / CHINA
 SCM User ID: u16688

 ADF 2014  RunTime: Dec01-2015 12:40:36  Nodes: 1  Procs: 1

 Temporary files are created in /tmp/kid_0.UhKmfe

 Oxygen (TZP, 1s frozen)



 ===========================
 A T T A C H E D   F I L E S
 ===========================

 CREATE - Data File:    /home/scicons/adf2014.04/atomicdata/TZP/O.1s
                        Oxygen (TZP, 1s frozen)



 ===============================
 M O D E L   P A R A M E T E R S
 ===============================

 DENSITY FUNCTIONAL POTENTIAL (scf)
    LDA:                               VWN
    Gradient Corrections:              ---

 SPIN  (restricted / unrestr.)
    Molecule:                          Restricted

 OTHER ASPECTS
    Relativistic Corrections:          ---

    Nuclear Charge Density Model:      Point Charge Nuclei
    Core Treatment:                    Frozen Orbital(s)

    Hyperfine or Zeeman Interaction:   ---



 =====================================
 S Y M M E T R Y ,   E L E C T R O N S
 =====================================

 Symmetry: ATOM

 Irreducible Representations, including subspecies
 -------------------------------------------------
 S
 P:x  P:y  P:z
 D:z2  D:x2-y2  D:xy  D:xz  D:yz
 F:z3  F:z  F:xyz  F:z2x  F:z2y  F:x  F:y


 Configuration of Valence Electrons
 ==================================

          Occupation Numbers
          -------------------------------------------------
 S        2
 P        4
 D        0
 F        0
          -------------------------------------------------

 Total:   6

 Net Charge: 0 (Nuclei minus Electrons)

 Preset values for MO occupations will be applied through SCF cycle no. 1000000
 Thereafter, the program will assign electrons to MOs that are spatially
 similar to the occupied MOs in a "reference" cycle ("KeepOrbitals").
 The reference cycle is always the PREVIOUS cycle: it will evolve with
 the SCF procedure.



 ================================
 (Slater-type)  F U N C T I O N S  ***  (Basis and Fit)  ***
 ================================


 Atom Type    1  (O)
 ==============

 Valence Basis Sets:   8
 -----------------------
   1 S    7.360000
   2 S    1.720000
   2 S    2.880000
   2 S    7.580000
   2 P    1.120000
   2 P    2.080000
   2 P    4.080000
   3 D    2.000000

 Frozen Core Shells
 ------------------
    S:  1


 BAS: List of all Elementary Cartesian Basis Functions
 =====================================================

 The numbering in the list below (to the right of the function characteristics) is referred
 to in print-outs of MO eigenvectors and Mulliken populations in the BAS representation
 (as contrasted to the SFO representation).

 Notes:
 1. The functions are characterized by a polynomial prefactor (powers of x,y,z and r) and
    an exponential decay factor alpha.
 2. Since the basis sets are specific for an atom TYPE, the individual functions occur on
    all atoms of that type.
 3. The word 'Core' in the left margin signals that it is a Core Function (CF) : not a
    degree of freedom in the valence set, but only used to ensure orthogonalization of
    the other valence basis functions on the frozen Core Orbitals.


 (power of) X  Y  Z  R     Alpha  on Atom
            ==========     =====     ==========

 O                                    1
                                  ---------------------------------------------------------------------------
    Core    0  0  0  0     7.360      1
            0  0  0  1     1.720      2
            0  0  0  1     2.880      3
            0  0  0  1     7.580      4
            1  0  0  0     1.120      5
            0  1  0  0     1.120      6
            0  0  1  0     1.120      7
            1  0  0  0     2.080      8
            0  1  0  0     2.080      9
            0  0  1  0     2.080     10
            1  0  0  0     4.080     11
            0  1  0  0     4.080     12
            0  0  1  0     4.080     13
            2  0  0  0     2.000     14
            1  1  0  0     2.000     15
            1  0  1  0     2.000     16
            0  2  0  0     2.000     17
            0  1  1  0     2.000     18
            0  0  2  0     2.000     19

 Total number of charge fitting functions (nprimf)        82
 Total number of Cartesian basis functions (naos)         19
 Total number of Cartesian core functions  (ncos)          1



 BAS: List of all Elementary Cartesian Basis Functions
 =====================================================

 The numbering in the list below (to the right of the function characteristics) is referred
 to in print-outs of MO eigenvectors and Mulliken populations in the BAS representation
 (as contrasted to the SFO representation).

 Notes:
 1. The functions are characterized by a polynomial prefactor (powers of x,y,z and r) and
    an exponential decay factor alpha.
 2. Since the basis sets are specific for an atom TYPE, the individual functions occur on
    all atoms of that type.
 3. The word 'Core' in the left margin signals that it is a Core Function (CF) : not a
    degree of freedom in the valence set, but only used to ensure orthogonalization of
    the other valence basis functions on the frozen Core Orbitals.


 (power of) X  Y  Z  R     Alpha  on Atom
            ==========     =====     ==========

 O                                    1
                                  ---------------------------------------------------------------------------
    Core    0  0  0  0     7.360      1
            0  0  0  1     1.720      2
            0  0  0  1     2.880      3
            0  0  0  1     7.580      4
            1  0  0  0     1.120      5
            0  1  0  0     1.120      6
            0  0  1  0     1.120      7
            1  0  0  0     2.080      8
            0  1  0  0     2.080      9
            0  0  1  0     2.080     10
            1  0  0  0     4.080     11
            0  1  0  0     4.080     12
            0  0  1  0     4.080     13
            2  0  0  0     2.000     14
            1  1  0  0     2.000     15
            1  0  1  0     2.000     16
            0  2  0  0     2.000     17
            0  1  1  0     2.000     18
            0  0  2  0     2.000     19
1
 ***************************************************************************************************



                                              ***********************
                                              *  T E C H N I C A L  *
                                              ***********************




 =============================================================
 P A R A L L E L I Z A T I O N  and  V E C T O R I Z A T I O N
 =============================================================

 Nr of parallel processes:                                1
 Maximum vector length in NumInt loops:                 128



 ===============
 I O  vs.  C P U  ***  (store numerical data on disk or recalculate)  ***
 ===============

 Basis functions:   recalculate when needed
 Fit functions:     recalculate when needed

 IO buffersize (Mb):                                     64.000000



 =====================
 S C F   U P D A T E S
 =====================

 Max. nr. of cycles:                               300
 Convergence criterion:                              0.0000000100
   secondary criterion:                              0.0000000100

 Mix parameter (when DIIS does not apply):           0.2000000000
 Special mix parameter for the first cycle:          1.0000000000


 DIIS (Direct Inversion in Iteration Space)
    Replace damping when SCF Error is below:         0.5000000000
    Apply anyway after SCF cycle:
                                                     5
    (Max.) nr. of expansion vectors:                10

    Upperbound on expansion coefficients:            5.0000000000
    (when exceeded, IterationSpace is re-built)
    2nd Upperbound on coefficients:                 25.0000000000
    (when exceeded, simple damping will be used)
 Automatic ElectronSmearing (in case of problematic SCF convergence) disabled



 =================
 P R E C I S I O N  ***  (General: NumInt, NeglectFunctionTails, ...)  ***
 =================


 NumInt:           Target precision:                10.0000000000
 -------           Initial precision:               10.0000000000
                   Min. precision (optimization):   10.0000000000

 Neglect Functions:          Basis functions:        0.1000000000E-11
 ------------------          Fit functions:          0.1000000000E-11



 ===========================
 L I N E A R   S C A L I N G
 ===========================


 Cut-off radii density fit:                        0.1000000000E-13
 Overlap cut-off criterion AO matrix elements:     0.1000000000E-11
 Cut-offs for Coulomb potential and fitted density:0.1000000000E-13
 Cut-off criterion for Coulomb multipole terms:    0.1000000000E-13
 Progressive Convergence parameter:                 0.000000000
1
 ***************************************************************************************************



                                            ***************************
                                            *  C O M P U T A T I O N  *
                                            ***************************


 Number of elements of the density matrix on this node (used, total):       190       190



 ===========================================
 Numerical Integration : Fuzzy Cells (Becke)
 ===========================================

 Becke grid quality: VERYGOOD

 Lebedev angular grid order:             min:  13 max:  41
 Nr. of radial points:                   min:  68 max:  68

 Total nr. of points:         68
 Nr. of blocks:                1
 Block length:                68
 Nr. of dummy points:          0


 Test of Precision of the Numerical Integration Grid
 ===================================================

 Integral of the Total Core Density:                   1.99999999978657
 Relative Error:                                      -1.067E-10



 ========================
 Density Fitting (zlmFit)
 ========================

 ZlmFit Fit Quality: VERYGOOD

 Max L-expansion:                        min:   0 max:   0
 Nr. of radial interpolation points:     min: 140 max: 140



 =====
 S C F
 =====


 CYCLE    1
 orbitals (Q,E):
 ---------------
 S :1...3            ( 2.00    -5.2900)  ( 0.00    -2.1898)  ( 0.00    24.1402)
 P :1...3            ( 4.00    -4.9421)  ( 0.00    -2.0085)  ( 0.00    -0.3641)
 D :1...1            ( 0.00    -2.0326)

 CYCLE    2
 d-Pmat  mean:  0.67E+00
 imax=      3: -0.31E+01
 orbitals (Q,E):
 ---------------
 S :1...2            ( 2.00    -0.1567)  ( 0.00     1.7136)
 P :1...2            ( 4.00     0.1919)  ( 0.00     0.9552)
 D :1...1            ( 0.00     1.4643)

 CYCLE    3
 d-Pmat  mean:  0.20E+00
 imax=      7: -0.90E+00
 orbitals (Q,E):
 ---------------
 S :1...2            ( 2.00    -0.4794)  ( 0.00     1.3185)
 P :1...2            ( 4.00     0.0001)  ( 0.00     0.6230)
 D :1...1            ( 0.00     1.2484)

 CYCLE    4
 d-Pmat  mean:  0.14E+00
 imax=      7: -0.49E+00
 orbitals (Q,E):
 ---------------
 S :1...2            ( 2.00    -0.6828)  ( 0.00     1.1073)
 P :1...2            ( 4.00    -0.1578)  ( 0.00     0.4688)
 D :1...1            ( 0.00     1.1310)

 CYCLE    5
 d-Pmat  mean:  0.13E+00
 imax=      2: -0.38E+00
 orbitals (Q,E):
 ---------------
 S :1...2            ( 2.00    -0.8726)  ( 0.00     0.9074)
 P :1...2            ( 4.00    -0.3393)  ( 0.00     0.3489)
 D :1...1            ( 0.00     1.0599)

 CYCLE    6
 d-Pmat  mean:  0.61E-03
 imax=      3:  0.28E-02
 orbitals (Q,E):
 ---------------
 S :1...2            ( 2.00    -0.8739)  ( 0.00     0.9043)
 P :1...2            ( 4.00    -0.3410)  ( 0.00     0.3470)
 D :1...1            ( 0.00     1.0590)

 CYCLE    7
 d-Pmat  mean:  0.25E-04
 imax=     10: -0.96E-04
 orbitals (Q,E):
 ---------------
 S :1...2            ( 2.00    -0.8739)  ( 0.00     0.9043)
 P :1...2            ( 4.00    -0.3410)  ( 0.00     0.3470)
 D :1...1            ( 0.00     1.0590)

 CYCLE    8
 d-Pmat  mean:  0.23E-05
 imax=      3:  0.79E-05
 orbitals (Q,E):
 ---------------
 S :1...2            ( 2.00    -0.8739)  ( 0.00     0.9043)
 P :1...2            ( 4.00    -0.3410)  ( 0.00     0.3470)
 D :1...1            ( 0.00     1.0590)

 CYCLE    9
 d-Pmat  mean:  0.17E-07
 imax=     10: -0.63E-07
 orbitals (Q,E):
 ---------------
 S :1...2            ( 2.00    -0.8739)  ( 0.00     0.9043)
 P :1...2            ( 4.00    -0.3410)  ( 0.00     0.3470)
 D :1...1            ( 0.00     1.0590)

 CYCLE   10
 d-Pmat  mean:  0.70E-12
 imax=      3:  0.27E-11
 orbitals (Q,E):
 ---------------
 S :1...2            ( 2.00    -0.8739)  ( 0.00     0.9043)
 P :1...2            ( 4.00    -0.3410)  ( 0.00     0.3470)
 D :1...1            ( 0.00     1.0590)

 SCF CONVERGED

 CYCLE   11
1
 ***************************************************************************************************



                                                *******************
                                                *  R E S U L T S  *
                                                *******************

 *** Setting up for NEW gradients in focky
 *** Using FIT density in focky

 Orbital Energies, per Irrep and Spin:
 ======================================
                        Occup              E (au)              E (eV)       Diff (eV) with prev. cycle
                        -----      --------------------        ------       --------------------------
 S
               1        2.000     -0.87386026378650E+00       -23.779              -3.08E-13
               2        0.000      0.90428870329182E+00        24.607
               3        0.000      0.30016702675000E+02       816.796
 P
               1        4.000     -0.34099223792974E+00        -9.279              -2.98E-13
               2        0.000      0.34696711569990E+00         9.441
               3        0.000      0.38163022983029E+01       103.847
 D
               1        0.000      0.10590390744841E+01        28.818


 Partially Occupied:
               1 P                -0.34099223792974E+00

 HOMO :        1 S                -0.87386026378650E+00
 LUMO :        2 P                 0.34696711569990E+00



 Orbital Energies, all Irreps
 ========================================

 Irrep        no.  (spin)   Occup              E (au)                E (eV)
 ---------------------------------------------------------------------------
 S             1             2.00       -0.87386026378650E+00       -23.7789
 P             1             4.00       -0.34099223792974E+00        -9.2789
 P             2             0.00        0.34696711569990E+00         9.4415
 S             2             0.00        0.90428870329182E+00        24.6069
 D             1             0.00        0.10590390744841E+01        28.8179
 P             3             0.00        0.38163022983029E+01       103.8469
 S             3             0.00        0.30016702675000E+02       816.7960


 Orbital Energies of the Core Orbitals:
 ======================================
 (Note that the atoms are grouped by atomtype, see the labels, and may hence NOT be in input order)

 AtomType  Orbital  Atom                   E (au)                        E (eV)
 --------  -------  ----           --------------------        ----------------
 O           1S        1          -0.18754618670106E+02                -510.339



 =======================================
 M U L L I K E N   P O P U L A T I O N S
 =======================================

 The survey below gives for each atom:
 a) the total charge (Z minus electrons)
 b) the net spin polarization (nr of electrons spin-A minus spin-B)
 c) for each spin the atomic electron valence density (integrated) per L-value.

 Atom              Charge    Spin density          S         P         D         F
 ----              ------    ------------       ------    ------    ------    ------
 1 O               0.0000                       2.0000    4.0000    0.0000    0.0000

 Populations of individual BAS functions
 ----------------------------------------
 1 O            0.0004  0.9515  1.0684 -0.0203  0.3402  0.3402  0.3402  0.7403  0.7403  0.7403
                0.2528  0.2528  0.2528  0.0000  0.0000  0.0000  0.0000  0.0000  0.0000

 Gross Charges per Atom (Z minus electrons)
 ==========================================
             0.0000
 Net Total:  0.00000000



 ========================================================================
 Electrostatic potential at the Nuclei due to  electrons and other nuclei
 ========================================================================

         Atom                  Potential
         ----                  ---------
     1)   O                  22.15773030


 ========================
 No memory problems found
 ========================

 Maximum number of active allocate calls:         386

 *******************************************************************************

                             A D F   E X I T
 NORMAL TERMINATION



 =================
 Timing Statistics
 =================

 Total Used :                     CPU=        0.45      System=        0.05     Elapsed=        0.50

 Calls  Section                     ( Mean, Percentage )
 ---------------------------------------------------------------------------------------------------
     3  ><      ................      0.00    0.00             0.00    2.00             0.00    0.18
     1  INIT    ................      0.01    2.21             0.01   20.00             0.02    3.92
     1  GEOMET  ................      0.01    2.88             0.01   20.00             0.02    4.63
     1  INPUTA  ................      0.00    0.22             0.00    2.00             0.00    0.48
     1  MAINSY  ................      0.00    0.88             0.00    4.00             0.01    1.13
     1  SYMFIT  ................      0.00    0.00             0.00    0.00             0.00    0.11
     1  CORORT  ................      0.00    0.22             0.00    0.00             0.00    0.07
     1  SYMORB  ................      0.00    0.22             0.00    0.00             0.00    0.17
     1  CLSMAT  ................      0.00    0.66             0.00    0.00             0.00    0.67
     1  ORTHON  ................      0.00    0.00             0.00    2.00             0.00    0.25
     1  GENPT   ................      0.02    4.65             0.01   22.00             0.03    6.28
     1  PTBAS   ................      0.00    0.44             0.00    0.00             0.00    0.40
    11  FOCKY   ................      0.03   70.80             0.00   24.00             0.03   66.08
    11  FOCKTR  ................      0.00    0.89             0.00    0.00             0.00    0.63
    11  FOCKNM  ................      0.00    0.22             0.00    0.00             0.00    0.08
    11  SDIIS   ................      0.00    0.66             0.00    0.00             0.00    0.74
    11  EMERGE  ................      0.00    5.09             0.00    4.00             0.00    5.23
     1  COREPS  ................      0.02    4.20             0.00    0.00             0.02    3.63
     1  POPAN   ................      0.00    0.44             0.00    0.00             0.00    0.46
     1  DEBYE   ................      0.00    0.00             0.00    0.00             0.00    0.08
     1  EXIT PROCEDURE .........      0.02    5.31             0.00    0.00             0.02    4.76


 Currently Open Files (EXIT00)
 ====================

 Unit    Access Format  Status   Type       Ident (file)
 -------------------------------------------------------
   3      SEQ    FORM   TRANSP  NORMAL      LOGFILE
                                          ( logfile )


 Buffered I/O statistics
 =======================
 Memory available:                     67108864
 Number of records fitting in memory:     16131
 Input :   1.5% of                         3267  *4k bytes
 Output:   9.0% of                         1838  *4k bytes
 Records from serial files evicted:           0
                    others evicted:           0
 Hash table lookups:      14057 with          0 conflicts (  0.00%)

 ***************************************************************************************************
 (LOGFILE)
 <Dec01-2015> <12:40:35>  ADF 2014  RunTime: Dec01-2015 12:40:35  Nodes: 1  Procs: 1
 <Dec01-2015> <12:40:35>  Hydrogen (TZP)
 <Dec01-2015> <12:40:35>  RunType   : CREATE
 <Dec01-2015> <12:40:36>  Net Charge: 0 (Nuclei minus Electrons)
 <Dec01-2015> <12:40:36>  Symmetry  : ATOM
  Coordinates
    Atom         X           Y           Z   (Angstrom)
    1.H         0.000000    0.000000    0.000000
 <Dec01-2015> <12:40:36>  >>>> CORORT
 <Dec01-2015> <12:40:36>  >>>> CLSMAT
 <Dec01-2015> <12:40:36>  >>>> ORTHON
 <Dec01-2015> <12:40:36>  >>>> GENPT
 <Dec01-2015> <12:40:36>  Block Length=  64
 <Dec01-2015> <12:40:36>  >>>> PTBAS
 <Dec01-2015> <12:40:36>  >>>> CYCLE
 <Dec01-2015> <12:40:36>    1
 <Dec01-2015> <12:40:36>    2  ErrMat   0.04599043  MaxEl -0.04581380
 <Dec01-2015> <12:40:36>    3  ErrMat   0.01042691  MaxEl  0.01001652
 <Dec01-2015> <12:40:36>    4  ErrMat   0.00029286  MaxEl  0.00021096
 <Dec01-2015> <12:40:36>    5  ErrMat   0.00000895  MaxEl  0.00000721
 <Dec01-2015> <12:40:36>    6  ErrMat   0.00000002  MaxEl -0.00000002
 <Dec01-2015> <12:40:36>    7  ErrMat   0.00000000  MaxEl  0.00000000
 <Dec01-2015> <12:40:36>  SCF converged
 <Dec01-2015> <12:40:36>    8  ErrMat   0.00000000  MaxEl  0.00000000
 <Dec01-2015> <12:40:36>   Solutions with partially occupied orbitals may not be
 <Dec01-2015> <12:40:36>   lowest in energy. You might consider lowering the
 <Dec01-2015> <12:40:36>   symmetry in the input and explicitly specifying integer
 <Dec01-2015> <12:40:36>   occupations. In that case always check that you obtain
 <Dec01-2015> <12:40:36>   an aufbau solution.
 <Dec01-2015> <12:40:36>  >>>> POPAN
 <Dec01-2015> <12:40:36>  >>>> DEBYE
 <Dec01-2015> <12:40:36>  NORMAL TERMINATION
 <Dec01-2015> <12:40:36>  END
 <Dec01-2015> <12:40:36>  ADF 2014  RunTime: Dec01-2015 12:40:36  Nodes: 1  Procs: 1
 <Dec01-2015> <12:40:36>  Oxygen (TZP, 1s frozen)
 <Dec01-2015> <12:40:36>  RunType   : CREATE
 <Dec01-2015> <12:40:36>  Net Charge: 0 (Nuclei minus Electrons)
 <Dec01-2015> <12:40:36>  Symmetry  : ATOM
  Coordinates
    Atom         X           Y           Z   (Angstrom)
    1.O         0.000000    0.000000    0.000000
 <Dec01-2015> <12:40:36>  >>>> CORORT
 <Dec01-2015> <12:40:36>  >>>> CLSMAT
 <Dec01-2015> <12:40:36>  >>>> ORTHON
 <Dec01-2015> <12:40:36>  >>>> GENPT
 <Dec01-2015> <12:40:36>  Block Length=  68
 <Dec01-2015> <12:40:36>  >>>> PTBAS
 <Dec01-2015> <12:40:36>  >>>> CYCLE
 <Dec01-2015> <12:40:36>    1
 <Dec01-2015> <12:40:36>    2  ErrMat   4.46943367  MaxEl -2.49054595
 <Dec01-2015> <12:40:36>    3  ErrMat   2.71341124  MaxEl  1.77352949
 <Dec01-2015> <12:40:36>    4  ErrMat   2.00819228  MaxEl  1.23046895
 <Dec01-2015> <12:40:36>    5  ErrMat   1.19632776  MaxEl  0.72642199
 <Dec01-2015> <12:40:36>    6  ErrMat   0.01104866  MaxEl  0.00645407
 <Dec01-2015> <12:40:36>    7  ErrMat   0.00011066  MaxEl -0.00004837
 <Dec01-2015> <12:40:36>    8  ErrMat   0.00001879  MaxEl  0.00000962
 <Dec01-2015> <12:40:36>    9  ErrMat   0.00000011  MaxEl -0.00000007
 <Dec01-2015> <12:40:36>   10  ErrMat   0.00000000  MaxEl  0.00000000
 <Dec01-2015> <12:40:36>  SCF converged
 <Dec01-2015> <12:40:36>   11  ErrMat   0.00000000  MaxEl  0.00000000
 <Dec01-2015> <12:40:36>   Solutions with partially occupied orbitals may not be
 <Dec01-2015> <12:40:36>   lowest in energy. You might consider lowering the
 <Dec01-2015> <12:40:36>   symmetry in the input and explicitly specifying integer
 <Dec01-2015> <12:40:36>   occupations. In that case always check that you obtain
 <Dec01-2015> <12:40:36>   an aufbau solution.
 <Dec01-2015> <12:40:36>  >>>> POPAN
 <Dec01-2015> <12:40:36>  >>>> DEBYE
 <Dec01-2015> <12:40:36>  NORMAL TERMINATION
 <Dec01-2015> <12:40:36>  END


 Parallel Execution: Process Information
 ==============================================================================
 Rank   Node Name                              NodeID   MyNodeRank  NodeMaster
    0   mu01.local                                0          0          0
    1   mu01.local                                0          1         -1
    2   mu01.local                                0          2         -1
    3   mu01.local                                0          3         -1
    4   mu01.local                                0          4         -1
    5   mu01.local                                0          5         -1
    6   mu01.local                                0          6         -1
    7   mu01.local                                0          7         -1
 ==============================================================================



Title WATER

Atoms
O             0.000000     0.000000     0.000000
H             0.000000    -0.689440    -0.578509
H             0.000000     0.689440    -0.578509
End


Geometry
optim all
End

AnalyticalFreq
End

Fragments
H t21.H
O t21.O
End
end input

 *******************************************************************************
 *                                                                             *
 *  -------------------------------------                                      *
 *   Amsterdam Density Functional  (ADF)         2014                          *
 *  -------------------------------------                                      *
 *                                               r44409 2014-10-25             *
 *                                                                             *
 *                                                                             *
 *                              =================                              *
 *                              |               |                              *
 *                              |     A D F     |                              *
 *                              |               |                              *
 *                              =================                              *
 *                                                                             *
 *                                                                             *
 *   Online information and documentation:  http://www.scm.com                 *
 *   E-mail:  support@scm.com   info@scm.com                                   *
 *                                                                             *
 *   Scientific publications using ADF results must be properly referenced     *
 *   See the User Manuals (or the web site) for recommended citations          *
 *   The terms and conditions of the End User License Agreement apply to       *
 *   the use of ADF, http://www.scm.com/Sales/LicAgreement.html                *
 *                                                                             *
 **********************  x86_64_linux_intel / intelmpi  ************************

 Licensed to: Dr. Yi-lei Wang / Dep. Chemistry, Tsinghua Univ. / Beijing / CHINA
 SCM User ID: u16688

 ADF 2014  RunTime: Dec01-2015 12:40:37  Nodes: 1  Procs: 8

 Temporary files are created in /tmp/kid_0.RT7Cgy


Communication costs MPI_COMM_WORLD:      2.781 usec per message,   0.0099 usec per 8-byte item
Communication costs for intra-node:      2.771 usec per message,   0.0095 usec per 8-byte item

 WATER



 ===========================
 A T T A C H E D   F I L E S
 ===========================




 ===============================
 M O D E L   P A R A M E T E R S
 ===============================

 DENSITY FUNCTIONAL POTENTIAL (scf)
    LDA:                               VWN
    Gradient Corrections:              ---

 SPIN  (restricted / unrestr.)
    Molecule:                          Restricted
    Fragments:                         Restricted

 OTHER ASPECTS
    Relativistic Corrections:          ---

    Nuclear Charge Density Model:      Point Charge Nuclei
    Core Treatment:                    Frozen Orbital(s)

    Hyperfine or Zeeman Interaction:   ---


 Fragment File(s)
 ----------------
 O:
         file : t21.O
         jobid: ADF 2014  RunTime: Dec01-2015 12:40:36  Nodes: 1  Procs: 1
         title: Oxygen (TZP, 1s frozen)
 H:
         file : t21.H
         jobid: ADF 2014  RunTime: Dec01-2015 12:40:35  Nodes: 1  Procs: 1
         title: Hydrogen (TZP)



                                   *********************************************
                                   *  R U N   T Y P E : GEOMETRY OPTIMIZATION  *
                                   *********************************************




 ===============
 G E O M E T R Y  ***  Planar Molecule  ***
 ===============


 ATOMS
 =====                            X Y Z                    CHARGE
                                (Angstrom)             Nucl     +Core       At.Mass
                       --------------------------    ----------------       -------
    1  O               0.0000    0.0000    0.0000      8.00      6.00       15.9949
    2  H               0.0000   -0.6894   -0.5785      1.00      1.00        1.0078
    3  H               0.0000    0.6894   -0.5785      1.00      1.00        1.0078


 FRAGMENTS
 =========                                     Atoms in this Fragment     Cart. coord.s (Angstrom)
                                               -------------------------------------------------------
    1  O                                                 1  O            0.0000    0.0000    0.0000
    2  H                                                 2  H            0.0000   -0.6894   -0.5785
    3  H                                                 3  H            0.0000    0.6894   -0.5785


 Interatomic Distance Matrix (Angstrom)
 --------------------------------------

   1)     0.000
   2)     0.900   0.000
   3)     0.900   1.379   0.000

 Min. Distance =    0.9000
 Max. Distance =    1.3789



 =====================================
 S Y M M E T R Y ,   E L E C T R O N S
 =====================================

 Symmetry: C(2V)

 Irreducible Representations, including subspecies
 -------------------------------------------------
 A1
 A2
 B1
 B2


 Configuration of Valence Electrons
 ==================================
 ( determined in the SCF procedure )

 Total:   8

 Net Charge: 0 (Nuclei minus Electrons)

 Aufbau principle for MO occupations will be applied through SCF cycle no.      30
 Thereafter, the program will assign electrons to MOs that are spatially
 similar to the occupied MOs in a "reference" cycle ("KeepOrbitals").
 The reference cycle is always the PREVIOUS cycle: it will evolve with
 the SCF procedure.
1
 ***************************************************************************************************



                                      ****************************************
                                      *  B U I L D : (Fragments, Functions)  *
                                      ****************************************




 =======
 S F O s  ***  (Symmetrized Fragment Orbitals)  ***
 =======

 SFOs are linear combinations of (valence) Fragment Orbitals (FOs), such that the SFOs transform as the
 irreducible representations of the (molecular) symmetry group. Each SFO is therefore characterized by
 an irrep of the molecule and by a few (or only one) generating FOs.
 The SFOs constitute a symmetry-adapted basis for the Fock matrix. The MO eigenvector coefficients in
 this basis provide a direct interpretation of the MOs in terms of Frontier Orbital Theory.

 The SFOs are combined with auxiliary Core Functions (CFs) to ensure orthogonalization on the (frozen)
 Core Orbitals (COs). The Core-orthogonalized SFOs (CSFOs) constitute the true Fock basis.

 The FOs, and hence also the (C)SFOs are combinations of the elementary basis functions (BAS). The basis
 functions that participate in the description of the SFOs depend on the irrep. The indices of the
 involved functions are printed below for each irrep.
 (The complete list of primitive basis functions is printed in another section)

 Total nr. of (C)SFOs (summation over all irreps) :    29

 NOTE: a (C)SFO that is defined as a combination of more than one FO is usually NOT normalized.



                                       === A1 ===
 Nr. of SFOs :   13
 Cartesian basis functions that participate in this irrep (total number =    20) :
      1     2     3     4     7    10    13    19    14    17
     20    26    21    27    22    28    25    31    24    30

    SFO  (index         Fragment          Generating    Expansion in Fragment Orbitals
  indx  incl.CFs)   Occup   Orb.Energy   FragmentType  Coeff.   Orbital     on Fragment
 --------------------------------------------------------------------------------------
     1       2      2.000      -0.874 au  O             1.00      1 S               1
                        (     -23.779 eV)
     2       3       --         0.904 au  O             1.00      2 S               1
                        (      24.607 eV)
     3       4       --        30.017 au  O             1.00      3 S               1
                        (     816.796 eV)
     4       5      1.333      -0.341 au  O             1.00      1 P:z             1
                        (      -9.279 eV)
     5       6       --         0.347 au  O             1.00      2 P:z             1
                        (       9.441 eV)
     6       7       --         3.816 au  O             1.00      3 P:z             1
                        (     103.847 eV)
     7       8       --         1.059 au  O             1.00      1 D:z2            1
                        (      28.818 eV)
     8       9       --         1.059 au  O             1.00      1 D:x2-y2         1
                        (      28.818 eV)
     9      10      1.000      -0.233 au  H             0.71      1 S               2
                        (      -6.353 eV)               0.71      1 S               3
    10      11       --         0.095 au  H             0.71      2 S               2
                        (       2.572 eV)               0.71      2 S               3
    11      12       --         1.548 au  H             0.71      3 S               2
                        (      42.112 eV)               0.71      3 S               3
    12      13       --         0.403 au  H             0.71      1 P:y             2
                        (      10.967 eV)              -0.71      1 P:y             3
    13      14       --         0.403 au  H             0.71      1 P:z             2
                        (      10.967 eV)               0.71      1 P:z             3



                                       === A2 ===
 Nr. of SFOs :    2
 Cartesian basis functions that participate in this irrep (total number =     3) :
     15    23    29

    SFO  (index         Fragment          Generating    Expansion in Fragment Orbitals
  indx  incl.CFs)   Occup   Orb.Energy   FragmentType  Coeff.   Orbital     on Fragment
 --------------------------------------------------------------------------------------
     1       1       --         1.059 au  O             1.00      1 D:xy            1
                        (      28.818 eV)
     2       2       --         0.403 au  H             0.71      1 P:x             2
                        (      10.967 eV)              -0.71      1 P:x             3



                                       === B1 ===
 Nr. of SFOs :    5
 Cartesian basis functions that participate in this irrep (total number =     6) :
      5     8    11    16    23    29

    SFO  (index         Fragment          Generating    Expansion in Fragment Orbitals
  indx  incl.CFs)   Occup   Orb.Energy   FragmentType  Coeff.   Orbital     on Fragment
 --------------------------------------------------------------------------------------
     1       1      1.333      -0.341 au  O             1.00      1 P:x             1
                        (      -9.279 eV)
     2       2       --         0.347 au  O             1.00      2 P:x             1
                        (       9.441 eV)
     3       3       --         3.816 au  O             1.00      3 P:x             1
                        (     103.847 eV)
     4       4       --         1.059 au  O             1.00      1 D:xz            1
                        (      28.818 eV)
     5       5       --         0.403 au  H             0.71      1 P:x             2
                        (      10.967 eV)               0.71      1 P:x             3



                                       === B2 ===
 Nr. of SFOs :    9
 Cartesian basis functions that participate in this irrep (total number =    14) :
      6     9    12    18    20    26    21    27    22    28
     25    31    24    30

    SFO  (index         Fragment          Generating    Expansion in Fragment Orbitals
  indx  incl.CFs)   Occup   Orb.Energy   FragmentType  Coeff.   Orbital     on Fragment
 --------------------------------------------------------------------------------------
     1       1      1.333      -0.341 au  O             1.00      1 P:y             1
                        (      -9.279 eV)
     2       2       --         0.347 au  O             1.00      2 P:y             1
                        (       9.441 eV)
     3       3       --         3.816 au  O             1.00      3 P:y             1
                        (     103.847 eV)
     4       4       --         1.059 au  O             1.00      1 D:yz            1
                        (      28.818 eV)
     5       5      1.000      -0.233 au  H             0.71      1 S               2
                        (      -6.353 eV)              -0.71      1 S               3
     6       6       --         0.095 au  H             0.71      2 S               2
                        (       2.572 eV)              -0.71      2 S               3
     7       7       --         1.548 au  H             0.71      3 S               2
                        (      42.112 eV)              -0.71      3 S               3
     8       8       --         0.403 au  H             0.71      1 P:y             2
                        (      10.967 eV)               0.71      1 P:y             3
     9       9       --         0.403 au  H             0.71      1 P:z             2
                        (      10.967 eV)              -0.71      1 P:z             3



 ================================
 (Slater-type)  F U N C T I O N S  ***  (Basis and Fit)  ***
 ================================


 Atom Type    1  (O)
 ==============

 Valence Basis Sets:   8
 -----------------------
   1 S    7.360000
   2 S    1.720000
   2 S    2.880000
   2 S    7.580000
   2 P    1.120000
   2 P    2.080000
   2 P    4.080000
   3 D    2.000000

 Frozen Core Shells
 ------------------
    S:  1

 Atom Type    2  (H)
 ==============

 Valence Basis Sets:   4
 -----------------------
   1 S    0.690000
   1 S    0.920000
   1 S    1.580000
   2 P    1.250000


 BAS: List of all Elementary Cartesian Basis Functions
 =====================================================

 The numbering in the list below (to the right of the function characteristics) is referred
 to in print-outs of MO eigenvectors and Mulliken populations in the BAS representation
 (as contrasted to the SFO representation).

 Notes:
 1. The functions are characterized by a polynomial prefactor (powers of x,y,z and r) and
    an exponential decay factor alpha.
 2. Since the basis sets are specific for an atom TYPE, the individual functions occur on
    all atoms of that type.
 3. The word 'Core' in the left margin signals that it is a Core Function (CF) : not a
    degree of freedom in the valence set, but only used to ensure orthogonalization of
    the other valence basis functions on the frozen Core Orbitals.


 (power of) X  Y  Z  R     Alpha  on Atom
            ==========     =====     ==========

 O                                    1
                                  ---------------------------------------------------------------------------
    Core    0  0  0  0     7.360      1
            0  0  0  1     1.720      2
            0  0  0  1     2.880      3
            0  0  0  1     7.580      4
            1  0  0  0     1.120      5
            0  1  0  0     1.120      6
            0  0  1  0     1.120      7
            1  0  0  0     2.080      8
            0  1  0  0     2.080      9
            0  0  1  0     2.080     10
            1  0  0  0     4.080     11
            0  1  0  0     4.080     12
            0  0  1  0     4.080     13
            2  0  0  0     2.000     14
            1  1  0  0     2.000     15
            1  0  1  0     2.000     16
            0  2  0  0     2.000     17
            0  1  1  0     2.000     18
            0  0  2  0     2.000     19

 H                                    2    3
                                  ---------------------------------------------------------------------------
            0  0  0  0     0.690     20   26
            0  0  0  0     0.920     21   27
            0  0  0  0     1.580     22   28
            1  0  0  0     1.250     23   29
            0  1  0  0     1.250     24   30
            0  0  1  0     1.250     25   31

 Total number of charge fitting functions (nprimf)       182
 Total number of Cartesian basis functions (naos)         31
 Total number of Cartesian core functions  (ncos)          1



 Coordinates (Cartesian)
 =======================

     Atom                    bohr                                 angstrom                 Geometric Variables
                   X           Y           Z              X           Y           Z       (0:frozen, *:LT par.)
 --------------------------------------------------------------------------------------------------------------
     1 O       0.000000    0.000000    0.000000       0.000000    0.000000    0.000000      1       2       3
     2 H       0.000000   -1.302853   -1.093224       0.000000   -0.689440   -0.578509      4       5       6
     3 H       0.000000    1.302853   -1.093224       0.000000    0.689440   -0.578509      7       8       9
 --------------------------------------------------------------------------------------------------------------
1
 ***************************************************************************************************



                                              ***********************
                                              *  T E C H N I C A L  *
                                              ***********************




 =============================================================
 P A R A L L E L I Z A T I O N  and  V E C T O R I Z A T I O N
 =============================================================

 Nr of parallel processes:                                8
 Maximum vector length in NumInt loops:                 128



 ===============
 I O  vs.  C P U  ***  (store numerical data on disk or recalculate)  ***
 ===============

 Basis functions:   recalculate when needed
 Fit functions:     recalculate when needed

 IO buffersize (Mb):                                     64.000000



 ===============================
 G E O M E T R Y   U P D A T E S
 ===============================

 Optimization coordinates:                       Delocalized
 Optimization code branch:                       NEW
 Hessian update method:                          BFGS (Broyden-Fletcher-Goldfarb-Shanno)

 Iterative Geometry Improvements:
    Max. nr. of iterations:                         30
    Convergence criteria:
         Change in energy (hartree):                 0.0010000000
         Gradients (au/Angstrom):                    0.0010000000
         Cart/bondlength changes (Angstrom):         0.0100000000
    Max. step to take:
         Trust Radius:                               0.2000000000

 GDIIS (Geometry Direct Inversion in Iteration Space):
    First geometry cycle:                            0
    Max. number expansion vectors:                   5



 =====================
 S C F   U P D A T E S
 =====================

 Max. nr. of cycles:                               300
 Convergence criterion:                              0.0000010000
   secondary criterion:                              0.0010000000

 Mix parameter (when DIIS does not apply):           0.2000000000


 DIIS (Direct Inversion in Iteration Space)
    Replace damping when SCF Error is below:         0.5000000000
    Apply anyway after SCF cycle:
                                                     5
    (Max.) nr. of expansion vectors:                10

    Upperbound on expansion coefficients:            5.0000000000
    (when exceeded, IterationSpace is re-built)
    2nd Upperbound on coefficients:                 25.0000000000
    (when exceeded, simple damping will be used)



 =================
 P R E C I S I O N  ***  (General: NumInt, NeglectFunctionTails, ...)  ***
 =================


 NumInt:           Target precision:                 4.0000000000
 -------           Initial precision:                4.0000000000
                   Min. precision (optimization):    4.0000000000

 Neglect Functions:          Basis functions:        0.1000000000E-05
 ------------------          Fit functions:          0.1000000000E-05



 ===========================
 L I N E A R   S C A L I N G
 ===========================


 Cut-off radii density fit:                        0.1000000000E-07
 Overlap cut-off criterion AO matrix elements:     0.1000000000E-05
 Cut-offs for Coulomb potential and fitted density:0.1000000000E-07
 Cut-off criterion for Coulomb multipole terms:    0.1000000000E-07
 Progressive Convergence parameter:                 0.000000000
1
 ***************************************************************************************************



                                            ***************************
                                            *  C O M P U T A T I O N  *
                                            ***************************


 Number of elements of the density matrix on this node (used, total):       190       496



 ===========================================
 Numerical Integration : Fuzzy Cells (Becke)
 ===========================================

 Becke grid quality: NORMAL

 Lebedev angular grid order:             min:  11 max:  23
 Nr. of radial points:                   min:  46 max:  49

 Total nr. of points:      20628
 Nr. of blocks:              164
 Block length:               126
 Nr. of dummy points:         36


 Test of Precision of the Numerical Integration Grid
 ===================================================

 Integral of the Total Core Density:                   2.00000118339286
 Relative Error:                                       5.917E-07



 ========================
 Density Fitting (zlmFit)
 ========================

 ZlmFit Fit Quality: NORMAL

 Max L-expansion:                        min:   5 max:   6
 Nr. of radial interpolation points:     min:  36 max:  42



 =====
 S C F
 =====


 CYCLE    1

 WARNING: DIIS procedure will be reset
 orbitals (Q,E):
 ---------------
 A1 :1...12          ( 2.00    -1.1582)  ( 2.00    -0.5531)  ( 0.00    -0.0647)  ( 0.00     0.1877)
                     ( 0.00     0.2388)  ( 0.00     0.3883)  ( 0.00     0.7191)  ( 0.00     1.2149)
                     ( 0.00     1.7133)  ( 0.00     1.7948)  ( 0.00     2.3228)  ( 0.00     4.8956)
 A2 :1...2           ( 0.00     0.4946)  ( 0.00     1.5182)
 B1 :1...5           ( 2.00    -0.4771)  ( 0.00     0.2673)  ( 0.00     0.5790)  ( 0.00     1.5552)
                     ( 0.00     3.6889)
 B2 :1...9           ( 2.00    -0.6823)  ( 0.00     0.0074)  ( 0.00     0.1872)  ( 0.00     0.4203)
                     ( 0.00     1.0574)  ( 0.00     1.1425)  ( 0.00     2.4677)  ( 0.00     2.7341)
                     ( 0.00     5.7717)

 CYCLE    2
 d-Pmat  mean:  0.19E-01
 imax=      8: -0.13E+00
 orbitals (Q,E):
 ---------------
 A1 :1...3           ( 2.00    -1.0719)  ( 2.00    -0.4645)  ( 0.00    -0.0472)
 A2 :1...1           ( 0.00     0.5206)
 B1 :1...2           ( 2.00    -0.3863)  ( 0.00     0.3091)
 B2 :1...2           ( 2.00    -0.6042)  ( 0.00     0.0260)

 CYCLE    3
 d-Pmat  mean:  0.26E-01
 imax=      8: -0.19E+00
 orbitals (Q,E):
 ---------------
 A1 :1...3           ( 2.00    -0.9362)  ( 2.00    -0.3392)  ( 0.00    -0.0142)
 A2 :1...1           ( 0.00     0.5794)
 B1 :1...2           ( 2.00    -0.2566)  ( 0.00     0.3801)
 B2 :1...2           ( 2.00    -0.4833)  ( 0.00     0.0598)

 CYCLE    4
 d-Pmat  mean:  0.50E-02
 imax=      8:  0.34E-01
 orbitals (Q,E):
 ---------------
 A1 :1...3           ( 2.00    -0.9587)  ( 2.00    -0.3579)  ( 0.00    -0.0189)
 A2 :1...1           ( 0.00     0.5710)
 B1 :1...2           ( 2.00    -0.2768)  ( 0.00     0.3688)
 B2 :1...2           ( 2.00    -0.5026)  ( 0.00     0.0553)

 CYCLE    5
 d-Pmat  mean:  0.12E-03
 imax=     10:  0.63E-03
 orbitals (Q,E):
 ---------------
 A1 :1...3           ( 2.00    -0.9587)  ( 2.00    -0.3585)  ( 0.00    -0.0189)
 A2 :1...1           ( 0.00     0.5710)
 B1 :1...2           ( 2.00    -0.2771)  ( 0.00     0.3686)
 B2 :1...2           ( 2.00    -0.5027)  ( 0.00     0.0552)

 CYCLE    6
 d-Pmat  mean:  0.31E-04
 imax=      8:  0.15E-03
 orbitals (Q,E):
 ---------------
 A1 :1...3           ( 2.00    -0.9588)  ( 2.00    -0.3586)  ( 0.00    -0.0190)
 A2 :1...1           ( 0.00     0.5709)
 B1 :1...2           ( 2.00    -0.2772)  ( 0.00     0.3685)
 B2 :1...2           ( 2.00    -0.5028)  ( 0.00     0.0551)

 CYCLE    7
 d-Pmat  mean:  0.25E-05
 imax=      9:  0.11E-04
 orbitals (Q,E):
 ---------------
 A1 :1...3           ( 2.00    -0.9589)  ( 2.00    -0.3586)  ( 0.00    -0.0190)
 A2 :1...1           ( 0.00     0.5709)
 B1 :1...2           ( 2.00    -0.2772)  ( 0.00     0.3685)
 B2 :1...2           ( 2.00    -0.5028)  ( 0.00     0.0551)

 CYCLE    8
 d-Pmat  mean:  0.23E-06
 imax=      8:  0.12E-05
 orbitals (Q,E):
 ---------------
 A1 :1...3           ( 2.00    -0.9589)  ( 2.00    -0.3586)  ( 0.00    -0.0190)
 A2 :1...1           ( 0.00     0.5709)
 B1 :1...2           ( 2.00    -0.2772)  ( 0.00     0.3685)
 B2 :1...2           ( 2.00    -0.5028)  ( 0.00     0.0551)

 CYCLE    9
 d-Pmat  mean:  0.40E-08
 imax=      9: -0.24E-07
 orbitals (Q,E):
 ---------------
 A1 :1...3           ( 2.00    -0.9589)  ( 2.00    -0.3586)  ( 0.00    -0.0190)
 A2 :1...1           ( 0.00     0.5709)
 B1 :1...2           ( 2.00    -0.2772)  ( 0.00     0.3685)
 B2 :1...2           ( 2.00    -0.5028)  ( 0.00     0.0551)

 SCF CONVERGED

 CYCLE   10
 *** Setting up for NEW gradients in focky
 *** Using FIT density in focky
 *** Setting up for NEW Hessian in focky
 orbitals (Q,E):
 ---------------
 A1 :1...12          ( 2.00    -0.9589)  ( 2.00    -0.3586)  ( 0.00    -0.0190)  ( 0.00     0.2615)
                     ( 0.00     0.3236)  ( 0.00     0.4579)  ( 0.00     0.8167)  ( 0.00     1.3406)
                     ( 0.00     1.8614)  ( 0.00     1.9103)  ( 0.00     2.4999)  ( 0.00     5.1106)
 A2 :1...2           ( 0.00     0.5709)  ( 0.00     1.6565)
 B1 :1...5           ( 2.00    -0.2772)  ( 0.00     0.3685)  ( 0.00     0.6622)  ( 0.00     1.6906)
                     ( 0.00     3.9172)
 B2 :1...9           ( 2.00    -0.5028)  ( 0.00     0.0551)  ( 0.00     0.2629)  ( 0.00     0.5127)
                     ( 0.00     1.1227)  ( 0.00     1.2652)  ( 0.00     2.6359)  ( 0.00     2.8134)
                     ( 0.00     5.9910)


 Fit test: (difference of exact and fit density, squared integrated, result summed over spins)
         SCF:                                          0.00013579570187

 Gross Charges per Atom (Z minus electrons)
 ==========================================
            -0.6935    0.3468    0.3468
 Net Total:  0.00000000



 =================================================================
 M U L T I P O L E   D E R I V E D   C H A R G E   A N A L Y S I S
 =================================================================

 See: M. Swart, P.Th. van Duijnen, J.G. Snijders, J.Comput.Chem., (2001), p. 79-88.

 ---------------------------------------
 Multipole derived atomic charges (a.u.)
 ---------------------------------------

        Atom    Level:     MDC-m        MDC-d        MDC-q
 ---------------------------------------------------------
     1     O           -0.147016    -0.673465    -0.754377
     2     H            0.073508     0.336733     0.377189
     3     H            0.073508     0.336733     0.377189
 *** Using NEW gradient routines ***


 Geometry CYCLE 1
 ==============

 Energy gradients wrt nuclear displacements
 ==========================================

     Atom      Cartesian (a.u./angstrom)
                 X         Y         Z
 ----------------------------------------
     1 O     0.000000  0.000000 -0.191937
     2 H     0.000000  0.152426  0.095968
     3 H     0.000000 -0.152426  0.095968
 ----------------------------------------

----------------------------------------------------------------------
Geometry Convergence after Step   1       (Hartree/Angstrom,Angstrom)
----------------------------------------------------------------------
current energy                               -0.53043579 Hartree
energy change                      -0.53043579     0.00100000    F
constrained gradient max            0.19193695     0.00100000    F
constrained gradient rms            0.10631570     0.00066667    F
gradient max                        0.19193695
gradient rms                        0.10631570
cart. step max                      0.06974321     0.01000000    F
cart. step rms                      0.03519967     0.00666667    F



 Coordinates (Cartesian)
 =======================

     Atom                    bohr                                 angstrom                 Geometric Variables
                   X           Y           Z              X           Y           Z       (0:frozen, *:LT par.)
 --------------------------------------------------------------------------------------------------------------
     1 O       0.000000    0.000000    0.006339       0.000000    0.000000    0.003355      1       2       3
     2 H       0.000000   -1.434611   -1.143528       0.000000   -0.759163   -0.605129      4       5       6
     3 H       0.000000    1.434611   -1.143528       0.000000    0.759163   -0.605129      7       8       9
 --------------------------------------------------------------------------------------------------------------

 Number of elements of the density matrix on this node (used, total):       190       496



 ===========================================
 Numerical Integration : Fuzzy Cells (Becke)
 ===========================================

 Becke grid quality: NORMAL

 Lebedev angular grid order:             min:  11 max:  23
 Nr. of radial points:                   min:  46 max:  49

 Total nr. of points:      20632
 Nr. of blocks:              164
 Block length:               126
 Nr. of dummy points:         32


 Test of Precision of the Numerical Integration Grid
 ===================================================

 Integral of the Total Core Density:                   1.99999713263135
 Relative Error:                                      -1.434E-06



 =====
 S C F
 =====


 CYCLE    1
 orbitals (Q,E):
 ---------------
 A1 :1...12          ( 2.00    -0.9445)  ( 2.00    -0.3665)  ( 0.00    -0.0432)  ( 0.00     0.2062)
                     ( 0.00     0.3091)  ( 0.00     0.4368)  ( 0.00     0.8332)  ( 0.00     1.2139)
                     ( 0.00     1.7837)  ( 0.00     1.8166)  ( 0.00     2.4972)  ( 0.00     4.8888)
 A2 :1...2           ( 0.00     0.5215)  ( 0.00     1.5919)
 B1 :1...5           ( 2.00    -0.2900)  ( 0.00     0.3467)  ( 0.00     0.6413)  ( 0.00     1.6010)
                     ( 0.00     3.9014)
 B2 :1...9           ( 2.00    -0.5019)  ( 0.00     0.0294)  ( 0.00     0.2113)  ( 0.00     0.4898)
                     ( 0.00     1.0179)  ( 0.00     1.1816)  ( 0.00     2.5040)  ( 0.00     2.6817)
                     ( 0.00     5.5796)

 CYCLE    2
 d-Pmat  mean:  0.88E-03
 imax=     27: -0.53E-02
 orbitals (Q,E):
 ---------------
 A1 :1...3           ( 2.00    -0.9410)  ( 2.00    -0.3642)  ( 0.00    -0.0401)
 A2 :1...1           ( 0.00     0.5257)
 B1 :1...2           ( 2.00    -0.2870)  ( 0.00     0.3497)
 B2 :1...2           ( 2.00    -0.4985)  ( 0.00     0.0321)

 CYCLE    3
 d-Pmat  mean:  0.21E-02
 imax=     27: -0.12E-01
 orbitals (Q,E):
 ---------------
 A1 :1...3           ( 2.00    -0.9206)  ( 2.00    -0.3471)  ( 0.00    -0.0270)
 A2 :1...1           ( 0.00     0.5431)
 B1 :1...2           ( 2.00    -0.2678)  ( 0.00     0.3656)
 B2 :1...2           ( 2.00    -0.4800)  ( 0.00     0.0441)

 CYCLE    4
 d-Pmat  mean:  0.48E-03
 imax=      8:  0.32E-02
 orbitals (Q,E):
 ---------------
 A1 :1...3           ( 2.00    -0.9230)  ( 2.00    -0.3485)  ( 0.00    -0.0277)
 A2 :1...1           ( 0.00     0.5422)
[...]
             3793.086371           85.868512           81.640328



 ============================
 Statistical Thermal Analysis  ***  ideal gas assumed  ***
 ============================

 Pressure:                  1.000000 atm.
 Temperature:             298.150000 K



 Moments of Inertia (and direction vectors)
 ==========================================

           2.2838          4.2689          6.5527
 ------------------------------------------------
           0.0000          0.0000          1.0000
           1.0000          0.0000          0.0000
           0.0000          1.0000          0.0000


 The rotational contribution to the molecular entropy includes
 a term, dependent on the symmetry number sigma. The results
 reported below were computed using sigma = 2, determined from
 the point group symmetry of the input geometry (C(2V)).
 If this is not the correct symmetry, please contact SCM to report a bug.
 Contributions from frequencies below 20 1/cm are not included in
 the vibrational sums. Their contributions, if any, are reported separately.


     Temp                                                       Transl     Rotat    Vibrat     Total
     ----                                                       ------     -----    ------     -----

     298.15   Entropy (cal/mole-K):                             34.608    10.556     0.009    45.174
              Internal Energy (Kcal/mole):                       0.889     0.889    12.919    14.697
              Constant Volume Heat Capacity (cal/mole-K):        2.981     2.981     0.062     6.024


 ***************************************************************************************************



====================================================================
*** DONE CALCULATING ANALYTICAL SECOND DERIVATIVES OF THE ENERGY ***
====================================================================



 ========================
 No memory problems found
 ========================

 Maximum number of active allocate calls:        2048

 *******************************************************************************

                             A D F   E X I T
 NORMAL TERMINATION



 =================
 Timing Statistics
 =================

 Total Used :                     CPU=        5.98      System=       30.78     Elapsed=       37.40

 Calls  Section                     ( Mean, Percentage )
 ---------------------------------------------------------------------------------------------------
     3  ><      ................      0.00    0.02             0.00    0.00             0.00    0.00
     1  INIT    ................      0.51    8.48             0.05    0.15             0.56    1.50
     1  GEOMET  ................      0.02    0.40            10.37   33.69            10.67   28.54
     1  FRAGM   ................      0.01    0.18             3.35   10.88             3.39    9.07
     1  INPUTA  ................      0.00    0.00             0.00    0.00             0.00    0.00
     1  ATDEN   ................      0.00    0.07             0.00    0.00             0.00    0.01
     5  MAINSY  ................      0.02    1.62             0.00    0.08             0.03    0.42
     5  SYMFIT  ................      0.00    0.08             0.00    0.00             0.00    0.02
     5  CORORT  ................      0.00    0.03             0.00    0.00             0.00    0.00
     5  SYMORB  ................      0.00    0.30             0.00    0.01             0.00    0.05
     5  CLSMAT  ................      0.01    0.55             0.00    0.02             0.01    0.10
     5  ORTHON  ................      0.00    0.32             0.00    0.00             0.00    0.05
     5  GENPT   ................      0.51   43.05             3.37   54.68             3.92   52.41
     5  PTBAS   ................      0.01    0.75             0.00    0.02             0.01    0.18
    36  FOCKY   ................      0.02   11.74             0.00    0.14             0.02    2.05
    36  FOCKTR  ................      0.00    0.23             0.00    0.00             0.00    0.05
    36  FOCKNM  ................      0.00    0.00             0.00    0.00             0.00    0.00
    36  SDIIS   ................      0.00    0.33             0.00    0.01             0.00    0.06
    36  EMERGE  ................      0.01    3.65             0.00    0.05             0.01    0.67
     5  TOTEN   ................      0.06    5.35             0.00    0.05             0.07    0.90
     5  POPAN   ................      0.00    0.08             0.00    0.01             0.00    0.03
     5  DEBYE   ................      0.00    0.03             0.00    0.00             0.00    0.01
     5  INPUTE  ................      0.00    0.05             0.00    0.00             0.00    0.01
     5  SYMORE  ................      0.00    0.03             0.00    0.00             0.00    0.01
     5  METS    ................      0.00    0.05             0.00    0.00             0.00    0.01
     5  CETS    ................      0.00    0.18             0.00    0.00             0.00    0.04
     9  ELNRGY  ................      0.02    2.64             0.00    0.02             0.02    0.44
     4  ENGRAD  ................      0.00    0.02             0.00    0.00             0.00    0.00
     1  COREPS  ................      0.01    0.22             0.00    0.01             0.01    0.04
     1  POPUL   ................      0.00    0.05             0.00    0.00             0.01    0.02
     1  ENHESS  ................      1.14   19.07             0.06    0.19             1.21    3.24
     1  EXIT PROCEDURE .........      0.02    0.40             0.00    0.00             0.03    0.07


 Currently Open Files (EXIT00)
 ====================

 Unit    Access Format  Status   Type       Ident (file)
 -------------------------------------------------------
   3      SEQ    FORM   TRANSP  NORMAL      LOGFILE
                                          ( logfile )


 Buffered I/O statistics
 =======================
 Memory available:                     67108864
 Number of records fitting in memory:     16131
 Input :   1.0% of                        26616  *4k bytes
 Output:   8.6% of                         9003  *4k bytes
 Records from serial files evicted:           0
                    others evicted:           0
 Hash table lookups:      98909 with          0 conflicts (  0.00%)

 ***************************************************************************************************
 (LOGFILE)
 <Dec01-2015> <12:40:35>  ADF 2014  RunTime: Dec01-2015 12:40:35  Nodes: 1  Procs: 1
 <Dec01-2015> <12:40:35>  Hydrogen (TZP)
 <Dec01-2015> <12:40:35>  RunType   : CREATE
 <Dec01-2015> <12:40:36>  Net Charge: 0 (Nuclei minus Electrons)
 <Dec01-2015> <12:40:36>  Symmetry  : ATOM
  Coordinates
    Atom         X           Y           Z   (Angstrom)
    1.H         0.000000    0.000000    0.000000
 <Dec01-2015> <12:40:36>  >>>> CORORT
 <Dec01-2015> <12:40:36>  >>>> CLSMAT
 <Dec01-2015> <12:40:36>  >>>> ORTHON
 <Dec01-2015> <12:40:36>  >>>> GENPT
 <Dec01-2015> <12:40:36>  Block Length=  64
 <Dec01-2015> <12:40:36>  >>>> PTBAS
 <Dec01-2015> <12:40:36>  >>>> CYCLE
 <Dec01-2015> <12:40:36>    1
 <Dec01-2015> <12:40:36>    2  ErrMat   0.04599043  MaxEl -0.04581380
 <Dec01-2015> <12:40:36>    3  ErrMat   0.01042691  MaxEl  0.01001652
 <Dec01-2015> <12:40:36>    4  ErrMat   0.00029286  MaxEl  0.00021096
 <Dec01-2015> <12:40:36>    5  ErrMat   0.00000895  MaxEl  0.00000721
 <Dec01-2015> <12:40:36>    6  ErrMat   0.00000002  MaxEl -0.00000002
 <Dec01-2015> <12:40:36>    7  ErrMat   0.00000000  MaxEl  0.00000000
 <Dec01-2015> <12:40:36>  SCF converged
 <Dec01-2015> <12:40:36>    8  ErrMat   0.00000000  MaxEl  0.00000000
 <Dec01-2015> <12:40:36>   Solutions with partially occupied orbitals may not be
 <Dec01-2015> <12:40:36>   lowest in energy. You might consider lowering the
 <Dec01-2015> <12:40:36>   symmetry in the input and explicitly specifying integer
 <Dec01-2015> <12:40:36>   occupations. In that case always check that you obtain
 <Dec01-2015> <12:40:36>   an aufbau solution.
 <Dec01-2015> <12:40:36>  >>>> POPAN
 <Dec01-2015> <12:40:36>  >>>> DEBYE
 <Dec01-2015> <12:40:36>  NORMAL TERMINATION
 <Dec01-2015> <12:40:36>  END
 <Dec01-2015> <12:40:36>  ADF 2014  RunTime: Dec01-2015 12:40:36  Nodes: 1  Procs: 1
 <Dec01-2015> <12:40:36>  Oxygen (TZP, 1s frozen)
 <Dec01-2015> <12:40:36>  RunType   : CREATE
 <Dec01-2015> <12:40:36>  Net Charge: 0 (Nuclei minus Electrons)
 <Dec01-2015> <12:40:36>  Symmetry  : ATOM
  Coordinates
    Atom         X           Y           Z   (Angstrom)
    1.O         0.000000    0.000000    0.000000
 <Dec01-2015> <12:40:36>  >>>> CORORT
 <Dec01-2015> <12:40:36>  >>>> CLSMAT
 <Dec01-2015> <12:40:36>  >>>> ORTHON
 <Dec01-2015> <12:40:36>  >>>> GENPT
 <Dec01-2015> <12:40:36>  Block Length=  68
 <Dec01-2015> <12:40:36>  >>>> PTBAS
 <Dec01-2015> <12:40:36>  >>>> CYCLE
 <Dec01-2015> <12:40:36>    1
 <Dec01-2015> <12:40:36>    2  ErrMat   4.46943367  MaxEl -2.49054595
 <Dec01-2015> <12:40:36>    3  ErrMat   2.71341124  MaxEl  1.77352949
 <Dec01-2015> <12:40:36>    4  ErrMat   2.00819228  MaxEl  1.23046895
 <Dec01-2015> <12:40:36>    5  ErrMat   1.19632776  MaxEl  0.72642199
 <Dec01-2015> <12:40:36>    6  ErrMat   0.01104866  MaxEl  0.00645407
 <Dec01-2015> <12:40:36>    7  ErrMat   0.00011066  MaxEl -0.00004837
 <Dec01-2015> <12:40:36>    8  ErrMat   0.00001879  MaxEl  0.00000962
 <Dec01-2015> <12:40:36>    9  ErrMat   0.00000011  MaxEl -0.00000007
 <Dec01-2015> <12:40:36>   10  ErrMat   0.00000000  MaxEl  0.00000000
 <Dec01-2015> <12:40:36>  SCF converged
 <Dec01-2015> <12:40:36>   11  ErrMat   0.00000000  MaxEl  0.00000000
 <Dec01-2015> <12:40:36>   Solutions with partially occupied orbitals may not be
 <Dec01-2015> <12:40:36>   lowest in energy. You might consider lowering the
 <Dec01-2015> <12:40:36>   symmetry in the input and explicitly specifying integer
 <Dec01-2015> <12:40:36>   occupations. In that case always check that you obtain
 <Dec01-2015> <12:40:36>   an aufbau solution.
 <Dec01-2015> <12:40:36>  >>>> POPAN
 <Dec01-2015> <12:40:36>  >>>> DEBYE
 <Dec01-2015> <12:40:36>  NORMAL TERMINATION
 <Dec01-2015> <12:40:36>  END
 <Dec01-2015> <12:40:37>  ADF 2014  RunTime: Dec01-2015 12:40:37  Nodes: 1  Procs: 8
 <Dec01-2015> <12:40:37>  WATER
 <Dec01-2015> <12:40:37>  RunType   : GEOMETRY OPTIMIZATION
 <Dec01-2015> <12:40:48>  Net Charge: 0 (Nuclei minus Electrons)
 <Dec01-2015> <12:40:48>  Symmetry  : C(2V)
 <Dec01-2015> <12:40:49>  >>>> FRAGM
  Coordinates in Geometry Cycle 1
    Atom         X           Y           Z   (Angstrom)
    1.O         0.000000    0.000000    0.000000
    2.H         0.000000   -0.689440   -0.578509
    3.H         0.000000    0.689440   -0.578509
 <Dec01-2015> <12:40:51>  >>>> CORORT
 <Dec01-2015> <12:40:51>  >>>> CLSMAT
 <Dec01-2015> <12:40:51>  >>>> ORTHON
 <Dec01-2015> <12:40:51>  >>>> GENPT
 <Dec01-2015> <12:40:58>  Block Length= 126
 <Dec01-2015> <12:40:58>  >>>> PTBAS
 <Dec01-2015> <12:40:58>  >>>> CYCLE
 <Dec01-2015> <12:40:58>    1
 <Dec01-2015> <12:40:58>    2  ErrMat   0.88290527  MaxEl -0.36652138
 <Dec01-2015> <12:40:58>    3  ErrMat   0.40509244  MaxEl -0.17290999
 <Dec01-2015> <12:40:58>    4  ErrMat   0.10372105  MaxEl  0.04346364
 <Dec01-2015> <12:40:58>    5  ErrMat   0.00405758  MaxEl  0.00180037
 <Dec01-2015> <12:40:58>    6  ErrMat   0.00059921  MaxEl  0.00019763
 <Dec01-2015> <12:40:58>    7  ErrMat   0.00005995  MaxEl  0.00002948
 <Dec01-2015> <12:40:58>    8  ErrMat   0.00000313  MaxEl  0.00000128
 <Dec01-2015> <12:40:58>    9  ErrMat   0.00000007  MaxEl -0.00000003
 <Dec01-2015> <12:40:58>  SCF converged
 <Dec01-2015> <12:40:58>   10  ErrMat   0.00000000  MaxEl  0.00000000
 <Dec01-2015> <12:40:58>  >>>> TOTEN
 <Dec01-2015> <12:40:58>  >>>> POPAN
 <Dec01-2015> <12:40:58>  >>>> DEBYE
 <Dec01-2015> <12:40:58>  >>>> AMETS
 <Dec01-2015> <12:40:58>  >>>> ENGRAD
 <Dec01-2015> <12:40:58>  current energy                               -0.53043579 Hartree
 <Dec01-2015> <12:40:58>  energy change                      -0.53043579     0.00100000    F
 <Dec01-2015> <12:40:58>  constrained gradient max            0.19193695     0.00100000    F
 <Dec01-2015> <12:40:58>  constrained gradient rms            0.10631570     0.00066667    F
 <Dec01-2015> <12:40:58>  gradient max                        0.19193695
 <Dec01-2015> <12:40:58>  gradient rms                        0.10631570
 <Dec01-2015> <12:40:58>  cart. step max                      0.06974321     0.01000000    F
 <Dec01-2015> <12:40:58>  cart. step rms                      0.03519967     0.00666667    F
  Coordinates in Geometry Cycle 2
    Atom         X           Y           Z   (Angstrom)
    1.O         0.000000    0.000000    0.003355
    2.H         0.000000   -0.759163   -0.605129
    3.H         0.000000    0.759163   -0.605129
 <Dec01-2015> <12:40:58>  >>>> CORORT
 <Dec01-2015> <12:40:58>  >>>> CLSMAT
 <Dec01-2015> <12:40:58>  >>>> ORTHON
 <Dec01-2015> <12:40:58>  >>>> GENPT
 <Dec01-2015> <12:41:06>  Block Length= 126
 <Dec01-2015> <12:41:06>  >>>> PTBAS
 <Dec01-2015> <12:41:06>  >>>> CYCLE
 <Dec01-2015> <12:41:06>    1
 <Dec01-2015> <12:41:06>    2  ErrMat   0.03586571  MaxEl  0.01483434
 <Dec01-2015> <12:41:06>    3  ErrMat   0.01921665  MaxEl  0.00680953
 <Dec01-2015> <12:41:06>    4  ErrMat   0.01188524  MaxEl  0.00445747
 <Dec01-2015> <12:41:07>    5  ErrMat   0.00161945  MaxEl  0.00077118
 <Dec01-2015> <12:41:07>    6  ErrMat   0.00001409  MaxEl  0.00000612
 <Dec01-2015> <12:41:07>    7  ErrMat   0.00000235  MaxEl -0.00000118
 <Dec01-2015> <12:41:07>    8  ErrMat   0.00000008  MaxEl  0.00000004
 <Dec01-2015> <12:41:07>  SCF converged
 <Dec01-2015> <12:41:07>    9  ErrMat   0.00000000  MaxEl  0.00000000
 <Dec01-2015> <12:41:07>  >>>> TOTEN
 <Dec01-2015> <12:41:07>  >>>> POPAN
 <Dec01-2015> <12:41:07>  >>>> DEBYE
 <Dec01-2015> <12:41:07>  >>>> AMETS
 <Dec01-2015> <12:41:07>  >>>> ENGRAD
 <Dec01-2015> <12:41:07>  current energy                               -0.54332780 Hartree
 <Dec01-2015> <12:41:07>  energy change                      -0.01289200     0.00100000    F
 <Dec01-2015> <12:41:07>  constrained gradient max            0.00684104     0.00100000    F
 <Dec01-2015> <12:41:07>  constrained gradient rms            0.00334050     0.00066667    F
 <Dec01-2015> <12:41:07>  gradient max                        0.00684104
 <Dec01-2015> <12:41:07>  gradient rms                        0.00334050
 <Dec01-2015> <12:41:07>  cart. step max                      0.00680523     0.01000000    T
 <Dec01-2015> <12:41:07>  cart. step rms                      0.00403053     0.00666667    T
  Coordinates in Geometry Cycle 3
    Atom         X           Y           Z   (Angstrom)
    1.O         0.000000    0.000000    0.002705
    2.H         0.000000   -0.765968   -0.599973
    3.H         0.000000    0.765968   -0.599973
 <Dec01-2015> <12:41:07>  >>>> CORORT
 <Dec01-2015> <12:41:07>  >>>> CLSMAT
 <Dec01-2015> <12:41:07>  >>>> ORTHON
 <Dec01-2015> <12:41:07>  >>>> GENPT
 <Dec01-2015> <12:41:08>  Block Length= 126
 <Dec01-2015> <12:41:08>  >>>> PTBAS
 <Dec01-2015> <12:41:08>  >>>> CYCLE
 <Dec01-2015> <12:41:08>    1
 <Dec01-2015> <12:41:08>    2  ErrMat   0.00095742  MaxEl  0.00044745
 <Dec01-2015> <12:41:08>    3  ErrMat   0.00070202  MaxEl  0.00034226
 <Dec01-2015> <12:41:08>    4  ErrMat   0.00037351  MaxEl -0.00016948
 <Dec01-2015> <12:41:08>    5  ErrMat   0.00005986  MaxEl -0.00001987
 <Dec01-2015> <12:41:08>    6  ErrMat   0.00000083  MaxEl -0.00000041
 <Dec01-2015> <12:41:08>  SCF converged
 <Dec01-2015> <12:41:08>    7  ErrMat   0.00000009  MaxEl  0.00000004
 <Dec01-2015> <12:41:08>  >>>> TOTEN
 <Dec01-2015> <12:41:08>  >>>> POPAN
 <Dec01-2015> <12:41:08>  >>>> DEBYE
 <Dec01-2015> <12:41:08>  >>>> AMETS
 <Dec01-2015> <12:41:08>  >>>> ENGRAD
 <Dec01-2015> <12:41:08>  current energy                               -0.54339386 Hartree
 <Dec01-2015> <12:41:08>  energy change                      -0.00006606     0.00100000    T
 <Dec01-2015> <12:41:08>  constrained gradient max            0.00260762     0.00100000    F
 <Dec01-2015> <12:41:08>  constrained gradient rms            0.00133109     0.00066667    F
 <Dec01-2015> <12:41:08>  gradient max                        0.00260762
 <Dec01-2015> <12:41:08>  gradient rms                        0.00133109
 <Dec01-2015> <12:41:08>  cart. step max                      0.00440654     0.01000000    T
 <Dec01-2015> <12:41:08>  cart. step rms                      0.00285539     0.00666667    T
  Coordinates in Geometry Cycle 4
    Atom         X           Y           Z   (Angstrom)
    1.O         0.000000    0.000000    0.002150
    2.H         0.000000   -0.770106   -0.595566
    3.H         0.000000    0.770106   -0.595566
 <Dec01-2015> <12:41:08>  >>>> CORORT
 <Dec01-2015> <12:41:08>  >>>> CLSMAT
 <Dec01-2015> <12:41:08>  >>>> ORTHON
 <Dec01-2015> <12:41:08>  >>>> GENPT
 <Dec01-2015> <12:41:11>  Block Length= 126
 <Dec01-2015> <12:41:11>  >>>> PTBAS
 <Dec01-2015> <12:41:11>  >>>> CYCLE
 <Dec01-2015> <12:41:11>    1
 <Dec01-2015> <12:41:11>    2  ErrMat   0.00107082  MaxEl  0.00045248
 <Dec01-2015> <12:41:11>    3  ErrMat   0.00069774  MaxEl  0.00030588
 <Dec01-2015> <12:41:11>    4  ErrMat   0.00053938  MaxEl -0.00021102
 <Dec01-2015> <12:41:11>    5  ErrMat   0.00002612  MaxEl  0.00001267
 <Dec01-2015> <12:41:11>    6  ErrMat   0.00000095  MaxEl -0.00000049
 <Dec01-2015> <12:41:11>  SCF converged
 <Dec01-2015> <12:41:11>    7  ErrMat   0.00000011  MaxEl  0.00000006
 <Dec01-2015> <12:41:11>  >>>> TOTEN
 <Dec01-2015> <12:41:11>  >>>> POPAN
 <Dec01-2015> <12:41:11>  >>>> DEBYE
 <Dec01-2015> <12:41:11>  >>>> AMETS
 <Dec01-2015> <12:41:11>  >>>> ENGRAD
 <Dec01-2015> <12:41:12>  current energy                               -0.54340325 Hartree
 <Dec01-2015> <12:41:12>  energy change                      -0.00000940     0.00100000    T
 <Dec01-2015> <12:41:12>  constrained gradient max            0.00076131     0.00100000    T
 <Dec01-2015> <12:41:12>  constrained gradient rms            0.00038108     0.00066667    T
 <Dec01-2015> <12:41:12>  gradient max                        0.00076131
 <Dec01-2015> <12:41:12>  gradient rms                        0.00038108
 <Dec01-2015> <12:41:12>  cart. step max                      0.00034248     0.01000000    T
 <Dec01-2015> <12:41:12>  cart. step rms                      0.00017501     0.00666667    T
 <Dec01-2015> <12:41:12>  GEOMETRY CONVERGED
 <Dec01-2015> <12:41:12>  Calculating Energy Terms for Final Geometry
  Coordinates in Geometry Cycle 4
    Atom         X           Y           Z   (Angstrom)
    1.O         0.000000    0.000000    0.002150
    2.H         0.000000   -0.770106   -0.595566
    3.H         0.000000    0.770106   -0.595566
 <Dec01-2015> <12:41:12>  >>>> CORORT
 <Dec01-2015> <12:41:12>  >>>> CLSMAT
 <Dec01-2015> <12:41:12>  >>>> ORTHON
 <Dec01-2015> <12:41:12>  >>>> GENPT
 <Dec01-2015> <12:41:12>  Block Length= 126
 <Dec01-2015> <12:41:12>  >>>> PTBAS
 <Dec01-2015> <12:41:12>  >>>> CYCLE
 <Dec01-2015> <12:41:13>    1
 <Dec01-2015> <12:41:13>    2  ErrMat   0.00000001  MaxEl  0.00000000
 <Dec01-2015> <12:41:13>  SCF converged
 <Dec01-2015> <12:41:13>    3  ErrMat   0.00000000  MaxEl  0.00000000
 <Dec01-2015> <12:41:13>  >>>> TOTEN
 <Dec01-2015> <12:41:13>  >>>> POPAN
 <Dec01-2015> <12:41:13>  >>>> DEBYE
 <Dec01-2015> <12:41:13>  >>>> AMETS
 <Dec01-2015> <12:41:13>  >>>> POPUL
 <Dec01-2015> <12:41:13>   Bond Energy          -0.54340325 a.u.
 <Dec01-2015> <12:41:13>   Bond Energy         -14.78675492 eV
 <Dec01-2015> <12:41:13>   Bond Energy        -340.99       kcal/mol
 <Dec01-2015> <12:41:13>  >>>> ENHESS
 <Dec01-2015> <12:41:13>  === NUCLEUS:     1
 <Dec01-2015> <12:41:13>  === NUCLEUS:     2
 <Dec01-2015> <12:41:14>  >>>> CALC_HESS_PMAT
 <Dec01-2015> <12:41:14>  >>>> CALC_HESS_WMAT
 <Dec01-2015> <12:41:14>  NORMAL TERMINATION
 <Dec01-2015> <12:41:14>  END
