ESCALE ; pCOHP file generated by LOBSTER. Energy is shifted such that the Fermi level lies at 0 eV.
        17          1        401  -1.17225e+01   8.32763e+00   2.31259e+00 
Average
No.1:Ga1[4s]->As2[4s](2.495455942239027)
No.1:Ga1[4s]->As2[4p_y](2.495455942239027)
No.1:Ga1[4s]->As2[4p_z](2.495455942239027)
No.1:Ga1[4s]->As2[4p_x](2.495455942239027)
No.1:Ga1[4p_y]->As2[4s](2.495455942239027)
No.1:Ga1[4p_y]->As2[4p_y](2.495455942239027)
No.1:Ga1[4p_y]->As2[4p_z](2.495455942239027)
No.1:Ga1[4p_y]->As2[4p_x](2.495455942239027)
No.1:Ga1[4p_z]->As2[4s](2.495455942239027)
No.1:Ga1[4p_z]->As2[4p_y](2.495455942239027)
No.1:Ga1[4p_z]->As2[4p_z](2.495455942239027)
No.1:Ga1[4p_z]->As2[4p_x](2.495455942239027)
No.1:Ga1[4p_x]->As2[4s](2.495455942239027)
No.1:Ga1[4p_x]->As2[4p_y](2.495455942239027)
No.1:Ga1[4p_x]->As2[4p_z](2.495455942239027)
No.1:Ga1[4p_x]->As2[4p_x](2.495455942239027)
-14.03509   0.00000   0.00000   0.00000   0.00000   0.00000   0.00000   0.00000   0.00000   0.00000   0.00000   0.00000   0.00000   0.00000   0.00000   0.00000   0.00000   0.00000   0.00000   0.00000   0.00000   0.00000   0.00000   0.00000   0.00000   0.00000   0.00000   0.00000   0.00000   0.00000   0.00000   0.00000   0.00000   0.00000   0.00000
-13.98496   0.00000   0.00000   0.00000   0.00000   0.00000   0.00000   0.00000   0.00000   0.00000   0.00000   0.00000   0.00000   0.00000   0.00000   0.00000   0.00000   0.00000   0.00000   0.00000   0.00000   0.00000   0.00000   0.00000   0.00000   0.00000   0.00000   0.00000   0.00000   0.00000   0.00000   0.00000   0.00000   0.00000   0.00000
-13.93484   0.00000   0.00000   0.00000   0.00000   0.00000   0.00000   0.00000   0.00000   0.00000   0.00000   0.00000   0.00000   0.00000   0.00000   0.00000   0.00000   0.00000   0.00000   0.00000   0.00000   0.00000   0.00000   0.00000   0.00000   0.00000   0.00000   0.00000   0.00000   0.00000   0.00000   0.00000   0.00000   0.00000   0.00000
-13.88471   0.00000   0.00000   0.00000   0.00000   0.00000   0.00000   0.00000   0.00000   0.00000   0.00000   0.00000   0.00000   0.00000   0.00000   0.00000   0.00000   0.00000   0.00000   0.00000   0.00000   0.00000   0.00000   0.00000   0.00000   0.00000   0.00000   0.00000   0.00000   0.00000   0.00000   0.00000   0.00000   0.00000   0.00000
-13.83459   0.00000   0.00000   0.00000   0.00000   0.00000   0.00000   0.00000   0.00000   0.00000   0.00000   0.00000   0.00000   0.00000   0.00000   0.00000   0.00000   0.00000   0.00000   0.00000   0.00000   0.00000   0.00000   0.00000   0.00000   0.00000   0.00000   0.00000   0.00000   0.00000   0.00000   0.00000   0.00000   0.00000   0.00000
-13.78446   0.00000   0.00000   0.00000   0.00000   0.00000   0.00000   0.00000   0.00000   0.00000   0.00000   0.00000   0.00000   0.00000   0.00000   0.00000   0.00000   0.00000   0.00000   0.00000   0.00000   0.00000   0.00000   0.00000   0.00000   0.00000   0.00000   0.00000   0.00000   0.00000   0.00000   0.00000   0.00000   0.00000   0.00000
-13.73434   0.00000   0.00000   0.00000   0.00000   0.00000   0.00000   0.00000   0.00000   0.00000   0.00000   0.00000   0.00000   0.00000   0.00000   0.00000   0.00000   0.00000   0.00000   0.00000   0.00000   0.00000   0.00000   0.00000   0.00000   0.00000   0.00000   0.00000   0.00000   0.00000   0.00000   0.00000   0.00000   0.00000   0.00000
-13.68421   0.00000   0.00000   0.00000   0.00000   0.00000   0.00000   0.00000   0.00000   0.00000   0.00000   0.00000   0.00000   0.00000   0.00000   0.00000   0.00000   0.00000   0.00000   0.00000   0.00000   0.00000   0.00000   0.00000   0.00000   0.00000   0.00000   0.00000   0.00000   0.00000   0.00000   0.00000   0.00000   0.00000   0.00000
-13.63409   0.00000   0.00000   0.00000   0.00000   0.00000   0.00000   0.00000   0.00000   0.00000   0.00000   0.00000   0.00000   0.00000   0.00000   0.00000   0.00000   0.00000   0.00000   0.00000   0.00000   0.00000   0.00000   0.00000   0.00000   0.00000   0.00000   0.00000   0.00000   0.00000   0.00000   0.00000   0.00000   0.00000   0.00000
-13.58396   0.00000   0.00000   0.00000   0.00000   0.00000   0.00000   0.00000   0.00000   0.00000   0.00000   0.00000   0.00000   0.00000   0.00000   0.00000   0.00000   0.00000   0.00000   0.00000   0.00000   0.00000   0.00000   0.00000   0.00000   0.00000   0.00000   0.00000   0.00000   0.00000   0.00000   0.00000   0.00000   0.00000   0.00000
-13.53383   0.00000   0.00000   0.00000   0.00000   0.00000   0.00000   0.00000   0.00000   0.00000   0.00000   0.00000   0.00000   0.00000   0.00000   0.00000   0.00000   0.00000   0.00000   0.00000   0.00000   0.00000   0.00000   0.00000   0.00000   0.00000   0.00000   0.00000   0.00000   0.00000   0.00000   0.00000   0.00000   0.00000   0.00000
-13.48371   0.00000   0.00000   0.00000   0.00000   0.00000   0.00000   0.00000   0.00000   0.00000   0.00000   0.00000   0.00000   0.00000   0.00000   0.00000   0.00000   0.00000   0.00000   0.00000   0.00000   0.00000   0.00000   0.00000   0.00000   0.00000   0.00000   0.00000   0.00000   0.00000   0.00000   0.00000   0.00000   0.00000   0.00000
-13.43358   0.00000   0.00000   0.00000   0.00000   0.00000   0.00000   0.00000   0.00000   0.00000   0.00000   0.00000   0.00000   0.00000   0.00000   0.00000   0.00000   0.00000   0.00000   0.00000   0.00000   0.00000   0.00000   0.00000   0.00000   0.00000   0.00000   0.00000   0.00000   0.00000   0.00000   0.00000   0.00000   0.00000   0.00000
-13.38346   0.00000   0.00000   0.00000   0.00000   0.00000   0.00000   0.00000   0.00000   0.00000   0.00000   0.00000   0.00000   0.00000   0.00000   0.00000   0.00000   0.00000   0.00000   0.00000   0.00000   0.00000   0.00000   0.00000   0.00000   0.00000   0.00000   0.00000   0.00000   0.00000   0.00000   0.00000   0.00000   0.00000   0.00000
-13.33333   0.00000   0.00000   0.00000   0.00000   0.00000   0.00000   0.00000   0.00000   0.00000   0.00000   0.00000   0.00000   0.00000   0.00000   0.00000   0.00000   0.00000   0.00000   0.00000   0.00000   0.00000   0.00000   0.00000   0.00000   0.00000   0.00000   0.00000   0.00000   0.00000   0.00000   0.00000   0.00000   0.00000   0.00000
-13.28321   0.00000   0.00000   0.00000   0.00000   0.00000   0.00000   0.00000   0.00000   0.00000   0.00000   0.00000   0.00000   0.00000   0.00000   0.00000   0.00000   0.00000   0.00000   0.00000   0.00000   0.00000   0.00000   0.00000   0.00000   0.00000   0.00000   0.00000   0.00000   0.00000   0.00000   0.00000   0.00000   0.00000   0.00000
-13.23308   0.00000   0.00000   0.00000   0.00000   0.00000   0.00000   0.00000   0.00000   0.00000   0.00000   0.00000   0.00000   0.00000   0.00000   0.00000   0.00000   0.00000   0.00000   0.00000   0.00000   0.00000   0.00000   0.00000   0.00000   0.00000   0.00000   0.00000   0.00000   0.00000   0.00000   0.00000   0.00000   0.00000   0.00000
-13.18296   0.00000   0.00000   0.00000   0.00000   0.00000   0.00000   0.00000   0.00000   0.00000   0.00000   0.00000   0.00000   0.00000   0.00000   0.00000   0.00000   0.00000   0.00000   0.00000   0.00000   0.00000   0.00000   0.00000   0.00000   0.00000   0.00000   0.00000   0.00000   0.00000   0.00000   0.00000   0.00000   0.00000   0.00000
-13.13283   0.00000   0.00000   0.00000   0.00000   0.00000   0.00000   0.00000   0.00000   0.00000   0.00000   0.00000   0.00000   0.00000   0.00000   0.00000   0.00000   0.00000   0.00000   0.00000   0.00000   0.00000   0.00000   0.00000   0.00000   0.00000   0.00000   0.00000   0.00000   0.00000   0.00000   0.00000   0.00000   0.00000   0.00000
-13.08271   0.00000   0.00000   0.00000   0.00000   0.00000   0.00000   0.00000   0.00000   0.00000   0.00000   0.00000   0.00000   0.00000   0.00000   0.00000   0.00000   0.00000   0.00000   0.00000   0.00000   0.00000   0.00000   0.00000   0.00000   0.00000   0.00000   0.00000   0.00000   0.00000   0.00000   0.00000   0.00000   0.00000   0.00000
-13.03258   0.00000   0.00000   0.00000   0.00000   0.00000   0.00000   0.00000   0.00000   0.00000   0.00000   0.00000   0.00000   0.00000   0.00000   0.00000   0.00000   0.00000   0.00000   0.00000   0.00000   0.00000   0.00000   0.00000   0.00000   0.00000   0.00000   0.00000   0.00000   0.00000   0.00000   0.00000   0.00000   0.00000   0.00000
-12.98246   0.00000   0.00000   0.00000   0.00000   0.00000   0.00000   0.00000   0.00000   0.00000   0.00000   0.00000   0.00000   0.00000   0.00000   0.00000   0.00000   0.00000   0.00000   0.00000   0.00000   0.00000   0.00000   0.00000   0.00000   0.00000   0.00000   0.00000   0.00000   0.00000   0.00000   0.00000   0.00000   0.00000   0.00000
-12.93233   0.00000   0.00000   0.00000   0.00000   0.00000   0.00000   0.00000   0.00000   0.00000   0.00000   0.00000   0.00000   0.00000   0.00000   0.00000   0.00000   0.00000   0.00000   0.00000   0.00000   0.00000   0.00000   0.00000   0.00000   0.00000   0.00000   0.00000   0.00000   0.00000   0.00000   0.00000   0.00000   0.00000   0.00000
-12.88221   0.00000   0.00000   0.00000   0.00000   0.00000   0.00000   0.00000   0.00000   0.00000   0.00000   0.00000   0.00000   0.00000   0.00000   0.00000   0.00000   0.00000   0.00000   0.00000   0.00000   0.00000   0.00000   0.00000   0.00000   0.00000   0.00000   0.00000   0.00000   0.00000   0.00000   0.00000   0.00000   0.00000   0.00000
-12.83208   0.00000   0.00000   0.00000   0.00000   0.00000   0.00000   0.00000   0.00000   0.00000   0.00000   0.00000   0.00000   0.00000   0.00000   0.00000   0.00000   0.00000   0.00000   0.00000   0.00000   0.00000   0.00000   0.00000   0.00000   0.00000   0.00000   0.00000   0.00000   0.00000   0.00000   0.00000   0.00000   0.00000   0.00000
-12.78195   0.00000   0.00000   0.00000   0.00000   0.00000   0.00000   0.00000   0.00000   0.00000   0.00000   0.00000   0.00000   0.00000   0.00000   0.00000   0.00000   0.00000   0.00000   0.00000   0.00000   0.00000   0.00000   0.00000   0.00000   0.00000   0.00000   0.00000   0.00000   0.00000   0.00000   0.00000   0.00000   0.00000   0.00000
-12.73183   0.00000   0.00000   0.00000   0.00000   0.00000   0.00000   0.00000   0.00000   0.00000   0.00000   0.00000   0.00000   0.00000   0.00000   0.00000   0.00000   0.00000   0.00000   0.00000   0.00000   0.00000   0.00000   0.00000   0.00000   0.00000   0.00000   0.00000   0.00000   0.00000   0.00000   0.00000   0.00000   0.00000   0.00000
-12.68170   0.00000   0.00000   0.00000   0.00000   0.00000   0.00000   0.00000   0.00000   0.00000   0.00000   0.00000   0.00000   0.00000   0.00000   0.00000   0.00000   0.00000   0.00000   0.00000   0.00000   0.00000   0.00000   0.00000   0.00000   0.00000   0.00000   0.00000   0.00000   0.00000   0.00000   0.00000   0.00000   0.00000   0.00000
-12.63158   0.00000   0.00000   0.00000   0.00000   0.00000   0.00000   0.00000   0.00000   0.00000   0.00000   0.00000   0.00000   0.00000   0.00000   0.00000   0.00000   0.00000   0.00000   0.00000   0.00000   0.00000   0.00000   0.00000   0.00000   0.00000   0.00000   0.00000   0.00000   0.00000   0.00000   0.00000   0.00000   0.00000   0.00000
-12.58145   0.00000   0.00000   0.00000   0.00000   0.00000   0.00000   0.00000   0.00000   0.00000   0.00000   0.00000   0.00000   0.00000   0.00000   0.00000   0.00000   0.00000   0.00000   0.00000   0.00000   0.00000   0.00000   0.00000   0.00000   0.00000   0.00000   0.00000   0.00000   0.00000   0.00000   0.00000   0.00000   0.00000   0.00000
-12.53133   0.00000   0.00000   0.00000   0.00000   0.00000   0.00000   0.00000   0.00000   0.00000   0.00000   0.00000   0.00000   0.00000   0.00000   0.00000   0.00000   0.00000   0.00000   0.00000   0.00000   0.00000   0.00000   0.00000   0.00000   0.00000   0.00000   0.00000   0.00000   0.00000   0.00000   0.00000   0.00000   0.00000   0.00000
-12.48120   0.00000   0.00000   0.00000   0.00000   0.00000   0.00000   0.00000   0.00000   0.00000   0.00000   0.00000   0.00000   0.00000   0.00000   0.00000   0.00000   0.00000   0.00000   0.00000   0.00000   0.00000   0.00000   0.00000   0.00000   0.00000   0.00000   0.00000   0.00000   0.00000   0.00000   0.00000   0.00000   0.00000   0.00000
-12.43108   0.00000   0.00000   0.00000   0.00000   0.00000   0.00000   0.00000   0.00000   0.00000   0.00000   0.00000   0.00000   0.00000   0.00000   0.00000   0.00000   0.00000   0.00000   0.00000   0.00000   0.00000   0.00000   0.00000   0.00000   0.00000   0.00000   0.00000   0.00000   0.00000   0.00000   0.00000   0.00000   0.00000   0.00000
-12.38095   0.00000   0.00000   0.00000   0.00000   0.00000   0.00000   0.00000   0.00000   0.00000   0.00000   0.00000   0.00000   0.00000   0.00000   0.00000   0.00000   0.00000   0.00000   0.00000   0.00000   0.00000   0.00000   0.00000   0.00000   0.00000   0.00000   0.00000   0.00000   0.00000   0.00000   0.00000   0.00000   0.00000   0.00000
-12.33083  -0.00000  -0.00000  -0.00003  -0.00000  -0.00000  -0.00000  -0.00000  -0.00000  -0.00000  -0.00000  -0.00000  -0.00000   0.00000   0.00000  -0.00000  -0.00000  -0.00000  -0.00000  -0.00000  -0.00000  -0.00000  -0.00000   0.00000   0.00000  -0.00000  -0.00000  -0.00000  -0.00000  -0.00000  -0.00000  -0.00000  -0.00000   0.00000   0.00000
-12.28070  -0.00329  -0.00016  -0.04732  -0.00237  -0.00024  -0.00001  -0.00024  -0.00001  -0.00024  -0.00001  -0.00157  -0.00008   0.00005   0.00000  -0.00000  -0.00000  -0.00000  -0.00000  -0.00157  -0.00008  -0.00000  -0.00000   0.00005   0.00000  -0.00000  -0.00000  -0.00157  -0.00008  -0.00000  -0.00000  -0.00000  -0.00000   0.00005   0.00000
-12.23058  -0.00673  -0.00050  -0.08667  -0.00672  -0.00095  -0.00006  -0.00095  -0.00006  -0.00095  -0.00006  -0.00621  -0.00039   0.00018   0.00001  -0.00002  -0.00000  -0.00002  -0.00000  -0.00621  -0.00039  -0.00002  -0.00000   0.00018   0.00001  -0.00002  -0.00000  -0.00621  -0.00039  -0.00002  -0.00000  -0.00002  -0.00000   0.00018   0.00001
-12.18045  -0.00911  -0.00096  -0.10580  -0.01202  -0.00179  -0.00015  -0.00179  -0.00015  -0.00179  -0.00015  -0.01172  -0.00098   0.00030   0.00003  -0.00006  -0.00000  -0.00005  -0.00000  -0.01172  -0.00098  -0.00006  -0.00000   0.00030   0.00003  -0.00006  -0.00000  -0.01172  -0.00098  -0.00005  -0.00000  -0.00006  -0.00000   0.00030   0.00003
-12.13033  -0.01103  -0.00151  -0.11610  -0.01784  -0.00269  -0.00028  -0.00269  -0.00028  -0.00269  -0.00028  -0.01759  -0.00186   0.00038   0.00005  -0.00011  -0.00001  -0.00010  -0.00001  -0.01759  -0.00186  -0.00011  -0.00001   0.00039   0.00005  -0.00011  -0.00001  -0.01758  -0.00186  -0.00010  -0.00001  -0.00011  -0.00001   0.00038   0.00005
-12.08020  -0.01286  -0.00216  -0.12471  -0.02409  -0.00360  -0.00046  -0.00360  -0.00046  -0.00360  -0.00046  -0.02354  -0.00304   0.00044   0.00007  -0.00017  -0.00002  -0.00016  -0.00002  -0.02354  -0.00304  -0.00017  -0.00002   0.00046   0.00007  -0.00017  -0.00002  -0.02354  -0.00304  -0.00016  -0.00002  -0.00017  -0.00002   0.00044   0.00007
-12.03008  -0.01450  -0.00288  -0.13001  -0.03061  -0.00451  -0.00069  -0.00451  -0.00069  -0.00451  -0.00069  -0.02947  -0.00452   0.00047   0.00009  -0.00024  -0.00003  -0.00022  -0.00003  -0.02948  -0.00452  -0.00024  -0.00003   0.00049   0.00009  -0.00024  -0.00003  -0.02947  -0.00452  -0.00022  -0.00003  -0.00024  -0.00003   0.00047   0.00009
-11.97995  -0.01616  -0.00369  -0.13590  -0.03742  -0.00541  -0.00096  -0.00541  -0.00096  -0.00541  -0.00096  -0.03534  -0.00629   0.00048   0.00012  -0.00031  -0.00005  -0.00028  -0.00004  -0.03534  -0.00629  -0.00031  -0.00005   0.00052   0.00012  -0.00031  -0.00005  -0.03534  -0.00629  -0.00028  -0.00004  -0.00031  -0.00005   0.00048   0.00012
-11.92982  -0.01760  -0.00458  -0.13813  -0.04434  -0.00631  -0.00128  -0.00631  -0.00128  -0.00631  -0.00128  -0.04123  -0.00835   0.00046   0.00014  -0.00039  -0.00007  -0.00034  -0.00006  -0.04123  -0.00835  -0.00039  -0.00007   0.00052   0.00015  -0.00039  -0.00007  -0.04122  -0.00835  -0.00034  -0.00006  -0.00039  -0.00007   0.00046   0.00014
-11.87970  -0.01914  -0.00553  -0.14251  -0.05149  -0.00719  -0.00164  -0.00719  -0.00164  -0.00719  -0.00164  -0.04697  -0.01071   0.00045   0.00016  -0.00047  -0.00009  -0.00039  -0.00008  -0.04697  -0.01071  -0.00047  -0.00009   0.00052   0.00017  -0.00047  -0.00009  -0.04697  -0.01071  -0.00039  -0.00008  -0.00047  -0.00009   0.00045   0.00016
-11.82957  -0.02057  -0.00657  -0.14476  -0.05874  -0.00807  -0.00204  -0.00807  -0.00204  -0.00807  -0.00204  -0.05281  -0.01336   0.00042   0.00018  -0.00054  -0.00012  -0.00045  -0.00010  -0.05281  -0.01336  -0.00054  -0.00012   0.00052   0.00020  -0.00054  -0.00012  -0.05281  -0.01335  -0.00045  -0.00010  -0.00054  -0.00012   0.00042   0.00018
-11.77945  -0.02195  -0.00767  -0.14641  -0.06608  -0.00894  -0.00249  -0.00894  -0.00249  -0.00894  -0.00249  -0.05861  -0.01629   0.00040   0.00020  -0.00061  -0.00015  -0.00049  -0.00013  -0.05861  -0.01629  -0.00061  -0.00015   0.00051   0.00022  -0.00061  -0.00015  -0.05861  -0.01629  -0.00049  -0.00013  -0.00061  -0.00015   0.00040   0.00020
-11.72932  -0.02340  -0.00884  -0.14953  -0.07358  -0.00980  -0.00298  -0.00980  -0.00298  -0.00980  -0.00298  -0.06436  -0.01952   0.00038   0.00022  -0.00067  -0.00018  -0.00053  -0.00015  -0.06436  -0.01952  -0.00067  -0.00018   0.00052   0.00025  -0.00067  -0.00018  -0.06436  -0.01952  -0.00053  -0.00015  -0.00067  -0.00018   0.00038   0.00022
-11.67920  -0.02479  -0.01008  -0.15096  -0.08114  -0.01066  -0.00352  -0.01066  -0.00352  -0.01066  -0.00352  -0.07030  -0.02304   0.00036   0.00024  -0.00072  -0.00022  -0.00056  -0.00018  -0.07030  -0.02304  -0.00072  -0.00022   0.00053   0.00028  -0.00072  -0.00022  -0.07030  -0.02304  -0.00056  -0.00018  -0.00072  -0.00022   0.00036   0.00024
-11.62907  -0.02617  -0.01139  -0.15211  -0.08877  -0.01152  -0.00409  -0.01152  -0.00410  -0.01152  -0.00409  -0.07633  -0.02687   0.00035   0.00026  -0.00077  -0.00026  -0.00057  -0.00021  -0.07633  -0.02687  -0.00077  -0.00026   0.00055   0.00030  -0.00077  -0.00026  -0.07634  -0.02687  -0.00057  -0.00021  -0.00077  -0.00026   0.00035   0.00026
-11.57895  -0.02760  -0.01278  -0.15422  -0.09650  -0.01237  -0.00472  -0.01237  -0.00472  -0.01237  -0.00471  -0.08239  -0.03100   0.00035   0.00027  -0.00081  -0.00030  -0.00058  -0.00024  -0.08239  -0.03100  -0.00081  -0.00030   0.00059   0.00033  -0.00081  -0.00030  -0.08240  -0.03100  -0.00058  -0.00024  -0.00081  -0.00030   0.00035   0.00027
-11.52882  -0.02906  -0.01423  -0.15599  -0.10432  -0.01324  -0.00538  -0.01324  -0.00538  -0.01324  -0.00538  -0.08870  -0.03545   0.00036   0.00029  -0.00084  -0.00034  -0.00057  -0.00027  -0.08870  -0.03545  -0.00084  -0.00034   0.00064   0.00037  -0.00084  -0.00034  -0.08870  -0.03545  -0.00057  -0.00027  -0.00084  -0.00034   0.00036   0.00029
-11.47870  -0.03052  -0.01576  -0.15670  -0.11217  -0.01412  -0.00609  -0.01412  -0.00609  -0.01412  -0.00609  -0.09543  -0.04023   0.00039   0.00031  -0.00086  -0.00038  -0.00054  -0.00029  -0.09543  -0.04023  -0.00086  -0.00038   0.00071   0.00040  -0.00086  -0.00038  -0.09543  -0.04023  -0.00054  -0.00029  -0.00086  -0.00038   0.00039   0.00031
-11.42857  -0.03205  -0.01737  -0.15810  -0.12010  -0.01500  -0.00684  -0.01500  -0.00684  -0.01500  -0.00684  -0.10228  -0.04536   0.00044   0.00033  -0.00087  -0.00043  -0.00050  -0.00032  -0.10228  -0.04536  -0.00087  -0.00043   0.00081   0.00044  -0.00087  -0.00043  -0.10228  -0.04536  -0.00050  -0.00032  -0.00087  -0.00043   0.00044   0.00033
-11.37845  -0.03363  -0.01906  -0.16006  -0.12812  -0.01589  -0.00763  -0.01589  -0.00763  -0.01589  -0.00763  -0.10933  -0.05084   0.00051   0.00036  -0.00087  -0.00047  -0.00045  -0.00034  -0.10933  -0.05084  -0.00087  -0.00047   0.00094   0.00049  -0.00087  -0.00047  -0.10933  -0.05084  -0.00045  -0.00034  -0.00087  -0.00047   0.00051   0.00036
-11.32832  -0.03532  -0.02083  -0.16101  -0.13619  -0.01682  -0.00848  -0.01682  -0.00848  -0.01682  -0.00848  -0.11723  -0.05671   0.00060   0.00039  -0.00086  -0.00051  -0.00036  -0.00036  -0.11723  -0.05671  -0.00086  -0.00051   0.00109   0.00054  -0.00086  -0.00051  -0.11723  -0.05671  -0.00036  -0.00036  -0.00086  -0.00051   0.00060   0.00039
-11.27820  -0.03710  -0.02268  -0.16206  -0.14432  -0.01778  -0.00937  -0.01778  -0.00937  -0.01778  -0.00937  -0.12569  -0.06301   0.00072   0.00043  -0.00083  -0.00055  -0.00026  -0.00037  -0.12569  -0.06301  -0.00083  -0.00055   0.00129   0.00061  -0.00083  -0.00055  -0.12569  -0.06301  -0.00026  -0.00037  -0.00083  -0.00055   0.00072   0.00043
-11.22807  -0.03898  -0.02464  -0.16372  -0.15252  -0.01876  -0.01031  -0.01876  -0.01031  -0.01877  -0.01031  -0.13453  -0.06976   0.00088   0.00047  -0.00079  -0.00059  -0.00014  -0.00038  -0.13453  -0.06976  -0.00079  -0.00059   0.00153   0.00068  -0.00079  -0.00059  -0.13453  -0.06976  -0.00014  -0.00038  -0.00079  -0.00059   0.00088   0.00047
-11.17794  -0.04101  -0.02669  -0.16565  -0.16083  -0.01979  -0.01130  -0.01979  -0.01130  -0.01979  -0.01130  -0.14407  -0.07698   0.00106   0.00052  -0.00073  -0.00063   0.00002  -0.00038  -0.14407  -0.07698  -0.00073  -0.00063   0.00181   0.00078  -0.00073  -0.00063  -0.14408  -0.07698   0.00002  -0.00038  -0.00073  -0.00063   0.00106   0.00052
-11.12782  -0.04334  -0.02887  -0.16691  -0.16919  -0.02092  -0.01235  -0.02092  -0.01235  -0.02092  -0.01235  -0.15549  -0.08477   0.00131   0.00059  -0.00064  -0.00066   0.00022  -0.00037  -0.15549  -0.08477  -0.00064  -0.00066   0.00217   0.00088  -0.00064  -0.00066  -0.15549  -0.08477   0.00022  -0.00037  -0.00064  -0.00066   0.00131   0.00059
-11.07769  -0.04592  -0.03117  -0.16884  -0.17765  -0.02213  -0.01346  -0.02213  -0.01346  -0.02213  -0.01346  -0.16809  -0.09320   0.00162   0.00067  -0.00052  -0.00069   0.00047  -0.00034  -0.16809  -0.09320  -0.00052  -0.00069   0.00261   0.00101  -0.00052  -0.00069  -0.16809  -0.09320   0.00047  -0.00034  -0.00052  -0.00069   0.00162   0.00067
-11.02757  -0.04878  -0.03361  -0.17162  -0.18626  -0.02344  -0.01463  -0.02344  -0.01463  -0.02344  -0.01463  -0.18189  -0.10232   0.00199   0.00077  -0.00038  -0.00071   0.00077  -0.00030  -0.18189  -0.10232  -0.00038  -0.00071   0.00314   0.00117  -0.00038  -0.00071  -0.18188  -0.10231   0.00077  -0.00030  -0.00038  -0.00071   0.00199   0.00077
-10.97744  -0.05219  -0.03623  -0.17499  -0.19503  -0.02496  -0.01589  -0.02496  -0.01589  -0.02496  -0.01589  -0.19847  -0.11226   0.00248   0.00089  -0.00019  -0.00072   0.00115  -0.00025  -0.19848  -0.11226  -0.00019  -0.00072   0.00382   0.00136  -0.00019  -0.00072  -0.19847  -0.11226   0.00115  -0.00025  -0.00019  -0.00072   0.00248   0.00089
-10.92732  -0.05663  -0.03907  -0.17926  -0.20401  -0.02689  -0.01723  -0.02689  -0.01723  -0.02689  -0.01723  -0.22032  -0.12331   0.00316   0.00105   0.00009  -0.00071   0.00170  -0.00016  -0.22032  -0.12331   0.00009  -0.00071   0.00477   0.00160   0.00009  -0.00071  -0.22032  -0.12331   0.00170  -0.00016   0.00009  -0.00071   0.00316   0.00105
-10.87719  -0.06255  -0.04220  -0.18743  -0.21341  -0.02957  -0.01872  -0.02957  -0.01872  -0.02957  -0.01872  -0.24878  -0.13578   0.00419   0.00126   0.00051  -0.00069   0.00251  -0.00004  -0.24878  -0.13578   0.00051  -0.00069   0.00620   0.00191   0.00051  -0.00069  -0.24877  -0.13578   0.00251  -0.00004   0.00051  -0.00069   0.00419   0.00126
-10.82707  -0.07313  -0.04587  -0.20894  -0.22388  -0.03498  -0.02047  -0.03498  -0.02047  -0.03498  -0.02047  -0.29732  -0.15068   0.00633   0.00158   0.00137  -0.00062   0.00421   0.00018  -0.29732  -0.15068   0.00137  -0.00062   0.00917   0.00237   0.00137  -0.00062  -0.29732  -0.15068   0.00421   0.00018   0.00137  -0.00062   0.00633   0.00158
-10.77694  -0.07993  -0.04988  -0.21023  -0.23442  -0.03694  -0.02232  -0.03694  -0.02232  -0.03694  -0.02232  -0.33319  -0.16738   0.00727   0.00194   0.00174  -0.00053   0.00487   0.00042  -0.33319  -0.16738   0.00174  -0.00053   0.01040   0.00289   0.00174  -0.00053  -0.33319  -0.16738   0.00487   0.00042   0.00174  -0.00053   0.00727   0.00194
-10.72682  -0.07945  -0.05386  -0.19086  -0.24399  -0.03439  -0.02405  -0.03439  -0.02405  -0.03439  -0.02404  -0.33780  -0.18431   0.00647   0.00227   0.00144  -0.00046   0.00418   0.00063  -0.33780  -0.18431   0.00144  -0.00046   0.00922   0.00336   0.00144  -0.00046  -0.33780  -0.18431   0.00418   0.00063   0.00144  -0.00046   0.00647   0.00227
-10.67669  -0.07929  -0.05783  -0.17417  -0.25272  -0.03217  -0.02566  -0.03217  -0.02566  -0.03217  -0.02566  -0.34334  -0.20152   0.00580   0.00256   0.00121  -0.00040   0.00366   0.00081  -0.34334  -0.20152   0.00121  -0.00040   0.00825   0.00377   0.00121  -0.00040  -0.34334  -0.20152   0.00366   0.00081   0.00121  -0.00040   0.00580   0.00256
-10.62657  -0.07988  -0.06184  -0.15710  -0.26059  -0.02994  -0.02716  -0.02994  -0.02716  -0.02994  -0.02716  -0.35316  -0.21923   0.00519   0.00282   0.00105  -0.00034   0.00322   0.00097  -0.35316  -0.21923   0.00105  -0.00034   0.00736   0.00414   0.00105  -0.00034  -0.35316  -0.21923   0.00322   0.00097   0.00105  -0.00034   0.00519   0.00282
-10.57644  -0.07988  -0.06584  -0.14035  -0.26763  -0.02749  -0.02854  -0.02749  -0.02854  -0.02749  -0.02854  -0.35998  -0.23727   0.00454   0.00305   0.00089  -0.00030   0.00278   0.00111  -0.35998  -0.23727   0.00089  -0.00030   0.00643   0.00446   0.00089  -0.00030  -0.35997  -0.23727   0.00278   0.00111   0.00089  -0.00030   0.00454   0.00305
-10.52632  -0.08013  -0.06986  -0.12508  -0.27390  -0.02516  -0.02980  -0.02516  -0.02980  -0.02516  -0.02980  -0.36771  -0.25570   0.00400   0.00325   0.00079  -0.00026   0.00243   0.00124  -0.36771  -0.25570   0.00079  -0.00026   0.00564   0.00474   0.00079  -0.00026  -0.36771  -0.25570   0.00243   0.00124   0.00079  -0.00026   0.00400   0.00325
-10.47619  -0.08103  -0.07392  -0.10888  -0.27935  -0.02258  -0.03093  -0.02258  -0.03093  -0.02258  -0.03093  -0.37961  -0.27473   0.00346   0.00342   0.00073  -0.00022   0.00210   0.00134  -0.37961  -0.27473   0.00073  -0.00022   0.00483   0.00499   0.00073  -0.00022  -0.37961  -0.27473   0.00210   0.00134   0.00073  -0.00022   0.00346   0.00342
-10.42607  -0.08181  -0.07802  -0.09411  -0.28407  -0.02005  -0.03193  -0.02005  -0.03193  -0.02005  -0.03193  -0.39045  -0.29430   0.00300   0.00357   0.00070  -0.00019   0.00184   0.00143  -0.39045  -0.29430   0.00070  -0.00019   0.00413   0.00519   0.00070  -0.00019  -0.39045  -0.29430   0.00184   0.00143   0.00070  -0.00019   0.00300   0.00357
-10.37594  -0.08336  -0.08220  -0.07892  -0.28803  -0.01724  -0.03280  -0.01724  -0.03280  -0.01724  -0.03280  -0.40577  -0.31464   0.00252   0.00370   0.00066  -0.00016   0.00156   0.00151  -0.40577  -0.31464   0.00066  -0.00016   0.00341   0.00536   0.00066  -0.00016  -0.40577  -0.31464   0.00156   0.00151   0.00066  -0.00016   0.00252   0.00370
-10.32581  -0.08541  -0.08648  -0.06456  -0.29126  -0.01438  -0.03352  -0.01438  -0.03352  -0.01438  -0.03352  -0.42366  -0.33588   0.00208   0.00380   0.00062  -0.00012   0.00132   0.00158  -0.42366  -0.33588   0.00062  -0.00012   0.00278   0.00550   0.00062  -0.00012  -0.42366  -0.33588   0.00132   0.00158   0.00062  -0.00012   0.00208   0.00380
-10.27569  -0.08902  -0.09094  -0.04981  -0.29376  -0.01118  -0.03408  -0.01118  -0.03408  -0.01118  -0.03408  -0.45022  -0.35844   0.00162   0.00388   0.00055  -0.00010   0.00106   0.00163  -0.45022  -0.35844   0.00055  -0.00010   0.00214   0.00561   0.00055  -0.00010  -0.45022  -0.35844   0.00106   0.00163   0.00055  -0.00010   0.00162   0.00388
-10.22556  -0.09678  -0.09579  -0.03461  -0.29549  -0.00771  -0.03447  -0.00771  -0.03447  -0.00771  -0.03447  -0.49930  -0.38347   0.00117   0.00394   0.00044  -0.00007   0.00080   0.00167  -0.49930  -0.38347   0.00044  -0.00007   0.00152   0.00569   0.00044  -0.00007  -0.49930  -0.38347   0.00080   0.00167   0.00044  -0.00007   0.00117   0.00394
-10.17544  -0.09858  -0.10073  -0.01512  -0.29625  -0.00333  -0.03463  -0.00333  -0.03463  -0.00333  -0.03463  -0.51871  -0.40947   0.00061   0.00397   0.00026  -0.00006   0.00045   0.00169  -0.51871  -0.40947   0.00026  -0.00006   0.00079   0.00573   0.00026  -0.00006  -0.51871  -0.40947   0.00045   0.00169   0.00026  -0.00006   0.00061   0.00397
-10.12531  -0.00499  -0.10098  -0.00023  -0.29626  -0.00006  -0.03464  -0.00006  -0.03464  -0.00006  -0.03464  -0.02652  -0.41080   0.00001   0.00397   0.00001  -0.00006   0.00001   0.00169  -0.02652  -0.41080   0.00001  -0.00006   0.00002   0.00573   0.00001  -0.00006  -0.02652  -0.41080   0.00001   0.00169   0.00001  -0.00006   0.00001   0.00397
-10.07519   0.00000  -0.10098   0.00000  -0.29626   0.00000  -0.03464   0.00000  -0.03464   0.00000  -0.03464   0.00000  -0.41080   0.00000   0.00397   0.00000  -0.00006   0.00000   0.00169   0.00000  -0.41080   0.00000  -0.00006   0.00000   0.00573   0.00000  -0.00006   0.00000  -0.41080   0.00000   0.00169   0.00000  -0.00006   0.00000   0.00397
-10.02506   0.00000  -0.10098   0.00000  -0.29626   0.00000  -0.03464   0.00000  -0.03464   0.00000  -0.03464   0.00000  -0.41080   0.00000   0.00397   0.00000  -0.00006   0.00000   0.00169   0.00000  -0.41080   0.00000  -0.00006   0.00000   0.00573   0.00000  -0.00006   0.00000  -0.41080   0.00000   0.00169   0.00000  -0.00006   0.00000   0.00397
 -9.97494   0.00000  -0.10098   0.00000  -0.29626   0.00000  -0.03464   0.00000  -0.03464   0.00000  -0.03464   0.00000  -0.41080   0.00000   0.00397   0.00000  -0.00006   0.00000   0.00169   0.00000  -0.41080   0.00000  -0.00006   0.00000   0.00573   0.00000  -0.00006   0.00000  -0.41080   0.00000   0.00169   0.00000  -0.00006   0.00000   0.00397
 -9.92481   0.00000  -0.10098   0.00000  -0.29626   0.00000  -0.03464   0.00000  -0.03464   0.00000  -0.03464   0.00000  -0.41080   0.00000   0.00397   0.00000  -0.00006   0.00000   0.00169   0.00000  -0.41080   0.00000  -0.00006   0.00000   0.00573   0.00000  -0.00006   0.00000  -0.41080   0.00000   0.00169   0.00000  -0.00006   0.00000   0.00397