ESCALE ; pCOHP file generated by LOBSTER. Energy is shifted such that the Fermi level lies at 0 eV.
       127          1          6  -1.41247e+01   4.62525e+00  -2.87475e+00 
Average
No.1:F1->K2(2.7119923200622269)
No.2:F1[2s]->K2[3s](2.7119923200622269)
No.2:F1[2s]->K2[4s](2.7119923200622269)
No.2:F1[2s]->K2[3p_y](2.7119923200622269)
No.2:F1[2s]->K2[3p_z](2.7119923200622269)
No.2:F1[2s]->K2[3p_x](2.7119923200622269)
No.2:F1[2p_y]->K2[3s](2.7119923200622269)
No.2:F1[2p_y]->K2[4s](2.7119923200622269)
No.2:F1[2p_y]->K2[3p_y](2.7119923200622269)
No.2:F1[2p_y]->K2[3p_z](2.7119923200622269)
No.2:F1[2p_y]->K2[3p_x](2.7119923200622269)
No.2:F1[2p_z]->K2[3s](2.7119923200622269)
No.2:F1[2p_z]->K2[4s](2.7119923200622269)
No.2:F1[2p_z]->K2[3p_y](2.7119923200622269)
No.2:F1[2p_z]->K2[3p_z](2.7119923200622269)
No.2:F1[2p_z]->K2[3p_x](2.7119923200622269)
No.2:F1[2p_x]->K2[3s](2.7119923200622269)
No.2:F1[2p_x]->K2[4s](2.7119923200622269)
No.2:F1[2p_x]->K2[3p_y](2.7119923200622269)
No.2:F1[2p_x]->K2[3p_z](2.7119923200622269)
No.2:F1[2p_x]->K2[3p_x](2.7119923200622269)
No.3:F1->K2(2.7119923200622269)
No.4:F1[2s]->K2[3s](2.7119923200622269)
No.4:F1[2s]->K2[4s](2.7119923200622269)
No.4:F1[2s]->K2[3p_y](2.7119923200622269)
No.4:F1[2s]->K2[3p_z](2.7119923200622269)
No.4:F1[2s]->K2[3p_x](2.7119923200622269)
No.4:F1[2p_y]->K2[3s](2.7119923200622269)
No.4:F1[2p_y]->K2[4s](2.7119923200622269)
No.4:F1[2p_y]->K2[3p_y](2.7119923200622269)
No.4:F1[2p_y]->K2[3p_z](2.7119923200622269)
No.4:F1[2p_y]->K2[3p_x](2.7119923200622269)
No.4:F1[2p_z]->K2[3s](2.7119923200622269)
No.4:F1[2p_z]->K2[4s](2.7119923200622269)
No.4:F1[2p_z]->K2[3p_y](2.7119923200622269)
No.4:F1[2p_z]->K2[3p_z](2.7119923200622269)
No.4:F1[2p_z]->K2[3p_x](2.7119923200622269)
No.4:F1[2p_x]->K2[3s](2.7119923200622269)
No.4:F1[2p_x]->K2[4s](2.7119923200622269)
No.4:F1[2p_x]->K2[3p_y](2.7119923200622269)
No.4:F1[2p_x]->K2[3p_z](2.7119923200622269)
No.4:F1[2p_x]->K2[3p_x](2.7119923200622269)
No.5:F1->K2(2.7119923576010501)
No.6:F1[2s]->K2[3s](2.7119923576010501)
No.6:F1[2s]->K2[4s](2.7119923576010501)
No.6:F1[2s]->K2[3p_y](2.7119923576010501)
No.6:F1[2s]->K2[3p_z](2.7119923576010501)
No.6:F1[2s]->K2[3p_x](2.7119923576010501)
No.6:F1[2p_y]->K2[3s](2.7119923576010501)
No.6:F1[2p_y]->K2[4s](2.7119923576010501)
No.6:F1[2p_y]->K2[3p_y](2.7119923576010501)
No.6:F1[2p_y]->K2[3p_z](2.7119923576010501)
No.6:F1[2p_y]->K2[3p_x](2.7119923576010501)
No.6:F1[2p_z]->K2[3s](2.7119923576010501)
No.6:F1[2p_z]->K2[4s](2.7119923576010501)
No.6:F1[2p_z]->K2[3p_y](2.7119923576010501)
No.6:F1[2p_z]->K2[3p_z](2.7119923576010501)
No.6:F1[2p_z]->K2[3p_x](2.7119923576010501)
No.6:F1[2p_x]->K2[3s](2.7119923576010501)
No.6:F1[2p_x]->K2[4s](2.7119923576010501)
No.6:F1[2p_x]->K2[3p_y](2.7119923576010501)
No.6:F1[2p_x]->K2[3p_z](2.7119923576010501)
No.6:F1[2p_x]->K2[3p_x](2.7119923576010501)
No.7:F1->K2(2.7119923576010501)
No.8:F1[2s]->K2[3s](2.7119923576010501)
No.8:F1[2s]->K2[4s](2.7119923576010501)
No.8:F1[2s]->K2[3p_y](2.7119923576010501)
No.8:F1[2s]->K2[3p_z](2.7119923576010501)
No.8:F1[2s]->K2[3p_x](2.7119923576010501)
No.8:F1[2p_y]->K2[3s](2.7119923576010501)
No.8:F1[2p_y]->K2[4s](2.7119923576010501)
No.8:F1[2p_y]->K2[3p_y](2.7119923576010501)
No.8:F1[2p_y]->K2[3p_z](2.7119923576010501)
No.8:F1[2p_y]->K2[3p_x](2.7119923576010501)
No.8:F1[2p_z]->K2[3s](2.7119923576010501)
No.8:F1[2p_z]->K2[4s](2.7119923576010501)
No.8:F1[2p_z]->K2[3p_y](2.7119923576010501)
No.8:F1[2p_z]->K2[3p_z](2.7119923576010501)
No.8:F1[2p_z]->K2[3p_x](2.7119923576010501)
No.8:F1[2p_x]->K2[3s](2.7119923576010501)
No.8:F1[2p_x]->K2[4s](2.7119923576010501)
No.8:F1[2p_x]->K2[3p_y](2.7119923576010501)
No.8:F1[2p_x]->K2[3p_z](2.7119923576010501)
No.8:F1[2p_x]->K2[3p_x](2.7119923576010501)
No.9:F1->K2(2.7119923200622269)
No.10:F1[2s]->K2[3s](2.7119923200622269)
No.10:F1[2s]->K2[4s](2.7119923200622269)
No.10:F1[2s]->K2[3p_y](2.7119923200622269)
No.10:F1[2s]->K2[3p_z](2.7119923200622269)
No.10:F1[2s]->K2[3p_x](2.7119923200622269)
No.10:F1[2p_y]->K2[3s](2.7119923200622269)
No.10:F1[2p_y]->K2[4s](2.7119923200622269)
No.10:F1[2p_y]->K2[3p_y](2.7119923200622269)
No.10:F1[2p_y]->K2[3p_z](2.7119923200622269)
No.10:F1[2p_y]->K2[3p_x](2.7119923200622269)
No.10:F1[2p_z]->K2[3s](2.7119923200622269)
No.10:F1[2p_z]->K2[4s](2.7119923200622269)
No.10:F1[2p_z]->K2[3p_y](2.7119923200622269)
No.10:F1[2p_z]->K2[3p_z](2.7119923200622269)
No.10:F1[2p_z]->K2[3p_x](2.7119923200622269)
No.10:F1[2p_x]->K2[3s](2.7119923200622269)
No.10:F1[2p_x]->K2[4s](2.7119923200622269)
No.10:F1[2p_x]->K2[3p_y](2.7119923200622269)
No.10:F1[2p_x]->K2[3p_z](2.7119923200622269)
No.10:F1[2p_x]->K2[3p_x](2.7119923200622269)
No.11:F1->K2(2.7119923200622269)
No.12:F1[2s]->K2[3s](2.7119923200622269)
No.12:F1[2s]->K2[4s](2.7119923200622269)
No.12:F1[2s]->K2[3p_y](2.7119923200622269)
No.12:F1[2s]->K2[3p_z](2.7119923200622269)
No.12:F1[2s]->K2[3p_x](2.7119923200622269)
No.12:F1[2p_y]->K2[3s](2.7119923200622269)
No.12:F1[2p_y]->K2[4s](2.7119923200622269)
No.12:F1[2p_y]->K2[3p_y](2.7119923200622269)
No.12:F1[2p_y]->K2[3p_z](2.7119923200622269)
No.12:F1[2p_y]->K2[3p_x](2.7119923200622269)
No.12:F1[2p_z]->K2[3s](2.7119923200622269)
No.12:F1[2p_z]->K2[4s](2.7119923200622269)
No.12:F1[2p_z]->K2[3p_y](2.7119923200622269)
No.12:F1[2p_z]->K2[3p_z](2.7119923200622269)
No.12:F1[2p_z]->K2[3p_x](2.7119923200622269)
No.12:F1[2p_x]->K2[3s](2.7119923200622269)
No.12:F1[2p_x]->K2[4s](2.7119923200622269)
No.12:F1[2p_x]->K2[3p_y](2.7119923200622269)
No.12:F1[2p_x]->K2[3p_z](2.7119923200622269)
No.12:F1[2p_x]->K2[3p_x](2.7119923200622269)
-11.25000   0.00000  -0.02791   0.00000  -0.29304   0.00000  -0.00161   0.00000  -0.27184   0.00000  -0.00259   0.00000  -0.00389   0.00000  -0.00130   0.00000  -0.00497   0.00000   0.00106   0.00000  -0.00002   0.00000  -0.00000   0.00000  -0.00000   0.00000  -0.00746   0.00000   0.00159   0.00000  -0.00000   0.00000  -0.00003   0.00000  -0.00000   0.00000  -0.00249   0.00000   0.00053   0.00000  -0.00000   0.00000  -0.00000   0.00000  -0.00001   0.00000  -0.29304   0.00000  -0.00161   0.00000  -0.27184   0.00000  -0.00259   0.00000  -0.00389   0.00000  -0.00130   0.00000  -0.00497   0.00000   0.00106   0.00000  -0.00002   0.00000  -0.00000   0.00000  -0.00000   0.00000  -0.00746   0.00000   0.00159   0.00000  -0.00000   0.00000  -0.00003   0.00000  -0.00000   0.00000  -0.00249   0.00000   0.00053   0.00000  -0.00000   0.00000  -0.00000   0.00000  -0.00001   0.00000  -0.29309   0.00000  -0.00161   0.00000  -0.27189   0.00000  -0.00259   0.00000  -0.00000   0.00000  -0.00519   0.00000  -0.00497   0.00000   0.00106   0.00000  -0.00002   0.00000  -0.00000   0.00000  -0.00001   0.00000  -0.00000   0.00000  -0.00000   0.00000  -0.00000   0.00000   0.00001   0.00000  -0.00000   0.00000  -0.00995   0.00000   0.00212   0.00000  -0.00001   0.00000  -0.00000   0.00000  -0.00005   0.00000  -0.29309   0.00000  -0.00161   0.00000  -0.27189   0.00000  -0.00259   0.00000  -0.00000   0.00000  -0.00519   0.00000  -0.00497   0.00000   0.00106   0.00000  -0.00002   0.00000  -0.00000   0.00000  -0.00001   0.00000  -0.00000   0.00000  -0.00000   0.00000  -0.00000   0.00000   0.00001   0.00000  -0.00000   0.00000  -0.00995   0.00000   0.00212   0.00000  -0.00001   0.00000  -0.00000   0.00000  -0.00005   0.00000  -0.29304   0.00000  -0.00161   0.00000  -0.27184   0.00000  -0.00259   0.00000  -0.00389   0.00000  -0.00130   0.00000  -0.00497   0.00000   0.00106   0.00000  -0.00002   0.00000  -0.00000   0.00000  -0.00000   0.00000  -0.00746   0.00000   0.00159   0.00000  -0.00000   0.00000  -0.00003   0.00000  -0.00000   0.00000  -0.00249   0.00000   0.00053   0.00000  -0.00000   0.00000  -0.00000   0.00000  -0.00001   0.00000  -0.29304   0.00000  -0.00161   0.00000  -0.27184   0.00000  -0.00259   0.00000  -0.00389   0.00000  -0.00130   0.00000  -0.00497   0.00000   0.00106   0.00000  -0.00002   0.00000  -0.00000   0.00000  -0.00000   0.00000  -0.00746   0.00000   0.00159   0.00000  -0.00000   0.00000  -0.00003   0.00000  -0.00000   0.00000  -0.00249   0.00000   0.00053   0.00000  -0.00000   0.00000  -0.00000   0.00000  -0.00001
 -7.50000  -0.00120  -0.03242  -0.01263  -0.34042   0.00001  -0.00157   0.00274  -0.26157   0.00086   0.00061   0.00128   0.00092   0.00043   0.00031  -0.00000  -0.00498  -0.00010   0.00070  -0.00102  -0.00383  -0.00365  -0.01370  -0.00122  -0.00457  -0.00000  -0.00746  -0.00015   0.00105  -0.00365  -0.01370  -0.00321  -0.01207  -0.00183  -0.00685  -0.00000  -0.00249  -0.00005   0.00035  -0.00122  -0.00457  -0.00183  -0.00685  -0.00004  -0.00016  -0.01263  -0.34041   0.00001  -0.00157   0.00274  -0.26156   0.00086   0.00061   0.00128   0.00092   0.00043   0.00031  -0.00000  -0.00498  -0.00010   0.00070  -0.00102  -0.00383  -0.00365  -0.01370  -0.00122  -0.00457  -0.00000  -0.00746  -0.00015   0.00105  -0.00365  -0.01370  -0.00321  -0.01207  -0.00183  -0.00685  -0.00000  -0.00249  -0.00005   0.00035  -0.00122  -0.00457  -0.00183  -0.00685  -0.00004  -0.00016  -0.01263  -0.34047   0.00001  -0.00157   0.00274  -0.26162   0.00086   0.00061  -0.00000  -0.00000   0.00171   0.00123  -0.00000  -0.00498  -0.00010   0.00070  -0.00102  -0.00383  -0.00000  -0.00000  -0.00487  -0.01827   0.00000  -0.00000  -0.00000  -0.00000  -0.00000  -0.00000  -0.00028  -0.00106   0.00000   0.00000  -0.00000  -0.00995  -0.00019   0.00139  -0.00487  -0.01827  -0.00000  -0.00000  -0.00662  -0.02487  -0.01263  -0.34047   0.00001  -0.00157   0.00274  -0.26162   0.00086   0.00061  -0.00000  -0.00000   0.00171   0.00123  -0.00000  -0.00498  -0.00010   0.00070  -0.00102  -0.00383  -0.00000  -0.00000  -0.00487  -0.01827   0.00000  -0.00000  -0.00000  -0.00000   0.00000   0.00000  -0.00028  -0.00106   0.00000   0.00000  -0.00000  -0.00995  -0.00019   0.00139  -0.00487  -0.01827  -0.00000  -0.00000  -0.00662  -0.02487  -0.01263  -0.34041   0.00001  -0.00157   0.00274  -0.26156   0.00086   0.00061   0.00128   0.00092   0.00043   0.00031  -0.00000  -0.00498  -0.00010   0.00070  -0.00102  -0.00383  -0.00365  -0.01370  -0.00122  -0.00457  -0.00000  -0.00746  -0.00015   0.00105  -0.00365  -0.01370  -0.00321  -0.01207  -0.00183  -0.00685  -0.00000  -0.00249  -0.00005   0.00035  -0.00122  -0.00457  -0.00183  -0.00685  -0.00004  -0.00016  -0.01263  -0.34042   0.00001  -0.00157   0.00274  -0.26157   0.00086   0.00061   0.00128   0.00092   0.00043   0.00031  -0.00000  -0.00498  -0.00010   0.00070  -0.00102  -0.00383  -0.00365  -0.01370  -0.00122  -0.00457  -0.00000  -0.00746  -0.00015   0.00105  -0.00365  -0.01370  -0.00321  -0.01207  -0.00183  -0.00685  -0.00000  -0.00249  -0.00005   0.00035  -0.00122  -0.00457  -0.00183  -0.00685  -0.00004  -0.00016
 -3.75000   0.00000  -0.03242   0.00000  -0.34042   0.00000  -0.00157   0.00000  -0.26157   0.00000   0.00061   0.00000   0.00092   0.00000   0.00031   0.00000  -0.00498   0.00000   0.00070   0.00000  -0.00383   0.00000  -0.01370   0.00000  -0.00457   0.00000  -0.00746   0.00000   0.00105   0.00000  -0.01370   0.00000  -0.01207   0.00000  -0.00685   0.00000  -0.00249   0.00000   0.00035   0.00000  -0.00457   0.00000  -0.00685   0.00000  -0.00016   0.00000  -0.34041   0.00000  -0.00157   0.00000  -0.26156   0.00000   0.00061   0.00000   0.00092   0.00000   0.00031   0.00000  -0.00498   0.00000   0.00070   0.00000  -0.00383   0.00000  -0.01370   0.00000  -0.00457   0.00000  -0.00746   0.00000   0.00105   0.00000  -0.01370   0.00000  -0.01207   0.00000  -0.00685   0.00000  -0.00249   0.00000   0.00035   0.00000  -0.00457   0.00000  -0.00685   0.00000  -0.00016   0.00000  -0.34047   0.00000  -0.00157   0.00000  -0.26162   0.00000   0.00061   0.00000  -0.00000   0.00000   0.00123   0.00000  -0.00498   0.00000   0.00070   0.00000  -0.00383   0.00000  -0.00000   0.00000  -0.01827   0.00000  -0.00000   0.00000  -0.00000   0.00000  -0.00000   0.00000  -0.00106   0.00000   0.00000   0.00000  -0.00995   0.00000   0.00139   0.00000  -0.01827   0.00000  -0.00000   0.00000  -0.02487   0.00000  -0.34047   0.00000  -0.00157   0.00000  -0.26162   0.00000   0.00061   0.00000  -0.00000   0.00000   0.00123   0.00000  -0.00498   0.00000   0.00070   0.00000  -0.00383   0.00000  -0.00000   0.00000  -0.01827   0.00000  -0.00000   0.00000  -0.00000   0.00000   0.00000   0.00000  -0.00106   0.00000   0.00000   0.00000  -0.00995   0.00000   0.00139   0.00000  -0.01827   0.00000  -0.00000   0.00000  -0.02487   0.00000  -0.34041   0.00000  -0.00157   0.00000  -0.26156   0.00000   0.00061   0.00000   0.00092   0.00000   0.00031   0.00000  -0.00498   0.00000   0.00070   0.00000  -0.00383   0.00000  -0.01370   0.00000  -0.00457   0.00000  -0.00746   0.00000   0.00105   0.00000  -0.01370   0.00000  -0.01207   0.00000  -0.00685   0.00000  -0.00249   0.00000   0.00035   0.00000  -0.00457   0.00000  -0.00685   0.00000  -0.00016   0.00000  -0.34042   0.00000  -0.00157   0.00000  -0.26157   0.00000   0.00061   0.00000   0.00092   0.00000   0.00031   0.00000  -0.00498   0.00000   0.00070   0.00000  -0.00383   0.00000  -0.01370   0.00000  -0.00457   0.00000  -0.00746   0.00000   0.00105   0.00000  -0.01370   0.00000  -0.01207   0.00000  -0.00685   0.00000  -0.00249   0.00000   0.00035   0.00000  -0.00457   0.00000  -0.00685   0.00000  -0.00016
  0.00000  -0.00153  -0.03817  -0.01609  -0.40075   0.00004  -0.00143   0.00306  -0.25008  -0.00001   0.00059  -0.00001   0.00089  -0.00000   0.00030   0.00071  -0.00230  -0.01303  -0.04815   0.00080  -0.00084   0.00384   0.00071   0.00128   0.00024   0.00107  -0.00345  -0.01953  -0.07219   0.00384   0.00071   0.00292  -0.00112   0.00192   0.00035   0.00036  -0.00115  -0.00652  -0.02410   0.00128   0.00024   0.00192   0.00035  -0.00004  -0.00031  -0.01609  -0.40074   0.00004  -0.00143   0.00306  -0.25007  -0.00001   0.00059  -0.00001   0.00089  -0.00000   0.00030   0.00071  -0.00230  -0.01303  -0.04816   0.00080  -0.00084   0.00384   0.00071   0.00128   0.00024   0.00107  -0.00345  -0.01953  -0.07219   0.00384   0.00071   0.00292  -0.00112   0.00192   0.00035   0.00036  -0.00115  -0.00652  -0.02409   0.00128   0.00024   0.00192   0.00035  -0.00004  -0.00031  -0.01609  -0.40079   0.00004  -0.00143   0.00306  -0.25013  -0.00001   0.00060   0.00000  -0.00000  -0.00001   0.00119   0.00071  -0.00230  -0.01302  -0.04812   0.00080  -0.00084   0.00000  -0.00000   0.00512   0.00094  -0.00000  -0.00000  -0.00000  -0.00000  -0.00000  -0.00000   0.00040   0.00044  -0.00000  -0.00000   0.00143  -0.00460  -0.02606  -0.09632   0.00512   0.00094   0.00000  -0.00000   0.00632  -0.00118  -0.01609  -0.40079   0.00004  -0.00143   0.00306  -0.25013  -0.00001   0.00059   0.00000  -0.00000  -0.00001   0.00119   0.00071  -0.00230  -0.01302  -0.04812   0.00080  -0.00084   0.00000  -0.00000   0.00512   0.00094  -0.00000  -0.00000  -0.00000  -0.00000  -0.00000  -0.00000   0.00040   0.00044  -0.00000  -0.00000   0.00143  -0.00460  -0.02606  -0.09632   0.00512   0.00094   0.00000  -0.00000   0.00632  -0.00118  -0.01609  -0.40074   0.00004  -0.00143   0.00306  -0.25007  -0.00001   0.00059  -0.00001   0.00089  -0.00000   0.00030   0.00071  -0.00230  -0.01303  -0.04816   0.00080  -0.00084   0.00384   0.00071   0.00128   0.00024   0.00107  -0.00345  -0.01953  -0.07219   0.00384   0.00071   0.00292  -0.00112   0.00192   0.00035   0.00036  -0.00115  -0.00652  -0.02409   0.00128   0.00024   0.00192   0.00035  -0.00004  -0.00031  -0.01609  -0.40075   0.00004  -0.00143   0.00306  -0.25008  -0.00001   0.00059  -0.00001   0.00089  -0.00000   0.00030   0.00071  -0.00230  -0.01303  -0.04815   0.00080  -0.00084   0.00384   0.00071   0.00128   0.00024   0.00107  -0.00345  -0.01953  -0.07219   0.00384   0.00071   0.00292  -0.00112   0.00192   0.00035   0.00036  -0.00115  -0.00652  -0.02410   0.00128   0.00024   0.00192   0.00035  -0.00004  -0.00031
  3.75000   0.00000  -0.03817   0.00000  -0.40075   0.00000  -0.00143   0.00000  -0.25008   0.00000   0.00059   0.00000   0.00089   0.00000   0.00030   0.00000  -0.00230   0.00000  -0.04815   0.00000  -0.00084   0.00000   0.00071   0.00000   0.00024   0.00000  -0.00345   0.00000  -0.07219   0.00000   0.00071   0.00000  -0.00112   0.00000   0.00035   0.00000  -0.00115   0.00000  -0.02410   0.00000   0.00024   0.00000   0.00035   0.00000  -0.00031   0.00000  -0.40074   0.00000  -0.00143   0.00000  -0.25007   0.00000   0.00059   0.00000   0.00089   0.00000   0.00030   0.00000  -0.00230   0.00000  -0.04816   0.00000  -0.00084   0.00000   0.00071   0.00000   0.00024   0.00000  -0.00345   0.00000  -0.07219   0.00000   0.00071   0.00000  -0.00112   0.00000   0.00035   0.00000  -0.00115   0.00000  -0.02409   0.00000   0.00024   0.00000   0.00035   0.00000  -0.00031   0.00000  -0.40079   0.00000  -0.00143   0.00000  -0.25013   0.00000   0.00060   0.00000  -0.00000   0.00000   0.00119   0.00000  -0.00230   0.00000  -0.04812   0.00000  -0.00084   0.00000  -0.00000   0.00000   0.00094   0.00000  -0.00000   0.00000  -0.00000   0.00000  -0.00000   0.00000   0.00044   0.00000  -0.00000   0.00000  -0.00460   0.00000  -0.09632   0.00000   0.00094   0.00000  -0.00000   0.00000  -0.00118   0.00000  -0.40079   0.00000  -0.00143   0.00000  -0.25013   0.00000   0.00059   0.00000  -0.00000   0.00000   0.00119   0.00000  -0.00230   0.00000  -0.04812   0.00000  -0.00084   0.00000  -0.00000   0.00000   0.00094   0.00000  -0.00000   0.00000  -0.00000   0.00000  -0.00000   0.00000   0.00044   0.00000  -0.00000   0.00000  -0.00460   0.00000  -0.09632   0.00000   0.00094   0.00000  -0.00000   0.00000  -0.00118   0.00000  -0.40074   0.00000  -0.00143   0.00000  -0.25007   0.00000   0.00059   0.00000   0.00089   0.00000   0.00030   0.00000  -0.00230   0.00000  -0.04816   0.00000  -0.00084   0.00000   0.00071   0.00000   0.00024   0.00000  -0.00345   0.00000  -0.07219   0.00000   0.00071   0.00000  -0.00112   0.00000   0.00035   0.00000  -0.00115   0.00000  -0.02409   0.00000   0.00024   0.00000   0.00035   0.00000  -0.00031   0.00000  -0.40075   0.00000  -0.00143   0.00000  -0.25008   0.00000   0.00059   0.00000   0.00089   0.00000   0.00030   0.00000  -0.00230   0.00000  -0.04815   0.00000  -0.00084   0.00000   0.00071   0.00000   0.00024   0.00000  -0.00345   0.00000  -0.07219   0.00000   0.00071   0.00000  -0.00112   0.00000   0.00035   0.00000  -0.00115   0.00000  -0.02410   0.00000   0.00024   0.00000   0.00035   0.00000  -0.00031
  7.50000   0.00084  -0.03500   0.00886  -0.36751   0.00009  -0.00107   0.00732  -0.22264  -0.00001   0.00055  -0.00002   0.00083  -0.00001   0.00028  -0.00002  -0.00236   0.00051  -0.04626   0.00002  -0.00078  -0.00001   0.00068  -0.00000   0.00023  -0.00002  -0.00354   0.00076  -0.06935  -0.00001   0.00068   0.00002  -0.00104  -0.00000   0.00034  -0.00001  -0.00118   0.00025  -0.02315  -0.00000   0.00023  -0.00000   0.00034   0.00001  -0.00029   0.00886  -0.36750   0.00009  -0.00108   0.00732  -0.22263  -0.00001   0.00055  -0.00002   0.00083  -0.00001   0.00028  -0.00002  -0.00236   0.00051  -0.04626   0.00002  -0.00078  -0.00001   0.00068  -0.00000   0.00023  -0.00002  -0.00354   0.00076  -0.06935  -0.00001   0.00068   0.00002  -0.00104  -0.00000   0.00034  -0.00001  -0.00118   0.00025  -0.02315  -0.00000   0.00023  -0.00000   0.00034   0.00001  -0.00029   0.00887  -0.36755   0.00009  -0.00108   0.00732  -0.22268  -0.00001   0.00055   0.00000  -0.00000  -0.00002   0.00111  -0.00002  -0.00236   0.00051  -0.04623   0.00002  -0.00078   0.00000  -0.00000  -0.00001   0.00091   0.00000  -0.00000  -0.00000  -0.00000   0.00000  -0.00000  -0.00001   0.00042   0.00000  -0.00000  -0.00003  -0.00472   0.00101  -0.09252  -0.00001   0.00091   0.00000  -0.00000   0.00003  -0.00107   0.00887  -0.36755   0.00009  -0.00107   0.00732  -0.22268  -0.00001   0.00055   0.00000  -0.00000  -0.00002   0.00111  -0.00002  -0.00236   0.00051  -0.04623   0.00002  -0.00078   0.00000  -0.00000  -0.00001   0.00091   0.00000  -0.00000  -0.00000  -0.00000   0.00000  -0.00000  -0.00001   0.00042   0.00000  -0.00000  -0.00003  -0.00472   0.00101  -0.09252  -0.00001   0.00091   0.00000  -0.00000   0.00003  -0.00107   0.00886  -0.36750   0.00009  -0.00108   0.00732  -0.22263  -0.00001   0.00055  -0.00002   0.00083  -0.00001   0.00028  -0.00002  -0.00236   0.00051  -0.04626   0.00002  -0.00078  -0.00001   0.00068  -0.00000   0.00023  -0.00002  -0.00354   0.00076  -0.06935  -0.00001   0.00068   0.00002  -0.00104  -0.00000   0.00034  -0.00001  -0.00118   0.00025  -0.02315  -0.00000   0.00023  -0.00000   0.00034   0.00001  -0.00029   0.00886  -0.36751   0.00009  -0.00107   0.00732  -0.22264  -0.00001   0.00055  -0.00002   0.00083  -0.00001   0.00028  -0.00002  -0.00236   0.00051  -0.04626   0.00002  -0.00078  -0.00001   0.00068  -0.00000   0.00023  -0.00002  -0.00354   0.00076  -0.06935  -0.00001   0.00068   0.00002  -0.00104  -0.00000   0.00034  -0.00001  -0.00118   0.00025  -0.02315  -0.00000   0.00023  -0.00000   0.00034   0.00001  -0.00029