ESCALE ; pCOHP file generated by LOBSTER. Energy is shifted such that the Fermi level lies at 0 eV.
        12          1        241  -1.24679e-01   1.19255e+01   5.90043e+00 
Average
No.1:Bi1->Se7(2.882308829886294)
No.2:Bi1->Se10(3.1014396233274444)
No.3:Bi2->Se8(2.8823088298862083)
No.4:Bi2->Se9(3.1014396233275434)
No.5:Bi3->Se10(3.0500070394403904)
No.6:Bi3->Se11(2.9167594580335807)
No.7:Bi4->Se9(3.05000703944039)
No.8:Bi4->Se12(2.9167594580335803)
No.9:Bi5->Se12(3.3752173204052101)
No.10:Bi5->Bi6(3.0729354518345948)
No.11:Bi6->Se11(3.3752173204052101)
-6.02510  0.00000 -0.83844  0.00000 -1.22906  0.00000 -0.62029  0.00000 -1.22906  0.00000 -0.62030  0.00000 -0.72643  0.00000 -1.09812  0.00000 -0.72643  0.00000 -1.09812  0.00000 -0.27475  0.00000 -1.32550  0.00000 -0.27475
-5.97490 -0.10604 -0.84376 -0.15284 -1.23673 -0.16748 -0.62870 -0.15284 -1.23673 -0.16748 -0.62871 -0.14586 -0.73375 -0.09251 -1.10277 -0.14586 -0.73375 -0.09251 -1.10277 -0.01938 -0.27573 -0.01031 -1.32602 -0.01938 -0.27572
-5.92469 -0.12783 -0.85018 -0.18757 -1.24615 -0.20131 -0.63881 -0.18758 -1.24615 -0.20132 -0.63881 -0.17505 -0.74254 -0.10997 -1.10829 -0.17506 -0.74254 -0.10997 -1.10829 -0.02300 -0.27688 -0.01233 -1.32663 -0.02300 -0.27688
-5.87448 -0.11508 -0.85596 -0.17402 -1.25489 -0.17996 -0.64785 -0.17402 -1.25489 -0.17996 -0.64785 -0.15605 -0.75038 -0.09720 -1.11317 -0.15605 -0.75038 -0.09720 -1.11317 -0.02018 -0.27789 -0.01107 -1.32719 -0.02018 -0.27789
-5.82427 -0.12332 -0.86215 -0.18399 -1.26412 -0.19035 -0.65740 -0.18399 -1.26412 -0.19035 -0.65741 -0.16869 -0.75884 -0.10640 -1.11851 -0.16870 -0.75885 -0.10640 -1.11851 -0.02247 -0.27902 -0.01267 -1.32783 -0.02247 -0.27902
-5.77406 -0.20464 -0.87242 -0.23718 -1.27603 -0.30073 -0.67250 -0.23718 -1.27603 -0.30074 -0.67251 -0.31369 -0.77459 -0.21517 -1.12931 -0.31369 -0.77460 -0.21517 -1.12931 -0.04655 -0.28136 -0.02442 -1.32905 -0.04655 -0.28136
-5.72385 -0.24257 -0.88460 -0.26320 -1.28925 -0.35061 -0.69011 -0.26320 -1.28925 -0.35061 -0.69011 -0.38115 -0.79373 -0.26733 -1.14274 -0.38115 -0.79373 -0.26733 -1.14274 -0.05710 -0.28423 -0.02943 -1.33053 -0.05710 -0.28422
-5.67364 -0.23828 -0.89657 -0.26191 -1.30240 -0.34259 -0.70731 -0.26191 -1.30240 -0.34259 -0.70731 -0.37283 -0.81245 -0.26315 -1.15595 -0.37283 -0.81245 -0.26315 -1.15595 -0.05555 -0.28702 -0.02903 -1.33199 -0.05555 -0.28701
-5.62343 -0.25906 -0.90957 -0.30436 -1.31768 -0.37172 -0.72597 -0.30454 -1.31769 -0.37189 -0.72598 -0.39512 -0.83229 -0.27902 -1.16996 -0.39528 -0.83230 -0.27914 -1.16997 -0.05829 -0.28994 -0.03202 -1.33360 -0.05828 -0.28994
-5.57322 -0.27297 -0.92328 -0.32237 -1.33386 -0.38985 -0.74555 -0.32277 -1.33389 -0.39021 -0.74558 -0.41492 -0.85312 -0.29565 -1.18480 -0.41527 -0.85315 -0.29593 -1.18482 -0.06099 -0.29300 -0.03380 -1.33529 -0.06095 -0.29300
-5.52301 -0.24965 -0.93581 -0.27233 -1.34754 -0.35430 -0.76333 -0.27232 -1.34757 -0.35429 -0.76336 -0.38790 -0.87260 -0.28286 -1.19900 -0.38790 -0.87263 -0.28285 -1.19903 -0.05928 -0.29598 -0.03281 -1.33694 -0.05928 -0.29598
-5.47280 -0.31384 -0.95157 -0.36711 -1.36597 -0.44418 -0.78564 -0.36664 -1.36598 -0.44375 -0.78564 -0.47105 -0.89625 -0.35197 -1.21668 -0.47066 -0.89626 -0.35166 -1.21668 -0.07152 -0.29957 -0.04221 -1.33906 -0.07156 -0.29957
-5.42259 -0.24227 -0.96374 -0.28246 -1.38015 -0.33948 -0.80268 -0.28235 -1.38015 -0.33937 -0.80268 -0.36262 -0.91446 -0.27702 -1.23059 -0.36252 -0.91446 -0.27695 -1.23059 -0.05494 -0.30233 -0.03228 -1.34068 -0.05495 -0.30233
-5.37238 -0.14581 -0.97106 -0.16910 -1.38864 -0.20043 -0.81275 -0.16910 -1.38864 -0.20043 -0.81275 -0.22089 -0.92555 -0.16780 -1.23901 -0.22089 -0.92555 -0.16780 -1.23901 -0.03397 -0.30404 -0.01949 -1.34166 -0.03397 -0.30403
-5.32218 -0.13433 -0.97780 -0.15662 -1.39651 -0.18324 -0.82195 -0.15662 -1.39651 -0.18324 -0.82195 -0.20293 -0.93574 -0.15551 -1.24682 -0.20293 -0.93574 -0.15551 -1.24682 -0.03143 -0.30561 -0.01813 -1.34257 -0.03143 -0.30561
-5.27197 -0.20163 -0.98793 -0.23881 -1.40850 -0.28197 -0.83610 -0.23881 -1.40850 -0.28197 -0.83611 -0.29930 -0.95076 -0.22856 -1.25829 -0.29930 -0.95077 -0.22856 -1.25830 -0.04703 -0.30798 -0.02654 -1.34390 -0.04703 -0.30797
-5.22176 -0.21884 -0.99891 -0.26943 -1.42203 -0.30990 -0.85166 -0.26943 -1.42203 -0.30990 -0.85167 -0.31964 -0.96681 -0.24040 -1.27037 -0.31964 -0.96682 -0.24040 -1.27037 -0.05033 -0.31050 -0.02783 -1.34530 -0.05033 -0.31050
-5.17155 -0.20047 -1.00898 -0.25082 -1.43462 -0.27796 -0.86562 -0.25082 -1.43462 -0.27796 -0.86562 -0.29171 -0.98146 -0.22554 -1.28169 -0.29171 -0.98146 -0.22554 -1.28169 -0.04430 -0.31273 -0.02455 -1.34653 -0.04430 -0.31273
-5.12134 -0.22259 -1.02015 -0.27106 -1.44823 -0.29700 -0.88053 -0.27109 -1.44823 -0.29709 -0.88054 -0.32756 -0.99791 -0.26176 -1.29483 -0.32768 -0.99791 -0.26182 -1.29484 -0.05239 -0.31536 -0.02865 -1.34797 -0.05239 -0.31536
-5.07113 -0.24678 -1.03255 -0.29412 -1.46300 -0.32075 -0.89664 -0.29427 -1.46301 -0.32127 -0.89667 -0.36404 -1.01618 -0.29991 -1.30989 -0.36469 -1.01623 -0.30025 -1.30991 -0.06114 -0.31843 -0.03297 -1.34963 -0.06114 -0.31843
-5.02092 -0.20970 -1.04307 -0.25910 -1.47600 -0.26537 -0.90996 -0.25905 -1.47601 -0.26523 -0.90999 -0.29730 -1.03111 -0.25616 -1.32275 -0.29712 -1.03114 -0.25607 -1.32277 -0.05784 -0.32133 -0.03557 -1.35141 -0.05784 -0.32133
-4.97071 -0.26430 -1.05634 -0.32768 -1.49246 -0.30140 -0.92509 -0.32755 -1.49246 -0.30095 -0.92510 -0.35237 -1.04880 -0.34069 -1.33986 -0.35182 -1.04881 -0.34040 -1.33986 -0.09794 -0.32625 -0.06852 -1.35485 -0.09794 -0.32625
-4.92050 -0.31355 -1.07209 -0.43535 -1.51432 -0.28302 -0.93930 -0.43535 -1.51432 -0.28299 -0.93931 -0.35177 -1.06647 -0.43539 -1.36172 -0.35173 -1.06647 -0.43537 -1.36172 -0.15821 -0.33419 -0.12171 -1.36096 -0.15821 -0.33419
-4.87029 -0.32578 -1.08844 -0.48080 -1.53846 -0.24872 -0.95179 -0.48080 -1.53846 -0.24872 -0.95179 -0.32926 -1.08300 -0.48013 -1.38583 -0.32927 -1.08300 -0.48013 -1.38583 -0.18331 -0.34340 -0.13919 -1.36795 -0.18332 -0.34340
-4.82008 -0.34893 -1.10596 -0.51232 -1.56418 -0.26849 -0.96527 -0.51233 -1.56418 -0.26849 -0.96527 -0.35674 -1.10091 -0.52200 -1.41203 -0.35674 -1.10091 -0.52200 -1.41203 -0.19017 -0.35294 -0.13872 -1.37492 -0.19017 -0.35294
-4.76987 -0.30765 -1.12141 -0.40463 -1.58450 -0.27538 -0.97910 -0.40464 -1.58450 -0.27538 -0.97910 -0.35801 -1.11889 -0.45798 -1.43503 -0.35801 -1.11889 -0.45798 -1.43503 -0.14592 -0.36027 -0.10032 -1.37995 -0.14593 -0.36027
-4.71967 -0.28813 -1.13588 -0.39380 -1.60427 -0.24154 -0.99122 -0.39381 -1.60427 -0.24154 -0.99123 -0.32206 -1.13506 -0.43896 -1.45707 -0.32206 -1.13506 -0.43896 -1.45707 -0.14025 -0.36731 -0.09617 -1.38478 -0.14025 -0.36731
-4.66946 -0.32115 -1.15200 -0.44819 -1.62677 -0.24200 -1.00338 -0.44817 -1.62677 -0.24201 -1.00338 -0.34531 -1.15239 -0.50651 -1.48250 -0.34533 -1.15240 -0.50648 -1.48250 -0.16731 -0.37571 -0.11402 -1.39051 -0.16732 -0.37571
-4.61925 -0.32351 -1.16825 -0.44056 -1.64889 -0.26426 -1.01664 -0.44053 -1.64889 -0.26428 -1.01665 -0.36398 -1.17067 -0.49743 -1.50748 -0.36400 -1.17067 -0.49741 -1.50747 -0.16087 -0.38379 -0.10442 -1.39575 -0.16087 -0.38379
-4.56904 -0.29869 -1.18324 -0.39896 -1.66892 -0.27397 -1.03040 -0.39896 -1.66892 -0.27398 -1.03040 -0.34365 -1.18792 -0.43754 -1.52944 -0.34365 -1.18793 -0.43753 -1.52944 -0.14260 -0.39095 -0.09210 -1.40037 -0.14260 -0.39095
-4.51883 -0.31397 -1.19901 -0.41275 -1.68965 -0.30321 -1.04562 -0.41276 -1.68965 -0.30321 -1.04563 -0.35870 -1.20593 -0.44626 -1.55185 -0.35868 -1.20594 -0.44626 -1.55185 -0.15462 -0.39871 -0.10261 -1.40553 -0.15462 -0.39871
-4.46862 -0.36640 -1.21740 -0.47815 -1.71365 -0.37992 -1.06470 -0.47817 -1.71366 -0.37992 -1.06470 -0.40023 -1.22603 -0.48979 -1.57644 -0.40021 -1.22603 -0.48979 -1.57644 -0.19471 -0.40849 -0.14485 -1.41280 -0.19470 -0.40849
-4.41841 -0.38256 -1.23661 -0.50412 -1.73897 -0.40955 -1.08526 -0.50414 -1.73897 -0.40954 -1.08527 -0.40411 -1.24632 -0.50298 -1.60170 -0.40409 -1.24632 -0.50299 -1.60170 -0.20694 -0.41888 -0.15281 -1.42047 -0.20693 -0.41888
-4.36820 -0.38596 -1.25599 -0.52804 -1.76548 -0.39068 -1.10488 -0.52806 -1.76548 -0.39067 -1.10488 -0.37083 -1.26494 -0.52673 -1.62814 -0.37082 -1.26494 -0.52674 -1.62814 -0.22397 -0.43013 -0.16508 -1.42876 -0.22396 -0.43012
-4.31799 -0.38412 -1.27528 -0.54058 -1.79262 -0.38817 -1.12437 -0.54058 -1.79262 -0.38817 -1.12437 -0.34601 -1.28231 -0.52366 -1.65444 -0.34601 -1.28231 -0.52366 -1.65444 -0.23016 -0.44168 -0.16819 -1.43720 -0.23016 -0.44168
-4.26778 -0.38420 -1.29457 -0.54352 -1.81991 -0.39157 -1.14403 -0.54352 -1.81991 -0.39157 -1.14403 -0.34460 -1.29961 -0.52448 -1.68077 -0.34460 -1.29961 -0.52448 -1.68077 -0.23004 -0.45323 -0.15774 -1.44512 -0.23004 -0.45323
-4.21757 -0.37451 -1.31337 -0.50460 -1.84525 -0.37996 -1.16311 -0.50460 -1.84525 -0.37996 -1.16311 -0.33527 -1.31645 -0.52886 -1.70732 -0.33527 -1.31645 -0.52886 -1.70732 -0.23939 -0.46525 -0.14345 -1.45233 -0.23939 -0.46525
-4.16736 -0.43744 -1.33533 -0.58118 -1.87443 -0.40346 -1.18336 -0.58118 -1.87443 -0.40346 -1.18337 -0.34167 -1.33360 -0.67284 -1.74111 -0.34167 -1.33360 -0.67284 -1.74111 -0.31375 -0.48100 -0.18603 -1.46167 -0.31375 -0.48100
-4.11715 -0.41838 -1.35634 -0.54274 -1.90168 -0.37111 -1.20200 -0.54273 -1.90168 -0.37111 -1.20200 -0.36611 -1.35198 -0.67179 -1.77484 -0.36611 -1.35198 -0.67179 -1.77484 -0.27401 -0.49476 -0.15065 -1.46923 -0.27401 -0.49476
-4.06695 -0.36115 -1.37447 -0.46139 -1.92484 -0.31654 -1.21789 -0.46138 -1.92485 -0.31654 -1.21789 -0.33815 -1.36896 -0.57525 -1.80372 -0.33815 -1.36896 -0.57524 -1.80372 -0.23239 -0.50643 -0.12526 -1.47552 -0.23239 -0.50643
-4.01674 -0.30611 -1.38984 -0.39842 -1.94485 -0.25115 -1.23050 -0.39841 -1.94485 -0.25115 -1.23050 -0.28216 -1.38313 -0.49065 -1.82835 -0.28216 -1.38313 -0.49065 -1.82835 -0.20779 -0.51686 -0.10685 -1.48088 -0.20779 -0.51686
-3.96653 -0.27784 -1.40379 -0.36497 -1.96317 -0.23040 -1.24207 -0.36497 -1.96317 -0.23040 -1.24207 -0.25541 -1.39595 -0.44132 -1.85051 -0.25541 -1.39595 -0.44132 -1.85051 -0.18978 -0.52639 -0.09253 -1.48553 -0.18978 -0.52639
-3.91632 -0.27901 -1.41780 -0.37123 -1.98181 -0.23653 -1.25394 -0.37123 -1.98181 -0.23653 -1.25395 -0.23653 -1.40783 -0.43144 -1.87217 -0.23653 -1.40783 -0.43144 -1.87217 -0.20274 -0.53657 -0.11218 -1.49116 -0.20274 -0.53657
-3.86611 -0.30946 -1.43334 -0.42064 -2.00293 -0.25905 -1.26695 -0.42063 -2.00293 -0.25905 -1.26695 -0.21583 -1.41866 -0.46923 -1.89573 -0.21583 -1.41867 -0.46924 -1.89573 -0.25313 -0.54928 -0.16830 -1.49961 -0.25313 -0.54928
-3.81590 -0.29117 -1.44796 -0.39967 -2.02300 -0.24417 -1.27921 -0.39967 -2.02300 -0.24417 -1.27921 -0.19778 -1.42859 -0.44058 -1.91786 -0.19778 -1.42860 -0.44058 -1.91786 -0.24334 -0.56150 -0.15178 -1.50723 -0.24334 -0.56150
-3.76569 -0.27797 -1.46192 -0.38681 -2.04242 -0.22778 -1.29065 -0.38682 -2.04242 -0.22778 -1.29065 -0.17360 -1.43731 -0.42017 -1.93895 -0.17360 -1.43731 -0.42018 -1.93895 -0.24400 -0.57375 -0.15288 -1.51491 -0.24400 -0.57375
-3.71548 -0.30578 -1.47727 -0.44315 -2.06467 -0.24263 -1.30283 -0.44340 -2.06468 -0.24256 -1.30283 -0.15187 -1.44494 -0.46254 -1.96218 -0.15192 -1.44494 -0.46267 -1.96218 -0.29202 -0.58841 -0.17881 -1.52389 -0.29200 -0.58841
-3.66527 -0.32865 -1.49377 -0.50749 -2.09015 -0.15932 -1.31083 -0.50759 -2.09017 -0.15929 -1.31083 -0.19128 -1.45454 -0.56082 -1.99033 -0.19132 -1.45455 -0.56086 -1.99034 -0.29484 -0.60322 -0.18753 -1.53330 -0.29484 -0.60321
-3.61506 -0.28084 -1.50787 -0.42392 -2.11144 -0.16516 -1.31912 -0.42394 -2.11146 -0.16516 -1.31912 -0.16860 -1.46301 -0.46965 -2.01391 -0.16861 -1.46301 -0.46965 -2.01392 -0.24748 -0.61564 -0.13955 -1.54031 -0.24748 -0.61564
-3.56485 -0.24719 -1.52028 -0.37282 -2.13015 -0.16893 -1.32760 -0.37278 -2.13017 -0.16894 -1.32760 -0.14706 -1.47039 -0.39895 -2.03395 -0.14705 -1.47040 -0.39893 -2.03395 -0.21307 -0.62634 -0.11751 -1.54621 -0.21308 -0.62634
-3.51464 -0.23282 -1.53197 -0.34940 -2.14770 -0.17040 -1.33616 -0.34933 -2.14771 -0.17043 -1.33616 -0.12995 -1.47691 -0.37705 -2.05288 -0.12993 -1.47692 -0.37701 -2.05288 -0.19994 -0.63638 -0.10758 -1.55161 -0.19994 -0.63638
-3.46444 -0.23136 -1.54359 -0.32985 -2.16426 -0.17131 -1.34476 -0.32975 -2.16427 -0.17135 -1.34476 -0.12818 -1.48335 -0.35490 -2.07070 -0.12815 -1.48335 -0.35484 -2.07070 -0.20917 -0.64688 -0.15823 -1.55956 -0.20918 -0.64688
-3.41423 -0.23548 -1.55541 -0.33150 -2.18090 -0.16355 -1.35297 -0.33138 -2.18091 -0.16360 -1.35298 -0.13225 -1.48999 -0.33343 -2.08744 -0.13222 -1.48999 -0.33336 -2.08744 -0.22539 -0.65820 -0.21818 -1.57051 -0.22539 -0.65820
-3.36402 -0.24088 -1.56751 -0.35680 -2.19882 -0.15783 -1.36090 -0.35676 -2.19882 -0.15785 -1.36090 -0.11495 -1.49576 -0.31878 -2.10344 -0.11494 -1.49576 -0.31874 -2.10344 -0.24631 -0.67056 -0.26044 -1.58359 -0.24630 -0.67056
-3.31381 -0.22342 -1.57872 -0.33616 -2.21570 -0.14245 -1.36805 -0.33616 -2.21570 -0.14246 -1.36805 -0.10206 -1.50089 -0.29770 -2.11839 -0.10206 -1.50089 -0.29769 -2.11839 -0.22732 -0.68198 -0.24623 -1.59595 -0.22732 -0.68198
-3.26360 -0.21108 -1.58932 -0.30942 -2.23123 -0.13233 -1.37469 -0.30942 -2.23123 -0.13234 -1.37470 -0.10364 -1.50609 -0.28072 -2.13248 -0.10364 -1.50609 -0.28072 -2.13248 -0.21368 -0.69271 -0.24225 -1.60811 -0.21368 -0.69270
-3.21339 -0.21259 -1.59999 -0.31736 -2.24717 -0.11765 -1.38060 -0.31736 -2.24717 -0.11764 -1.38061 -0.10327 -1.51128 -0.27015 -2.14605 -0.10327 -1.51128 -0.27015 -2.14605 -0.21512 -0.70351 -0.29137 -1.62274 -0.21513 -0.70351
-3.16318 -0.18459 -1.60926 -0.27174 -2.26081 -0.10481 -1.38586 -0.27175 -2.26081 -0.10481 -1.38587 -0.09525 -1.51606 -0.22388 -2.15729 -0.09525 -1.51606 -0.22389 -2.15729 -0.18892 -0.71299 -0.26122 -1.63586 -0.18893 -0.71299
-3.11297 -0.17251 -1.61792 -0.24044 -2.27288 -0.09872 -1.39082 -0.24044 -2.27288 -0.09872 -1.39082 -0.08638 -1.52040 -0.18909 -2.16678 -0.08638 -1.52040 -0.18910 -2.16678 -0.18563 -0.72231 -0.29706 -1.65077 -0.18564 -0.72231
-3.06276 -0.16893 -1.62641 -0.23464 -2.28466 -0.09242 -1.39546 -0.23465 -2.28467 -0.09242 -1.39547 -0.07328 -1.52408 -0.17004 -2.17532 -0.07329 -1.52408 -0.17005 -2.17532 -0.18477 -0.73159 -0.34789 -1.66824 -0.18478 -0.73159
-3.01255 -0.15007 -1.63394 -0.21885 -2.29565 -0.08477 -1.39972 -0.21885 -2.29565 -0.08476 -1.39972 -0.04642 -1.52641 -0.16800 -2.18376 -0.04642 -1.52641 -0.16800 -2.18376 -0.16138 -0.73969 -0.29198 -1.68290 -0.16138 -0.73969
-2.96234 -0.12413 -1.64017 -0.18455 -2.30492 -0.07564 -1.40351 -0.18455 -2.30492 -0.07564 -1.40352 -0.03926 -1.52838 -0.15351 -2.19146 -0.03926 -1.52838 -0.15351 -2.19146 -0.13435 -0.74644 -0.19086 -1.69248 -0.13435 -0.74644
-2.91213 -0.12029 -1.64621 -0.18501 -2.31421 -0.07539 -1.40730 -0.18501 -2.31421 -0.07539 -1.40730 -0.03240 -1.53000 -0.15052 -2.19902 -0.03240 -1.53000 -0.15052 -2.19902 -0.13343 -0.75314 -0.16966 -1.70100 -0.13343 -0.75314
-2.86192 -0.10578 -1.65152 -0.16146 -2.32231 -0.06146 -1.41038 -0.16145 -2.32232 -0.06146 -1.41039 -0.03808 -1.53192 -0.12836 -2.20547 -0.03808 -1.53192 -0.12836 -2.20547 -0.11928 -0.75913 -0.14629 -1.70835 -0.11928 -0.75913
-2.81172 -0.09082 -1.65608 -0.13636 -2.32916 -0.04922 -1.41286 -0.13636 -2.32916 -0.04922 -1.41286 -0.04547 -1.53420 -0.10666 -2.21082 -0.04546 -1.53420 -0.10666 -2.21082 -0.09983 -0.76414 -0.12400 -1.71457 -0.09983 -0.76414
-2.76151 -0.07638 -1.65992 -0.09188 -2.33377 -0.04079 -1.41490 -0.09188 -2.33378 -0.04079 -1.41491 -0.04954 -1.53669 -0.04791 -2.21323 -0.04953 -1.53669 -0.04791 -2.21323 -0.11256 -0.76979 -0.15487 -1.72235 -0.11256 -0.76979
-2.71130 -0.06339 -1.66310 -0.02843 -2.33520  0.00713 -1.41455 -0.02843 -2.33520  0.00713 -1.41455 -0.08615 -1.54101  0.07138 -2.20964 -0.08615 -1.54101  0.07138 -2.20964 -0.14099 -0.77687 -0.34317 -1.73958 -0.14099 -0.77687
-2.66109 -0.05280 -1.66575 -0.00617 -2.33551 -0.01137 -1.41512 -0.00617 -2.33551 -0.01137 -1.41512 -0.06397 -1.54422  0.08291 -2.20548 -0.06397 -1.54422  0.08291 -2.20548 -0.15005 -0.78440 -0.28349 -1.75381 -0.15005 -0.78440
-2.61088 -0.04623 -1.66807  0.00117 -2.33545 -0.01127 -1.41568  0.00117 -2.33545 -0.01127 -1.41569 -0.04328 -1.54640  0.09266 -2.20083 -0.04328 -1.54640  0.09266 -2.20083 -0.15884 -0.79238 -0.26936 -1.76734 -0.15884 -0.79238
-2.56067 -0.02249 -1.66920  0.03097 -2.33390 -0.00820 -1.41609  0.03097 -2.33390 -0.00819 -1.41610 -0.00852 -1.54682  0.11461 -2.19507 -0.00852 -1.54682  0.11461 -2.19507 -0.13874 -0.79935 -0.22760 -1.77877 -0.13874 -0.79934
-2.51046 -0.01867 -1.67014  0.02500 -2.33264 -0.00260 -1.41622  0.02500 -2.33264 -0.00259 -1.41623  0.01009 -1.54632  0.12640 -2.18873  0.01009 -1.54632  0.12640 -2.18873 -0.14607 -0.80668 -0.23098 -1.79036 -0.14607 -0.80668
-2.46025 -0.03117 -1.67171 -0.03642 -2.33447  0.00038 -1.41621 -0.03642 -2.33447  0.00038 -1.41621  0.01988 -1.54532  0.10009 -2.18370  0.01988 -1.54532  0.10009 -2.18370 -0.14983 -0.81420 -0.21103 -1.80096 -0.14983 -0.81420
-2.41004 -0.00060 -1.67174  0.04138 -2.33239  0.00800 -1.41580  0.04138 -2.33240  0.00801 -1.41581  0.02676 -1.54398  0.10590 -2.17838  0.02676 -1.54398  0.10590 -2.17838 -0.11757 -0.82011 -0.13560 -1.80777 -0.11757 -0.82010
-2.35983  0.01819 -1.67082  0.06276 -2.32924  0.04369 -1.41361  0.06276 -2.32924  0.04369 -1.41362  0.02409 -1.54277  0.12834 -2.17194  0.02409 -1.54277  0.12834 -2.17194 -0.09950 -0.82510 -0.11869 -1.81373 -0.09950 -0.82510
-2.30962  0.02287 -1.66967  0.05142 -2.32666  0.07282 -1.40995  0.05142 -2.32666  0.07282 -1.40996  0.01190 -1.54217  0.14246 -2.16479  0.01190 -1.54217  0.14246 -2.16479 -0.08768 -0.82950 -0.13025 -1.82027 -0.08768 -0.82950
-2.25941  0.02867 -1.66824  0.04022 -2.32464  0.11704 -1.40408  0.04022 -2.32464  0.11704 -1.40408  0.00192 -1.54207  0.16649 -2.15643  0.00192 -1.54207  0.16649 -2.15643 -0.08198 -0.83362 -0.17201 -1.82890 -0.08197 -0.83362
-2.20921  0.05154 -1.66565  0.05226 -2.32202  0.19096 -1.39449  0.05227 -2.32202  0.19096 -1.39449  0.00303 -1.54192  0.23944 -2.14441  0.00302 -1.54192  0.23947 -2.14440 -0.08066 -0.83767 -0.24320 -1.84111 -0.08062 -0.83767
-2.15900  0.04371 -1.66345  0.01825 -2.32110  0.15275 -1.38682  0.01825 -2.32110  0.15275 -1.38682  0.02169 -1.54083  0.20903 -2.13391  0.02168 -1.54083  0.20904 -2.13391 -0.07075 -0.84122 -0.18114 -1.85021 -0.07073 -0.84122
-2.10879  0.04254 -1.66132 -0.00621 -2.32141  0.14541 -1.37952 -0.00621 -2.32141  0.14541 -1.37952  0.03817 -1.53892  0.19492 -2.12412  0.03817 -1.53892  0.19492 -2.12412 -0.05397 -0.84393 -0.16871 -1.85868 -0.05398 -0.84393
-2.05858  0.05281 -1.65867 -0.00293 -2.32156  0.14264 -1.37236 -0.00293 -2.32156  0.14265 -1.37236  0.06231 -1.53579  0.18557 -2.11481  0.06231 -1.53579  0.18557 -2.11480 -0.02950 -0.84541 -0.13522 -1.86547 -0.02951 -0.84541
-2.00837  0.08294 -1.65450  0.00711 -2.32120  0.19891 -1.36237  0.00710 -2.32120  0.19891 -1.36238  0.09523 -1.53101  0.24895 -2.10231  0.09523 -1.53101  0.24894 -2.10231 -0.02605 -0.84672 -0.13587 -1.87229 -0.02606 -0.84672
-1.95816  0.11526 -1.64871  0.04483 -2.31895  0.23296 -1.35067  0.04483 -2.31895  0.23296 -1.35068  0.14511 -1.52372  0.30919 -2.08678  0.14511 -1.52372  0.30919 -2.08678 -0.01461 -0.84745 -0.16706 -1.88068 -0.01463 -0.84745
-1.90795  0.11029 -1.64318  0.06161 -2.31586  0.20859 -1.34020  0.06161 -2.31586  0.20859 -1.34021  0.14282 -1.51655  0.27555 -2.07295  0.14282 -1.51655  0.27555 -2.07295  0.00125 -0.84739 -0.16648 -1.88904  0.00125 -0.84739
-1.85774  0.08265 -1.63903  0.03500 -2.31410  0.17532 -1.33140  0.03500 -2.31410  0.17532 -1.33140  0.09002 -1.51203  0.21460 -2.06217  0.09003 -1.51203  0.21460 -2.06217 -0.01010 -0.84790 -0.10059 -1.89409 -0.01010 -0.84790
-1.80753  0.09347 -1.63433  0.03668 -2.31226  0.19825 -1.32144  0.03668 -2.31226  0.19825 -1.32145  0.09678 -1.50717  0.22045 -2.05110  0.09679 -1.50717  0.22045 -2.05110  0.00604 -0.84760 -0.08822 -1.89852  0.00604 -0.84759
-1.75732  0.14824 -1.62689  0.05976 -2.30926  0.33758 -1.30449  0.05974 -2.30926  0.33760 -1.30450  0.13366 -1.50046  0.30628 -2.03573  0.13370 -1.50046  0.30626 -2.03573  0.05645 -0.84476 -0.15680 -1.90639  0.05645 -0.84476
-1.70711  0.12150 -1.62079  0.06863 -2.30581  0.34713 -1.28706  0.06862 -2.30582  0.34713 -1.28707  0.05519 -1.49769  0.21972 -2.02469  0.05521 -1.49769  0.21972 -2.02469  0.06620 -0.84144 -0.17724 -1.91529  0.06620 -0.84144
-1.65690  0.10972 -1.61528  0.07535 -2.30203  0.31551 -1.27122  0.07535 -2.30203  0.31552 -1.27123  0.04574 -1.49539  0.18879 -2.01522  0.04575 -1.49539  0.18879 -2.01522  0.06408 -0.83822 -0.17207 -1.92393  0.06408 -0.83822
-1.60669  0.11410 -1.60955  0.09048 -2.29749  0.31254 -1.25553  0.09048 -2.29749  0.31254 -1.25553  0.05149 -1.49280  0.18027 -2.00616  0.05149 -1.49280  0.18026 -2.00616  0.08082 -0.83416 -0.17607 -1.93277  0.08081 -0.83416
-1.55649  0.14593 -1.60222  0.12527 -2.29120  0.37250 -1.23683  0.12527 -2.29120  0.37251 -1.23683  0.08539 -1.48852  0.17936 -1.99716  0.08539 -1.48852  0.17935 -1.99716  0.16630 -0.82581 -0.25236 -1.94544  0.16628 -0.82581
-1.50628  0.13095 -1.59565  0.08880 -2.28674  0.29432 -1.22205  0.08879 -2.28674  0.29433 -1.22205  0.12543 -1.48222  0.10421 -1.99193  0.12543 -1.48222  0.10421 -1.99193  0.26822 -0.81235 -0.32154 -1.96158  0.26820 -0.81235
-1.45607  0.11380 -1.58994  0.08681 -2.28238  0.24574 -1.20971  0.08680 -2.28238  0.24574 -1.20972  0.10456 -1.47697  0.09335 -1.98724  0.10457 -1.47697  0.09335 -1.98724  0.22277 -0.80116 -0.25467 -1.97437  0.22277 -0.80116
-1.40586  0.09159 -1.58534  0.08315 -2.27820  0.19297 -1.20002  0.08315 -2.27821  0.19297 -1.20003  0.07248 -1.47333  0.08365 -1.98304  0.07248 -1.47333  0.08365 -1.98304  0.15784 -0.79324 -0.17274 -1.98304  0.15784 -0.79324
-1.35565  0.09711 -1.58046  0.10618 -2.27287  0.20340 -1.18981  0.10618 -2.27288  0.20340 -1.18981  0.06744 -1.46994  0.08623 -1.97871  0.06744 -1.46994  0.08623 -1.97871  0.15517 -0.78544 -0.16857 -1.99151  0.15517 -0.78544
-1.30544  0.09088 -1.57590  0.11219 -2.26724  0.17115 -1.18122  0.11219 -2.26725  0.17115 -1.18122  0.07486 -1.46619  0.05940 -1.97573  0.07486 -1.46618  0.05940 -1.97573  0.17369 -0.77672 -0.18296 -2.00069  0.17369 -0.77672
-1.25523  0.09241 -1.57126  0.11546 -2.26144  0.12489 -1.17495  0.11546 -2.26145  0.12489 -1.17495  0.12690 -1.45981  0.01106 -1.97517  0.12690 -1.45981  0.01106 -1.97517  0.27657 -0.76284 -0.29325 -2.01542  0.27657 -0.76284
-1.20502  0.13016 -1.56472  0.15022 -2.25390  0.10360 -1.16974  0.15022 -2.25391  0.10361 -1.16975  0.25978 -1.44677 -0.03476 -1.97692  0.25977 -1.44677 -0.03476 -1.97692  0.48354 -0.73856 -0.49297 -2.04017  0.48354 -0.73856
-1.15481  0.15431 -1.55698  0.16801 -2.24547  0.10959 -1.16424  0.16800 -2.24547  0.10959 -1.16424  0.31704 -1.43085 -0.04813 -1.97933  0.31703 -1.43085 -0.04812 -1.97933  0.60427 -0.70822 -0.60416 -2.07050  0.60428 -0.70822
-1.10460  0.11944 -1.55098  0.14923 -2.23797  0.07627 -1.16041  0.14923 -2.23798  0.07628 -1.16041  0.28099 -1.41674 -0.04060 -1.98137  0.28098 -1.41674 -0.04059 -1.98137  0.55054 -0.68058 -0.71899 -2.10660  0.55055 -0.68058
-1.05439  0.10663 -1.54563  0.14867 -2.23051  0.08550 -1.15612  0.14868 -2.23051  0.08550 -1.15612  0.26872 -1.40325 -0.01635 -1.98219  0.26867 -1.40325 -0.01630 -1.98219  0.48809 -0.65607 -0.77635 -2.14558  0.48807 -0.65607
-1.00418  0.07701 -1.54176  0.10043 -2.22547  0.03982 -1.15412  0.10044 -2.22547  0.03982 -1.15412  0.22897 -1.39176 -0.01843 -1.98312  0.22894 -1.39176 -0.01840 -1.98311  0.41688 -0.63514 -0.68826 -2.18014  0.41687 -0.63514
-0.95397  0.07963 -1.53776  0.09832 -2.22053  0.02443 -1.15289  0.09833 -2.22053  0.02443 -1.15290  0.22201 -1.38061 -0.01653 -1.98395  0.22200 -1.38061 -0.01653 -1.98394  0.41506 -0.61430 -0.61063 -2.21080  0.41505 -0.61430
-0.90377  0.07269 -1.53411  0.08687 -2.21617  0.01735 -1.15202  0.08687 -2.21617  0.01735 -1.15203  0.19178 -1.37098 -0.01666 -1.98479  0.19178 -1.37098 -0.01666 -1.98478  0.36669 -0.59589 -0.49245 -2.23553  0.36669 -0.59589
-0.85356  0.05266 -1.53147  0.06373 -2.21297  0.00700 -1.15167  0.06373 -2.21297  0.00700 -1.15167  0.13971 -1.36396 -0.01597 -1.98559  0.13971 -1.36397 -0.01597 -1.98558  0.27443 -0.58211 -0.35853 -2.25353  0.27443 -0.58211
-0.80335  0.04825 -1.52904  0.05691 -2.21011  0.00362 -1.15149  0.05691 -2.21011  0.00362 -1.15149  0.12630 -1.35762 -0.01381 -1.98628  0.12630 -1.35763 -0.01381 -1.98628  0.24748 -0.56968 -0.31020 -2.26910  0.24748 -0.56968
-0.75314  0.04593 -1.52674  0.05169 -2.20751  0.00194 -1.15139  0.05169 -2.20752  0.00194 -1.15139  0.11897 -1.35165 -0.01256 -1.98691  0.11897 -1.35165 -0.01256 -1.98691  0.23343 -0.55796 -0.28176 -2.28325  0.23343 -0.55796
-0.70293  0.04627 -1.52441  0.04857 -2.20508  0.00119 -1.15133  0.04857 -2.20508  0.00119 -1.15133  0.11377 -1.34594 -0.00739 -1.98728  0.11378 -1.34594 -0.00739 -1.98728  0.21987 -0.54692 -0.24301 -2.29545  0.21987 -0.54692
-0.65272  0.04984 -1.52191  0.04843 -2.20264  0.00293 -1.15118  0.04843 -2.20265  0.00293 -1.15119  0.11263 -1.34028  0.00123 -1.98722  0.11263 -1.34029  0.00123 -1.98722  0.21244 -0.53626 -0.20706 -2.30585  0.21244 -0.53626
-0.60251  0.05384 -1.51921  0.04942 -2.20016  0.00691 -1.15084  0.04942 -2.20017  0.00691 -1.15084  0.11424 -1.33455  0.01085 -1.98668  0.11424 -1.33455  0.01085 -1.98667  0.20908 -0.52576 -0.18880 -2.31533  0.20908 -0.52576
-0.55230  0.05840 -1.51628  0.05112 -2.19760  0.01108 -1.15028  0.05112 -2.19760  0.01108 -1.15028  0.11390 -1.32883  0.02719 -1.98531  0.11390 -1.32883  0.02719 -1.98531  0.20545 -0.51544 -0.17509 -2.32412  0.20545 -0.51545
-0.50209  0.06739 -1.51289  0.05844 -2.19466  0.01751 -1.14940  0.05844 -2.19467  0.01751 -1.14941  0.12218 -1.32269  0.04793 -1.98290  0.12218 -1.32270  0.04793 -1.98290  0.20932 -0.50493 -0.16947 -2.33263  0.20932 -0.50494
-0.45188  0.06647 -1.50956  0.05685 -2.19181  0.02042 -1.14838  0.05685 -2.19181  0.02042 -1.14838  0.11742 -1.31680  0.06064 -1.97986  0.11742 -1.31680  0.06064 -1.97986  0.19367 -0.49521 -0.16682 -2.34100  0.19367 -0.49521
-0.40167  0.04137 -1.50748  0.03868 -2.18987  0.00851 -1.14795  0.03868 -2.18987  0.00851 -1.14795  0.07941 -1.31281  0.04410 -1.97765  0.07941 -1.31281  0.04410 -1.97764  0.13767 -0.48830 -0.16170 -2.34912  0.13767 -0.48830
-0.35146  0.05697 -1.50462  0.06133 -2.18679  0.02747 -1.14657  0.06133 -2.18679  0.02747 -1.14657  0.10926 -1.30732  0.07764 -1.97375  0.10926 -1.30733  0.07764 -1.97374  0.11597 -0.48248 -0.15665 -2.35699  0.11597 -0.48248
-0.30126  0.01077 -1.50408  0.01787 -2.18589  0.00224 -1.14646  0.01787 -2.18589  0.00224 -1.14646  0.03232 -1.30570  0.02088 -1.97270  0.03232 -1.30570  0.02088 -1.97269  0.05032 -0.47995 -0.12882 -2.36345  0.05032 -0.47995
-0.25105  0.00529 -1.50381  0.01438 -2.18517  0.00322 -1.14630  0.01438 -2.18517  0.00322 -1.14630  0.02570 -1.30441  0.01738 -1.97183  0.02570 -1.30441  0.01738 -1.97182  0.03392 -0.47825 -0.13097 -2.37003  0.03392 -0.47825
-0.20084  0.00464 -1.50358  0.01705 -2.18431  0.00773 -1.14591  0.01705 -2.18432  0.00773 -1.14591  0.02869 -1.30297  0.01844 -1.97090  0.02869 -1.30297  0.01844 -1.97090  0.02381 -0.47705 -0.14042 -2.37708  0.02381 -0.47705
-0.15063  0.00860 -1.50315  0.02837 -2.18289  0.01754 -1.14503  0.02837 -2.18289  0.01754 -1.14503  0.02818 -1.30156  0.01995 -1.96990  0.02818 -1.30156  0.01995 -1.96989  0.01711 -0.47619 -0.12770 -2.38349  0.01711 -0.47619
-0.10042  0.00786 -1.50275  0.01946 -2.18191  0.01227 -1.14441  0.01946 -2.18191  0.01227 -1.14441  0.01361 -1.30087  0.01171 -1.96931  0.01361 -1.30088  0.01171 -1.96931  0.00867 -0.47576 -0.04497 -2.38575  0.00867 -0.47576
-0.05021  0.00516 -1.50249  0.01256 -2.18128  0.00758 -1.14403  0.01256 -2.18128  0.00758 -1.14403  0.00709 -1.30052  0.00701 -1.96896  0.00709 -1.30052  0.00701 -1.96895  0.00542 -0.47548 -0.02260 -2.38688  0.00542 -0.47548
 0.00000  0.00737 -1.50212  0.01714 -2.18042  0.01111 -1.14347  0.01714 -2.18042  0.01111 -1.14348  0.00915 -1.30006  0.01051 -1.96843  0.00915 -1.30006  0.01051 -1.96843  0.00341 -0.47531 -0.02153 -2.38796  0.00341 -0.47531
 0.05021  0.02205 -1.50102  0.06425 -2.17719  0.04237 -1.14134  0.06425 -2.17720  0.04237 -1.14135  0.04138 -1.29798  0.04398 -1.96622  0.04138 -1.29798  0.04398 -1.96622  0.00179 -0.47522 -0.14497 -2.39524  0.00179 -0.47522
 0.10042  0.03041 -1.49949  0.06014 -2.17417  0.03955 -1.13936  0.06014 -2.17418  0.03955 -1.13936  0.03916 -1.29601  0.04771 -1.96383  0.03917 -1.29602  0.04771 -1.96382  0.00278 -0.47508 -0.04417 -2.39746  0.00278 -0.47508
 0.15063  0.04964 -1.49700  0.08589 -2.16986  0.05241 -1.13673  0.08589 -2.16986  0.05241 -1.13673  0.05018 -1.29349  0.07233 -1.96020  0.05018 -1.29350  0.07233 -1.96019  0.00464 -0.47485  0.01508 -2.39670  0.00464 -0.47485
 0.20084  0.07866 -1.49305  0.13685 -2.16299  0.07960 -1.13273  0.13685 -2.16299  0.07960 -1.13273  0.07293 -1.28983  0.11691 -1.95433  0.07293 -1.28983  0.11691 -1.95432  0.01329 -0.47418  0.02608 -2.39539  0.01329 -0.47418
 0.25105  0.11603 -1.48722  0.20311 -2.15279  0.12078 -1.12667  0.20311 -2.15280  0.12078 -1.12667  0.09846 -1.28489  0.16930 -1.94583  0.09846 -1.28489  0.16930 -1.94582  0.03817 -0.47227  0.01665 -2.39456  0.03817 -0.47227
 0.30126  0.14644 -1.47987  0.25534 -2.13997  0.14778 -1.11925  0.25534 -2.13997  0.14778 -1.11925  0.12496 -1.27861  0.21544 -1.93501  0.12496 -1.27862  0.21544 -1.93500  0.04269 -0.47012  0.03844 -2.39263  0.04269 -0.47012
 0.35146  0.17493 -1.47109  0.31038 -2.12439  0.17330 -1.11055  0.31037 -2.12439  0.17330 -1.11055  0.14943 -1.27111  0.26073 -1.92192  0.14943 -1.27111  0.26073 -1.92191  0.03906 -0.46816  0.05838 -2.38970  0.03906 -0.46816
 0.40167  0.18719 -1.46169  0.33969 -2.10733  0.18550 -1.10123  0.33969 -2.10734  0.18550 -1.10124  0.15692 -1.26323  0.28099 -1.90781  0.15693 -1.26323  0.28099 -1.90780  0.03297 -0.46651  0.06695 -2.38634  0.03297 -0.46651
 0.45188  0.19893 -1.45170  0.37781 -2.08836  0.18588 -1.09190  0.37781 -2.08837  0.18588 -1.09190  0.15441 -1.25548  0.31113 -1.89219  0.15441 -1.25548  0.31113 -1.89218  0.02384 -0.46531  0.08202 -2.38222  0.02384 -0.46531