ESCALE ; pCOOP file generated by LOBSTER. Energy is shifted such that the Fermi level lies at 0 eV.
         3          2        301  -2.77681e-01   1.47725e+01   9.75576e+00 
Average
No.1:Fe8->Fe7(2.8318907764979082)
No.2:Fe8->Fe9(2.4524893531900283)
-10.03344   0.00000  -0.00065   0.00000   0.00006   0.00000  -0.00136   0.00000  -0.00039   0.00000   0.00022   0.00000  -0.00099
 -9.98328   0.00000  -0.00065   0.00000   0.00006   0.00000  -0.00136   0.00000  -0.00039   0.00000   0.00022   0.00000  -0.00099
 -9.93311   0.00000  -0.00065   0.00000   0.00006   0.00000  -0.00136   0.00000  -0.00039   0.00000   0.00022   0.00000  -0.00099
 -9.88294   0.00000  -0.00065   0.00000   0.00006   0.00000  -0.00136   0.00000  -0.00039   0.00000   0.00022   0.00000  -0.00099
 -9.83278   0.00000  -0.00065   0.00000   0.00006   0.00000  -0.00136   0.00000  -0.00039   0.00000   0.00022   0.00000  -0.00099
 -9.78261   0.00000  -0.00065   0.00000   0.00006   0.00000  -0.00136   0.00000  -0.00039   0.00000   0.00022   0.00000  -0.00099
 -9.73244   0.00000  -0.00065   0.00000   0.00006   0.00000  -0.00136   0.00000  -0.00039   0.00000   0.00022   0.00000  -0.00099
 -9.68227   0.00000  -0.00065   0.00000   0.00006   0.00000  -0.00136   0.00000  -0.00039   0.00000   0.00022   0.00000  -0.00099
 -9.63211   0.00000  -0.00065   0.00000   0.00006   0.00000  -0.00136   0.00000  -0.00039   0.00000   0.00022   0.00000  -0.00099
 -9.58194   0.00000  -0.00065   0.00000   0.00006   0.00000  -0.00136   0.00000  -0.00039   0.00000   0.00022   0.00000  -0.00099
 -9.53177   0.00000  -0.00065   0.00000   0.00006   0.00000  -0.00136   0.00000  -0.00039   0.00000   0.00022   0.00000  -0.00099
 -9.48161   0.00000  -0.00065   0.00000   0.00006   0.00000  -0.00136   0.00000  -0.00039   0.00000   0.00022   0.00000  -0.00099
 -9.43144   0.00000  -0.00065   0.00000   0.00006   0.00000  -0.00136   0.00000  -0.00039   0.00000   0.00022   0.00000  -0.00099
 -9.38127   0.00000  -0.00065   0.00000   0.00006   0.00000  -0.00136   0.00000  -0.00039   0.00000   0.00022   0.00000  -0.00099
 -9.33110   0.00000  -0.00065   0.00000   0.00006   0.00000  -0.00136   0.00000  -0.00039   0.00000   0.00022   0.00000  -0.00099
 -9.28094   0.00000  -0.00065   0.00000   0.00006   0.00000  -0.00136   0.00000  -0.00039   0.00000   0.00022   0.00000  -0.00099
 -9.23077   0.00000  -0.00065   0.00000   0.00006   0.00000  -0.00136   0.00000  -0.00039   0.00000   0.00022   0.00000  -0.00099
 -9.18060   0.00000  -0.00065   0.00000   0.00006   0.00000  -0.00136   0.00000  -0.00039   0.00000   0.00022   0.00000  -0.00099
 -9.13043   0.00000  -0.00065   0.00000   0.00006   0.00000  -0.00136   0.00000  -0.00039   0.00000   0.00022   0.00000  -0.00099
 -9.08027   0.00000  -0.00065   0.00000   0.00006   0.00000  -0.00136   0.00000  -0.00039   0.00000   0.00022   0.00000  -0.00099
 -9.03010   0.00000  -0.00065   0.00000   0.00006   0.00000  -0.00136   0.00000  -0.00039   0.00000   0.00022   0.00000  -0.00099
 -8.97993   0.00000  -0.00065   0.00000   0.00006   0.00000  -0.00136   0.00000  -0.00039   0.00000   0.00022   0.00000  -0.00099
 -8.92977   0.00000  -0.00065   0.00000   0.00006   0.00000  -0.00136   0.00000  -0.00039   0.00000   0.00022   0.00000  -0.00099
 -8.87960   0.00000  -0.00065   0.00000   0.00006   0.00000  -0.00136   0.00000  -0.00039   0.00000   0.00022   0.00000  -0.00099
 -8.82943   0.00000  -0.00065   0.00000   0.00006   0.00000  -0.00136   0.00000  -0.00039   0.00000   0.00022   0.00000  -0.00099
 -8.77926   0.00000  -0.00065   0.00000   0.00006   0.00000  -0.00136   0.00000  -0.00039   0.00000   0.00022   0.00000  -0.00099
 -8.72910   0.00000  -0.00065   0.00000   0.00006   0.00000  -0.00136   0.00000  -0.00039   0.00000   0.00022   0.00000  -0.00099
 -8.67893   0.00000  -0.00065   0.00000   0.00006   0.00000  -0.00136   0.00000  -0.00039   0.00000   0.00022   0.00000  -0.00099
 -8.62876   0.00000  -0.00065   0.00000   0.00006   0.00000  -0.00136   0.00000  -0.00039   0.00000   0.00022   0.00000  -0.00099
 -8.57860   0.00000  -0.00065   0.00000   0.00006   0.00000  -0.00136   0.00000  -0.00039   0.00000   0.00022   0.00000  -0.00099
 -8.52843   0.00000  -0.00065   0.00000   0.00006   0.00000  -0.00136   0.00000  -0.00039   0.00000   0.00022   0.00000  -0.00099
 -8.47826   0.00000  -0.00065   0.00000   0.00006   0.00000  -0.00136   0.00000  -0.00039   0.00000   0.00022   0.00000  -0.00099
 -8.42809   0.00000  -0.00065   0.00000   0.00006   0.00000  -0.00136   0.00000  -0.00039   0.00000   0.00022   0.00000  -0.00099
 -8.37793   0.00000  -0.00065   0.00000   0.00006   0.00000  -0.00136   0.00001  -0.00039   0.00001   0.00022   0.00001  -0.00099
 -8.32776   0.00005  -0.00064   0.00006   0.00007   0.00005  -0.00136   0.00004  -0.00038   0.00004   0.00022   0.00004  -0.00099
 -8.27759   0.00087  -0.00060   0.00091   0.00011   0.00083  -0.00131   0.00009  -0.00038   0.00009   0.00023   0.00009  -0.00099
 -8.22742   0.00104  -0.00055   0.00108   0.00017   0.00099  -0.00126   0.00016  -0.00037   0.00017   0.00023   0.00015  -0.00098
 -8.17726   0.00098  -0.00050   0.00103   0.00022   0.00094  -0.00122   0.00026  -0.00036   0.00027   0.00025   0.00025  -0.00097
 -8.12709   0.00102  -0.00045   0.00107   0.00027   0.00097  -0.00117   0.00055  -0.00033   0.00057   0.00028   0.00052  -0.00094
 -8.07692   0.00116  -0.00039   0.00122   0.00033   0.00110  -0.00111   0.00080  -0.00029   0.00084   0.00032   0.00077  -0.00090
 -8.02676   0.00132  -0.00032   0.00139   0.00040   0.00125  -0.00105   0.00089  -0.00025   0.00093   0.00036   0.00085  -0.00086
 -7.97659   0.00148  -0.00025   0.00156   0.00048   0.00139  -0.00098   0.00098  -0.00020   0.00103   0.00042   0.00093  -0.00081
 -7.92642   0.00157  -0.00017   0.00166   0.00056   0.00148  -0.00091   0.00112  -0.00014   0.00118   0.00048   0.00106  -0.00076
 -7.87625   0.00161  -0.00009   0.00171   0.00065   0.00151  -0.00083   0.00128  -0.00008   0.00134   0.00054   0.00121  -0.00070
 -7.82609   0.00167  -0.00001   0.00178   0.00074   0.00156  -0.00075   0.00143  -0.00001   0.00151   0.00062   0.00135  -0.00063
 -7.77592   0.00176   0.00008   0.00188   0.00083   0.00164  -0.00067   0.00154   0.00007   0.00163   0.00070   0.00145  -0.00056
 -7.72575   0.00185   0.00017   0.00198   0.00093   0.00172  -0.00058   0.00158   0.00015   0.00168   0.00078   0.00149  -0.00048
 -7.67559   0.00194   0.00027   0.00208   0.00104   0.00180  -0.00049   0.00163   0.00023   0.00174   0.00087   0.00153  -0.00041
 -7.62542   0.00203   0.00037   0.00218   0.00115   0.00188  -0.00040   0.00171   0.00032   0.00182   0.00096   0.00160  -0.00033
 -7.57525   0.00212   0.00048   0.00229   0.00126   0.00196  -0.00030   0.00180   0.00041   0.00192   0.00106   0.00167  -0.00024
 -7.52508   0.00223   0.00059   0.00240   0.00138   0.00205  -0.00020   0.00189   0.00050   0.00202   0.00116   0.00175  -0.00015
 -7.47492   0.00265   0.00073   0.00287   0.00153   0.00243  -0.00007   0.00197   0.00060   0.00212   0.00127   0.00183  -0.00006
 -7.42475   0.00341   0.00090   0.00372   0.00171   0.00310   0.00008   0.00206   0.00071   0.00221   0.00138   0.00190   0.00003
 -7.37458   0.00355   0.00107   0.00387   0.00191   0.00322   0.00024   0.00215   0.00081   0.00232   0.00149   0.00199   0.00013
 -7.32441   0.00316   0.00123   0.00345   0.00208   0.00287   0.00039   0.00237   0.00093   0.00257   0.00162   0.00218   0.00024
 -7.27425   0.00300   0.00138   0.00327   0.00224   0.00272   0.00052   0.00308   0.00109   0.00335   0.00179   0.00281   0.00038
 -7.22408   0.00298   0.00153   0.00325   0.00241   0.00271   0.00066   0.00355   0.00127   0.00387   0.00199   0.00322   0.00054
 -7.17391   0.00295   0.00168   0.00322   0.00257   0.00269   0.00079   0.00323   0.00143   0.00353   0.00216   0.00293   0.00069
 -7.12375   0.00289   0.00183   0.00315   0.00273   0.00263   0.00093   0.00295   0.00158   0.00322   0.00232   0.00268   0.00083
 -7.07358   0.00268   0.00196   0.00293   0.00287   0.00244   0.00105   0.00292   0.00172   0.00318   0.00248   0.00265   0.00096
 -7.02341   0.00247   0.00208   0.00270   0.00301   0.00225   0.00116   0.00289   0.00187   0.00316   0.00264   0.00263   0.00109
 -6.97324   0.00237   0.00220   0.00258   0.00314   0.00215   0.00127   0.00286   0.00201   0.00311   0.00280   0.00260   0.00122
 -6.92308   0.00228   0.00232   0.00248   0.00326   0.00208   0.00137   0.00275   0.00215   0.00299   0.00295   0.00250   0.00135
 -6.87291   0.00219   0.00243   0.00238   0.00338   0.00200   0.00147   0.00252   0.00227   0.00275   0.00309   0.00229   0.00146
 -6.82274   0.00231   0.00254   0.00253   0.00351   0.00209   0.00158   0.00235   0.00239   0.00256   0.00321   0.00213   0.00157
 -6.77258   0.00331   0.00271   0.00375   0.00370   0.00287   0.00172   0.00226   0.00251   0.00247   0.00334   0.00206   0.00167
 -6.72241   0.00394   0.00291   0.00453   0.00392   0.00336   0.00189   0.00218   0.00261   0.00238   0.00346   0.00198   0.00177
 -6.67224   0.00411   0.00311   0.00468   0.00416   0.00355   0.00207   0.00210   0.00272   0.00228   0.00357   0.00191   0.00187
 -6.62207   0.00424   0.00333   0.00484   0.00440   0.00365   0.00225   0.00242   0.00284   0.00267   0.00371   0.00216   0.00197
 -6.57191   0.00392   0.00352   0.00454   0.00463   0.00329   0.00242   0.00340   0.00301   0.00387   0.00390   0.00293   0.00212
 -6.52174   0.00393   0.00372   0.00462   0.00486   0.00323   0.00258   0.00376   0.00320   0.00432   0.00412   0.00321   0.00228
 -6.47157   0.00424   0.00393   0.00505   0.00511   0.00343   0.00275   0.00389   0.00340   0.00443   0.00434   0.00336   0.00245
 -6.42140   0.00460   0.00416   0.00554   0.00539   0.00367   0.00293   0.00410   0.00360   0.00468   0.00457   0.00353   0.00263
 -6.37124   0.00474   0.00440   0.00575   0.00568   0.00374   0.00312   0.00379   0.00379   0.00438   0.00479   0.00320   0.00279
 -6.32107   0.00477   0.00464   0.00582   0.00597   0.00372   0.00331   0.00371   0.00398   0.00435   0.00501   0.00307   0.00294
 -6.27090   0.00471   0.00488   0.00580   0.00626   0.00362   0.00349   0.00395   0.00418   0.00468   0.00525   0.00322   0.00310
 -6.22074   0.00471   0.00511   0.00583   0.00656   0.00359   0.00367   0.00430   0.00439   0.00515   0.00551   0.00345   0.00328
 -6.17057   0.00467   0.00535   0.00580   0.00685   0.00353   0.00385   0.00456   0.00462   0.00550   0.00578   0.00361   0.00346
 -6.12040   0.00506   0.00560   0.00627   0.00716   0.00384   0.00404   0.00473   0.00486   0.00575   0.00607   0.00370   0.00364
 -6.07023   0.00569   0.00589   0.00692   0.00751   0.00445   0.00426   0.00480   0.00510   0.00590   0.00637   0.00370   0.00383
 -6.02007   0.00499   0.00614   0.00611   0.00782   0.00387   0.00446   0.00500   0.00535   0.00618   0.00668   0.00382   0.00402
 -5.96990   0.00490   0.00638   0.00612   0.00812   0.00368   0.00464   0.00519   0.00561   0.00645   0.00700   0.00393   0.00422
 -5.91973   0.00561   0.00666   0.00717   0.00848   0.00405   0.00485   0.00537   0.00588   0.00671   0.00734   0.00404   0.00442
 -5.86957   0.00568   0.00695   0.00722   0.00885   0.00413   0.00505   0.00585   0.00617   0.00731   0.00770   0.00439   0.00464
 -5.81940   0.00513   0.00721   0.00660   0.00918   0.00366   0.00524   0.00673   0.00651   0.00827   0.00812   0.00519   0.00490
 -5.76923   0.00473   0.00744   0.00599   0.00948   0.00347   0.00541   0.00600   0.00681   0.00739   0.00849   0.00460   0.00513
 -5.71906   0.00445   0.00767   0.00546   0.00975   0.00344   0.00558   0.00564   0.00709   0.00706   0.00884   0.00421   0.00534
 -5.66890   0.00493   0.00791   0.00570   0.01004   0.00415   0.00579   0.00632   0.00741   0.00794   0.00924   0.00469   0.00558
 -5.61873   0.00550   0.00819   0.00600   0.01034   0.00500   0.00604   0.00597   0.00771   0.00767   0.00963   0.00428   0.00579
 -5.56856   0.00553   0.00847   0.00579   0.01063   0.00526   0.00631   0.00570   0.00800   0.00733   0.00999   0.00407   0.00600
 -5.51839   0.00563   0.00875   0.00563   0.01091   0.00564   0.00659   0.00529   0.00826   0.00681   0.01033   0.00378   0.00619
 -5.46823   0.00545   0.00902   0.00520   0.01117   0.00571   0.00688   0.00487   0.00851   0.00613   0.01064   0.00362   0.00637
 -5.41806   0.00552   0.00930   0.00502   0.01142   0.00602   0.00718   0.00467   0.00874   0.00589   0.01094   0.00344   0.00654
 -5.36789   0.00684   0.00964   0.00558   0.01170   0.00809   0.00758   0.00464   0.00897   0.00592   0.01124   0.00337   0.00671
 -5.31773   0.00769   0.01003   0.00625   0.01202   0.00914   0.00804   0.00502   0.00923   0.00626   0.01155   0.00378   0.00690
 -5.26756   0.00688   0.01037   0.00677   0.01236   0.00699   0.00839   0.00562   0.00951   0.00677   0.01189   0.00447   0.00713
 -5.21739   0.00703   0.01073   0.00792   0.01275   0.00614   0.00870   0.00569   0.00979   0.00682   0.01223   0.00456   0.00735
 -5.16722   0.00688   0.01107   0.00854   0.01318   0.00522   0.00896   0.00584   0.01009   0.00695   0.01258   0.00473   0.00759
 -5.11706   0.00787   0.01147   0.01023   0.01370   0.00550   0.00924   0.00600   0.01039   0.00715   0.01294   0.00484   0.00783
 -5.06689   0.00856   0.01190   0.01073   0.01423   0.00640   0.00956   0.00646   0.01071   0.00746   0.01331   0.00546   0.00811
 -5.01672   0.00806   0.01230   0.01036   0.01475   0.00577   0.00985   0.00658   0.01104   0.00753   0.01369   0.00563   0.00839
 -4.96656   0.00648   0.01263   0.00841   0.01518   0.00454   0.01008   0.00658   0.01137   0.00738   0.01406   0.00577   0.00868
 -4.91639   0.00431   0.01284   0.00188   0.01527   0.00674   0.01041   0.00796   0.01177   0.01064   0.01459   0.00527   0.00894
 -4.86622  -0.00066   0.01281  -0.01308   0.01461   0.01176   0.01100   0.00859   0.01220   0.01224   0.01521   0.00494   0.00919
 -4.81605  -0.01004   0.01231  -0.03252   0.01298   0.01243   0.01163   0.00607   0.01250   0.00854   0.01564   0.00360   0.00937
 -4.76589  -0.01023   0.01179  -0.03081   0.01144   0.01035   0.01215   0.00602   0.01281   0.00870   0.01607   0.00333   0.00954
 -4.71572  -0.00703   0.01144  -0.02437   0.01021   0.01030   0.01266   0.00658   0.01314   0.00960   0.01656   0.00356   0.00972
 -4.66555  -0.00563   0.01116  -0.02050   0.00919   0.00924   0.01313   0.00693   0.01348   0.00979   0.01705   0.00408   0.00992
 -4.61538  -0.00296   0.01101  -0.01663   0.00835   0.01070   0.01366   0.00592   0.01378   0.00763   0.01743   0.00421   0.01014
 -4.56522   0.00999   0.01151   0.01407   0.00906   0.00591   0.01396   0.00527   0.01405   0.00557   0.01771   0.00496   0.01038
 -4.51505   0.01274   0.01215   0.02343   0.01023   0.00206   0.01406   0.00520   0.01431   0.00451   0.01793   0.00588   0.01068
 -4.46488   0.00664   0.01248   0.01382   0.01093  -0.00054   0.01404   0.00502   0.01456   0.00374   0.01812   0.00630   0.01099
 -4.41472   0.00396   0.01268   0.01299   0.01158  -0.00507   0.01378   0.00487   0.01480   0.00368   0.01831   0.00605   0.01130
 -4.36455   0.00087   0.01272   0.01150   0.01216  -0.00977   0.01329   0.00400   0.01500   0.00369   0.01849   0.00430   0.01151
 -4.31438  -0.00451   0.01250   0.00217   0.01226  -0.01120   0.01273   0.00227   0.01512   0.00106   0.01855   0.00347   0.01169
 -4.26421  -0.01021   0.01199  -0.00909   0.01181  -0.01133   0.01216   0.00159   0.01520  -0.00035   0.01853   0.00352   0.01187
 -4.21405   0.00664   0.01232   0.04112   0.01387  -0.02783   0.01077   0.00106   0.01525  -0.00162   0.01845   0.00373   0.01205
 -4.16388   0.02505   0.01358   0.10326   0.01905  -0.05317   0.00810   0.00103   0.01530  -0.00250   0.01832   0.00455   0.01228
 -4.11371   0.02376   0.01477   0.10360   0.02425  -0.05609   0.00529   0.00180   0.01539  -0.00223   0.01821   0.00584   0.01257
 -4.06355   0.01953   0.01575   0.07930   0.02823  -0.04025   0.00327   0.00208   0.01550  -0.00269   0.01807   0.00686   0.01292
 -4.01338   0.00854   0.01618   0.04357   0.03041  -0.02649   0.00194   0.00059   0.01553  -0.00630   0.01776   0.00747   0.01329
 -3.96321   0.00474   0.01641   0.03262   0.03205  -0.02313   0.00078   0.00268   0.01566  -0.00274   0.01762   0.00811   0.01370
 -3.91304  -0.01931   0.01544  -0.01214   0.03144  -0.02649  -0.00055   0.00352   0.01584  -0.00215   0.01751   0.00918   0.01416
 -3.86288  -0.04248   0.01331  -0.07582   0.02764  -0.00913  -0.00101   0.00574   0.01612   0.00016   0.01752   0.01133   0.01473
 -3.81271  -0.02610   0.01200  -0.04898   0.02518  -0.00321  -0.00117   0.00449   0.01635  -0.00069   0.01749   0.00966   0.01521
 -3.76254  -0.02110   0.01095  -0.03949   0.02320  -0.00271  -0.00131  -0.00370   0.01616  -0.01423   0.01677   0.00682   0.01556
 -3.71237  -0.01872   0.01001  -0.03438   0.02147  -0.00305  -0.00146  -0.00543   0.01589  -0.01795   0.01587   0.00710   0.01591
 -3.66221  -0.01367   0.00932  -0.02122   0.02041  -0.00613  -0.00177  -0.00485   0.01565  -0.01526   0.01511   0.00556   0.01619
 -3.61204  -0.00783   0.00893  -0.00151   0.02033  -0.01414  -0.00248  -0.00748   0.01527  -0.01936   0.01414   0.00440   0.01641
 -3.56187  -0.00604   0.00862  -0.00688   0.01999  -0.00520  -0.00274  -0.01570   0.01449  -0.04087   0.01209   0.00947   0.01689
 -3.51171  -0.00449   0.00840  -0.00744   0.01961  -0.00155  -0.00282  -0.02458   0.01325  -0.06222   0.00896   0.01306   0.01754
 -3.46154  -0.00394   0.00820  -0.00647   0.01929  -0.00141  -0.00289  -0.02560   0.01197  -0.05968   0.00597   0.00849   0.01797
 -3.41137  -0.00311   0.00805  -0.00677   0.01895   0.00055  -0.00286  -0.02485   0.01072  -0.05619   0.00315   0.00649   0.01829
 -3.36120   0.00215   0.00815   0.00260   0.01908   0.00171  -0.00277  -0.02578   0.00943  -0.05849   0.00022   0.00693   0.01864
 -3.31104   0.00741   0.00853   0.01429   0.01980   0.00053  -0.00275  -0.02228   0.00831  -0.04984  -0.00228   0.00528   0.01890
 -3.26087  -0.00303   0.00837   0.00777   0.02019  -0.01383  -0.00344  -0.02206   0.00720  -0.04390  -0.00449  -0.00021   0.01889
 -3.21070   0.00149   0.00845  -0.00563   0.01990   0.00861  -0.00301  -0.01877   0.00626  -0.03076  -0.00603  -0.00678   0.01855
 -3.16054  -0.00210   0.00834  -0.01200   0.01930   0.00781  -0.00262  -0.01776   0.00537  -0.02580  -0.00732  -0.00971   0.01807
 -3.11037  -0.00702   0.00799  -0.01996   0.01830   0.00592  -0.00232  -0.01855   0.00444  -0.02245  -0.00845  -0.01465   0.01733
 -3.06020  -0.01901   0.00704  -0.04146   0.01622   0.00345  -0.00215  -0.02282   0.00330  -0.03084  -0.01000  -0.01481   0.01659
 -3.01003  -0.02976   0.00554  -0.05888   0.01327  -0.00064  -0.00218  -0.03281   0.00165  -0.05225  -0.01262  -0.01337   0.01592
 -2.95987  -0.04808   0.00313  -0.09267   0.00862  -0.00349  -0.00235  -0.03962  -0.00034  -0.06559  -0.01591  -0.01366   0.01523
 -2.90970  -0.04815   0.00072  -0.09511   0.00385  -0.00119  -0.00241  -0.02762  -0.00172  -0.03142  -0.01748  -0.02383   0.01404
 -2.85953  -0.05366  -0.00198  -0.11136  -0.00174   0.00404  -0.00221  -0.01639  -0.00255   0.00331  -0.01732  -0.03609   0.01223
 -2.80936  -0.07366  -0.00567  -0.14825  -0.00918   0.00092  -0.00217  -0.00618  -0.00286   0.04282  -0.01517  -0.05517   0.00946
 -2.75920  -0.07520  -0.00944  -0.14632  -0.01652  -0.00407  -0.00237   0.00037  -0.00284   0.08176  -0.01107  -0.08101   0.00539
 -2.70903  -0.07403  -0.01316  -0.14356  -0.02372  -0.00451  -0.00260  -0.00013  -0.00284   0.11496  -0.00530  -0.11521  -0.00039
 -2.65886  -0.07600  -0.01697  -0.14786  -0.03114  -0.00413  -0.00280   0.00223  -0.00273   0.10987   0.00021  -0.10540  -0.00567
 -2.60870  -0.06882  -0.02042  -0.13124  -0.03772  -0.00640  -0.00312  -0.00822  -0.00314   0.06658   0.00355  -0.08301  -0.00984
 -2.55853  -0.04758  -0.02281  -0.07900  -0.04168  -0.01616  -0.00393  -0.03543  -0.00492   0.00880   0.00399  -0.07965  -0.01383
 -2.50836  -0.02989  -0.02431  -0.03224  -0.04330  -0.02755  -0.00532  -0.02532  -0.00619   0.02040   0.00501  -0.07104  -0.01740
 -2.45819  -0.03387  -0.02601  -0.04377  -0.04550  -0.02396  -0.00652  -0.03421  -0.00791  -0.02060   0.00398  -0.04782  -0.01980
 -2.40803  -0.05195  -0.02861  -0.08792  -0.04991  -0.01599  -0.00732  -0.04272  -0.01005  -0.04814   0.00157  -0.03730  -0.02167
 -2.35786  -0.05675  -0.03146  -0.10828  -0.05534  -0.00521  -0.00758  -0.04239  -0.01218  -0.05128  -0.00101  -0.03349  -0.02335
 -2.30769  -0.05495  -0.03422  -0.10672  -0.06069  -0.00317  -0.00774  -0.04102  -0.01423  -0.05095  -0.00356  -0.03109  -0.02491
 -2.25753  -0.03853  -0.03615  -0.07553  -0.06448  -0.00153  -0.00782  -0.04047  -0.01626  -0.04825  -0.00598  -0.03268  -0.02655
 -2.20736  -0.03008  -0.03766  -0.05909  -0.06745  -0.00107  -0.00787  -0.04257  -0.01840  -0.07033  -0.00951  -0.01482  -0.02729
 -2.15719  -0.02879  -0.03910  -0.05538  -0.07023  -0.00220  -0.00798  -0.02672  -0.01974  -0.04100  -0.01157  -0.01244  -0.02791
 -2.10702  -0.02829  -0.04052  -0.05336  -0.07290  -0.00321  -0.00814  -0.01624  -0.02056  -0.02074  -0.01261  -0.01175  -0.02850
 -2.05686  -0.02944  -0.04200  -0.05338  -0.07558  -0.00550  -0.00842  -0.01013  -0.02106  -0.01032  -0.01313  -0.00995  -0.02900
 -2.00669  -0.02962  -0.04349  -0.05163  -0.07817  -0.00760  -0.00880  -0.00580  -0.02135  -0.00171  -0.01321  -0.00988  -0.02950
 -1.95652  -0.02724  -0.04485  -0.04369  -0.08036  -0.01080  -0.00934  -0.00173  -0.02144   0.01636  -0.01239  -0.01983  -0.03049
 -1.90635  -0.02572  -0.04614  -0.03707  -0.08222  -0.01436  -0.01006  -0.00256  -0.02157   0.00200  -0.01229  -0.00713  -0.03085
 -1.85619  -0.01811  -0.04705  -0.01732  -0.08309  -0.01890  -0.01101  -0.00128  -0.02163   0.00415  -0.01208  -0.00671  -0.03119
 -1.80602  -0.01512  -0.04781  -0.00586  -0.08339  -0.02437  -0.01223  -0.02699  -0.02299  -0.05001  -0.01459  -0.00397  -0.03139
 -1.75585  -0.01777  -0.04870   0.00142  -0.08331  -0.03696  -0.01409  -0.01432  -0.02371  -0.02525  -0.01586  -0.00339  -0.03156
 -1.70569  -0.01266  -0.04934  -0.01055  -0.08384  -0.01476  -0.01483  -0.03000  -0.02521  -0.05243  -0.01849  -0.00758  -0.03194
 -1.65552  -0.01069  -0.04987  -0.00845  -0.08427  -0.01293  -0.01548  -0.09513  -0.02998  -0.15336  -0.02618  -0.03691  -0.03379
 -1.60535  -0.00644  -0.05020  -0.00508  -0.08452  -0.00780  -0.01587  -0.06070  -0.03303  -0.11404  -0.03190  -0.00736  -0.03416
 -1.55518  -0.00693  -0.05054  -0.00163  -0.08460  -0.01223  -0.01648  -0.03112  -0.03459  -0.05591  -0.03471  -0.00633  -0.03448
 -1.50502  -0.00924  -0.05101   0.00017  -0.08460  -0.01866  -0.01742  -0.05110  -0.03716  -0.10126  -0.03979  -0.00095  -0.03452
 -1.45485  -0.01671  -0.05185  -0.02418  -0.08581  -0.00923  -0.01788  -0.10432  -0.04239  -0.20514  -0.05008  -0.00350  -0.03470
 -1.40468  -0.01795  -0.05275  -0.03459  -0.08754  -0.00131  -0.01795  -0.13236  -0.04903  -0.25554  -0.06290  -0.00917  -0.03516
 -1.35452  -0.02410  -0.05395  -0.04273  -0.08969  -0.00547  -0.01822  -0.09522  -0.05381  -0.18532  -0.07220  -0.00512  -0.03542
 -1.30435  -0.02080  -0.05500  -0.02921  -0.09115  -0.01239  -0.01884  -0.10886  -0.05927  -0.21403  -0.08293  -0.00368  -0.03560
 -1.25418  -0.01511  -0.05576  -0.02169  -0.09224  -0.00853  -0.01927  -0.11180  -0.06488  -0.21684  -0.09381  -0.00677  -0.03594
 -1.20401  -0.01279  -0.05640  -0.01419  -0.09295  -0.01139  -0.01984  -0.09275  -0.06953  -0.18061  -0.10287  -0.00489  -0.03619
 -1.15385  -0.01262  -0.05703   0.01062  -0.09242  -0.03586  -0.02164  -0.09923  -0.07451  -0.18925  -0.11237  -0.00921  -0.03665
 -1.10368  -0.01343  -0.05770   0.00413  -0.09221  -0.03099  -0.02320  -0.08296  -0.07867  -0.15821  -0.12030  -0.00772  -0.03703
 -1.05351  -0.00514  -0.05796   0.01152  -0.09164  -0.02179  -0.02429  -0.05619  -0.08149  -0.10109  -0.12537  -0.01130  -0.03760
 -1.00334  -0.01063  -0.05850  -0.00053  -0.09166  -0.02074  -0.02533  -0.05636  -0.08432  -0.09605  -0.13019  -0.01668  -0.03844
 -0.95318  -0.01310  -0.05915  -0.00163  -0.09174  -0.02457  -0.02656  -0.05358  -0.08700  -0.08954  -0.13468  -0.01762  -0.03932
 -0.90301  -0.01000  -0.05965  -0.00571  -0.09203  -0.01429  -0.02728  -0.04734  -0.08938  -0.07749  -0.13857  -0.01718  -0.04018
 -0.85284  -0.01698  -0.06051  -0.01981  -0.09302  -0.01414  -0.02799  -0.04672  -0.09172  -0.08957  -0.14307  -0.00387  -0.04038
 -0.80268  -0.02834  -0.06193  -0.04406  -0.09523  -0.01261  -0.02862  -0.06972  -0.09522  -0.13323  -0.14975  -0.00621  -0.04069
 -0.75251  -0.02910  -0.06339  -0.05848  -0.09817   0.00029  -0.02861  -0.09704  -0.10009  -0.18231  -0.15889  -0.01176  -0.04128
 -0.70234  -0.02984  -0.06488  -0.05682  -0.10102  -0.00285  -0.02875  -0.05654  -0.10292  -0.11146  -0.16449  -0.00163  -0.04136
 -0.65217  -0.02954  -0.06637  -0.04650  -0.10335  -0.01258  -0.02938  -0.06094  -0.10598  -0.11842  -0.17043  -0.00346  -0.04153
 -0.60201  -0.02107  -0.06742  -0.03080  -0.10490  -0.01133  -0.02995  -0.05413  -0.10870  -0.10609  -0.17575  -0.00217  -0.04164
 -0.55184  -0.01219  -0.06803  -0.01329  -0.10556  -0.01108  -0.03051  -0.05126  -0.11127  -0.09723  -0.18063  -0.00529  -0.04191
 -0.50167  -0.01299  -0.06869  -0.00862  -0.10600  -0.01737  -0.03138  -0.05522  -0.11404  -0.09666  -0.18548  -0.01378  -0.04260
 -0.45151  -0.01276  -0.06933  -0.00555  -0.10627  -0.01998  -0.03238  -0.05663  -0.11688  -0.09152  -0.19007  -0.02174  -0.04369
 -0.40134  -0.01426  -0.07004  -0.00743  -0.10665  -0.02108  -0.03344  -0.05238  -0.11951  -0.08026  -0.19409  -0.02451  -0.04492
 -0.35117  -0.02125  -0.07111  -0.02116  -0.10771  -0.02135  -0.03451  -0.04853  -0.12194  -0.07307  -0.19776  -0.02399  -0.04612
 -0.30100  -0.02206  -0.07221  -0.01948  -0.10868  -0.02464  -0.03574  -0.04386  -0.12414  -0.05966  -0.20075  -0.02807  -0.04753
 -0.25084  -0.02697  -0.07357  -0.03509  -0.11045  -0.01886  -0.03669  -0.03722  -0.12601  -0.04046  -0.20278  -0.03398  -0.04924
 -0.20067  -0.02184  -0.07466  -0.03042  -0.11197  -0.01327  -0.03736  -0.03251  -0.12764  -0.02834  -0.20420  -0.03667  -0.05108
 -0.15050  -0.01649  -0.07549  -0.01767  -0.11286  -0.01532  -0.03812  -0.02745  -0.12902  -0.01978  -0.20520  -0.03512  -0.05284
 -0.10033  -0.01517  -0.07625  -0.00826  -0.11327  -0.02207  -0.03923  -0.02218  -0.13013   0.00213  -0.20509  -0.04649  -0.05517
 -0.05017  -0.01218  -0.07686  -0.00721  -0.11363  -0.01714  -0.04009  -0.02609  -0.13144  -0.01093  -0.20564  -0.04126  -0.05724
  0.00000  -0.01030  -0.07738  -0.00505  -0.11389  -0.01554  -0.04087  -0.02959  -0.13292  -0.05273  -0.20828  -0.00645  -0.05756
  0.05017  -0.00847  -0.07780  -0.00333  -0.11405  -0.01361  -0.04155  -0.02837  -0.13435  -0.06136  -0.21136   0.00463  -0.05733
  0.10033  -0.00875  -0.07824  -0.00751  -0.11443  -0.00999  -0.04205  -0.02652  -0.13568  -0.06515  -0.21463   0.01210  -0.05672
  0.15050  -0.00705  -0.07860  -0.00614  -0.11474  -0.00796  -0.04245  -0.02562  -0.13696  -0.06385  -0.21783   0.01261  -0.05609
  0.20067  -0.00452  -0.07882  -0.00366  -0.11492  -0.00539  -0.04272  -0.02202  -0.13807  -0.04848  -0.22027   0.00444  -0.05587
  0.25084  -0.00269  -0.07896  -0.00252  -0.11505  -0.00287  -0.04287  -0.01425  -0.13878  -0.02377  -0.22146  -0.00472  -0.05611
  0.30100  -0.00245  -0.07908  -0.00397  -0.11525  -0.00092  -0.04291  -0.00634  -0.13910  -0.00530  -0.22172  -0.00739  -0.05648
  0.35117  -0.00103  -0.07913  -0.00147  -0.11532  -0.00059  -0.04294  -0.00510  -0.13936  -0.00218  -0.22183  -0.00801  -0.05688
  0.40134   0.00374  -0.07895   0.00596  -0.11502   0.00153  -0.04287  -0.01147  -0.13993   0.05600  -0.21902  -0.07894  -0.06084
  0.45151   0.00551  -0.07867   0.00836  -0.11460   0.00266  -0.04273  -0.00768  -0.14032   0.04320  -0.21686  -0.05857  -0.06378
  0.50167   0.00552  -0.07839   0.00819  -0.11419   0.00284  -0.04259  -0.00435  -0.14054   0.03131  -0.21529  -0.04002  -0.06578
  0.55184   0.00306  -0.07824   0.00224  -0.11408   0.00389  -0.04240  -0.00205  -0.14064   0.02073  -0.21425  -0.02483  -0.06703
  0.60201   0.00012  -0.07823  -0.00414  -0.11429   0.00438  -0.04218  -0.00150  -0.14071   0.01215  -0.21364  -0.01515  -0.06779
  0.65217  -0.00234  -0.07835  -0.00929  -0.11475   0.00461  -0.04195  -0.00117  -0.14077   0.00750  -0.21326  -0.00983  -0.06828
  0.70234  -0.00496  -0.07860  -0.01481  -0.11550   0.00489  -0.04170  -0.00068  -0.14081   0.00436  -0.21304  -0.00572  -0.06857
  0.75251  -0.00740  -0.07897  -0.01999  -0.11650   0.00519  -0.04144  -0.00037  -0.14082   0.00304  -0.21289  -0.00379  -0.06876
  0.80268  -0.00981  -0.07946  -0.02427  -0.11772   0.00466  -0.04121  -0.00027  -0.14084   0.00407  -0.21269  -0.00460  -0.06899
  0.85284  -0.01230  -0.08008  -0.02856  -0.11915   0.00396  -0.04101  -0.00067  -0.14087   0.00478  -0.21245  -0.00612  -0.06930
  0.90301  -0.01432  -0.08080  -0.03186  -0.12075   0.00321  -0.04085  -0.00016  -0.14088   0.00560  -0.21216  -0.00593  -0.06960
  0.95318  -0.01629  -0.08162  -0.03494  -0.12250   0.00235  -0.04073  -0.00058  -0.14091   0.00326  -0.21200  -0.00442  -0.06982
  1.00334  -0.01773  -0.08250  -0.03617  -0.12432   0.00072  -0.04069  -0.00088  -0.14095   0.00477  -0.21176  -0.00652  -0.07014
  1.05351  -0.01912  -0.08346  -0.03724  -0.12619  -0.00099  -0.04074  -0.00106  -0.14101   0.00491  -0.21152  -0.00704  -0.07050
  1.10368  -0.02056  -0.08450  -0.03827  -0.12810  -0.00286  -0.04089  -0.00117  -0.14107   0.00503  -0.21126  -0.00738  -0.07087
  1.15385  -0.02197  -0.08560  -0.03897  -0.13006  -0.00497  -0.04114  -0.00162  -0.14115   0.00557  -0.21098  -0.00881  -0.07131
  1.20401  -0.02273  -0.08674  -0.03845  -0.13199  -0.00700  -0.04149  -0.00162  -0.14123   0.00834  -0.21057  -0.01158  -0.07189
  1.25418  -0.02193  -0.08784  -0.03417  -0.13370  -0.00968  -0.04197  -0.00120  -0.14129   0.00792  -0.21017  -0.01033  -0.07241
  1.30435  -0.02175  -0.08893  -0.03305  -0.13536  -0.01045  -0.04250  -0.00146  -0.14136   0.00778  -0.20978  -0.01070  -0.07295
  1.35452  -0.03125  -0.09050  -0.04596  -0.13767  -0.01654  -0.04333  -0.00224  -0.14147   0.00896  -0.20933  -0.01343  -0.07362