ESCALE ; pCOHP file generated by LOBSTER. Energy is shifted such that the Fermi level lies at 0 eV.
      3017          1          7  -7.87125e+00   1.61287e+01   4.12875e+00 
Average
No.1:Na1->O13(2.367041087566939)
No.2:Na1[3s]->O13[2s](2.367041087566939)
No.2:Na1[3s]->O13[2p_y](2.367041087566939)
No.2:Na1[3s]->O13[2p_z](2.367041087566939)
No.2:Na1[3s]->O13[2p_x](2.367041087566939)
No.2:Na1[2p_y]->O13[2s](2.367041087566939)
No.2:Na1[2p_y]->O13[2p_y](2.367041087566939)
No.2:Na1[2p_y]->O13[2p_z](2.367041087566939)
No.2:Na1[2p_y]->O13[2p_x](2.367041087566939)
No.2:Na1[2p_z]->O13[2s](2.367041087566939)
No.2:Na1[2p_z]->O13[2p_y](2.367041087566939)
No.2:Na1[2p_z]->O13[2p_z](2.367041087566939)
No.2:Na1[2p_z]->O13[2p_x](2.367041087566939)
No.2:Na1[2p_x]->O13[2s](2.367041087566939)
No.2:Na1[2p_x]->O13[2p_y](2.367041087566939)
No.2:Na1[2p_x]->O13[2p_z](2.367041087566939)
No.2:Na1[2p_x]->O13[2p_x](2.367041087566939)
No.3:Na1->O18(2.552225532426708)
No.4:Na1[3s]->O18[2s](2.552225532426708)
No.4:Na1[3s]->O18[2p_y](2.552225532426708)
No.4:Na1[3s]->O18[2p_z](2.552225532426708)
No.4:Na1[3s]->O18[2p_x](2.552225532426708)
No.4:Na1[2p_y]->O18[2s](2.552225532426708)
No.4:Na1[2p_y]->O18[2p_y](2.552225532426708)
No.4:Na1[2p_y]->O18[2p_z](2.552225532426708)
No.4:Na1[2p_y]->O18[2p_x](2.552225532426708)
No.4:Na1[2p_z]->O18[2s](2.552225532426708)
No.4:Na1[2p_z]->O18[2p_y](2.552225532426708)
No.4:Na1[2p_z]->O18[2p_z](2.552225532426708)
No.4:Na1[2p_z]->O18[2p_x](2.552225532426708)
No.4:Na1[2p_x]->O18[2s](2.552225532426708)
No.4:Na1[2p_x]->O18[2p_y](2.552225532426708)
No.4:Na1[2p_x]->O18[2p_z](2.552225532426708)
No.4:Na1[2p_x]->O18[2p_x](2.552225532426708)
No.5:Na1->O20(2.3218326509850589)
No.6:Na1[3s]->O20[2s](2.3218326509850589)
No.6:Na1[3s]->O20[2p_y](2.3218326509850589)
No.6:Na1[3s]->O20[2p_z](2.3218326509850589)
No.6:Na1[3s]->O20[2p_x](2.3218326509850589)
No.6:Na1[2p_y]->O20[2s](2.3218326509850589)
No.6:Na1[2p_y]->O20[2p_y](2.3218326509850589)
No.6:Na1[2p_y]->O20[2p_z](2.3218326509850589)
No.6:Na1[2p_y]->O20[2p_x](2.3218326509850589)
No.6:Na1[2p_z]->O20[2s](2.3218326509850589)
No.6:Na1[2p_z]->O20[2p_y](2.3218326509850589)
No.6:Na1[2p_z]->O20[2p_z](2.3218326509850589)
No.6:Na1[2p_z]->O20[2p_x](2.3218326509850589)
No.6:Na1[2p_x]->O20[2s](2.3218326509850589)
No.6:Na1[2p_x]->O20[2p_y](2.3218326509850589)
No.6:Na1[2p_x]->O20[2p_z](2.3218326509850589)
No.6:Na1[2p_x]->O20[2p_x](2.3218326509850589)
No.7:Na1->O21(2.9148630209417079)
No.8:Na1[3s]->O21[2s](2.9148630209417079)
No.8:Na1[3s]->O21[2p_y](2.9148630209417079)
No.8:Na1[3s]->O21[2p_z](2.9148630209417079)
No.8:Na1[3s]->O21[2p_x](2.9148630209417079)
No.8:Na1[2p_y]->O21[2s](2.9148630209417079)
No.8:Na1[2p_y]->O21[2p_y](2.9148630209417079)
No.8:Na1[2p_y]->O21[2p_z](2.9148630209417079)
No.8:Na1[2p_y]->O21[2p_x](2.9148630209417079)
No.8:Na1[2p_z]->O21[2s](2.9148630209417079)
No.8:Na1[2p_z]->O21[2p_y](2.9148630209417079)
No.8:Na1[2p_z]->O21[2p_z](2.9148630209417079)
No.8:Na1[2p_z]->O21[2p_x](2.9148630209417079)
No.8:Na1[2p_x]->O21[2s](2.9148630209417079)
No.8:Na1[2p_x]->O21[2p_y](2.9148630209417079)
No.8:Na1[2p_x]->O21[2p_z](2.9148630209417079)
No.8:Na1[2p_x]->O21[2p_x](2.9148630209417079)
No.9:Na1->O22(2.6490017752998116)
No.10:Na1[3s]->O22[2s](2.6490017752998116)
No.10:Na1[3s]->O22[2p_y](2.6490017752998116)
No.10:Na1[3s]->O22[2p_z](2.6490017752998116)
No.10:Na1[3s]->O22[2p_x](2.6490017752998116)
No.10:Na1[2p_y]->O22[2s](2.6490017752998116)
No.10:Na1[2p_y]->O22[2p_y](2.6490017752998116)
No.10:Na1[2p_y]->O22[2p_z](2.6490017752998116)
No.10:Na1[2p_y]->O22[2p_x](2.6490017752998116)
No.10:Na1[2p_z]->O22[2s](2.6490017752998116)
No.10:Na1[2p_z]->O22[2p_y](2.6490017752998116)
No.10:Na1[2p_z]->O22[2p_z](2.6490017752998116)
No.10:Na1[2p_z]->O22[2p_x](2.6490017752998116)
No.10:Na1[2p_x]->O22[2s](2.6490017752998116)
No.10:Na1[2p_x]->O22[2p_y](2.6490017752998116)
No.10:Na1[2p_x]->O22[2p_z](2.6490017752998116)
No.10:Na1[2p_x]->O22[2p_x](2.6490017752998116)
No.11:Na1->O28(2.427984091322565)
No.12:Na1[3s]->O28[2s](2.427984091322565)
No.12:Na1[3s]->O28[2p_y](2.427984091322565)
No.12:Na1[3s]->O28[2p_z](2.427984091322565)
No.12:Na1[3s]->O28[2p_x](2.427984091322565)
No.12:Na1[2p_y]->O28[2s](2.427984091322565)
No.12:Na1[2p_y]->O28[2p_y](2.427984091322565)
No.12:Na1[2p_y]->O28[2p_z](2.427984091322565)
No.12:Na1[2p_y]->O28[2p_x](2.427984091322565)
No.12:Na1[2p_z]->O28[2s](2.427984091322565)
No.12:Na1[2p_z]->O28[2p_y](2.427984091322565)
No.12:Na1[2p_z]->O28[2p_z](2.427984091322565)
No.12:Na1[2p_z]->O28[2p_x](2.427984091322565)
No.12:Na1[2p_x]->O28[2s](2.427984091322565)
No.12:Na1[2p_x]->O28[2p_y](2.427984091322565)
No.12:Na1[2p_x]->O28[2p_z](2.427984091322565)
No.12:Na1[2p_x]->O28[2p_x](2.427984091322565)
No.13:Na2->O14(2.367041087566939)
No.14:Na2[3s]->O14[2s](2.367041087566939)
No.14:Na2[3s]->O14[2p_y](2.367041087566939)
No.14:Na2[3s]->O14[2p_z](2.367041087566939)
No.14:Na2[3s]->O14[2p_x](2.367041087566939)
No.14:Na2[2p_y]->O14[2s](2.367041087566939)
No.14:Na2[2p_y]->O14[2p_y](2.367041087566939)
No.14:Na2[2p_y]->O14[2p_z](2.367041087566939)
No.14:Na2[2p_y]->O14[2p_x](2.367041087566939)
No.14:Na2[2p_z]->O14[2s](2.367041087566939)
No.14:Na2[2p_z]->O14[2p_y](2.367041087566939)
No.14:Na2[2p_z]->O14[2p_z](2.367041087566939)
No.14:Na2[2p_z]->O14[2p_x](2.367041087566939)
No.14:Na2[2p_x]->O14[2s](2.367041087566939)
No.14:Na2[2p_x]->O14[2p_y](2.367041087566939)
No.14:Na2[2p_x]->O14[2p_z](2.367041087566939)
No.14:Na2[2p_x]->O14[2p_x](2.367041087566939)
No.15:Na2->O17(2.552225532426708)
No.16:Na2[3s]->O17[2s](2.552225532426708)
No.16:Na2[3s]->O17[2p_y](2.552225532426708)
No.16:Na2[3s]->O17[2p_z](2.552225532426708)
No.16:Na2[3s]->O17[2p_x](2.552225532426708)
No.16:Na2[2p_y]->O17[2s](2.552225532426708)
No.16:Na2[2p_y]->O17[2p_y](2.552225532426708)
No.16:Na2[2p_y]->O17[2p_z](2.552225532426708)
No.16:Na2[2p_y]->O17[2p_x](2.552225532426708)
No.16:Na2[2p_z]->O17[2s](2.552225532426708)
No.16:Na2[2p_z]->O17[2p_y](2.552225532426708)
No.16:Na2[2p_z]->O17[2p_z](2.552225532426708)
No.16:Na2[2p_z]->O17[2p_x](2.552225532426708)
No.16:Na2[2p_x]->O17[2s](2.552225532426708)
No.16:Na2[2p_x]->O17[2p_y](2.552225532426708)
No.16:Na2[2p_x]->O17[2p_z](2.552225532426708)
No.16:Na2[2p_x]->O17[2p_x](2.552225532426708)
No.17:Na2->O19(2.3218326509850598)
No.18:Na2[3s]->O19[2s](2.3218326509850598)
No.18:Na2[3s]->O19[2p_y](2.3218326509850598)
No.18:Na2[3s]->O19[2p_z](2.3218326509850598)
No.18:Na2[3s]->O19[2p_x](2.3218326509850598)
No.18:Na2[2p_y]->O19[2s](2.3218326509850598)
No.18:Na2[2p_y]->O19[2p_y](2.3218326509850598)
No.18:Na2[2p_y]->O19[2p_z](2.3218326509850598)
No.18:Na2[2p_y]->O19[2p_x](2.3218326509850598)
No.18:Na2[2p_z]->O19[2s](2.3218326509850598)
No.18:Na2[2p_z]->O19[2p_y](2.3218326509850598)
No.18:Na2[2p_z]->O19[2p_z](2.3218326509850598)
No.18:Na2[2p_z]->O19[2p_x](2.3218326509850598)
No.18:Na2[2p_x]->O19[2s](2.3218326509850598)
No.18:Na2[2p_x]->O19[2p_y](2.3218326509850598)
No.18:Na2[2p_x]->O19[2p_z](2.3218326509850598)
No.18:Na2[2p_x]->O19[2p_x](2.3218326509850598)
No.19:Na2->O21(2.6490017752998116)
No.20:Na2[3s]->O21[2s](2.6490017752998116)
No.20:Na2[3s]->O21[2p_y](2.6490017752998116)
No.20:Na2[3s]->O21[2p_z](2.6490017752998116)
No.20:Na2[3s]->O21[2p_x](2.6490017752998116)
No.20:Na2[2p_y]->O21[2s](2.6490017752998116)
No.20:Na2[2p_y]->O21[2p_y](2.6490017752998116)
No.20:Na2[2p_y]->O21[2p_z](2.6490017752998116)
No.20:Na2[2p_y]->O21[2p_x](2.6490017752998116)
No.20:Na2[2p_z]->O21[2s](2.6490017752998116)
No.20:Na2[2p_z]->O21[2p_y](2.6490017752998116)
No.20:Na2[2p_z]->O21[2p_z](2.6490017752998116)
No.20:Na2[2p_z]->O21[2p_x](2.6490017752998116)
No.20:Na2[2p_x]->O21[2s](2.6490017752998116)
No.20:Na2[2p_x]->O21[2p_y](2.6490017752998116)
No.20:Na2[2p_x]->O21[2p_z](2.6490017752998116)
No.20:Na2[2p_x]->O21[2p_x](2.6490017752998116)
No.21:Na2->O22(2.9148630209417079)
No.22:Na2[3s]->O22[2s](2.9148630209417079)
No.22:Na2[3s]->O22[2p_y](2.9148630209417079)
No.22:Na2[3s]->O22[2p_z](2.9148630209417079)
No.22:Na2[3s]->O22[2p_x](2.9148630209417079)
No.22:Na2[2p_y]->O22[2s](2.9148630209417079)
No.22:Na2[2p_y]->O22[2p_y](2.9148630209417079)
No.22:Na2[2p_y]->O22[2p_z](2.9148630209417079)
No.22:Na2[2p_y]->O22[2p_x](2.9148630209417079)
No.22:Na2[2p_z]->O22[2s](2.9148630209417079)
No.22:Na2[2p_z]->O22[2p_y](2.9148630209417079)
No.22:Na2[2p_z]->O22[2p_z](2.9148630209417079)
No.22:Na2[2p_z]->O22[2p_x](2.9148630209417079)
No.22:Na2[2p_x]->O22[2s](2.9148630209417079)
No.22:Na2[2p_x]->O22[2p_y](2.9148630209417079)
No.22:Na2[2p_x]->O22[2p_z](2.9148630209417079)
No.22:Na2[2p_x]->O22[2p_x](2.9148630209417079)
No.23:Na2->O27(2.4279840913225645)
No.24:Na2[3s]->O27[2s](2.4279840913225645)
No.24:Na2[3s]->O27[2p_y](2.4279840913225645)
No.24:Na2[3s]->O27[2p_z](2.4279840913225645)
No.24:Na2[3s]->O27[2p_x](2.4279840913225645)
No.24:Na2[2p_y]->O27[2s](2.4279840913225645)
No.24:Na2[2p_y]->O27[2p_y](2.4279840913225645)
No.24:Na2[2p_y]->O27[2p_z](2.4279840913225645)
No.24:Na2[2p_y]->O27[2p_x](2.4279840913225645)
No.24:Na2[2p_z]->O27[2s](2.4279840913225645)
No.24:Na2[2p_z]->O27[2p_y](2.4279840913225645)
No.24:Na2[2p_z]->O27[2p_z](2.4279840913225645)
No.24:Na2[2p_z]->O27[2p_x](2.4279840913225645)
No.24:Na2[2p_x]->O27[2s](2.4279840913225645)
No.24:Na2[2p_x]->O27[2p_y](2.4279840913225645)
No.24:Na2[2p_x]->O27[2p_z](2.4279840913225645)
No.24:Na2[2p_x]->O27[2p_x](2.4279840913225645)
No.25:Na3->O15(2.367041087566939)
No.26:Na3[3s]->O15[2s](2.367041087566939)
No.26:Na3[3s]->O15[2p_y](2.367041087566939)
No.26:Na3[3s]->O15[2p_z](2.367041087566939)
No.26:Na3[3s]->O15[2p_x](2.367041087566939)
No.26:Na3[2p_y]->O15[2s](2.367041087566939)
No.26:Na3[2p_y]->O15[2p_y](2.367041087566939)
No.26:Na3[2p_y]->O15[2p_z](2.367041087566939)
No.26:Na3[2p_y]->O15[2p_x](2.367041087566939)
No.26:Na3[2p_z]->O15[2s](2.367041087566939)
No.26:Na3[2p_z]->O15[2p_y](2.367041087566939)
No.26:Na3[2p_z]->O15[2p_z](2.367041087566939)
No.26:Na3[2p_z]->O15[2p_x](2.367041087566939)
No.26:Na3[2p_x]->O15[2s](2.367041087566939)
No.26:Na3[2p_x]->O15[2p_y](2.367041087566939)
No.26:Na3[2p_x]->O15[2p_z](2.367041087566939)
No.26:Na3[2p_x]->O15[2p_x](2.367041087566939)
No.27:Na3->O18(2.3218326509850593)
No.28:Na3[3s]->O18[2s](2.3218326509850593)
No.28:Na3[3s]->O18[2p_y](2.3218326509850593)
No.28:Na3[3s]->O18[2p_z](2.3218326509850593)
No.28:Na3[3s]->O18[2p_x](2.3218326509850593)
No.28:Na3[2p_y]->O18[2s](2.3218326509850593)
No.28:Na3[2p_y]->O18[2p_y](2.3218326509850593)
No.28:Na3[2p_y]->O18[2p_z](2.3218326509850593)
No.28:Na3[2p_y]->O18[2p_x](2.3218326509850593)
No.28:Na3[2p_z]->O18[2s](2.3218326509850593)
No.28:Na3[2p_z]->O18[2p_y](2.3218326509850593)
No.28:Na3[2p_z]->O18[2p_z](2.3218326509850593)
No.28:Na3[2p_z]->O18[2p_x](2.3218326509850593)
No.28:Na3[2p_x]->O18[2s](2.3218326509850593)
No.28:Na3[2p_x]->O18[2p_y](2.3218326509850593)
No.28:Na3[2p_x]->O18[2p_z](2.3218326509850593)
No.28:Na3[2p_x]->O18[2p_x](2.3218326509850593)
No.29:Na3->O20(2.5522255324267085)
No.30:Na3[3s]->O20[2s](2.5522255324267085)
No.30:Na3[3s]->O20[2p_y](2.5522255324267085)
No.30:Na3[3s]->O20[2p_z](2.5522255324267085)
No.30:Na3[3s]->O20[2p_x](2.5522255324267085)
No.30:Na3[2p_y]->O20[2s](2.5522255324267085)
No.30:Na3[2p_y]->O20[2p_y](2.5522255324267085)
No.30:Na3[2p_y]->O20[2p_z](2.5522255324267085)
No.30:Na3[2p_y]->O20[2p_x](2.5522255324267085)
No.30:Na3[2p_z]->O20[2s](2.5522255324267085)
No.30:Na3[2p_z]->O20[2p_y](2.5522255324267085)
No.30:Na3[2p_z]->O20[2p_z](2.5522255324267085)
No.30:Na3[2p_z]->O20[2p_x](2.5522255324267085)
No.30:Na3[2p_x]->O20[2s](2.5522255324267085)
No.30:Na3[2p_x]->O20[2p_y](2.5522255324267085)
No.30:Na3[2p_x]->O20[2p_z](2.5522255324267085)
No.30:Na3[2p_x]->O20[2p_x](2.5522255324267085)
No.31:Na3->O23(2.9148630209417079)
No.32:Na3[3s]->O23[2s](2.9148630209417079)
No.32:Na3[3s]->O23[2p_y](2.9148630209417079)
No.32:Na3[3s]->O23[2p_z](2.9148630209417079)
No.32:Na3[3s]->O23[2p_x](2.9148630209417079)
No.32:Na3[2p_y]->O23[2s](2.9148630209417079)
No.32:Na3[2p_y]->O23[2p_y](2.9148630209417079)
No.32:Na3[2p_y]->O23[2p_z](2.9148630209417079)
No.32:Na3[2p_y]->O23[2p_x](2.9148630209417079)
No.32:Na3[2p_z]->O23[2s](2.9148630209417079)
No.32:Na3[2p_z]->O23[2p_y](2.9148630209417079)
No.32:Na3[2p_z]->O23[2p_z](2.9148630209417079)
No.32:Na3[2p_z]->O23[2p_x](2.9148630209417079)
No.32:Na3[2p_x]->O23[2s](2.9148630209417079)
No.32:Na3[2p_x]->O23[2p_y](2.9148630209417079)
No.32:Na3[2p_x]->O23[2p_z](2.9148630209417079)
No.32:Na3[2p_x]->O23[2p_x](2.9148630209417079)
No.33:Na3->O24(2.6490017752998116)
No.34:Na3[3s]->O24[2s](2.6490017752998116)
No.34:Na3[3s]->O24[2p_y](2.6490017752998116)
No.34:Na3[3s]->O24[2p_z](2.6490017752998116)
No.34:Na3[3s]->O24[2p_x](2.6490017752998116)
No.34:Na3[2p_y]->O24[2s](2.6490017752998116)
No.34:Na3[2p_y]->O24[2p_y](2.6490017752998116)
No.34:Na3[2p_y]->O24[2p_z](2.6490017752998116)
No.34:Na3[2p_y]->O24[2p_x](2.6490017752998116)
No.34:Na3[2p_z]->O24[2s](2.6490017752998116)
No.34:Na3[2p_z]->O24[2p_y](2.6490017752998116)
No.34:Na3[2p_z]->O24[2p_z](2.6490017752998116)
No.34:Na3[2p_z]->O24[2p_x](2.6490017752998116)
No.34:Na3[2p_x]->O24[2s](2.6490017752998116)
No.34:Na3[2p_x]->O24[2p_y](2.6490017752998116)
No.34:Na3[2p_x]->O24[2p_z](2.6490017752998116)
No.34:Na3[2p_x]->O24[2p_x](2.6490017752998116)
No.35:Na3->O26(2.427984091322565)
No.36:Na3[3s]->O26[2s](2.427984091322565)
No.36:Na3[3s]->O26[2p_y](2.427984091322565)
No.36:Na3[3s]->O26[2p_z](2.427984091322565)
No.36:Na3[3s]->O26[2p_x](2.427984091322565)
No.36:Na3[2p_y]->O26[2s](2.427984091322565)
No.36:Na3[2p_y]->O26[2p_y](2.427984091322565)
No.36:Na3[2p_y]->O26[2p_z](2.427984091322565)
No.36:Na3[2p_y]->O26[2p_x](2.427984091322565)
No.36:Na3[2p_z]->O26[2s](2.427984091322565)
No.36:Na3[2p_z]->O26[2p_y](2.427984091322565)
No.36:Na3[2p_z]->O26[2p_z](2.427984091322565)
No.36:Na3[2p_z]->O26[2p_x](2.427984091322565)
No.36:Na3[2p_x]->O26[2s](2.427984091322565)
No.36:Na3[2p_x]->O26[2p_y](2.427984091322565)
No.36:Na3[2p_x]->O26[2p_z](2.427984091322565)
No.36:Na3[2p_x]->O26[2p_x](2.427984091322565)
No.37:Na4->O16(2.3670410875669385)
No.38:Na4[3s]->O16[2s](2.3670410875669385)
No.38:Na4[3s]->O16[2p_y](2.3670410875669385)
No.38:Na4[3s]->O16[2p_z](2.3670410875669385)
No.38:Na4[3s]->O16[2p_x](2.3670410875669385)
No.38:Na4[2p_y]->O16[2s](2.3670410875669385)
No.38:Na4[2p_y]->O16[2p_y](2.3670410875669385)
No.38:Na4[2p_y]->O16[2p_z](2.3670410875669385)
No.38:Na4[2p_y]->O16[2p_x](2.3670410875669385)
No.38:Na4[2p_z]->O16[2s](2.3670410875669385)
No.38:Na4[2p_z]->O16[2p_y](2.3670410875669385)
No.38:Na4[2p_z]->O16[2p_z](2.3670410875669385)
No.38:Na4[2p_z]->O16[2p_x](2.3670410875669385)
No.38:Na4[2p_x]->O16[2s](2.3670410875669385)
No.38:Na4[2p_x]->O16[2p_y](2.3670410875669385)
No.38:Na4[2p_x]->O16[2p_z](2.3670410875669385)
No.38:Na4[2p_x]->O16[2p_x](2.3670410875669385)
No.39:Na4->O17(2.3218326509850598)
No.40:Na4[3s]->O17[2s](2.3218326509850598)
No.40:Na4[3s]->O17[2p_y](2.3218326509850598)
No.40:Na4[3s]->O17[2p_z](2.3218326509850598)
No.40:Na4[3s]->O17[2p_x](2.3218326509850598)
No.40:Na4[2p_y]->O17[2s](2.3218326509850598)
No.40:Na4[2p_y]->O17[2p_y](2.3218326509850598)
No.40:Na4[2p_y]->O17[2p_z](2.3218326509850598)
No.40:Na4[2p_y]->O17[2p_x](2.3218326509850598)
No.40:Na4[2p_z]->O17[2s](2.3218326509850598)
No.40:Na4[2p_z]->O17[2p_y](2.3218326509850598)
No.40:Na4[2p_z]->O17[2p_z](2.3218326509850598)
No.40:Na4[2p_z]->O17[2p_x](2.3218326509850598)
No.40:Na4[2p_x]->O17[2s](2.3218326509850598)
No.40:Na4[2p_x]->O17[2p_y](2.3218326509850598)
No.40:Na4[2p_x]->O17[2p_z](2.3218326509850598)
No.40:Na4[2p_x]->O17[2p_x](2.3218326509850598)
No.41:Na4->O19(2.5522255324267085)
No.42:Na4[3s]->O19[2s](2.5522255324267085)
No.42:Na4[3s]->O19[2p_y](2.5522255324267085)
No.42:Na4[3s]->O19[2p_z](2.5522255324267085)
No.42:Na4[3s]->O19[2p_x](2.5522255324267085)
No.42:Na4[2p_y]->O19[2s](2.5522255324267085)
No.42:Na4[2p_y]->O19[2p_y](2.5522255324267085)
No.42:Na4[2p_y]->O19[2p_z](2.5522255324267085)
No.42:Na4[2p_y]->O19[2p_x](2.5522255324267085)
No.42:Na4[2p_z]->O19[2s](2.5522255324267085)
No.42:Na4[2p_z]->O19[2p_y](2.5522255324267085)
No.42:Na4[2p_z]->O19[2p_z](2.5522255324267085)
No.42:Na4[2p_z]->O19[2p_x](2.5522255324267085)
No.42:Na4[2p_x]->O19[2s](2.5522255324267085)
No.42:Na4[2p_x]->O19[2p_y](2.5522255324267085)
No.42:Na4[2p_x]->O19[2p_z](2.5522255324267085)
No.42:Na4[2p_x]->O19[2p_x](2.5522255324267085)
No.43:Na4->O23(2.6490017752998116)
No.44:Na4[3s]->O23[2s](2.6490017752998116)
No.44:Na4[3s]->O23[2p_y](2.6490017752998116)
No.44:Na4[3s]->O23[2p_z](2.6490017752998116)
No.44:Na4[3s]->O23[2p_x](2.6490017752998116)
No.44:Na4[2p_y]->O23[2s](2.6490017752998116)
No.44:Na4[2p_y]->O23[2p_y](2.6490017752998116)
No.44:Na4[2p_y]->O23[2p_z](2.6490017752998116)
No.44:Na4[2p_y]->O23[2p_x](2.6490017752998116)
No.44:Na4[2p_z]->O23[2s](2.6490017752998116)
No.44:Na4[2p_z]->O23[2p_y](2.6490017752998116)
No.44:Na4[2p_z]->O23[2p_z](2.6490017752998116)
No.44:Na4[2p_z]->O23[2p_x](2.6490017752998116)
No.44:Na4[2p_x]->O23[2s](2.6490017752998116)
No.44:Na4[2p_x]->O23[2p_y](2.6490017752998116)
No.44:Na4[2p_x]->O23[2p_z](2.6490017752998116)
No.44:Na4[2p_x]->O23[2p_x](2.6490017752998116)
No.45:Na4->O24(2.9148630209417079)
No.46:Na4[3s]->O24[2s](2.9148630209417079)
No.46:Na4[3s]->O24[2p_y](2.9148630209417079)
No.46:Na4[3s]->O24[2p_z](2.9148630209417079)
No.46:Na4[3s]->O24[2p_x](2.9148630209417079)
No.46:Na4[2p_y]->O24[2s](2.9148630209417079)
No.46:Na4[2p_y]->O24[2p_y](2.9148630209417079)
No.46:Na4[2p_y]->O24[2p_z](2.9148630209417079)
No.46:Na4[2p_y]->O24[2p_x](2.9148630209417079)
No.46:Na4[2p_z]->O24[2s](2.9148630209417079)
No.46:Na4[2p_z]->O24[2p_y](2.9148630209417079)
No.46:Na4[2p_z]->O24[2p_z](2.9148630209417079)
No.46:Na4[2p_z]->O24[2p_x](2.9148630209417079)
No.46:Na4[2p_x]->O24[2s](2.9148630209417079)
No.46:Na4[2p_x]->O24[2p_y](2.9148630209417079)
No.46:Na4[2p_x]->O24[2p_z](2.9148630209417079)
No.46:Na4[2p_x]->O24[2p_x](2.9148630209417079)
No.47:Na4->O25(2.427984091322565)
No.48:Na4[3s]->O25[2s](2.427984091322565)
No.48:Na4[3s]->O25[2p_y](2.427984091322565)
No.48:Na4[3s]->O25[2p_z](2.427984091322565)
No.48:Na4[3s]->O25[2p_x](2.427984091322565)
No.48:Na4[2p_y]->O25[2s](2.427984091322565)
No.48:Na4[2p_y]->O25[2p_y](2.427984091322565)
No.48:Na4[2p_y]->O25[2p_z](2.427984091322565)
No.48:Na4[2p_y]->O25[2p_x](2.427984091322565)
No.48:Na4[2p_z]->O25[2s](2.427984091322565)
No.48:Na4[2p_z]->O25[2p_y](2.427984091322565)
No.48:Na4[2p_z]->O25[2p_z](2.427984091322565)
No.48:Na4[2p_z]->O25[2p_x](2.427984091322565)
No.48:Na4[2p_x]->O25[2s](2.427984091322565)
No.48:Na4[2p_x]->O25[2p_y](2.427984091322565)
No.48:Na4[2p_x]->O25[2p_z](2.427984091322565)
No.48:Na4[2p_x]->O25[2p_x](2.427984091322565)
No.49:Na5->O13(2.3218326509850593)
No.50:Na5[3s]->O13[2s](2.3218326509850593)
No.50:Na5[3s]->O13[2p_y](2.3218326509850593)
No.50:Na5[3s]->O13[2p_z](2.3218326509850593)
No.50:Na5[3s]->O13[2p_x](2.3218326509850593)
No.50:Na5[2p_y]->O13[2s](2.3218326509850593)
No.50:Na5[2p_y]->O13[2p_y](2.3218326509850593)
No.50:Na5[2p_y]->O13[2p_z](2.3218326509850593)
No.50:Na5[2p_y]->O13[2p_x](2.3218326509850593)
No.50:Na5[2p_z]->O13[2s](2.3218326509850593)
No.50:Na5[2p_z]->O13[2p_y](2.3218326509850593)
No.50:Na5[2p_z]->O13[2p_z](2.3218326509850593)
No.50:Na5[2p_z]->O13[2p_x](2.3218326509850593)
No.50:Na5[2p_x]->O13[2s](2.3218326509850593)
No.50:Na5[2p_x]->O13[2p_y](2.3218326509850593)
No.50:Na5[2p_x]->O13[2p_z](2.3218326509850593)
No.50:Na5[2p_x]->O13[2p_x](2.3218326509850593)
No.51:Na5->O15(2.552225532426708)
No.52:Na5[3s]->O15[2s](2.552225532426708)
No.52:Na5[3s]->O15[2p_y](2.552225532426708)
No.52:Na5[3s]->O15[2p_z](2.552225532426708)
No.52:Na5[3s]->O15[2p_x](2.552225532426708)
No.52:Na5[2p_y]->O15[2s](2.552225532426708)
No.52:Na5[2p_y]->O15[2p_y](2.552225532426708)
No.52:Na5[2p_y]->O15[2p_z](2.552225532426708)
No.52:Na5[2p_y]->O15[2p_x](2.552225532426708)
No.52:Na5[2p_z]->O15[2s](2.552225532426708)
No.52:Na5[2p_z]->O15[2p_y](2.552225532426708)
No.52:Na5[2p_z]->O15[2p_z](2.552225532426708)
No.52:Na5[2p_z]->O15[2p_x](2.552225532426708)
No.52:Na5[2p_x]->O15[2s](2.552225532426708)
No.52:Na5[2p_x]->O15[2p_y](2.552225532426708)
No.52:Na5[2p_x]->O15[2p_z](2.552225532426708)
No.52:Na5[2p_x]->O15[2p_x](2.552225532426708)
No.53:Na5->O20(2.367041087566939)
No.54:Na5[3s]->O20[2s](2.367041087566939)
No.54:Na5[3s]->O20[2p_y](2.367041087566939)
No.54:Na5[3s]->O20[2p_z](2.367041087566939)
No.54:Na5[3s]->O20[2p_x](2.367041087566939)
No.54:Na5[2p_y]->O20[2s](2.367041087566939)
No.54:Na5[2p_y]->O20[2p_y](2.367041087566939)
No.54:Na5[2p_y]->O20[2p_z](2.367041087566939)
No.54:Na5[2p_y]->O20[2p_x](2.367041087566939)
No.54:Na5[2p_z]->O20[2s](2.367041087566939)
No.54:Na5[2p_z]->O20[2p_y](2.367041087566939)
No.54:Na5[2p_z]->O20[2p_z](2.367041087566939)
No.54:Na5[2p_z]->O20[2p_x](2.367041087566939)
No.54:Na5[2p_x]->O20[2s](2.367041087566939)
No.54:Na5[2p_x]->O20[2p_y](2.367041087566939)
No.54:Na5[2p_x]->O20[2p_z](2.367041087566939)
No.54:Na5[2p_x]->O20[2p_x](2.367041087566939)
No.55:Na5->O24(2.427984091322565)
No.56:Na5[3s]->O24[2s](2.427984091322565)
No.56:Na5[3s]->O24[2p_y](2.427984091322565)
No.56:Na5[3s]->O24[2p_z](2.427984091322565)
No.56:Na5[3s]->O24[2p_x](2.427984091322565)
No.56:Na5[2p_y]->O24[2s](2.427984091322565)
No.56:Na5[2p_y]->O24[2p_y](2.427984091322565)
No.56:Na5[2p_y]->O24[2p_z](2.427984091322565)
No.56:Na5[2p_y]->O24[2p_x](2.427984091322565)
No.56:Na5[2p_z]->O24[2s](2.427984091322565)
No.56:Na5[2p_z]->O24[2p_y](2.427984091322565)
No.56:Na5[2p_z]->O24[2p_z](2.427984091322565)
No.56:Na5[2p_z]->O24[2p_x](2.427984091322565)
No.56:Na5[2p_x]->O24[2s](2.427984091322565)
No.56:Na5[2p_x]->O24[2p_y](2.427984091322565)
No.56:Na5[2p_x]->O24[2p_z](2.427984091322565)
No.56:Na5[2p_x]->O24[2p_x](2.427984091322565)
No.57:Na5->O25(2.9148630209417079)
No.58:Na5[3s]->O25[2s](2.9148630209417079)
No.58:Na5[3s]->O25[2p_y](2.9148630209417079)
No.58:Na5[3s]->O25[2p_z](2.9148630209417079)
No.58:Na5[3s]->O25[2p_x](2.9148630209417079)
No.58:Na5[2p_y]->O25[2s](2.9148630209417079)
No.58:Na5[2p_y]->O25[2p_y](2.9148630209417079)
No.58:Na5[2p_y]->O25[2p_z](2.9148630209417079)
No.58:Na5[2p_y]->O25[2p_x](2.9148630209417079)
No.58:Na5[2p_z]->O25[2s](2.9148630209417079)
No.58:Na5[2p_z]->O25[2p_y](2.9148630209417079)
No.58:Na5[2p_z]->O25[2p_z](2.9148630209417079)
No.58:Na5[2p_z]->O25[2p_x](2.9148630209417079)
No.58:Na5[2p_x]->O25[2s](2.9148630209417079)
No.58:Na5[2p_x]->O25[2p_y](2.9148630209417079)
No.58:Na5[2p_x]->O25[2p_z](2.9148630209417079)
No.58:Na5[2p_x]->O25[2p_x](2.9148630209417079)
No.59:Na5->O26(2.6490017752998116)
No.60:Na5[3s]->O26[2s](2.6490017752998116)
No.60:Na5[3s]->O26[2p_y](2.6490017752998116)
No.60:Na5[3s]->O26[2p_z](2.6490017752998116)
No.60:Na5[3s]->O26[2p_x](2.6490017752998116)
No.60:Na5[2p_y]->O26[2s](2.6490017752998116)
No.60:Na5[2p_y]->O26[2p_y](2.6490017752998116)
No.60:Na5[2p_y]->O26[2p_z](2.6490017752998116)
No.60:Na5[2p_y]->O26[2p_x](2.6490017752998116)
No.60:Na5[2p_z]->O26[2s](2.6490017752998116)
No.60:Na5[2p_z]->O26[2p_y](2.6490017752998116)
No.60:Na5[2p_z]->O26[2p_z](2.6490017752998116)
No.60:Na5[2p_z]->O26[2p_x](2.6490017752998116)
No.60:Na5[2p_x]->O26[2s](2.6490017752998116)
No.60:Na5[2p_x]->O26[2p_y](2.6490017752998116)
No.60:Na5[2p_x]->O26[2p_z](2.6490017752998116)
No.60:Na5[2p_x]->O26[2p_x](2.6490017752998116)
No.61:Na6->O14(2.3218326509850598)
No.62:Na6[3s]->O14[2s](2.3218326509850598)
No.62:Na6[3s]->O14[2p_y](2.3218326509850598)
No.62:Na6[3s]->O14[2p_z](2.3218326509850598)
No.62:Na6[3s]->O14[2p_x](2.3218326509850598)
No.62:Na6[2p_y]->O14[2s](2.3218326509850598)
No.62:Na6[2p_y]->O14[2p_y](2.3218326509850598)
No.62:Na6[2p_y]->O14[2p_z](2.3218326509850598)
No.62:Na6[2p_y]->O14[2p_x](2.3218326509850598)
No.62:Na6[2p_z]->O14[2s](2.3218326509850598)
No.62:Na6[2p_z]->O14[2p_y](2.3218326509850598)
No.62:Na6[2p_z]->O14[2p_z](2.3218326509850598)
No.62:Na6[2p_z]->O14[2p_x](2.3218326509850598)
No.62:Na6[2p_x]->O14[2s](2.3218326509850598)
No.62:Na6[2p_x]->O14[2p_y](2.3218326509850598)
No.62:Na6[2p_x]->O14[2p_z](2.3218326509850598)
No.62:Na6[2p_x]->O14[2p_x](2.3218326509850598)
No.63:Na6->O16(2.552225532426708)
No.64:Na6[3s]->O16[2s](2.552225532426708)
No.64:Na6[3s]->O16[2p_y](2.552225532426708)
No.64:Na6[3s]->O16[2p_z](2.552225532426708)
No.64:Na6[3s]->O16[2p_x](2.552225532426708)
No.64:Na6[2p_y]->O16[2s](2.552225532426708)
No.64:Na6[2p_y]->O16[2p_y](2.552225532426708)
No.64:Na6[2p_y]->O16[2p_z](2.552225532426708)
No.64:Na6[2p_y]->O16[2p_x](2.552225532426708)
No.64:Na6[2p_z]->O16[2s](2.552225532426708)
No.64:Na6[2p_z]->O16[2p_y](2.552225532426708)
No.64:Na6[2p_z]->O16[2p_z](2.552225532426708)
No.64:Na6[2p_z]->O16[2p_x](2.552225532426708)
No.64:Na6[2p_x]->O16[2s](2.552225532426708)
No.64:Na6[2p_x]->O16[2p_y](2.552225532426708)
No.64:Na6[2p_x]->O16[2p_z](2.552225532426708)
No.64:Na6[2p_x]->O16[2p_x](2.552225532426708)
No.65:Na6->O19(2.367041087566939)
No.66:Na6[3s]->O19[2s](2.367041087566939)
No.66:Na6[3s]->O19[2p_y](2.367041087566939)
No.66:Na6[3s]->O19[2p_z](2.367041087566939)
No.66:Na6[3s]->O19[2p_x](2.367041087566939)
No.66:Na6[2p_y]->O19[2s](2.367041087566939)
No.66:Na6[2p_y]->O19[2p_y](2.367041087566939)
No.66:Na6[2p_y]->O19[2p_z](2.367041087566939)
No.66:Na6[2p_y]->O19[2p_x](2.367041087566939)
No.66:Na6[2p_z]->O19[2s](2.367041087566939)
No.66:Na6[2p_z]->O19[2p_y](2.367041087566939)
No.66:Na6[2p_z]->O19[2p_z](2.367041087566939)
No.66:Na6[2p_z]->O19[2p_x](2.367041087566939)
No.66:Na6[2p_x]->O19[2s](2.367041087566939)
No.66:Na6[2p_x]->O19[2p_y](2.367041087566939)
No.66:Na6[2p_x]->O19[2p_z](2.367041087566939)
No.66:Na6[2p_x]->O19[2p_x](2.367041087566939)
No.67:Na6->O23(2.4279840913225645)
No.68:Na6[3s]->O23[2s](2.4279840913225645)
No.68:Na6[3s]->O23[2p_y](2.4279840913225645)
No.68:Na6[3s]->O23[2p_z](2.4279840913225645)
No.68:Na6[3s]->O23[2p_x](2.4279840913225645)
No.68:Na6[2p_y]->O23[2s](2.4279840913225645)
No.68:Na6[2p_y]->O23[2p_y](2.4279840913225645)
No.68:Na6[2p_y]->O23[2p_z](2.4279840913225645)
No.68:Na6[2p_y]->O23[2p_x](2.4279840913225645)
No.68:Na6[2p_z]->O23[2s](2.4279840913225645)
No.68:Na6[2p_z]->O23[2p_y](2.4279840913225645)
No.68:Na6[2p_z]->O23[2p_z](2.4279840913225645)
No.68:Na6[2p_z]->O23[2p_x](2.4279840913225645)
No.68:Na6[2p_x]->O23[2s](2.4279840913225645)
No.68:Na6[2p_x]->O23[2p_y](2.4279840913225645)
No.68:Na6[2p_x]->O23[2p_z](2.4279840913225645)
No.68:Na6[2p_x]->O23[2p_x](2.4279840913225645)
No.69:Na6->O25(2.6490017752998112)
No.70:Na6[3s]->O25[2s](2.6490017752998112)
No.70:Na6[3s]->O25[2p_y](2.6490017752998112)
No.70:Na6[3s]->O25[2p_z](2.6490017752998112)
No.70:Na6[3s]->O25[2p_x](2.6490017752998112)
No.70:Na6[2p_y]->O25[2s](2.6490017752998112)
No.70:Na6[2p_y]->O25[2p_y](2.6490017752998112)
No.70:Na6[2p_y]->O25[2p_z](2.6490017752998112)
No.70:Na6[2p_y]->O25[2p_x](2.6490017752998112)
No.70:Na6[2p_z]->O25[2s](2.6490017752998112)
No.70:Na6[2p_z]->O25[2p_y](2.6490017752998112)
No.70:Na6[2p_z]->O25[2p_z](2.6490017752998112)
No.70:Na6[2p_z]->O25[2p_x](2.6490017752998112)
No.70:Na6[2p_x]->O25[2s](2.6490017752998112)
No.70:Na6[2p_x]->O25[2p_y](2.6490017752998112)
No.70:Na6[2p_x]->O25[2p_z](2.6490017752998112)
No.70:Na6[2p_x]->O25[2p_x](2.6490017752998112)
No.71:Na6->O26(2.9148630209417079)
No.72:Na6[3s]->O26[2s](2.9148630209417079)
No.72:Na6[3s]->O26[2p_y](2.9148630209417079)
No.72:Na6[3s]->O26[2p_z](2.9148630209417079)
No.72:Na6[3s]->O26[2p_x](2.9148630209417079)
No.72:Na6[2p_y]->O26[2s](2.9148630209417079)
No.72:Na6[2p_y]->O26[2p_y](2.9148630209417079)
No.72:Na6[2p_y]->O26[2p_z](2.9148630209417079)
No.72:Na6[2p_y]->O26[2p_x](2.9148630209417079)
No.72:Na6[2p_z]->O26[2s](2.9148630209417079)
No.72:Na6[2p_z]->O26[2p_y](2.9148630209417079)
No.72:Na6[2p_z]->O26[2p_z](2.9148630209417079)
No.72:Na6[2p_z]->O26[2p_x](2.9148630209417079)
No.72:Na6[2p_x]->O26[2s](2.9148630209417079)
No.72:Na6[2p_x]->O26[2p_y](2.9148630209417079)
No.72:Na6[2p_x]->O26[2p_z](2.9148630209417079)
No.72:Na6[2p_x]->O26[2p_x](2.9148630209417079)
No.73:Na7->O13(2.5522255324267085)
No.74:Na7[3s]->O13[2s](2.5522255324267085)
No.74:Na7[3s]->O13[2p_y](2.5522255324267085)
No.74:Na7[3s]->O13[2p_z](2.5522255324267085)
No.74:Na7[3s]->O13[2p_x](2.5522255324267085)
No.74:Na7[2p_y]->O13[2s](2.5522255324267085)
No.74:Na7[2p_y]->O13[2p_y](2.5522255324267085)
No.74:Na7[2p_y]->O13[2p_z](2.5522255324267085)
No.74:Na7[2p_y]->O13[2p_x](2.5522255324267085)
No.74:Na7[2p_z]->O13[2s](2.5522255324267085)
No.74:Na7[2p_z]->O13[2p_y](2.5522255324267085)
No.74:Na7[2p_z]->O13[2p_z](2.5522255324267085)
No.74:Na7[2p_z]->O13[2p_x](2.5522255324267085)
No.74:Na7[2p_x]->O13[2s](2.5522255324267085)
No.74:Na7[2p_x]->O13[2p_y](2.5522255324267085)
No.74:Na7[2p_x]->O13[2p_z](2.5522255324267085)
No.74:Na7[2p_x]->O13[2p_x](2.5522255324267085)
No.75:Na7->O15(2.3218326509850589)
No.76:Na7[3s]->O15[2s](2.3218326509850589)
No.76:Na7[3s]->O15[2p_y](2.3218326509850589)
No.76:Na7[3s]->O15[2p_z](2.3218326509850589)
No.76:Na7[3s]->O15[2p_x](2.3218326509850589)
No.76:Na7[2p_y]->O15[2s](2.3218326509850589)
No.76:Na7[2p_y]->O15[2p_y](2.3218326509850589)
No.76:Na7[2p_y]->O15[2p_z](2.3218326509850589)
No.76:Na7[2p_y]->O15[2p_x](2.3218326509850589)
No.76:Na7[2p_z]->O15[2s](2.3218326509850589)
No.76:Na7[2p_z]->O15[2p_y](2.3218326509850589)
No.76:Na7[2p_z]->O15[2p_z](2.3218326509850589)
No.76:Na7[2p_z]->O15[2p_x](2.3218326509850589)
No.76:Na7[2p_x]->O15[2s](2.3218326509850589)
No.76:Na7[2p_x]->O15[2p_y](2.3218326509850589)
No.76:Na7[2p_x]->O15[2p_z](2.3218326509850589)
No.76:Na7[2p_x]->O15[2p_x](2.3218326509850589)
No.77:Na7->O18(2.367041087566939)
No.78:Na7[3s]->O18[2s](2.367041087566939)
No.78:Na7[3s]->O18[2p_y](2.367041087566939)
No.78:Na7[3s]->O18[2p_z](2.367041087566939)
No.78:Na7[3s]->O18[2p_x](2.367041087566939)
No.78:Na7[2p_y]->O18[2s](2.367041087566939)
No.78:Na7[2p_y]->O18[2p_y](2.367041087566939)
No.78:Na7[2p_y]->O18[2p_z](2.367041087566939)
No.78:Na7[2p_y]->O18[2p_x](2.367041087566939)
No.78:Na7[2p_z]->O18[2s](2.367041087566939)
No.78:Na7[2p_z]->O18[2p_y](2.367041087566939)
No.78:Na7[2p_z]->O18[2p_z](2.367041087566939)
No.78:Na7[2p_z]->O18[2p_x](2.367041087566939)
No.78:Na7[2p_x]->O18[2s](2.367041087566939)
No.78:Na7[2p_x]->O18[2p_y](2.367041087566939)
No.78:Na7[2p_x]->O18[2p_z](2.367041087566939)
No.78:Na7[2p_x]->O18[2p_x](2.367041087566939)
No.79:Na7->O22(2.4279840913225654)