ESCALE ; pCOOP file generated by LOBSTER. Energy is shifted such that the Fermi level lies at 0 eV.
        12          1        241  -1.24679e-01   1.19255e+01   5.90043e+00 
Average
No.1:Bi1->Se7(2.882308829886294)
No.2:Bi1->Se10(3.1014396233274444)
No.3:Bi2->Se8(2.8823088298862083)
No.4:Bi2->Se9(3.1014396233275434)
No.5:Bi3->Se10(3.0500070394403904)
No.6:Bi3->Se11(2.9167594580335807)
No.7:Bi4->Se9(3.05000703944039)
No.8:Bi4->Se12(2.9167594580335803)
No.9:Bi5->Se12(3.3752173204052101)
No.10:Bi5->Bi6(3.0729354518345948)
No.11:Bi6->Se11(3.3752173204052101)
-6.02510  0.00000  0.03557  0.00000  0.06478  0.00000  0.03063  0.00000  0.06478  0.00000  0.03063  0.00000  0.03806  0.00000  0.06054  0.00000  0.03806  0.00000  0.06054  0.00000  0.01561  0.00000 -0.02794  0.00000  0.01561
-5.97490  0.02774  0.03697  0.03486  0.06653  0.04839  0.03306  0.03486  0.06653  0.04839  0.03306  0.03956  0.04005  0.02417  0.06175  0.03957  0.04005  0.02417  0.06175  0.00454  0.01584  0.00207 -0.02784  0.00454  0.01584
-5.92469  0.03329  0.03864  0.04323  0.06870  0.05754  0.03595  0.04323  0.06870  0.05754  0.03595  0.04718  0.04242  0.02856  0.06318  0.04718  0.04242  0.02856  0.06319  0.00530  0.01611  0.00256 -0.02771  0.00530  0.01611
-5.87448  0.02982  0.04013  0.04085  0.07075  0.05065  0.03849  0.04085  0.07075  0.05065  0.03849  0.04171  0.04451  0.02512  0.06445  0.04171  0.04451  0.02512  0.06445  0.00450  0.01633  0.00240 -0.02759  0.00450  0.01633
-5.82427  0.03200  0.04174  0.04380  0.07295  0.05310  0.04116  0.04380  0.07295  0.05310  0.04116  0.04517  0.04678  0.02752  0.06583  0.04517  0.04678  0.02752  0.06583  0.00500  0.01658  0.00277 -0.02745  0.00500  0.01658
-5.77406  0.05459  0.04448  0.05826  0.07588  0.08413  0.04538  0.05826  0.07588  0.08413  0.04538  0.08752  0.05117  0.05679  0.06868  0.08752  0.05117  0.05679  0.06868  0.01093  0.01713  0.00527 -0.02719  0.01093  0.01713
-5.72385  0.06506  0.04775  0.06612  0.07920  0.09760  0.05028  0.06612  0.07920  0.09760  0.05028  0.10676  0.05653  0.07092  0.07224  0.10676  0.05653  0.07092  0.07224  0.01315  0.01779  0.00650 -0.02686  0.01315  0.01779
-5.67364  0.06382  0.05095  0.06679  0.08255  0.09471  0.05504  0.06679  0.08255  0.09471  0.05504  0.10385  0.06175  0.06995  0.07575  0.10385  0.06175  0.06995  0.07575  0.01241  0.01842  0.00657 -0.02653  0.01241  0.01842
-5.62343  0.06912  0.05442  0.07889  0.08651  0.10172  0.06014  0.07894  0.08651  0.10176  0.06015  0.10891  0.06722  0.07440  0.07949  0.10895  0.06722  0.07444  0.07949  0.01246  0.01904  0.00737 -0.02616  0.01246  0.01904
-5.57322  0.07291  0.05808  0.08456  0.09076  0.10629  0.06548  0.08468  0.09076  0.10638  0.06549  0.11411  0.07294  0.07919  0.08346  0.11420  0.07295  0.07927  0.08347  0.01271  0.01968  0.00786 -0.02577  0.01271  0.01968
-5.52301  0.06693  0.06144  0.07186  0.09436  0.09701  0.07035  0.07186  0.09437  0.09700  0.07036  0.10709  0.07832  0.07593  0.08728  0.10709  0.07833  0.07593  0.08728  0.01238  0.02030  0.00768 -0.02538  0.01238  0.02030
-5.47280  0.08390  0.06566  0.09836  0.09930  0.12065  0.07641  0.09822  0.09930  0.12054  0.07641  0.12830  0.08476  0.09546  0.09207  0.12820  0.08476  0.09536  0.09207  0.01392  0.02100  0.00994 -0.02488  0.01392  0.02100
-5.42259  0.06473  0.06891  0.07529  0.10308  0.09253  0.08106  0.07525  0.10308  0.09250  0.08106  0.09854  0.08971  0.07539  0.09585  0.09851  0.08971  0.07536  0.09585  0.01048  0.02153  0.00767 -0.02450  0.01048  0.02153
-5.37238  0.03927  0.07088  0.04509  0.10535  0.05511  0.08382  0.04509  0.10535  0.05511  0.08382  0.06104  0.09278  0.04575  0.09815  0.06104  0.09278  0.04575  0.09815  0.00672  0.02186  0.00459 -0.02427  0.00672  0.02186
-5.32218  0.03630  0.07270  0.04221  0.10747  0.05034  0.08635  0.04221  0.10747  0.05034  0.08635  0.05624  0.09560  0.04263  0.10029  0.05624  0.09560  0.04263  0.10029  0.00613  0.02217  0.00424 -0.02405  0.00613  0.02217
-5.27197  0.05412  0.07542  0.06326  0.11064  0.07753  0.09024  0.06326  0.11064  0.07753  0.09025  0.08187  0.09971  0.06259  0.10343  0.08187  0.09971  0.06259  0.10343  0.00943  0.02265  0.00592 -0.02376  0.00943  0.02264
-5.22176  0.05883  0.07837  0.07172  0.11424  0.08503  0.09451  0.07172  0.11424  0.08503  0.09451  0.08776  0.10412  0.06582  0.10674  0.08776  0.10412  0.06582  0.10674  0.01016  0.02316  0.00611 -0.02345  0.01016  0.02315
-5.17155  0.05430  0.08110  0.06847  0.11768  0.07617  0.09834  0.06847  0.11768  0.07617  0.09834  0.08002  0.10813  0.06270  0.10989  0.08002  0.10813  0.06270  0.10989  0.00871  0.02359  0.00515 -0.02319  0.00871  0.02359
-5.12134  0.06017  0.08412  0.07481  0.12144  0.07986  0.10235  0.07481  0.12144  0.07989  0.10235  0.08991  0.11265  0.07252  0.11353  0.08994  0.11265  0.07253  0.11353  0.01077  0.02413  0.00603 -0.02289  0.01077  0.02413
-5.07113  0.06679  0.08747  0.08117  0.12551  0.08629  0.10668  0.08119  0.12551  0.08646  0.10669  0.09945  0.11764  0.08346  0.11772  0.09962  0.11765  0.08355  0.11772  0.01337  0.02480  0.00684 -0.02254  0.01336  0.02480
-5.02092  0.05716  0.09034  0.07223  0.12914  0.07146  0.11027  0.07222  0.12914  0.07141  0.11028  0.08189  0.12175  0.07207  0.12134  0.08185  0.12176  0.07204  0.12134  0.01278  0.02545  0.00802 -0.02214  0.01278  0.02544
-4.97071  0.07250  0.09398  0.09068  0.13369  0.08108  0.11434  0.09066  0.13369  0.08094  0.11434  0.09778  0.12666  0.09626  0.12617  0.09764  0.12666  0.09619  0.12617  0.02495  0.02670  0.01632 -0.02132  0.02495  0.02670
-4.92050  0.08730  0.09837  0.12204  0.13982  0.07294  0.11800  0.12205  0.13982  0.07292  0.11800  0.09975  0.13167  0.12547  0.13247  0.09975  0.13167  0.12546  0.13247  0.04485  0.02895  0.03023 -0.01980  0.04485  0.02895
-4.87029  0.09143  0.10296  0.13548  0.14662  0.06195  0.12111  0.13548  0.14662  0.06195  0.12111  0.09448  0.13642  0.14044  0.13952  0.09448  0.13642  0.14043  0.13952  0.05293  0.03161  0.03516 -0.01804  0.05293  0.03161
-4.82008  0.09830  0.10789  0.14547  0.15393  0.06776  0.12451  0.14548  0.15393  0.06776  0.12451  0.10248  0.14156  0.15387  0.14725  0.10248  0.14156  0.15386  0.14725  0.05325  0.03428  0.03564 -0.01625  0.05325  0.03428
-4.76987  0.08623  0.11222  0.11626  0.15976  0.07220  0.12814  0.11627  0.15976  0.07220  0.12814  0.10073  0.14662  0.13491  0.15402  0.10074  0.14662  0.13490  0.15402  0.03733  0.03616  0.02560 -0.01496  0.03734  0.03616
-4.71967  0.08083  0.11628  0.11461  0.16552  0.06213  0.13126  0.11462  0.16552  0.06212  0.13126  0.08995  0.15113  0.13034  0.16056  0.08995  0.15114  0.13034  0.16056  0.03547  0.03794  0.02418 -0.01375  0.03547  0.03794
-4.66946  0.09025  0.12081  0.13271  0.17218  0.05984  0.13426  0.13270  0.17218  0.05984  0.13426  0.09574  0.15594  0.15123  0.16816  0.09575  0.15594  0.15122  0.16816  0.04258  0.04007  0.02858 -0.01232  0.04258  0.04007
-4.61925  0.09101  0.12538  0.13023  0.17872  0.06707  0.13763  0.13022  0.17872  0.06708  0.13763  0.10140  0.16103  0.14799  0.17559  0.10140  0.16103  0.14797  0.17559  0.04108  0.04214  0.02557 -0.01103  0.04108  0.04214
-4.56904  0.08446  0.12962  0.11768  0.18463  0.07305  0.14130  0.11768  0.18463  0.07306  0.14130  0.09539  0.16582  0.12994  0.18211  0.09539  0.16582  0.12994  0.18211  0.03729  0.04401  0.02229 -0.00991  0.03729  0.04401
-4.51883  0.08928  0.13410  0.12210  0.19076  0.08310  0.14547  0.12210  0.19076  0.08311  0.14547  0.09896  0.17079  0.13234  0.18876  0.09895  0.17079  0.13234  0.18875  0.04202  0.04612  0.02505 -0.00866  0.04202  0.04612
-4.46862  0.10542  0.13940  0.14223  0.19790  0.10861  0.15092  0.14223  0.19790  0.10861  0.15093  0.10933  0.17628  0.14482  0.19603  0.10932  0.17628  0.14482  0.19603  0.05610  0.04894  0.03748 -0.00677  0.05609  0.04894
-4.41841  0.11091  0.14497  0.15178  0.20552  0.11970  0.15693  0.15179  0.20552  0.11970  0.15694  0.10847  0.18173  0.14985  0.20355  0.10846  0.18173  0.14985  0.20355  0.06040  0.05197  0.03963 -0.00478  0.06040  0.05197
-4.36820  0.11229  0.15060  0.16102  0.21361  0.11438  0.16268  0.16102  0.21361  0.11438  0.16268  0.09618  0.18656  0.15894  0.21153  0.09617  0.18656  0.15895  0.21153  0.06572  0.05527  0.04270 -0.00264  0.06572  0.05527
-4.31799  0.11176  0.15622  0.16439  0.22186  0.11421  0.16841  0.16439  0.22186  0.11421  0.16841  0.08733  0.19094  0.15865  0.21950  0.08733  0.19094  0.15865  0.21950  0.06859  0.05871  0.04306 -0.00048  0.06859  0.05871
-4.26778  0.11117  0.16180  0.16273  0.23003  0.11466  0.17417  0.16273  0.23003  0.11466  0.17417  0.08663  0.19529  0.15867  0.22746  0.08663  0.19529  0.15867  0.22746  0.06983  0.06222  0.03781  0.00142  0.06983  0.06222
-4.21757  0.10768  0.16720  0.14888  0.23751  0.10989  0.17969  0.14888  0.23751  0.10989  0.17969  0.08255  0.19944  0.16111  0.23555  0.08255  0.19944  0.16111  0.23555  0.07516  0.06599  0.02934  0.00289  0.07516  0.06599
-4.16736  0.12559  0.17351  0.16725  0.24590  0.11653  0.18554  0.16725  0.24590  0.11653  0.18554  0.08004  0.20345  0.20689  0.24594  0.08004  0.20345  0.20689  0.24594  0.10054  0.07104  0.03896  0.00485  0.10054  0.07104
-4.11715  0.11975  0.17952  0.15751  0.25381  0.10396  0.19076  0.15751  0.25381  0.10396  0.19076  0.09048  0.20800  0.20594  0.25628  0.09048  0.20800  0.20594  0.25628  0.08537  0.07533  0.03068  0.00639  0.08537  0.07533
-4.06695  0.10328  0.18471  0.13598  0.26064  0.08662  0.19511  0.13598  0.26064  0.08662  0.19511  0.08589  0.21231  0.17585  0.26511  0.08589  0.21231  0.17585  0.26511  0.07093  0.07889  0.02553  0.00767  0.07093  0.07889
-4.01674  0.08731  0.18909  0.11736  0.26653  0.06723  0.19848  0.11736  0.26653  0.06723  0.19848  0.07258  0.21595  0.14982  0.27263  0.07258  0.21595  0.14982  0.27263  0.06288  0.08205  0.02071  0.00871  0.06288  0.08204
-3.96653  0.07895  0.19306  0.10752  0.27193  0.06124  0.20156  0.10752  0.27193  0.06124  0.20156  0.06488  0.21921  0.13505  0.27941  0.06488  0.21921  0.13505  0.27941  0.05738  0.08493  0.01627  0.00953  0.05738  0.08493
-3.91632  0.07944  0.19704  0.10906  0.27741  0.06423  0.20478  0.10906  0.27741  0.06423  0.20478  0.05843  0.22214  0.13194  0.28604  0.05843  0.22214  0.13194  0.28604  0.06214  0.08805  0.02222  0.01065  0.06214  0.08805
-3.86611  0.08880  0.20150  0.12287  0.28358  0.07298  0.20845  0.12287  0.28358  0.07298  0.20845  0.05080  0.22470  0.14320  0.29323  0.05080  0.22470  0.14320  0.29323  0.07890  0.09201  0.03930  0.01262  0.07890  0.09201
-3.81590  0.08335  0.20569  0.11660  0.28943  0.06927  0.21192  0.11660  0.28943  0.06927  0.21192  0.04570  0.22699  0.13361  0.29994  0.04570  0.22699  0.13361  0.29994  0.07635  0.09584  0.03377  0.01431  0.07636  0.09584
-3.76569  0.07929  0.20967  0.11170  0.29504  0.06532  0.21520  0.11171  0.29504  0.06532  0.21520  0.03776  0.22889  0.12599  0.30626  0.03776  0.22889  0.12599  0.30626  0.07845  0.09978  0.03374  0.01601  0.07845  0.09978
-3.71548  0.08720  0.21405  0.12685  0.30141  0.07224  0.21883  0.12692  0.30141  0.07222  0.21883  0.02823  0.23030  0.13451  0.31302  0.02824  0.23030  0.13452  0.31302  0.09836  0.10472  0.03877  0.01795  0.09834  0.10472
-3.66527  0.09070  0.21860  0.14150  0.30851  0.03778  0.22073  0.14153  0.30852  0.03777  0.22073  0.04162  0.23239  0.15930  0.32101  0.04163  0.23239  0.15931  0.32101  0.09713  0.10960  0.04297  0.02011  0.09712  0.10959
-3.61506  0.07731  0.22248  0.11780  0.31443  0.04249  0.22286  0.11780  0.31443  0.04249  0.22286  0.03721  0.23426  0.13404  0.32774  0.03722  0.23426  0.13404  0.32775  0.08041  0.11363  0.02652  0.02144  0.08041  0.11363
-3.56485  0.06852  0.22592  0.10498  0.31970  0.04603  0.22517  0.10497  0.31970  0.04604  0.22517  0.03314  0.23593  0.11443  0.33349  0.03314  0.23593  0.11443  0.33349  0.06846  0.11707  0.01962  0.02243  0.06846  0.11707
-3.51464  0.06445  0.22916  0.09801  0.32462  0.04725  0.22754  0.09798  0.32462  0.04726  0.22754  0.02910  0.23739  0.10942  0.33898  0.02909  0.23739  0.10942  0.33898  0.06338  0.12025  0.01468  0.02317  0.06338  0.12025
-3.46444  0.06288  0.23232  0.08803  0.32904  0.04548  0.22983  0.08800  0.32904  0.04549  0.22983  0.02976  0.23888  0.10056  0.34403  0.02975  0.23888  0.10056  0.34403  0.06662  0.12360  0.03083  0.02471  0.06663  0.12360
-3.41423  0.06147  0.23540  0.08490  0.33330  0.03798  0.23173  0.08486  0.33330  0.03801  0.23174  0.03109  0.24044  0.08762  0.34843  0.03108  0.24044  0.08762  0.34843  0.07165  0.12719  0.04974  0.02721  0.07165  0.12719
-3.36402  0.05967  0.23840  0.08979  0.33781  0.03240  0.23336  0.08977  0.33781  0.03242  0.23336  0.02159  0.24153  0.07429  0.35216  0.02159  0.24153  0.07429  0.35216  0.07841  0.13113  0.06340  0.03039  0.07841  0.13113
-3.31381  0.05428  0.24112  0.08416  0.34203  0.02753  0.23474  0.08415  0.34203  0.02754  0.23475  0.01751  0.24241  0.06828  0.35559  0.01751  0.24241  0.06828  0.35559  0.07075  0.13468  0.06065  0.03344  0.07075  0.13468
-3.26360  0.05006  0.24364  0.07373  0.34574  0.02339  0.23592  0.07373  0.34574  0.02339  0.23592  0.01993  0.24341  0.06490  0.35885  0.01993  0.24341  0.06490  0.35885  0.06428  0.13791  0.05820  0.03636  0.06428  0.13791
-3.21339  0.04832  0.24606  0.07517  0.34951  0.01218  0.23653  0.07517  0.34951  0.01217  0.23653  0.01842  0.24433  0.05793  0.36176  0.01842  0.24433  0.05793  0.36176  0.06433  0.14114  0.07545  0.04015  0.06433  0.14114
-3.16318  0.04109  0.24813  0.06433  0.35274  0.01127  0.23710  0.06433  0.35274  0.01127  0.23710  0.01417  0.24504  0.04176  0.36385  0.01417  0.24504  0.04176  0.36386  0.05812  0.14406  0.07267  0.04380  0.05812  0.14406
-3.11297  0.03687  0.24998  0.05368  0.35544  0.01022  0.23761  0.05368  0.35544  0.01021  0.23761  0.00906  0.24550  0.02549  0.36513  0.00906  0.24550  0.02549  0.36513  0.05893  0.14702  0.09086  0.04836  0.05893  0.14702
-3.06276  0.03383  0.25168  0.05103  0.35800  0.00591  0.23790  0.05103  0.35800  0.00591  0.23791  0.00227  0.24561  0.01504  0.36589  0.00228  0.24561  0.01504  0.36589  0.05763  0.14991  0.10840  0.05380  0.05763  0.14991
-3.01255  0.02730  0.25305  0.04838  0.36043  0.00426  0.23812  0.04838  0.36043  0.00426  0.23812 -0.00806  0.24521  0.01700  0.36674 -0.00806  0.24521  0.01700  0.36674  0.04690  0.15227  0.08331  0.05799  0.04690  0.15227
-2.96234  0.02213  0.25416  0.04062  0.36247  0.00751  0.23850  0.04062  0.36247  0.00751  0.23850 -0.00647  0.24488  0.01947  0.36772 -0.00646  0.24488  0.01947  0.36772  0.03821  0.15419  0.04473  0.06023  0.03821  0.15418
-2.91213  0.01968  0.25515  0.04080  0.36451  0.00811  0.23890  0.04080  0.36451  0.00811  0.23891 -0.00813  0.24447  0.01773  0.36861 -0.00813  0.24447  0.01773  0.36861  0.03460  0.15592  0.03028  0.06175  0.03460  0.15592
-2.86192  0.01559  0.25593  0.03579  0.36631  0.00387  0.23910  0.03579  0.36631  0.00387  0.23910 -0.00219  0.24436  0.01262  0.36924 -0.00219  0.24436  0.01262  0.36924  0.02679  0.15727  0.01770  0.06264  0.02679  0.15727
-2.81172  0.01185  0.25652  0.02984  0.36781 -0.00034  0.23908  0.02984  0.36781 -0.00034  0.23908  0.00233  0.24448  0.00742  0.36962  0.00233  0.24448  0.00742  0.36962  0.02027  0.15828  0.01129  0.06321  0.02027  0.15828
-2.76151  0.00318  0.25668  0.00635  0.36813 -0.00767  0.23869  0.00635  0.36813 -0.00767  0.23870  0.00093  0.24453 -0.01934  0.36865  0.00093  0.24453 -0.01934  0.36865  0.02753  0.15967  0.01940  0.06418  0.02753  0.15967
-2.71130 -0.01125  0.25612 -0.03208  0.36652 -0.04141  0.23662 -0.03208  0.36652 -0.04141  0.23662  0.00797  0.24493 -0.08076  0.36459  0.00797  0.24493 -0.08076  0.36459  0.04051  0.16170  0.08776  0.06859  0.04051  0.16170
-2.66109 -0.01736  0.25525 -0.04013  0.36450 -0.03188  0.23502 -0.04013  0.36450 -0.03188  0.23502 -0.00628  0.24461 -0.09011  0.36007 -0.00628  0.24461 -0.09011  0.36007  0.04289  0.16385  0.06010  0.07161  0.04289  0.16385
-2.61088 -0.02300  0.25409 -0.04237  0.36238 -0.03487  0.23326 -0.04237  0.36238 -0.03487  0.23327 -0.02333  0.24344 -0.10095  0.35500 -0.02333  0.24344 -0.10095  0.35500  0.04747  0.16624  0.05510  0.07437  0.04747  0.16624
-2.56067 -0.02913  0.25263 -0.05275  0.35973 -0.03373  0.23157 -0.05275  0.35973 -0.03373  0.23157 -0.04061  0.24140 -0.10366  0.34979 -0.04061  0.24140 -0.10366  0.34979  0.04562  0.16853  0.04982  0.07687  0.04562  0.16853
-2.51046 -0.03248  0.25100 -0.05193  0.35712 -0.03807  0.22966 -0.05193  0.35712 -0.03808  0.22966 -0.05497  0.23864 -0.11217  0.34416 -0.05497  0.23864 -0.11217  0.34416  0.05126  0.17110  0.05453  0.07961  0.05126  0.17110
-2.46025 -0.02880  0.24955 -0.02732  0.35575 -0.04237  0.22753 -0.02732  0.35575 -0.04237  0.22754 -0.05928  0.23567 -0.10346  0.33897 -0.05928  0.23567 -0.10346  0.33897  0.05145  0.17369  0.04520  0.08188  0.05145  0.17368
-2.41004 -0.04358  0.24736 -0.06479  0.35250 -0.05274  0.22488 -0.06479  0.35250 -0.05274  0.22489 -0.05898  0.23270 -0.10126  0.33388 -0.05898  0.23270 -0.10126  0.33388  0.03266  0.17533  0.01084  0.08243  0.03267  0.17532
-2.35983 -0.05110  0.24480 -0.07423  0.34877 -0.07118  0.22131 -0.07423  0.34877 -0.07118  0.22131 -0.05936  0.22972 -0.10980  0.32837 -0.05936  0.22972 -0.10980  0.32837  0.02857  0.17676  0.00992  0.08292  0.02857  0.17676
-2.30962 -0.04943  0.24232 -0.06632  0.34544 -0.08241  0.21717 -0.06632  0.34544 -0.08241  0.21718 -0.05261  0.22708 -0.11264  0.32271 -0.05261  0.22708 -0.11264  0.32271  0.02955  0.17824  0.02510  0.08418  0.02955  0.17824
-2.25941 -0.05884  0.23936 -0.06852  0.34200 -0.11431  0.21143 -0.06852  0.34200 -0.11431  0.21144 -0.05234  0.22445 -0.13155  0.31611 -0.05234  0.22445 -0.13155  0.31611  0.02541  0.17952  0.03535  0.08596  0.02541  0.17952
-2.20921 -0.09352  0.23467 -0.09872  0.33704 -0.17726  0.20253 -0.09872  0.33704 -0.17726  0.20254 -0.07340  0.22077 -0.19212  0.30646 -0.07340  0.22077 -0.19213  0.30646  0.01091  0.18007  0.03252  0.08759  0.01090  0.18007
-2.15900 -0.08574  0.23036 -0.06832  0.33361 -0.14365  0.19532 -0.06832  0.33361 -0.14365  0.19532 -0.08412  0.21655 -0.18076  0.29739 -0.08413  0.21654 -0.18077  0.29739  0.00204  0.18017  0.00651  0.08792  0.00203  0.18017
-2.10879 -0.07829  0.22643 -0.04676  0.33126 -0.12831  0.18888 -0.04676  0.33126 -0.12831  0.18888 -0.09553  0.21175 -0.17072  0.28882 -0.09553  0.21175 -0.17071  0.28882  0.00032  0.18019  0.02080  0.08896  0.00032  0.18018
-2.05858 -0.08049  0.22239 -0.04596  0.32895 -0.12165  0.18277 -0.04596  0.32895 -0.12165  0.18277 -0.11037  0.20621 -0.16418  0.28057 -0.11037  0.20621 -0.16417  0.28057 -0.00812  0.17978  0.01521  0.08973 -0.00812  0.17978
-2.00837 -0.11741  0.21649 -0.07324  0.32528 -0.17310  0.17408 -0.07324  0.32528 -0.17310  0.17408 -0.15701  0.19832 -0.22736  0.26916 -0.15701  0.19832 -0.22735  0.26916 -0.01705  0.17892  0.00397  0.08993 -0.01705  0.17892
-1.95816 -0.16018  0.20845 -0.11600  0.31945 -0.21760  0.16315 -0.11600  0.31945 -0.21760  0.16316 -0.22221  0.18717 -0.29827  0.25418 -0.22221  0.18717 -0.29826  0.25418 -0.03210  0.17731  0.01040  0.09045 -0.03210  0.17731
-1.90795 -0.14966  0.20094 -0.11829  0.31351 -0.19905  0.15316 -0.11829  0.31351 -0.19905  0.15316 -0.21191  0.17653 -0.27102  0.24057 -0.21191  0.17653 -0.27101  0.24057 -0.03497  0.17555  0.02425  0.09166 -0.03497  0.17555
-1.85774 -0.11034  0.19540 -0.08279  0.30936 -0.15904  0.14517 -0.08279  0.30936 -0.15904  0.14518 -0.14372  0.16931 -0.20799  0.23013 -0.14372  0.16931 -0.20799  0.23013 -0.01587  0.17476  0.00506  0.09192 -0.01587  0.17476
-1.80753 -0.11803  0.18947 -0.08478  0.30510 -0.17588  0.13634 -0.08478  0.30510 -0.17588  0.13635 -0.14918  0.16182 -0.21340  0.21942 -0.14919  0.16182 -0.21339  0.21942 -0.02599  0.17345  0.00018  0.09193 -0.02600  0.17345
-1.75732 -0.17752  0.18056 -0.13753  0.29819 -0.28981  0.12179 -0.13751  0.29820 -0.28982  0.12179 -0.20466  0.15154 -0.28709  0.20500 -0.20469  0.15154 -0.28708  0.20500 -0.06587  0.17015  0.01728  0.09280 -0.06590  0.17014
-1.70711 -0.14580  0.17324 -0.15186  0.29057 -0.29306  0.10708 -0.15185  0.29057 -0.29306  0.10708 -0.11473  0.14578 -0.19110  0.19541 -0.11474  0.14578 -0.19110  0.19541 -0.06993  0.16663  0.03752  0.09468 -0.06993  0.16663
-1.65690 -0.13447  0.16649 -0.15668  0.28270 -0.26899  0.09357 -0.15668  0.28271 -0.26899  0.09357 -0.10141  0.14069 -0.16900  0.18692 -0.10141  0.14069 -0.16900  0.18692 -0.06848  0.16320  0.04994  0.09719 -0.06848  0.16319
-1.60669 -0.14140  0.15939 -0.17839  0.27375 -0.27652  0.07969 -0.17839  0.27375 -0.27652  0.07969 -0.10652  0.13534 -0.16807  0.17848 -0.10652  0.13534 -0.16807  0.17848 -0.07821  0.15927  0.06005  0.10020 -0.07821  0.15927
-1.55649 -0.17514  0.15059 -0.22795  0.26230 -0.34499  0.06237 -0.22795  0.26230 -0.34499  0.06237 -0.13354  0.12864 -0.17250  0.16982 -0.13354  0.12864 -0.17250  0.16982 -0.13363  0.15256  0.09869  0.10516 -0.13363  0.15256
-1.50628 -0.14621  0.14325 -0.15244  0.25465 -0.27553  0.04853 -0.15244  0.25465 -0.27553  0.04853 -0.13507  0.12186 -0.11288  0.16415 -0.13507  0.12185 -0.11288  0.16416 -0.19613  0.14271  0.13579  0.11198 -0.19613  0.14271
-1.45607 -0.12808  0.13682 -0.13996  0.24762 -0.23305  0.03683 -0.13996  0.24762 -0.23305  0.03683 -0.11438  0.11612 -0.10266  0.15900 -0.11438  0.11611 -0.10266  0.15900 -0.16749  0.13430  0.10616  0.11731 -0.16749  0.13430
-1.40586 -0.10546  0.13153 -0.12528  0.24133 -0.18512  0.02754 -0.12528  0.24133 -0.18512  0.02754 -0.08552  0.11182 -0.09049  0.15446 -0.08552  0.11182 -0.09049  0.15446 -0.12615  0.12797  0.06501  0.12057 -0.12615  0.12796
-1.35565 -0.11244  0.12588 -0.15108  0.23374 -0.19876  0.01756 -0.15108  0.23375 -0.19876  0.01756 -0.08145  0.10773 -0.09336  0.14977 -0.08145  0.10773 -0.09336  0.14977 -0.12609  0.12164  0.06468  0.12382 -0.12609  0.12163
-1.30544 -0.10444  0.12064 -0.14841  0.22629 -0.17279  0.00888 -0.14841  0.22629 -0.17279  0.00888 -0.07980  0.10372 -0.07230  0.14614 -0.07980  0.10372 -0.07230  0.14614 -0.13945  0.11464  0.07666  0.12767 -0.13945  0.11463
-1.25523 -0.10745  0.11524 -0.13826  0.21935 -0.13605  0.00205 -0.13826  0.21935 -0.13605  0.00205 -0.11456  0.09797 -0.04296  0.14398 -0.11456  0.09797 -0.04296  0.14398 -0.21975  0.10360  0.12119  0.13375 -0.21975  0.10360
-1.20502 -0.15255  0.10758 -0.15942  0.21135 -0.12874 -0.00441 -0.15942  0.21135 -0.12874 -0.00441 -0.22388  0.08673 -0.03609  0.14217 -0.22388  0.08673 -0.03609  0.14217 -0.38169  0.08444  0.18157  0.14287 -0.38169  0.08443
-1.15481 -0.18026  0.09853 -0.17567  0.20253 -0.14046 -0.01147 -0.17567  0.20253 -0.14046 -0.01146 -0.26764  0.07329 -0.03882  0.14022 -0.26764  0.07329 -0.03882  0.14022 -0.47207  0.06074  0.20644  0.15323 -0.47207  0.06073
-1.10460 -0.14775  0.09111 -0.15013  0.19499 -0.10239 -0.01661 -0.15013  0.19499 -0.10239 -0.01661 -0.22855  0.06182 -0.03482  0.13847 -0.22854  0.06182 -0.03482  0.13847 -0.42070  0.03961  0.24792  0.16568 -0.42069  0.03961
-1.05439 -0.13671  0.08425 -0.15011  0.18745 -0.10784 -0.02202 -0.15013  0.18745 -0.10783 -0.02202 -0.22209  0.05067 -0.05037  0.13594 -0.22203  0.05067 -0.05042  0.13594 -0.36605  0.02123  0.28902  0.18019 -0.36599  0.02123
-1.00418 -0.10398  0.07903 -0.09837  0.18251 -0.05993 -0.02503 -0.09838  0.18251 -0.05992 -0.02503 -0.19191  0.04103 -0.04243  0.13381 -0.19188  0.04103 -0.04246  0.13381 -0.31070  0.00563  0.26292  0.19339 -0.31067  0.00564
-0.95397 -0.10380  0.07382 -0.09405  0.17779 -0.04576 -0.02733 -0.09405  0.17779 -0.04576 -0.02733 -0.18530  0.03173 -0.04051  0.13178 -0.18529  0.03173 -0.04051  0.13178 -0.31269 -0.01007  0.21484  0.20418 -0.31269 -0.01006
-0.90377 -0.09143  0.06923 -0.08216  0.17366 -0.03589 -0.02913 -0.08216  0.17367 -0.03589 -0.02913 -0.15832  0.02378 -0.02986  0.13028 -0.15832  0.02378 -0.02986  0.13028 -0.27715 -0.02398  0.16104  0.21227 -0.27715 -0.02398
-0.85356 -0.06609  0.06591 -0.05908  0.17070 -0.02089 -0.03018 -0.05908  0.17070 -0.02089 -0.03018 -0.11469  0.01802 -0.01673  0.12944 -0.11469  0.01802 -0.01673  0.12944 -0.20821 -0.03444  0.11219  0.21790 -0.20821 -0.03443
-0.80335 -0.06041  0.06288 -0.05211  0.16808 -0.01598 -0.03098 -0.05211  0.16808 -0.01598 -0.03098 -0.10438  0.01278 -0.01467  0.12870 -0.10438  0.01278 -0.01467  0.12870 -0.19009 -0.04398  0.08995  0.22242 -0.19009 -0.04398
-0.75314 -0.05747  0.05999 -0.04683  0.16573 -0.01304 -0.03164 -0.04683  0.16573 -0.01304 -0.03163 -0.09896  0.00781 -0.01314  0.12804 -0.09896  0.00781 -0.01314  0.12804 -0.18208 -0.05312  0.07592  0.22623 -0.18208 -0.05312
-0.70293 -0.05678  0.05714 -0.04323  0.16356 -0.01118 -0.03220 -0.04323  0.16356 -0.01118 -0.03219 -0.09518  0.00303 -0.01447  0.12732 -0.09518  0.00303 -0.01447  0.12731 -0.17592 -0.06195  0.05539  0.22901 -0.17592 -0.06195
-0.65272 -0.05909  0.05417 -0.04254  0.16143 -0.01174 -0.03279 -0.04254  0.16143 -0.01174 -0.03278 -0.09451 -0.00171 -0.01933  0.12635 -0.09451 -0.00171 -0.01933  0.12634 -0.17445 -0.07071  0.03520  0.23078 -0.17445 -0.07071
-0.60251 -0.06231  0.05104 -0.04304  0.15926 -0.01455 -0.03352 -0.04304  0.15926 -0.01455 -0.03352 -0.09591 -0.00653 -0.02580  0.12505 -0.09591 -0.00653 -0.02580  0.12505 -0.17528 -0.07951  0.02376  0.23197 -0.17528 -0.07951
-0.55230 -0.06540  0.04776 -0.04320  0.15709 -0.01664 -0.03435 -0.04320  0.15709 -0.01664 -0.03435 -0.09408 -0.01125 -0.03628  0.12323 -0.09408 -0.01125 -0.03628  0.12323 -0.17681 -0.08839  0.01464  0.23270 -0.17681 -0.08839
-0.50209 -0.07330  0.04408 -0.04916  0.15463 -0.02175 -0.03545 -0.04916  0.15463 -0.02175 -0.03544 -0.10120 -0.01633 -0.05208  0.12061 -0.10120 -0.01633 -0.05208  0.12061 -0.18363 -0.09761  0.00937  0.23317 -0.18363 -0.09761
-0.45188 -0.07152  0.04049 -0.04727  0.15225 -0.02310 -0.03661 -0.04727  0.15225 -0.02310 -0.03660 -0.09718 -0.02121 -0.06051  0.11758 -0.09718 -0.02121 -0.06051  0.11757 -0.17161 -0.10623  0.01264  0.23381 -0.17161 -0.10623
-0.40167 -0.04706  0.03813 -0.03278  0.15061 -0.01077 -0.03715 -0.03278  0.15061 -0.01077 -0.03714 -0.06490 -0.02447 -0.04221  0.11546 -0.06490 -0.02447 -0.04221  0.11545 -0.12133 -0.11232  0.02633  0.23513 -0.12133 -0.11232
-0.35146 -0.05979  0.03512 -0.05536  0.14783 -0.02449 -0.03838 -0.05536  0.14783 -0.02449 -0.03837 -0.09220 -0.02910 -0.06905  0.11199 -0.09220 -0.02910 -0.06905  0.11199 -0.10218 -0.11745  0.02888  0.23658 -0.10218 -0.11745
-0.30126 -0.01582  0.03433 -0.01551  0.14705 -0.00310 -0.03853 -0.01551  0.14705 -0.00310 -0.03853 -0.02595 -0.03040 -0.01868  0.11105 -0.02595 -0.03040 -0.01868  0.11105 -0.04349 -0.11963  0.03948  0.23856 -0.04349 -0.11963
-0.25105 -0.01075  0.03379 -0.01192  0.14645 -0.00409 -0.03874 -0.01192  0.14645 -0.00409 -0.03873 -0.02148 -0.03148 -0.01528  0.11029 -0.02148 -0.03148 -0.01528  0.11028 -0.02973 -0.12113  0.04672  0.24091 -0.02973 -0.12113
-0.20084 -0.01034  0.03327 -0.01405  0.14574 -0.00775 -0.03913 -0.01405  0.14575 -0.00775 -0.03912 -0.02484 -0.03273 -0.01598  0.10948 -0.02484 -0.03273 -0.01598  0.10948 -0.02110 -0.12219  0.05371  0.24361 -0.02110 -0.12219
-0.15063 -0.01323  0.03261 -0.02352  0.14456 -0.01527 -0.03989 -0.02352  0.14456 -0.01527 -0.03989 -0.02416 -0.03394 -0.01665  0.10865 -0.02416 -0.03394 -0.01665  0.10864 -0.01648 -0.12301  0.04659  0.24594 -0.01648 -0.12301
-0.10042 -0.00907  0.03215 -0.01667  0.14373 -0.01005 -0.04040 -0.01667  0.14373 -0.01005 -0.04039 -0.01118 -0.03450 -0.00959  0.10817 -0.01118 -0.03450 -0.00959  0.10816 -0.00898 -0.12346  0.01316  0.24661 -0.00898 -0.12346
-0.05021 -0.00567  0.03187 -0.01082  0.14318 -0.00610 -0.04070 -0.01082  0.14318 -0.00610 -0.04070 -0.00554 -0.03478 -0.00564  0.10788 -0.00554 -0.03478 -0.00564  0.10788 -0.00578 -0.12376  0.00541  0.24688 -0.00578 -0.12375
 0.00000 -0.00756  0.03149 -0.01468  0.14245 -0.00947 -0.04118 -0.01468  0.14245 -0.00947 -0.04118 -0.00763 -0.03516 -0.00857  0.10745 -0.00763 -0.03516 -0.00857  0.10745 -0.00386 -0.12395  0.00530  0.24714 -0.00386 -0.12395
 0.05021 -0.02522  0.03022 -0.05446  0.13971 -0.03727 -0.04305 -0.05446  0.13971 -0.03727 -0.04305 -0.03529 -0.03694 -0.03564  0.10566 -0.03529 -0.03694 -0.03564  0.10566 -0.00295 -0.12410  0.05376  0.24984 -0.00295 -0.12410
 0.10042 -0.02936  0.02875 -0.05194  0.13710 -0.03546 -0.04483 -0.05194  0.13710 -0.03546 -0.04483 -0.03500 -0.03869 -0.04001  0.10365 -0.03500 -0.03869 -0.04001  0.10365 -0.00380 -0.12429  0.00942  0.25032 -0.00380 -0.12429
 0.15063 -0.04492  0.02649 -0.07437  0.13337 -0.04780 -0.04723 -0.07437  0.13337 -0.04780 -0.04723 -0.04602 -0.04100 -0.06125  0.10058 -0.04602 -0.04100 -0.06125  0.10058 -0.00621 -0.12460 -0.02284  0.24917 -0.00621 -0.12460
 0.20084 -0.07136  0.02291 -0.11832  0.12743 -0.07310 -0.05090 -0.11832  0.12743 -0.07310 -0.05090 -0.06699 -0.04437 -0.09961  0.09558 -0.06699 -0.04437 -0.09961  0.09557 -0.01504 -0.12535 -0.03884  0.24722 -0.01504 -0.12535
 0.25105 -0.10608  0.01758 -0.17545  0.11862 -0.11034 -0.05644 -0.17545  0.11862 -0.11034 -0.05644 -0.09003 -0.04889 -0.14561  0.08827 -0.09003 -0.04889 -0.14561  0.08826 -0.03767 -0.12725 -0.04866  0.24478 -0.03767 -0.12725
 0.30126 -0.13392  0.01086 -0.22124  0.10751 -0.13632 -0.06329 -0.22124  0.10751 -0.13632 -0.06328 -0.11490 -0.05466 -0.18518  0.07897 -0.11490 -0.05466 -0.18518  0.07897 -0.04397 -0.12945 -0.06985  0.24127 -0.04397 -0.12945
 0.35146 -0.15919  0.00286 -0.26895  0.09401 -0.16088 -0.07136 -0.26895  0.09401 -0.16088 -0.07136 -0.13799 -0.06159 -0.22272  0.06779 -0.13799 -0.06159 -0.22272  0.06778 -0.04197 -0.13156 -0.08608  0.23695 -0.04197 -0.13156
 0.40167 -0.16949 -0.00565 -0.29390  0.07925 -0.17255 -0.08003 -0.29390  0.07925 -0.17255 -0.08002 -0.14526 -0.06888 -0.23844  0.05581 -0.14526 -0.06888 -0.23844  0.05581 -0.03642 -0.13339 -0.09127  0.23236 -0.03642 -0.13339
 0.45188 -0.17900 -0.01463 -0.32408  0.06298 -0.17247 -0.08869 -0.32408  0.06298 -0.17247 -0.08868 -0.14224 -0.07602 -0.26097  0.04271 -0.14224 -0.07602 -0.26097  0.04271 -0.02807 -0.13480 -0.11334  0.22667 -0.02807 -0.13480