  COHP#  atomMU  atomNU     distance          ICOHP(eF) avg. over # bonds  for spin  1
      1     Bi1     Se7      2.88231           -2.18042                 3
      2     Bi1    Se10      3.10144           -1.14347                 3
      3     Bi2     Se8      2.88231           -2.18042                 3
      4     Bi2     Se9      3.10144           -1.14348                 3
      5     Bi3    Se10      3.05001           -1.30006                 3
      6     Bi3    Se11      2.91676           -1.96843                 3
      7     Bi4     Se9      3.05001           -1.30006                 3
      8     Bi4    Se12      2.91676           -1.96843                 3
      9     Bi5    Se12      3.37522           -0.47531                 3
     10     Bi5     Bi6      3.07294           -2.38796                 3
     11     Bi6    Se11      3.37522           -0.47531                 3
