  64
   1   1
     1.843366247800000    -0.000000000000000    -0.000000000000000
    -0.000000000000000     1.843366247800000    -0.000000000000000
    -0.000000000000000    -0.000000000000000     1.843366247800000
   1   2
    -0.304683481300000    -0.000000000000000    -0.000000000000000
    -0.000000000000000     0.004622599300000    -0.000000000000000
    -0.000000000000000    -0.000000000000000     0.004622599300000
   1   3
     0.004622599300000    -0.000000000000000    -0.000000000000000
    -0.000000000000000    -0.304683481300000    -0.000000000000000
    -0.000000000000000    -0.000000000000000     0.004622599300000
   1   4
    -0.012283786900000    -0.000000000000000    -0.000000000000000
    -0.000000000000000    -0.012283786900000    -0.000000000000000
    -0.000000000000000    -0.000000000000000     0.015473879300000
   1   5
     0.004622599300000    -0.000000000000000    -0.000000000000000
    -0.000000000000000     0.004622599300000    -0.000000000000000
    -0.000000000000000    -0.000000000000000    -0.304683481300000
   1   6
    -0.012283786900000    -0.000000000000000    -0.000000000000000
    -0.000000000000000     0.015473879300000    -0.000000000000000
    -0.000000000000000    -0.000000000000000    -0.012283786900000
   1   7
     0.015473879300000    -0.000000000000000    -0.000000000000000
    -0.000000000000000    -0.012283786900000    -0.000000000000000
    -0.000000000000000    -0.000000000000000    -0.012283786900000
   1   8
    -0.014665321000000    -0.000000000000000    -0.000000000000000
    -0.000000000000000    -0.014665321000000    -0.000000000000000
    -0.000000000000000    -0.000000000000000    -0.014665321000000
   1   9
     0.056038125000000    -0.000000000000000    -0.000000000000000
    -0.000000000000000    -0.049165494400000    -0.189862455200000
    -0.000000000000000    -0.189862455200000    -0.049165494400000
   1  10
    -0.038684123500000    -0.000000000000000    -0.000000000000000
    -0.000000000000000     0.000912243200000     0.001778966200000
    -0.000000000000000     0.001778966200000     0.000912243200000
   1  11
     0.056038125000000    -0.000000000000000    -0.000000000000000
    -0.000000000000000    -0.049165494400000     0.189862455200000
    -0.000000000000000     0.189862455200000    -0.049165494400000
   1  12
    -0.038684123500000    -0.000000000000000    -0.000000000000000
    -0.000000000000000     0.000912243200000    -0.001778966200000
    -0.000000000000000    -0.001778966200000     0.000912243200000
   1  13
     0.056038125000000    -0.000000000000000    -0.000000000000000
    -0.000000000000000    -0.049165494400000     0.189862455200000
    -0.000000000000000     0.189862455200000    -0.049165494400000
   1  14
    -0.038684123500000    -0.000000000000000    -0.000000000000000
    -0.000000000000000     0.000912243200000    -0.001778966200000
    -0.000000000000000    -0.001778966200000     0.000912243200000
   1  15
     0.056038125000000    -0.000000000000000    -0.000000000000000
    -0.000000000000000    -0.049165494400000    -0.189862455200000
    -0.000000000000000    -0.189862455200000    -0.049165494400000
   1  16
    -0.038684123500000    -0.000000000000000    -0.000000000000000
    -0.000000000000000     0.000912243200000     0.001778966200000
    -0.000000000000000     0.001778966200000     0.000912243200000
   1  17
    -0.049165494400000    -0.000000000000000    -0.189862455200000
    -0.000000000000000     0.056038125000000    -0.000000000000000
    -0.189862455200000    -0.000000000000000    -0.049165494400000
   1  18
    -0.049165494400000    -0.000000000000000     0.189862455200000
    -0.000000000000000     0.056038125000000    -0.000000000000000
     0.189862455200000    -0.000000000000000    -0.049165494400000
   1  19
     0.000912243200000    -0.000000000000000     0.001778966200000
    -0.000000000000000    -0.038684123500000    -0.000000000000000
     0.001778966200000    -0.000000000000000     0.000912243200000
   1  20
     0.000912243200000    -0.000000000000000    -0.001778966200000
    -0.000000000000000    -0.038684123500000    -0.000000000000000
    -0.001778966200000    -0.000000000000000     0.000912243200000
   1  21
    -0.049165494400000    -0.000000000000000     0.189862455200000
    -0.000000000000000     0.056038125000000    -0.000000000000000
     0.189862455200000    -0.000000000000000    -0.049165494400000
   1  22
    -0.049165494400000    -0.000000000000000    -0.189862455200000
    -0.000000000000000     0.056038125000000    -0.000000000000000
    -0.189862455200000    -0.000000000000000    -0.049165494400000
   1  23
     0.000912243200000    -0.000000000000000    -0.001778966200000
    -0.000000000000000    -0.038684123500000    -0.000000000000000
    -0.001778966200000    -0.000000000000000     0.000912243200000
   1  24
     0.000912243200000    -0.000000000000000     0.001778966200000
    -0.000000000000000    -0.038684123500000    -0.000000000000000
     0.001778966200000    -0.000000000000000     0.000912243200000
   1  25
    -0.049165494400000    -0.189862455200000    -0.000000000000000
    -0.189862455200000    -0.049165494400000    -0.000000000000000
    -0.000000000000000    -0.000000000000000     0.056038125000000
   1  26
    -0.049165494400000     0.189862455200000    -0.000000000000000
     0.189862455200000    -0.049165494400000    -0.000000000000000
    -0.000000000000000    -0.000000000000000     0.056038125000000
   1  27
    -0.049165494400000     0.189862455200000    -0.000000000000000
     0.189862455200000    -0.049165494400000    -0.000000000000000
    -0.000000000000000    -0.000000000000000     0.056038125000000
   1  28
    -0.049165494400000    -0.189862455200000    -0.000000000000000
    -0.189862455200000    -0.049165494400000    -0.000000000000000
    -0.000000000000000    -0.000000000000000     0.056038125000000
   1  29
     0.000912243200000     0.001778966200000    -0.000000000000000
     0.001778966200000     0.000912243200000    -0.000000000000000
    -0.000000000000000    -0.000000000000000    -0.038684123500000
   1  30
     0.000912243200000    -0.001778966200000    -0.000000000000000
    -0.001778966200000     0.000912243200000    -0.000000000000000
    -0.000000000000000    -0.000000000000000    -0.038684123500000
   1  31
     0.000912243200000    -0.001778966200000    -0.000000000000000
    -0.001778966200000     0.000912243200000    -0.000000000000000
    -0.000000000000000    -0.000000000000000    -0.038684123500000
   1  32
     0.000912243200000     0.001778966200000    -0.000000000000000
     0.001778966200000     0.000912243200000    -0.000000000000000
    -0.000000000000000    -0.000000000000000    -0.038684123500000
   1  33
     0.007648937556630     0.042131108616173     0.042131108616173
     0.042131108616173     0.007648937556630     0.042131108616173
     0.042131108616173     0.042131108616173     0.007648937556630
   1  34
     0.007648937556630    -0.042131108616173    -0.042131108616173
    -0.042131108616173     0.007648937556630     0.042131108616173
    -0.042131108616173     0.042131108616173     0.007648937556630
   1  35
     0.007648937556630    -0.042131108616173     0.042131108616173
    -0.042131108616173     0.007648937556630    -0.042131108616173
     0.042131108616173    -0.042131108616173     0.007648937556630
   1  36
     0.007648937556630     0.042131108616173    -0.042131108616173
     0.042131108616173     0.007648937556630    -0.042131108616173
    -0.042131108616173    -0.042131108616173     0.007648937556630
   1  37
     0.007648937556630     0.042131108616173    -0.042131108616173
     0.042131108616173     0.007648937556630    -0.042131108616173
    -0.042131108616173    -0.042131108616173     0.007648937556630
   1  38
     0.007648937556630    -0.042131108616173     0.042131108616173
    -0.042131108616173     0.007648937556630    -0.042131108616173
     0.042131108616173    -0.042131108616173     0.007648937556630
   1  39
     0.007648937556630    -0.042131108616173    -0.042131108616173
    -0.042131108616173     0.007648937556630     0.042131108616173
    -0.042131108616173     0.042131108616173     0.007648937556630
   1  40
     0.007648937556630     0.042131108616173     0.042131108616173
     0.042131108616173     0.007648937556630     0.042131108616173
     0.042131108616173     0.042131108616173     0.007648937556630
   1  41
    -0.468690704334525    -0.000000000000000    -0.000000000000000
    -0.000000000000000    -0.177413840582218    -0.000000000000000
    -0.000000000000000    -0.000000000000000    -0.177413840582218
   1  42
    -0.468690704334525    -0.000000000000000    -0.000000000000000
    -0.000000000000000    -0.177413840582218    -0.000000000000000
    -0.000000000000000    -0.000000000000000    -0.177413840582218
   1  43
    -0.004240432574224    -0.000000000000000    -0.000000000000000
    -0.000000000000000     0.093286661699540    -0.000000000000000
    -0.000000000000000    -0.000000000000000    -0.020597487977686
   1  44
    -0.004240432574224    -0.000000000000000    -0.000000000000000
    -0.000000000000000     0.093286661699540    -0.000000000000000
    -0.000000000000000    -0.000000000000000    -0.020597487977686
   1  45
    -0.004240432574224    -0.000000000000000    -0.000000000000000
    -0.000000000000000    -0.020597487977686    -0.000000000000000
    -0.000000000000000    -0.000000000000000     0.093286661699540
   1  46
    -0.004240432574224    -0.000000000000000    -0.000000000000000
    -0.000000000000000    -0.020597487977686    -0.000000000000000
    -0.000000000000000    -0.000000000000000     0.093286661699540
   1  47
    -0.000083078561846    -0.000000000000000    -0.000000000000000
    -0.000000000000000     0.022311589989107    -0.000000000000000
    -0.000000000000000    -0.000000000000000     0.022311589989107
   1  48
    -0.000083078561846    -0.000000000000000    -0.000000000000000
    -0.000000000000000     0.022311589989107    -0.000000000000000
    -0.000000000000000    -0.000000000000000     0.022311589989107
   1  49
    -0.177413840582218    -0.000000000000000    -0.000000000000000
    -0.000000000000000    -0.468690704334525    -0.000000000000000
    -0.000000000000000    -0.000000000000000    -0.177413840582218
   1  50
     0.093286661699540    -0.000000000000000    -0.000000000000000
    -0.000000000000000    -0.004240432574224    -0.000000000000000
    -0.000000000000000    -0.000000000000000    -0.020597487977686
   1  51
    -0.177413840582218    -0.000000000000000    -0.000000000000000
    -0.000000000000000    -0.468690704334525    -0.000000000000000
    -0.000000000000000    -0.000000000000000    -0.177413840582218
   1  52
     0.093286661699540    -0.000000000000000    -0.000000000000000
    -0.000000000000000    -0.004240432574224    -0.000000000000000
    -0.000000000000000    -0.000000000000000    -0.020597487977686
   1  53
    -0.020597487977686    -0.000000000000000    -0.000000000000000
    -0.000000000000000    -0.004240432574224    -0.000000000000000
    -0.000000000000000    -0.000000000000000     0.093286661699540
   1  54
     0.022311589989107    -0.000000000000000    -0.000000000000000
    -0.000000000000000    -0.000083078561846    -0.000000000000000
    -0.000000000000000    -0.000000000000000     0.022311589989107
   1  55
    -0.020597487977686    -0.000000000000000    -0.000000000000000
    -0.000000000000000    -0.004240432574224    -0.000000000000000
    -0.000000000000000    -0.000000000000000     0.093286661699540
   1  56
     0.022311589989107    -0.000000000000000    -0.000000000000000
    -0.000000000000000    -0.000083078561846    -0.000000000000000
    -0.000000000000000    -0.000000000000000     0.022311589989107
   1  57
    -0.177413840582218    -0.000000000000000    -0.000000000000000
    -0.000000000000000    -0.177413840582218    -0.000000000000000
    -0.000000000000000    -0.000000000000000    -0.468690704334525
   1  58
     0.093286661699540    -0.000000000000000    -0.000000000000000
    -0.000000000000000    -0.020597487977686    -0.000000000000000
    -0.000000000000000    -0.000000000000000    -0.004240432574224
   1  59
    -0.020597487977686    -0.000000000000000    -0.000000000000000
    -0.000000000000000     0.093286661699540    -0.000000000000000
    -0.000000000000000    -0.000000000000000    -0.004240432574224
   1  60
     0.022311589989107    -0.000000000000000    -0.000000000000000
    -0.000000000000000     0.022311589989107    -0.000000000000000
    -0.000000000000000    -0.000000000000000    -0.000083078561846
   1  61
    -0.177413840582218    -0.000000000000000    -0.000000000000000
    -0.000000000000000    -0.177413840582218    -0.000000000000000
    -0.000000000000000    -0.000000000000000    -0.468690704334525
   1  62
     0.093286661699540    -0.000000000000000    -0.000000000000000
    -0.000000000000000    -0.020597487977686    -0.000000000000000
    -0.000000000000000    -0.000000000000000    -0.004240432574224
   1  63
    -0.020597487977686    -0.000000000000000    -0.000000000000000
    -0.000000000000000     0.093286661699540    -0.000000000000000
    -0.000000000000000    -0.000000000000000    -0.004240432574224
   1  64
     0.022311589989107    -0.000000000000000    -0.000000000000000
    -0.000000000000000     0.022311589989107    -0.000000000000000
    -0.000000000000000    -0.000000000000000    -0.000083078561846
   2   1
    -0.304683481300000    -0.000000000000000    -0.000000000000000
    -0.000000000000000     0.004622599300000    -0.000000000000000
    -0.000000000000000    -0.000000000000000     0.004622599300000
   2   2
     1.843366247800000    -0.000000000000000    -0.000000000000000
    -0.000000000000000     1.843366247800000    -0.000000000000000
    -0.000000000000000    -0.000000000000000     1.843366247800000
   2   3
    -0.012283786900000    -0.000000000000000    -0.000000000000000
    -0.000000000000000    -0.012283786900000    -0.000000000000000
    -0.000000000000000    -0.000000000000000     0.015473879300000
   2   4
     0.004622599300000    -0.000000000000000    -0.000000000000000
    -0.000000000000000    -0.304683481300000    -0.000000000000000
    -0.000000000000000    -0.000000000000000     0.004622599300000
   2   5
    -0.012283786900000    -0.000000000000000    -0.000000000000000
    -0.000000000000000     0.015473879300000    -0.000000000000000
    -0.000000000000000    -0.000000000000000    -0.012283786900000
   2   6
     0.004622599300000    -0.000000000000000    -0.000000000000000
    -0.000000000000000     0.004622599300000    -0.000000000000000
    -0.000000000000000    -0.000000000000000    -0.304683481300000
   2   7
    -0.014665321000000    -0.000000000000000    -0.000000000000000
    -0.000000000000000    -0.014665321000000    -0.000000000000000
    -0.000000000000000    -0.000000000000000    -0.014665321000000
   2   8
     0.015473879300000    -0.000000000000000    -0.000000000000000
    -0.000000000000000    -0.012283786900000    -0.000000000000000
    -0.000000000000000    -0.000000000000000    -0.012283786900000
   2   9
    -0.038684123500000    -0.000000000000000    -0.000000000000000
    -0.000000000000000     0.000912243200000     0.001778966200000
    -0.000000000000000     0.001778966200000     0.000912243200000
   2  10
     0.056038125000000    -0.000000000000000    -0.000000000000000
    -0.000000000000000    -0.049165494400000    -0.189862455200000
    -0.000000000000000    -0.189862455200000    -0.049165494400000
   2  11
    -0.038684123500000    -0.000000000000000    -0.000000000000000
    -0.000000000000000     0.000912243200000    -0.001778966200000
    -0.000000000000000    -0.001778966200000     0.000912243200000
   2  12
     0.056038125000000    -0.000000000000000    -0.000000000000000
    -0.000000000000000    -0.049165494400000     0.189862455200000
    -0.000000000000000     0.189862455200000    -0.049165494400000
   2  13
    -0.038684123500000    -0.000000000000000    -0.000000000000000
    -0.000000000000000     0.000912243200000    -0.001778966200000
    -0.000000000000000    -0.001778966200000     0.000912243200000
   2  14
     0.056038125000000    -0.000000000000000    -0.000000000000000
    -0.000000000000000    -0.049165494400000     0.189862455200000
    -0.000000000000000     0.189862455200000    -0.049165494400000
   2  15
    -0.038684123500000    -0.000000000000000    -0.000000000000000
    -0.000000000000000     0.000912243200000     0.001778966200000
    -0.000000000000000     0.001778966200000     0.000912243200000
   2  16
     0.056038125000000    -0.000000000000000    -0.000000000000000
    -0.000000000000000    -0.049165494400000    -0.189862455200000
    -0.000000000000000    -0.189862455200000    -0.049165494400000
   2  17
    -0.049165494400000    -0.000000000000000     0.189862455200000
    -0.000000000000000     0.056038125000000    -0.000000000000000
     0.189862455200000    -0.000000000000000    -0.049165494400000
   2  18
    -0.049165494400000    -0.000000000000000    -0.189862455200000
    -0.000000000000000     0.056038125000000    -0.000000000000000
    -0.189862455200000    -0.000000000000000    -0.049165494400000
   2  19
     0.000912243200000    -0.000000000000000    -0.001778966200000
    -0.000000000000000    -0.038684123500000    -0.000000000000000
    -0.001778966200000    -0.000000000000000     0.000912243200000
   2  20
     0.000912243200000    -0.000000000000000     0.001778966200000
    -0.000000000000000    -0.038684123500000    -0.000000000000000
     0.001778966200000    -0.000000000000000     0.000912243200000
   2  21
    -0.049165494400000    -0.000000000000000    -0.189862455200000
    -0.000000000000000     0.056038125000000    -0.000000000000000
    -0.189862455200000    -0.000000000000000    -0.049165494400000
   2  22
    -0.049165494400000    -0.000000000000000     0.189862455200000
    -0.000000000000000     0.056038125000000    -0.000000000000000
     0.189862455200000    -0.000000000000000    -0.049165494400000
   2  23
     0.000912243200000    -0.000000000000000     0.001778966200000
    -0.000000000000000    -0.038684123500000    -0.000000000000000
     0.001778966200000    -0.000000000000000     0.000912243200000
   2  24
     0.000912243200000    -0.000000000000000    -0.001778966200000
    -0.000000000000000    -0.038684123500000    -0.000000000000000
    -0.001778966200000    -0.000000000000000     0.000912243200000
   2  25
    -0.049165494400000     0.189862455200000    -0.000000000000000
     0.189862455200000    -0.049165494400000    -0.000000000000000
    -0.000000000000000    -0.000000000000000     0.056038125000000
   2  26
    -0.049165494400000    -0.189862455200000    -0.000000000000000
    -0.189862455200000    -0.049165494400000    -0.000000000000000
    -0.000000000000000    -0.000000000000000     0.056038125000000
   2  27
    -0.049165494400000    -0.189862455200000    -0.000000000000000
    -0.189862455200000    -0.049165494400000    -0.000000000000000
    -0.000000000000000    -0.000000000000000     0.056038125000000
   2  28
    -0.049165494400000     0.189862455200000    -0.000000000000000
     0.189862455200000    -0.049165494400000    -0.000000000000000
    -0.000000000000000    -0.000000000000000     0.056038125000000
   2  29
     0.000912243200000    -0.001778966200000    -0.000000000000000
    -0.001778966200000     0.000912243200000    -0.000000000000000
    -0.000000000000000    -0.000000000000000    -0.038684123500000
   2  30
     0.000912243200000     0.001778966200000    -0.000000000000000
     0.001778966200000     0.000912243200000    -0.000000000000000
    -0.000000000000000    -0.000000000000000    -0.038684123500000
   2  31
     0.000912243200000     0.001778966200000    -0.000000000000000
     0.001778966200000     0.000912243200000    -0.000000000000000
    -0.000000000000000    -0.000000000000000    -0.038684123500000
   2  32
     0.000912243200000    -0.001778966200000    -0.000000000000000
    -0.001778966200000     0.000912243200000    -0.000000000000000
    -0.000000000000000    -0.000000000000000    -0.038684123500000
   2  33
     0.007648937556630    -0.042131108616173    -0.042131108616173
    -0.042131108616173     0.007648937556630     0.042131108616173
    -0.042131108616173     0.042131108616173     0.007648937556630
   2  34
     0.007648937556630     0.042131108616173     0.042131108616173
     0.042131108616173     0.007648937556630     0.042131108616173
     0.042131108616173     0.042131108616173     0.007648937556630
   2  35
     0.007648937556630     0.042131108616173    -0.042131108616173
     0.042131108616173     0.007648937556630    -0.042131108616173
    -0.042131108616173    -0.042131108616173     0.007648937556630
   2  36
     0.007648937556630    -0.042131108616173     0.042131108616173
    -0.042131108616173     0.007648937556630    -0.042131108616173
     0.042131108616173    -0.042131108616173     0.007648937556630
   2  37
     0.007648937556630    -0.042131108616173     0.042131108616173
    -0.042131108616173     0.007648937556630    -0.042131108616173
     0.042131108616173    -0.042131108616173     0.007648937556630
   2  38
     0.007648937556630     0.042131108616173    -0.042131108616173
     0.042131108616173     0.007648937556630    -0.042131108616173
    -0.042131108616173    -0.042131108616173     0.007648937556630
   2  39
     0.007648937556630     0.042131108616173     0.042131108616173
     0.042131108616173     0.007648937556630     0.042131108616173
     0.042131108616173     0.042131108616173     0.007648937556630
   2  40
     0.007648937556630    -0.042131108616173    -0.042131108616173
    -0.042131108616173     0.007648937556630     0.042131108616173
    -0.042131108616173     0.042131108616173     0.007648937556630
   2  41
    -0.468690704334525    -0.000000000000000    -0.000000000000000
    -0.000000000000000    -0.177413840582218    -0.000000000000000
    -0.000000000000000    -0.000000000000000    -0.177413840582218
   2  42
    -0.468690704334525    -0.000000000000000    -0.000000000000000
    -0.000000000000000    -0.177413840582218    -0.000000000000000
    -0.000000000000000    -0.000000000000000    -0.177413840582218
   2  43
    -0.004240432574224    -0.000000000000000    -0.000000000000000
    -0.000000000000000     0.093286661699540    -0.000000000000000
    -0.000000000000000    -0.000000000000000    -0.020597487977686
   2  44
    -0.004240432574224    -0.000000000000000    -0.000000000000000
    -0.000000000000000     0.093286661699540    -0.000000000000000
    -0.000000000000000    -0.000000000000000    -0.020597487977686
   2  45
    -0.004240432574224    -0.000000000000000    -0.000000000000000
    -0.000000000000000    -0.020597487977686    -0.000000000000000
    -0.000000000000000    -0.000000000000000     0.093286661699540
   2  46
    -0.004240432574224    -0.000000000000000    -0.000000000000000
    -0.000000000000000    -0.020597487977686    -0.000000000000000
    -0.000000000000000    -0.000000000000000     0.093286661699540
   2  47
    -0.000083078561846    -0.000000000000000    -0.000000000000000
    -0.000000000000000     0.022311589989107    -0.000000000000000
    -0.000000000000000    -0.000000000000000     0.022311589989107
   2  48
    -0.000083078561846    -0.000000000000000    -0.000000000000000
    -0.000000000000000     0.022311589989107    -0.000000000000000
    -0.000000000000000    -0.000000000000000     0.022311589989107
   2  49
     0.093286661699540    -0.000000000000000    -0.000000000000000
    -0.000000000000000    -0.004240432574224    -0.000000000000000
    -0.000000000000000    -0.000000000000000    -0.020597487977686
   2  50
    -0.177413840582218    -0.000000000000000    -0.000000000000000
    -0.000000000000000    -0.468690704334525    -0.000000000000000
    -0.000000000000000    -0.000000000000000    -0.177413840582218
   2  51
     0.093286661699540    -0.000000000000000    -0.000000000000000
    -0.000000000000000    -0.004240432574224    -0.000000000000000
    -0.000000000000000    -0.000000000000000    -0.020597487977686
   2  52
    -0.177413840582218    -0.000000000000000    -0.000000000000000
    -0.000000000000000    -0.468690704334525    -0.000000000000000
    -0.000000000000000    -0.000000000000000    -0.177413840582218
   2  53
     0.022311589989107    -0.000000000000000    -0.000000000000000
    -0.000000000000000    -0.000083078561846    -0.000000000000000
    -0.000000000000000    -0.000000000000000     0.022311589989107
   2  54
    -0.020597487977686    -0.000000000000000    -0.000000000000000
    -0.000000000000000    -0.004240432574224    -0.000000000000000
    -0.000000000000000    -0.000000000000000     0.093286661699540
   2  55
     0.022311589989107    -0.000000000000000    -0.000000000000000
    -0.000000000000000    -0.000083078561846    -0.000000000000000
    -0.000000000000000    -0.000000000000000     0.022311589989107
   2  56
    -0.020597487977686    -0.000000000000000    -0.000000000000000
    -0.000000000000000    -0.004240432574224    -0.000000000000000
    -0.000000000000000    -0.000000000000000     0.093286661699540
   2  57
     0.093286661699540    -0.000000000000000    -0.000000000000000
    -0.000000000000000    -0.020597487977686    -0.000000000000000
    -0.000000000000000    -0.000000000000000    -0.004240432574224
   2  58
    -0.177413840582218    -0.000000000000000    -0.000000000000000
    -0.000000000000000    -0.177413840582218    -0.000000000000000
    -0.000000000000000    -0.000000000000000    -0.468690704334525
   2  59
     0.022311589989107    -0.000000000000000    -0.000000000000000
    -0.000000000000000     0.022311589989107    -0.000000000000000
    -0.000000000000000    -0.000000000000000    -0.000083078561846
   2  60
    -0.020597487977686    -0.000000000000000    -0.000000000000000
    -0.000000000000000     0.093286661699540    -0.000000000000000
    -0.000000000000000    -0.000000000000000    -0.004240432574224
   2  61
     0.093286661699540    -0.000000000000000    -0.000000000000000
    -0.000000000000000    -0.020597487977686    -0.000000000000000
    -0.000000000000000    -0.000000000000000    -0.004240432574224
   2  62
    -0.177413840582218    -0.000000000000000    -0.000000000000000
    -0.000000000000000    -0.177413840582218    -0.000000000000000
    -0.000000000000000    -0.000000000000000    -0.468690704334525
   2  63
     0.022311589989107    -0.000000000000000    -0.000000000000000
    -0.000000000000000     0.022311589989107    -0.000000000000000
    -0.000000000000000    -0.000000000000000    -0.000083078561846
   2  64
    -0.020597487977686    -0.000000000000000    -0.000000000000000
    -0.000000000000000     0.093286661699540    -0.000000000000000
    -0.000000000000000    -0.000000000000000    -0.004240432574224
   3   1
     0.004622599300000    -0.000000000000000    -0.000000000000000
    -0.000000000000000    -0.304683481300000    -0.000000000000000
    -0.000000000000000    -0.000000000000000     0.004622599300000
   3   2
    -0.012283786900000    -0.000000000000000    -0.000000000000000
    -0.000000000000000    -0.012283786900000    -0.000000000000000
    -0.000000000000000    -0.000000000000000     0.015473879300000
   3   3
     1.843366247800000    -0.000000000000000    -0.000000000000000
    -0.000000000000000     1.843366247800000    -0.000000000000000
    -0.000000000000000    -0.000000000000000     1.843366247800000
   3   4
    -0.304683481300000    -0.000000000000000    -0.000000000000000
    -0.000000000000000     0.004622599300000    -0.000000000000000
    -0.000000000000000    -0.000000000000000     0.004622599300000
   3   5
     0.015473879300000    -0.000000000000000    -0.000000000000000
    -0.000000000000000    -0.012283786900000    -0.000000000000000
    -0.000000000000000    -0.000000000000000    -0.012283786900000
   3   6
    -0.014665321000000    -0.000000000000000    -0.000000000000000
    -0.000000000000000    -0.014665321000000    -0.000000000000000
    -0.000000000000000    -0.000000000000000    -0.014665321000000
   3   7
     0.004622599300000    -0.000000000000000    -0.000000000000000
    -0.000000000000000     0.004622599300000    -0.000000000000000
    -0.000000000000000    -0.000000000000000    -0.304683481300000
   3   8
    -0.012283786900000    -0.000000000000000    -0.000000000000000
    -0.000000000000000     0.015473879300000    -0.000000000000000
    -0.000000000000000    -0.000000000000000    -0.012283786900000
   3   9
     0.056038125000000    -0.000000000000000    -0.000000000000000
    -0.000000000000000    -0.049165494400000     0.189862455200000
    -0.000000000000000     0.189862455200000    -0.049165494400000
   3  10
    -0.038684123500000    -0.000000000000000    -0.000000000000000
    -0.000000000000000     0.000912243200000    -0.001778966200000
    -0.000000000000000    -0.001778966200000     0.000912243200000
   3  11
     0.056038125000000    -0.000000000000000    -0.000000000000000
    -0.000000000000000    -0.049165494400000    -0.189862455200000
    -0.000000000000000    -0.189862455200000    -0.049165494400000
   3  12
    -0.038684123500000    -0.000000000000000    -0.000000000000000
    -0.000000000000000     0.000912243200000     0.001778966200000
    -0.000000000000000     0.001778966200000     0.000912243200000
   3  13
     0.056038125000000    -0.000000000000000    -0.000000000000000
    -0.000000000000000    -0.049165494400000    -0.189862455200000
    -0.000000000000000    -0.189862455200000    -0.049165494400000
   3  14
    -0.038684123500000    -0.000000000000000    -0.000000000000000
    -0.000000000000000     0.000912243200000     0.001778966200000
    -0.000000000000000     0.001778966200000     0.000912243200000
   3  15
     0.056038125000000    -0.000000000000000    -0.000000000000000
    -0.000000000000000    -0.049165494400000     0.189862455200000