   4    4    1    2
  4.2527283e+01   3.1285883e-10   3.1285883e-10   5.0169550e-10   5.0000000e-16
            1.000000e-04
  CAR
 DOS and projected DOS file by LOBSTER. Energy is shifted such that the Fermi level lies at 0 eV. 
     15.58577401       4.47466289    11      10.03021845       1.00000000
-5.55556  0.00000  0.00000  5.91884  5.91884
-4.44444  1.75477  1.75477  7.86858  7.86858
-3.33333  0.11803  0.11803  7.99973  7.99973
-2.22222  0.00000  0.00000  7.99973  7.99973
-1.11111  0.00000  0.00000  7.99973  7.99973
 0.00000  0.00000  0.00000  7.99973  7.99973
 1.11111  0.04156  0.04156  8.04591  8.04591
 2.22222  0.82291  0.82291  8.96026  8.96026
 3.33333  0.74449  0.74449  9.78747  9.78747
 4.44444  0.42481  0.42481 10.25948 10.25948
 5.55556  1.04535  1.04535 11.42098 11.42098
      5.55555556      -5.55555556    11      10.03021845       1.00000000; AlN; X 1a1 2a1 1e 2e 3a1 3e 4e 4a1 
-5.55556  0.00000  0.00000  0.00000  0.00000  0.00000  0.00000  0.00000  0.00000  0.00000  0.00000  0.00000  0.00000  0.00000  0.00000  0.00000  0.00000
-4.44444  0.01861  0.01843  0.22821  0.22594  0.26659  0.26949  0.24137  0.23822  0.03164  0.03146  0.04285  0.04258  0.03535  0.03500  0.01462  0.01444
-3.33333  0.00068  0.00068  0.01334  0.01335  0.02320  0.02321  0.01449  0.01450  0.00106  0.00106  0.00311  0.00310  0.00145  0.00145  0.00168  0.00168
-2.22222  0.00000  0.00000  0.00000  0.00000  0.00000  0.00000  0.00000  0.00000  0.00000  0.00000  0.00000  0.00000  0.00000  0.00000  0.00000  0.00000
-1.11111  0.00000  0.00000  0.00000  0.00000  0.00000  0.00000  0.00000  0.00000  0.00000  0.00000  0.00000  0.00000  0.00000  0.00000  0.00000  0.00000
 0.00000  0.00000  0.00000  0.00000  0.00000  0.00000  0.00000  0.00000  0.00000  0.00000  0.00000  0.00000  0.00000  0.00000  0.00000  0.00000  0.00000
 1.11111  0.00393  0.00405  0.00221  0.00228  0.00063  0.00065  0.00033  0.00034  0.00327  0.00337  0.00255  0.00261  0.00283  0.00318  0.00451  0.00480
 2.22222  0.04264  0.04420  0.02778  0.02836  0.02156  0.02131  0.00970  0.01006  0.04164  0.04260  0.07012  0.06901  0.09632  0.10065  0.09612  0.10005
 3.33333  0.03618  0.03450  0.03113  0.03053  0.02160  0.02187  0.01199  0.01170  0.03692  0.03592  0.06992  0.07060  0.08309  0.07923  0.08713  0.08271
 4.44444  0.01360  0.01355  0.01614  0.01612  0.01000  0.00999  0.01316  0.01320  0.03872  0.03866  0.04220  0.04249  0.03011  0.03017  0.04828  0.04838
 5.55556  0.02057  0.02052  0.02366  0.02379  0.02046  0.02039  0.03299  0.03282  0.10095  0.10262  0.15323  0.15106  0.06152  0.06158  0.10864  0.10949
      5.55555556      -5.55555556    11      10.03021845       1.00000000;  Al; X 3s 3p_y 3p_z 3p_x 
-5.55556  0.00000  0.00000  0.00000  0.00000  0.00000  0.00000  0.00000  0.00000
-4.44444  0.00988  0.00974  0.02325  0.02352  0.02748  0.02794  0.02327  0.02356
-3.33333  0.00011  0.00011  0.00035  0.00035  0.00069  0.00069  0.00035  0.00035
-2.22222  0.00000  0.00000  0.00000  0.00000  0.00000  0.00000  0.00000  0.00000
-1.11111  0.00000  0.00000  0.00000  0.00000  0.00000  0.00000  0.00000  0.00000
 0.00000  0.00000  0.00000  0.00000  0.00000  0.00000  0.00000  0.00000  0.00000
 1.11111  0.00389  0.00393  0.00290  0.00265  0.00226  0.00216  0.00286  0.00253
 2.22222  0.02449  0.02462  0.09305  0.09066  0.06783  0.06820  0.09291  0.08810
 3.33333  0.02468  0.02446  0.06902  0.07237  0.06950  0.06966  0.06881  0.07255
 4.44444  0.04164  0.04162  0.02725  0.02728  0.04424  0.04402  0.02774  0.02759
 5.55556  0.10976  0.10690  0.05879  0.05868  0.16355  0.16579  0.05846  0.05844
      5.55555556      -5.55555556    11      10.03021845       1.00000000;   N; X 2s 2p_y 2p_z 2p_x 
-5.55556  0.00000  0.00000  0.00000  0.00000  0.00000  0.00000  0.00000  0.00000
-4.44444  0.00426  0.00429  0.24991  0.25324  0.28732  0.28347  0.25016  0.25344
-3.33333  0.00004  0.00004  0.01570  0.01570  0.02660  0.02660  0.01518  0.01518
-2.22222  0.00000  0.00000  0.00000  0.00000  0.00000  0.00000  0.00000  0.00000
-1.11111  0.00000  0.00000  0.00000  0.00000  0.00000  0.00000  0.00000  0.00000
 0.00000  0.00000  0.00000  0.00000  0.00000  0.00000  0.00000  0.00000  0.00000
 1.11111  0.00734  0.00704  0.00064  0.00060  0.00077  0.00078  0.00064  0.00060
 2.22222  0.07954  0.07683  0.01843  0.01747  0.02240  0.02324  0.01838  0.01756
 3.33333  0.06404  0.06713  0.02166  0.02247  0.02710  0.02625  0.02173  0.02254
 4.44444  0.02774  0.02780  0.01595  0.01589  0.01257  0.01256  0.01548  0.01548
 5.55556  0.03544  0.03536  0.03567  0.03565  0.02579  0.02607  0.03586  0.03618
