PROCAR lm decomposed + phase
# of k-points:   3         # of bands:   2         # of ions:    4

 k-point     1 :    0.00000000 0.00000000 0.00000000     weight = 0.01562500

band     1 # energy  -12.28198856 # occ.  1.00000000
 
ion      s     py     pz     px    dxy    dyz    dz2    dxz  x2-y2    tot
    1  0.060  0.000  0.000  0.000  0.000  0.000  0.000  0.000  0.000  0.060
    2  0.059  0.000  0.000  0.000  0.000  0.000  0.000  0.000  0.000  0.059
    3  0.339  0.000  0.000  0.000  0.000  0.000  0.000  0.000  0.000  0.339
    4  0.339  0.000  0.000  0.000  0.000  0.000  0.000  0.000  0.000  0.339
tot    0.796  0.000  0.000  0.000  0.000  0.000  0.000  0.000  0.000  0.796
ion          s             py             pz             px             dxy            dyz            dz2            dxz          dx2-y2  
    1 -0.130  0.199  -0.000 -0.000   0.000  0.000   0.000 -0.000   0.000 -0.000   0.000 -0.000   0.000  0.000   0.000 -0.000   0.000  0.000   0.057
    2 -0.129  0.197  -0.000 -0.000  -0.000  0.000  -0.000 -0.000  -0.000  0.000  -0.000  0.000  -0.000  0.000  -0.000  0.000   0.000 -0.000   0.055
    3 -0.314  0.480  -0.001  0.001  -0.001  0.001  -0.001  0.001   0.000  0.000   0.000  0.000   0.000  0.000   0.000  0.000   0.000  0.000   0.329
    4 -0.314  0.480   0.001 -0.001   0.001 -0.001   0.001 -0.001   0.000  0.000   0.000  0.000   0.000  0.000   0.000  0.000   0.000  0.000   0.329
charge 0.769          0.000          0.000          0.000          0.000          0.000          0.000          0.000          0.000          0.769       
 
band     2 # energy  -10.87401691 # occ.  1.00000000
 
ion      s     py     pz     px    dxy    dyz    dz2    dxz  x2-y2    tot
    1  0.000  0.010  0.010  0.010  0.000  0.000  0.000  0.000  0.000  0.031
    2  0.000  0.010  0.010  0.010  0.000  0.000  0.000  0.000  0.000  0.030
    3  0.389  0.000  0.000  0.000  0.000  0.000  0.000  0.000  0.000  0.389
    4  0.389  0.000  0.000  0.000  0.000  0.000  0.000  0.000  0.000  0.389
tot    0.778  0.020  0.020  0.020  0.000  0.000  0.000  0.000  0.000  0.839
ion          s             py             pz             px             dxy            dyz            dz2            dxz          dx2-y2  
    1 -0.000 -0.000   0.095 -0.024   0.095 -0.024   0.095 -0.024  -0.000 -0.000   0.000  0.000   0.000 -0.000  -0.000  0.000  -0.000  0.000   0.029
    2  0.000  0.000  -0.095  0.024  -0.095  0.024  -0.095  0.024  -0.000  0.000   0.000 -0.000   0.000 -0.000   0.000  0.000   0.000  0.000   0.029
    3 -0.597  0.152  -0.002  0.000  -0.002  0.000  -0.002  0.000   0.000  0.000   0.000  0.000   0.000  0.000   0.000  0.000   0.000  0.000   0.380
    4  0.597 -0.152  -0.002  0.000  -0.002  0.000  -0.002  0.000   0.000  0.000   0.000  0.000   0.000  0.000   0.000  0.000   0.000  0.000   0.380
charge 0.759          0.019          0.019          0.019          0.000          0.000          0.000          0.000          0.000          0.817     

  
 k-point     2 :    0.00000000 0.00000000 0.00000000     weight = 0.01562500

band     1 # energy  -12.28198856 # occ.  1.00000000
 
ion      s     py     pz     px    dxy    dyz    dz2    dxz  x2-y2    tot
    1  0.060  0.000  0.000  0.000  0.000  0.000  0.000  0.000  0.000  0.060
    2  0.059  0.000  0.000  0.000  0.000  0.000  0.000  0.000  0.000  0.059
    3  0.339  0.000  0.000  0.000  0.000  0.000  0.000  0.000  0.000  0.339
    4  0.339  0.000  0.000  0.000  0.000  0.000  0.000  0.000  0.000  0.339
tot    0.796  0.000  0.000  0.000  0.000  0.000  0.000  0.000  0.000  0.796
ion          s             py             pz             px             dxy            dyz            dz2            dxz          dx2-y2  
    1 -0.130  0.199  -0.000 -0.000   0.000  0.000   0.000 -0.000   0.000 -0.000   0.000 -0.000   0.000  0.000   0.000 -0.000   0.000  0.000   0.057
    2 -0.129  0.197  -0.000 -0.000  -0.000  0.000  -0.000 -0.000  -0.000  0.000  -0.000  0.000  -0.000  0.000  -0.000  0.000   0.000 -0.000   0.055
    3 -0.314  0.480  -0.001  0.001  -0.001  0.001  -0.001  0.001   0.000  0.000   0.000  0.000   0.000  0.000   0.000  0.000   0.000  0.000   0.329
    4 -0.314  0.480   0.001 -0.001   0.001 -0.001   0.001 -0.001   0.000  0.000   0.000  0.000   0.000  0.000   0.000  0.000   0.000  0.000   0.329
charge 0.769          0.000          0.000          0.000          0.000          0.000          0.000          0.000          0.000          0.769       
 
band     2 # energy  -10.87401691 # occ.  1.00000000
 
ion      s     py     pz     px    dxy    dyz    dz2    dxz  x2-y2    tot
    1  0.000  0.010  0.010  0.010  0.000  0.000  0.000  0.000  0.000  0.031
    2  0.000  0.010  0.010  0.010  0.000  0.000  0.000  0.000  0.000  0.030
    3  0.389  0.000  0.000  0.000  0.000  0.000  0.000  0.000  0.000  0.389
    4  0.389  0.000  0.000  0.000  0.000  0.000  0.000  0.000  0.000  0.389
tot    0.778  0.020  0.020  0.020  0.000  0.000  0.000  0.000  0.000  0.839
ion          s             py             pz             px             dxy            dyz            dz2            dxz          dx2-y2  
    1 -0.000 -0.000   0.095 -0.024   0.095 -0.024   0.095 -0.024  -0.000 -0.000   0.000  0.000   0.000 -0.000  -0.000  0.000  -0.000  0.000   0.029
    2  0.000  0.000  -0.095  0.024  -0.095  0.024  -0.095  0.024  -0.000  0.000   0.000 -0.000   0.000 -0.000   0.000  0.000   0.000  0.000   0.029
    3 -0.597  0.152  -0.002  0.000  -0.002  0.000  -0.002  0.000   0.000  0.000   0.000  0.000   0.000  0.000   0.000  0.000   0.000  0.000   0.380
    4  0.597 -0.152  -0.002  0.000  -0.002  0.000  -0.002  0.000   0.000  0.000   0.000  0.000   0.000  0.000   0.000  0.000   0.000  0.000   0.380
charge 0.759          0.019          0.019          0.019          0.000          0.000          0.000          0.000          0.000          0.817     


 k-point     3 :    0.25000000-0.00000000-0.00000000     weight = 0.09375000

band     1 # energy  -11.69643751 # occ.  1.00000000
 
ion      s     py     pz     px    dxy    dyz    dz2    dxz  x2-y2    tot
    1  0.037  0.001  0.001  0.008  0.000  0.000  0.000  0.000  0.001  0.050
    2  0.037  0.001  0.001  0.008  0.000  0.000  0.000  0.000  0.001  0.049
    3  0.357  0.000  0.000  0.000  0.000  0.000  0.000  0.000  0.000  0.357
    4  0.357  0.000  0.000  0.000  0.000  0.000  0.000  0.000  0.000  0.357
tot    0.787  0.003  0.003  0.018  0.000  0.000  0.001  0.000  0.003  0.814
ion          s             py             pz             px             dxy            dyz            dz2            dxz          dx2-y2  
    1 -0.087 -0.166  -0.031  0.016  -0.031  0.016   0.079 -0.042  -0.001 -0.002   0.000  0.001  -0.008 -0.015  -0.001 -0.002   0.014  0.026   0.047
    2 -0.087 -0.164  -0.031  0.016  -0.031  0.016   0.078 -0.041  -0.001 -0.002   0.000  0.000  -0.007 -0.013  -0.001 -0.002   0.012  0.023   0.046
    3 -0.276 -0.520  -0.007  0.002  -0.007  0.002   0.017 -0.011   0.000  0.000   0.000  0.000   0.000  0.000   0.000  0.000   0.000  0.000   0.347
    4 -0.274 -0.521  -0.006  0.005  -0.006  0.005   0.019 -0.008   0.000  0.000   0.000  0.000   0.000  0.000   0.000  0.000   0.000  0.000   0.347
charge 0.763          0.003          0.003          0.017          0.000          0.000          0.001          0.000          0.002          0.787       
 
band     2 # energy  -10.78153074 # occ.  1.00000000
 
ion      s     py     pz     px    dxy    dyz    dz2    dxz  x2-y2    tot
    1  0.000  0.009  0.009  0.002  0.000  0.000  0.003  0.000  0.010  0.033
    2  0.000  0.009  0.009  0.002  0.000  0.000  0.003  0.000  0.009  0.031
    3  0.392  0.000  0.000  0.000  0.000  0.000  0.000  0.000  0.000  0.392
    4  0.392  0.000  0.000  0.000  0.000  0.000  0.000  0.000  0.000  0.392
tot    0.785  0.017  0.017  0.003  0.000  0.000  0.007  0.000  0.020  0.849
ion          s             py             pz             px             dxy            dyz            dz2            dxz          dx2-y2  
    1  0.008  0.015   0.080 -0.042   0.080 -0.042   0.034 -0.018   0.000  0.000  -0.002 -0.003  -0.022 -0.042   0.000  0.000   0.038  0.073   0.027
    2 -0.007 -0.014  -0.079  0.042  -0.079  0.042  -0.034  0.018  -0.000 -0.000   0.002  0.003   0.020  0.038  -0.000 -0.000  -0.035 -0.066   0.025
    3 -0.547  0.290   0.001  0.005   0.001  0.005  -0.003 -0.001   0.000  0.000   0.000  0.000   0.000  0.000   0.000  0.000   0.000  0.000   0.383
    4  0.548 -0.287  -0.004 -0.003  -0.004 -0.003  -0.001  0.002   0.000  0.000   0.000  0.000   0.000  0.000   0.000  0.000   0.000  0.000   0.383
charge 0.766          0.016          0.016          0.003          0.000          0.000          0.004          0.000          0.012          0.818     
