LiFePO4 --> rm Li --> relax --> CHGCAR_sum
   1.00000000000000     
    10.450668    0.000000    0.000000
     0.000000    6.087351    0.000000
     0.000000    0.000000    4.751955
   Fe   P    O 
     4     4    16
Direct
  0.781585  0.250000  0.523680
  0.718415  0.750000  0.023682
  0.281585  0.250000  0.976319
  0.218415  0.750000  0.476319
  0.094702  0.250000  0.419018
  0.405298  0.750000  0.919019
  0.594702  0.250000  0.080980
  0.905298  0.750000  0.580981
  0.096655  0.250000  0.742557
  0.834386  0.547188  0.713840
  0.834386  0.952813  0.713840
  0.903346  0.750000  0.257444
  0.042717  0.750000  0.706143
  0.403345  0.750000  0.242556
  0.165614  0.047188  0.286161
  0.665614  0.452812  0.213839
  0.334386  0.547188  0.786161
  0.334386  0.952813  0.786161
  0.957283  0.250000  0.293858
  0.457283  0.250000  0.206142
  0.542717  0.750000  0.793859
  0.596655  0.250000  0.757445
  0.665614  0.047188  0.213839
  0.165614  0.452812  0.286161
 
   80   48   36
 1.65288944128E+00  1.71614261928E+00  1.91540219282E+00  2.27511822250E+00  2.82348143589E+00
 3.58553379576E+00  4.58020619357E+00  5.82090976662E+00  7.31085075289E+00  9.03163979971E+00
 1.09194467945E+01  1.28561560703E+01  1.46916496242E+01  1.63036451657E+01  1.76507492985E+01
 1.88023141564E+01  1.99329652096E+01  2.13126170739E+01  2.32745186207E+01  2.61667517179E+01
 3.02258265824E+01  3.54366938735E+01  4.14534785403E+01  4.75982876754E+01  5.29711274870E+01
 5.66544296491E+01  5.79736807870E+01  5.67358870397E+01  5.32688361654E+01  4.82647944705E+01
 4.25229571262E+01  3.67296223670E+01  3.13985672884E+01  2.68198666062E+01  2.30795181999E+01
 2.01136260188E+01  1.78100822792E+01  1.60978698965E+01  1.49339906831E+01  1.42736894423E+01
 1.40636309209E+01  1.42736905871E+01  1.49339954473E+01  1.60978825120E+01  1.78101093059E+01
 2.01136771912E+01  2.30796080472E+01  2.68200145341E+01  3.13987938168E+01  3.67299458527E+01
 4.25233906169E+01  4.82653411466E+01  5.32694846802E+01  5.67366082737E+01  5.79744280217E+01
 5.66551481624E+01  5.29717674040E+01  4.75988146958E+01  4.14538771797E+01  3.54369647259E+01
 3.02259808690E+01  2.61668063386E+01  2.32744919893E+01  2.13125266392E+01  1.99328270027E+01
 1.88021438533E+01  1.76505631184E+01  1.63034591794E+01  1.46914775452E+01  1.28560073197E+01
 1.09193257715E+01  9.03154652084E+00  7.31078219528E+00  5.82086145663E+00  4.58017349313E+00
 3.58551267477E+00  2.82346861674E+00  2.27511108416E+00  1.91539865233E+00  1.71614122389E+00
 1.68889981651E+00  1.80123313420E+00  2.05853660671E+00  2.49100785700E+00  3.13231336247E+00
 4.01242713711E+00  5.15712904375E+00  6.58703652038E+00  8.31316745214E+00  1.03178564080E+01
 1.25335690708E+01  1.48313080787E+01  1.70453303103E+01  1.90243063637E+01  2.06964895767E+01
 2.21058724064E+01  2.34188509393E+01  2.48925853530E+01  2.68407901131E+01  2.95530781538E+01
 3.31978953063E+01  3.77042067981E+01  4.26818705970E+01  4.74739678169E+01  5.13018603853E+01
 5.34559853055E+01  5.34954624832E+01  5.13849201628E+01  4.75247647007E+01  4.25909130145E+01
 3.73063799685E+01  3.22837264826E+01  2.79039352836E+01  2.43232900996E+01  2.15092124836E+01
 1.93335928480E+01  1.76657953162E+01  1.64235090588E+01  1.55885530539E+01  1.51584984080E+01
 1.51348028632E+01  1.55647356666E+01  1.65387324647E+01  1.81522564117E+01  2.04622560510E+01
 2.35178292938E+01  2.74008781379E+01  3.21560667882E+01  3.77101291783E+01  4.38191276246E+01
 5.00570027810E+01  5.58379029073E+01  6.04201940978E+01  6.30302986791E+01  6.30473976109E+01
 6.02730770019E+01  5.50813186120E+01  4.83035589870E+01  4.09682105457E+01  3.40207676195E+01
 2.81335430107E+01  2.36169714830E+01  2.04304784670E+01  1.83001523017E+01  1.68627938469E+01
 1.57724882082E+01  1.47643769106E+01  1.36565108927E+01  1.23597584939E+01  1.08810632038E+01
 9.30968621096E+00  7.76496156780E+00  6.34570543415E+00  5.10572636272E+00  4.06536743188E+00
 3.22779441203E+00  2.58862344037E+00  2.13494106818E+00  1.84726883202E+00  1.70377840403E+00
 1.79848580376E+00  1.96229055043E+00  2.28091085995E+00  2.78928354170E+00  3.52357437533E+00
 4.51724641605E+00  5.80045439653E+00  7.39998521987E+00  9.32978230431E+00  1.15765570343E+01
 1.40767005703E+01  1.67078670614E+01  1.93032408759E+01  2.17026311559E+01  2.38130332758E+01
 2.56649742404E+01  2.74194542526E+01  2.93346166363E+01  3.16825527557E+01  3.46688433292E+01
 3.83118534553E+01  4.23572022995E+01  4.63120454269E+01  4.95651836501E+01  5.15587899623E+01
 5.19234411853E+01  5.05456596298E+01  4.76060225146E+01  4.35330184345E+01  3.89145726614E+01
 3.43518000776E+01  3.02963204658E+01  2.69997255266E+01  2.44858737466E+01  2.26233013062E+01
 2.12188969434E+01  2.01171364626E+01  1.92608474444E+01  1.86633725971E+01  1.83829848007E+01
 1.85201315062E+01  1.92158618327E+01  2.06312333596E+01  2.28767598743E+01  2.60013894661E+01
 3.00366401364E+01  3.50019399146E+01  4.08487480435E+01  4.73367942384E+01  5.40063570485E+01
 6.02607269018E+01  6.54380364738E+01  6.88724502181E+01  6.99227331867E+01  6.81709747512E+01
 6.36393365360E+01  5.68698748154E+01  4.87977840625E+01  4.04704174744E+01  3.27981502957E+01
 2.63923594493E+01  2.15017809694E+01  1.80493734734E+01  1.57358666080E+01  1.41863834695E+01
 1.30721342897E+01  1.21389671250E+01  1.12088987512E+01  1.01755741972E+01  9.01778999852E+00
 7.78828468658E+00  6.57477953916E+00  5.45041722531E+00  4.45809472398E+00  3.61812053231E+00
 2.94126777014E+00  2.42834384392E+00  2.07085418920E+00  1.85430148673E+00  1.76543525808E+00
 1.98563584546E+00  2.20434968207E+00  2.59004019342E+00  3.17927643629E+00  4.00949379651E+00
 5.11463412314E+00  6.52552257807E+00  8.26788207302E+00  1.03587858950E+01  1.27904264674E+01
 1.55148205646E+01  1.84312876176E+01  2.13995498578E+01  2.42753607536E+01  2.69820451230E+01
 2.95762928551E+01  3.22804341532E+01  3.54140861499E+01  3.92492225961E+01  4.37919468262E+01
 4.86539605291E+01  5.30973249776E+01  5.62635673328E+01  5.75399788569E+01  5.67985603980E+01
 5.43549839976E+01  5.07304870616E+01  4.64282720914E+01  4.19070032155E+01  3.75939335171E+01
 3.38613339417E+01  3.09689938097E+01  2.89595469141E+01  2.76892942265E+01  2.69020443003E+01
 2.63380293837E+01  2.58141067821E+01  2.52677184162E+01  2.47802701590E+01  2.45331857648E+01
 2.47638320948E+01  2.57463860245E+01  2.77202868971E+01  3.08134602104E+01  3.50200664827E+01
 4.02835404900E+01  4.65460427155E+01  5.35956123732E+01  6.09395992252E+01  6.78489795132E+01
 7.35417960906E+01  7.73515407742E+01  7.87442861813E+01  7.73783209304E+01  7.31771040319E+01
 6.64655196127E+01  5.79828006014E+01  4.86973559787E+01  3.95790494905E+01  3.14146704259E+01
 2.47027761557E+01  1.96096931618E+01  1.59976636691E+01  1.35473709834E+01  1.19001326383E+01
 1.07461041434E+01  9.85707705520E+00  9.06128261025E+00  8.24393260424E+00  7.35937892753E+00
 6.43135779598E+00  5.51539269822E+00  4.66232909295E+00  3.90320498485E+00  3.25801770588E+00
 2.73932423134E+00  2.35123929398E+00  2.08768639164E+00  1.93980328833E+00  1.90354185924E+00
 2.25183982441E+00  2.53145463400E+00  2.99121045319E+00  3.66884786337E+00  4.60070389760E+00
 5.81931080868E+00  7.35075309669E+00  9.21622441504E+00  1.14284955487E+01  1.39895173616E+01
 1.68749098752E+01  2.00258966150E+01  2.33528787311E+01  2.67796410708E+01  3.03214790559E+01
 3.42026668737E+01  3.89035425752E+01  4.50316703575E+01  5.29143191996E+01  6.21254508126E+01
 7.12456660018E+01  7.82096067266E+01  8.11861224282E+01  7.94282911340E+01  7.36356759366E+01
 6.55602634729E+01  5.71094347955E+01  4.96177119621E+01  4.36413366532E+01  3.92558456678E+01
 3.63785474759E+01  3.48451093128E+01  3.44093661746E+01  3.46993074010E+01  3.52813136026E+01
 3.57460669644E+01  3.58233282425E+01  3.54859042783E+01  3.49436764368E+01  3.45609383498E+01
 3.47635347072E+01  3.59687965019E+01  3.85200210749E+01  4.25747975848E+01  4.80843595261E+01
 5.48766895714E+01  6.26830447364E+01  7.10548557891E+01  7.91922779625E+01  8.60138190324E+01
 9.05020824642E+01  9.20074598039E+01  9.03386022413E+01  8.56121048114E+01  7.82306896384E+01
 6.88870344575E+01  5.84900079934E+01  4.79992185731E+01  3.82357640581E+01  2.97882737761E+01
 2.29757678440E+01  1.78397259656E+01  1.41876736134E+01  1.16861378226E+01  9.98573798889E+00
 8.81196404371E+00  7.95973400400E+00  7.27106697914E+00  6.62623392541E+00  5.96540055443E+00
 5.28842076610E+00  4.62814685741E+00  4.01476751362E+00  3.46881709357E+00  3.00538023619E+00
 2.63684583889E+00  2.36612141333E+00  2.18939464378E+00  2.10429251082E+00  2.11883844374E+00
 2.59467538396E+00  2.94166333052E+00  3.48440917567E+00  4.25913839275E+00  5.30240400672E+00
 6.64409417856E+00  8.30323212932E+00  1.02865427609E+01  1.26011357316E+01  1.52542964018E+01
 1.82526728616E+01  2.15921335389E+01  2.52754110372E+01  2.93678946081E+01  3.41556481395E+01
 4.03452117579E+01  4.91453093777E+01  6.18581303471E+01  7.89056739005E+01  1.01852549259E+02
 1.24852638519E+02  1.42192114566E+02  1.47288829217E+02  1.38064668275E+02  1.18558662687E+02
 9.40966245870E+01  7.52437997983E+01  6.03187265845E+01  5.03507308961E+01  4.47893271134E+01
 4.25342934484E+01  4.25997129987E+01  4.41687118722E+01  4.65098027411E+01  4.88944639462E+01
 5.06645863927E+01  5.14056900322E+01  5.11282039009E+01  5.02805471462E+01  4.95241352740E+01
 4.95013710679E+01  5.07696076649E+01  5.37642659678E+01  5.87312977091E+01  6.56502659836E+01
 7.42509718196E+01  8.40406647483E+01  9.39969503167E+01  1.02961163468E+02  1.09409932425E+02
 1.11848803137E+02  1.09980097695E+02  1.04099372650E+02  9.50043762187E+01  8.36921652134E+01
 7.12354739143E+01  5.86900548919E+01  4.69386416639E+01  3.65948449827E+01  2.79912913914E+01
 2.12223220864E+01  1.61795095964E+01  1.25902332553E+01  1.01077189469E+01  8.41043460794E+00
 7.24790874249E+00  6.44109860116E+00  5.84219681932E+00  5.33495461232E+00  4.85181652540E+00
 4.38030997685E+00  3.93404646018E+00  3.52824531761E+00  3.17170277159E+00  2.87365211937E+00
 2.64064168741E+00  2.47437988340E+00  2.37325594393E+00  2.34402882657E+00  2.40707072835E+00
 3.00436814132E+00  3.42528109614E+00  4.05852403376E+00  4.94167552857E+00  6.11105819221E+00
 7.59551806827E+00  9.40187101769E+00  1.15221188687E+01  1.39443808197E+01  1.66809450134E+01
 1.97673225379E+01  2.32727722468E+01  2.73306232187E+01  3.22916155857E+01  3.90209577140E+01
 4.93007217068E+01  6.57950312922E+01  9.09403453562E+01  1.34384471925E+02  1.91271838633E+02
 2.55166557447E+02  3.05739029748E+02  3.20135339667E+02  2.90771758934E+02  2.32334123516E+02
 1.69069376056E+02  1.17973707056E+02  8.31875928149E+01  6.43797438125E+01  5.52852832844E+01
 5.29559551893E+01  5.47620966643E+01  5.89094921771E+01  6.40639707341E+01  6.89959029799E+01
 7.25468506241E+01  7.40043103986E+01  7.34824811399E+01  7.18505835246E+01  7.02438537123E+01
 6.96317424122E+01  7.06943261244E+01  7.39242012611E+01  7.96771159788E+01  8.80319288303E+01
 9.83380593121E+01  1.09799479175E+02  1.21354749840E+02  1.31232586576E+02  1.37243064039E+02
 1.37614818242E+02  1.31713960321E+02  1.20455411043E+02  1.05894401260E+02  8.99065120198E+01
 7.38969985613E+01  5.89659181810E+01  4.58585415225E+01  3.49316873815E+01  2.62239815948E+01
 1.95660809783E+01  1.46706124914E+01  1.11941826638E+01  8.78314293523E+00  7.12930173148E+00
 6.00979530249E+00  5.25803954570E+00  4.73952294994E+00  4.34314863928E+00  4.00328670214E+00
 3.69894331052E+00  3.43268684463E+00  3.20458885844E+00  3.01338850579E+00  2.85910407155E+00
 2.74418028438E+00  2.66682356820E+00  2.62980127122E+00  2.64911672752E+00  2.75978269248E+00
 3.46192575589E+00  3.95840083083E+00  4.68879547285E+00  5.69175573507E+00  7.00757563763E+00
 8.66231988794E+00  1.06513234161E+01  1.29379071411E+01  1.54948176056E+01  1.83276205942E+01
 2.15027170848E+01  2.51693985790E+01  2.96653415956E+01  3.58089340766E+01  4.55273256242E+01
 6.24452170624E+01  9.14194397158E+01  1.49812324400E+02  2.46993132667E+02  3.95317290972E+02
 5.78137449033E+02  7.34162805686E+02  7.83004715630E+02  6.94401123556E+02  5.19656648219E+02
 3.41014827689E+02  2.08679496240E+02  1.29337585345E+02  8.81859081761E+01  7.16983190988E+01
 6.78805496134E+01  7.14784557043E+01  7.90218782651E+01  8.81884347644E+01  9.68423430161E+01
 1.02933821445E+02  1.05196743513E+02  1.03859864006E+02  1.00489525760E+02  9.70622338341E+01
 9.51232436887E+01  9.55681237101E+01  9.88675570211E+01  1.05201219751E+02  1.13929479931E+02
 1.25048701126E+02  1.38635870255E+02  1.52829468013E+02  1.63850546872E+02  1.68522367024E+02
 1.65725833524E+02  1.55571464540E+02  1.38998660735E+02  1.18371136200E+02  9.70030305060E+01
 7.70666357834E+01  5.95748460699E+01  4.50312584316E+01  3.34866518904E+01  2.46576954775E+01
 1.81044568082E+01  1.33664751115E+01  1.00172849483E+01  7.69246195394E+00  6.10693073193E+00
 5.04699264967E+00  4.35844983089E+00  3.91240475220E+00  3.60927804544E+00  3.38694057004E+00
 3.22225390738E+00  3.10599016522E+00  3.02803594249E+00  2.97630302301E+00  2.94436113111E+00
 2.92755310029E+00  2.92394559394E+00  2.94009122862E+00  3.00319096673E+00  3.15911609777E+00
 3.93336279326E+00  4.50218386744E+00  5.33228937056E+00  6.46455443269E+00  7.94829132567E+00
 9.79832475390E+00  1.19922450370E+01  1.44721936762E+01  1.71907652922E+01  2.01428154583E+01
 2.34265968537E+01  2.72755329915E+01  3.23006244137E+01  4.00272452742E+01  5.39480722340E+01
 8.02252732698E+01  1.36513380913E+02  2.49414280401E+02  4.67616554737E+02  8.38791091482E+02
 1.34319155119E+03  1.80865736621E+03  1.96959303600E+03  1.71580875641E+03  1.21313800770E+03
 7.24359713800E+02  3.90888078468E+02  2.09984250477E+02  1.26600444045E+02  9.40449940341E+01
 8.68458658811E+01  9.21517740092E+01  1.04118387370E+02  1.18909055290E+02  1.32921883962E+02
 1.42610945850E+02  1.45750128994E+02  1.42736792564E+02  1.36183471564E+02  1.29405685740E+02
 1.24963607783E+02  1.24193622663E+02  1.27343824705E+02  1.33128455196E+02  1.41483087548E+02
 1.55540405479E+02  1.78074028787E+02  2.03035882128E+02  2.16080664372E+02  2.11872642413E+02
 1.98004264810E+02  1.79944498330E+02  1.57611257946E+02  1.31579104663E+02  1.04783366652E+02
 8.07406312222E+01  6.06306831127E+01  4.46184462340E+01  3.24183354590E+01  2.34202746358E+01
 1.69265155606E+01  1.23025117136E+01  9.06209575439E+00  6.82937601033E+00  5.32091185491E+00
 4.32625876298E+00  3.69703859018E+00  3.31511665564E+00  3.09093522510E+00  2.96604066424E+00
 2.91623125318E+00  2.92229412236E+00  2.96726785737E+00  3.02869247067E+00  3.09609263968E+00
 3.15822159917E+00  3.21524325883E+00  3.27547961443E+00  3.37808049955E+00  3.57554237249E+00
 4.37112502315E+00  5.00757144701E+00  5.92907216722E+00  7.19751511434E+00  8.85171757065E+00
 1.09029166883E+01  1.33136593189E+01  1.60071387414E+01  1.88934486880E+01  2.19744720245E+01
 2.53624590902E+01  2.94235920785E+01  3.50569376413E+01  4.46980968527E+01  6.37159304517E+01
 1.04885839026E+02  1.96862242442E+02  4.04745286321E+02  8.49971537942E+02  1.68638193432E+03
 2.91355390423E+03  4.08147932024E+03  4.49813489660E+03  3.90714239612E+03  2.67541784091E+03
 1.48306229728E+03  7.16821622990E+02  3.37673888775E+02  1.78699613482E+02  1.20395646225E+02
 1.08059896646E+02  1.14952219388E+02  1.32312162418E+02  1.54220965870E+02  1.75116090277E+02
 1.89321301629E+02  1.93378705427E+02  1.87783575687E+02  1.76590778765E+02  1.64858423502E+02
 1.56678124652E+02  1.54032015036E+02  1.56217690775E+02  1.60755814756E+02  1.70970935133E+02
 2.00827012721E+02  2.64928502260E+02  3.39167929380E+02  3.58069845160E+02  3.09172814140E+02
 2.48487759533E+02  2.06441816422E+02  1.74819399734E+02  1.43794407312E+02  1.12591608608E+02
 8.46472742819E+01  6.20434099051E+01  4.46362332972E+01  3.17581686324E+01  2.25405491025E+01
 1.60292977058E+01  1.14790156405E+01  8.32002051236E+00  6.17664405357E+00  4.74495116882E+00
 3.82033440100E+00  3.23939728136E+00  2.91014664355E+00  2.74644530865E+00  2.70247650284E+00
 2.74014471598E+00  2.84348521959E+00  2.97920907851E+00  3.13039896178E+00  3.27183552027E+00
 3.39834139045E+00  3.50016111739E+00  3.60005364429E+00  3.73348411481E+00  3.96970450907E+00
 4.72888349723E+00  5.41779286697E+00  6.41822006503E+00  7.80776915863E+00  9.61167938917E+00
 1.18518200618E+01  1.44641058624E+01  1.73409133926E+01  2.03796453004E+01  2.35792924202E+01
 2.70624803425E+01  3.13102244136E+01  3.75588660479E+01  4.91238208322E+01  7.32287429016E+01
 1.30276862411E+02  2.67305530388E+02  6.02807131306E+02  1.38281518652E+03  2.94564033281E+03
 5.18744841525E+03  6.91649471730E+03  7.78153725180E+03  7.32682128030E+03  4.99078595850E+03
 2.66908277946E+03  1.18994898445E+03  5.04240549196E+02  2.38873786821E+02  1.49171461297E+02
 1.28185791348E+02  1.36474430830E+02  1.59376830770E+02  1.88817099723E+02  2.16984328916E+02
 2.35901360173E+02  2.40718745187E+02  2.32145216881E+02  2.15705146282E+02  1.98374397855E+02
 1.85872317177E+02  1.80908021607E+02  1.81442647369E+02  1.85349841111E+02  2.04308061287E+02
 2.82019228640E+02  4.74383595860E+02  7.10652892740E+02  7.47026267900E+02  5.47316268640E+02
 3.44212994310E+02  2.39576652327E+02  1.90026522888E+02  1.53661125730E+02  1.19276029689E+02
 8.82793830483E+01  6.35794348458E+01  4.49531917690E+01  3.14638613490E+01  2.19911002228E+01
 1.54161464518E+01  1.08821056281E+01  7.78582840171E+00  5.72056083198E+00  4.36092421217E+00
 3.49157125979E+00  2.95302776056E+00  2.65872732354E+00  2.53934704026E+00  2.55283815279E+00
 2.65424823931E+00  2.82427176312E+00  3.02463051697E+00  3.23716353624E+00  3.43227625755E+00
 3.60435857456E+00  3.74139269729E+00  3.87054500500E+00  4.02924729911E+00  4.29372617741E+00
 4.96434547202E+00  5.68485446046E+00  6.74187558888E+00  8.21251564016E+00  1.01259523828E+01
 1.25014459931E+01  1.52460068284E+01  1.82441255100E+01  2.13898204262E+01  2.46744534637E+01
 2.82346707490E+01  3.26154472668E+01  3.93260198454E+01  5.23496320119E+01  8.02490979900E+01
 1.50654963226E+02  3.27412000456E+02  7.83077848353E+02  1.89686346563E+03  4.14460993825E+03
 6.65767386920E+03  7.58286242940E+03  2.27385826066E+04  2.58510435265E+04  8.38377318810E+03
 3.90723780300E+03  1.66635178082E+03  6.59626790320E+02  2.90178634546E+02  1.70717457072E+02
 1.42859858117E+02  1.52171904564E+02  1.79378641030E+02  2.14731691293E+02  2.48548821065E+02
 2.71077420187E+02  2.76375015659E+02  2.65379387727E+02  2.44705621731E+02  2.22880676178E+02
 2.06838474427E+02  1.99841546442E+02  1.98879614417E+02  2.03260554696E+02  2.37078137083E+02
 3.92078514220E+02  8.07754180436E+02  1.35233460615E+03  1.42240112963E+03  9.31588699330E+02
 4.78139783510E+02  2.75612344356E+02  2.01761945800E+02  1.60223963971E+02  1.23784978783E+02
 9.09205189174E+01  6.48006488647E+01  4.53204294649E+01  3.13918676089E+01  2.16964250299E+01
 1.50538724753E+01  1.05149399682E+01  7.46603483662E+00  5.44863494006E+00  4.14766157757E+00
 3.31029185460E+00  2.80148258163E+00  2.52470508649E+00  2.43458260008E+00  2.47914790048E+00
 2.62212843846E+00  2.82804590966E+00  3.06838887484E+00  3.31438413384E+00  3.54455659150E+00
 3.74255981790E+00  3.90380423062E+00  4.04984932415E+00  4.22666810878E+00  4.50649809211E+00
 5.04644480266E+00  5.77775408929E+00  6.85515388769E+00  8.35465216380E+00  1.03087066946E+01
 1.27316582725E+01  1.55237947316E+01  1.85650045114E+01  2.17493924665E+01  2.50641277385E+01
 2.86522792929E+01  3.30825147797E+01  3.99661921208E+01  5.35356007326E+01  8.28429533653E+01
 1.58559963235E+02  3.51490568380E+02  8.57795922598E+02  2.11509300223E+03  4.61767073376E+03
 6.74644833610E+03  8.70130364640E+03  7.60820252990E+04  8.43463555527E+04  1.23106545618E+04
 4.46779746600E+03  1.87481057255E+03  7.25070384610E+02  3.10780146249E+02  1.78937042266E+02
 1.48274301076E+02  1.57954957190E+02  1.86792673773E+02  2.24400248092E+02  2.60369659334E+02
 2.84259723308E+02  2.89709112525E+02  2.77772452440E+02  2.55476397455E+02  2.31922017481E+02
 2.14513392266E+02  2.06688483295E+02  2.05149573765E+02  2.10000164335E+02  2.52024502441E+02
 4.50028654230E+02  9.97664536218E+02  1.73586733504E+03  1.82754955639E+03  1.15244860461E+03
 5.49701713000E+02  2.92887255190E+02  2.06449064288E+02  1.62560996964E+02  1.25379862532E+02
 9.19061122679E+01  6.52737890561E+01  4.54844668565E+01  3.13910937015E+01  2.16111970176E+01
 1.49391011933E+01  1.03911238669E+01  7.35603863879E+00  5.35962829354E+00  4.07867931518E+00
 3.25360039392E+00  2.75437038535E+00  2.48364846372E+00  2.40280614515E+00  2.45799351151E+00
 2.61424414470E+00  2.83216224459E+00  3.08566744769E+00  3.34274407602E+00  3.58434556307E+00
 3.79121134621E+00  3.96109919080E+00  4.11288101983E+00  4.29600483256E+00  4.58087084126E+00
 4.96434547202E+00  5.68485446046E+00  6.74187558888E+00  8.21251564016E+00  1.01259523828E+01
 1.25014459931E+01  1.52460068284E+01  1.82441255100E+01  2.13898204262E+01  2.46744534637E+01
 2.82346707490E+01  3.26154472668E+01  3.93260198454E+01  5.23496320119E+01  8.02490979900E+01
 1.50654963226E+02  3.27412000456E+02  7.83077848353E+02  1.89686346563E+03  4.14460993825E+03
 6.65767386920E+03  7.58286242940E+03  2.27385826066E+04  2.58510435265E+04  8.38377318810E+03
 3.90723780300E+03  1.66635178082E+03  6.59626790320E+02  2.90178634546E+02  1.70717457072E+02
 1.42859858117E+02  1.52171904564E+02  1.79378641030E+02  2.14731691293E+02  2.48548821065E+02
 2.71077420187E+02  2.76375015659E+02  2.65379387727E+02  2.44705621731E+02  2.22880676178E+02
 2.06838474427E+02  1.99841546442E+02  1.98879614417E+02  2.03260554696E+02  2.37078137083E+02
 3.92078514220E+02  8.07754180436E+02  1.35233460615E+03  1.42240112963E+03  9.31588699330E+02
 4.78139783510E+02  2.75612344356E+02  2.01761945800E+02  1.60223963971E+02  1.23784978783E+02
 9.09205189174E+01  6.48006488647E+01  4.53204294649E+01  3.13918676089E+01  2.16964250299E+01
 1.50538724753E+01  1.05149399682E+01  7.46603483663E+00  5.44863494006E+00  4.14766157757E+00
 3.31029185460E+00  2.80148258163E+00  2.52470508648E+00  2.43458260008E+00  2.47914790048E+00
 2.62212843846E+00  2.82804590966E+00  3.06838887484E+00  3.31438413384E+00  3.54455659150E+00
 3.74255981790E+00  3.90380423062E+00  4.04984932415E+00  4.22666810877E+00  4.50649809212E+00
 4.72888349724E+00  5.41779286697E+00  6.41822006503E+00  7.80776915863E+00  9.61167938917E+00
 1.18518200618E+01  1.44641058624E+01  1.73409133926E+01  2.03796453004E+01  2.35792924202E+01
 2.70624803425E+01  3.13102244136E+01  3.75588660479E+01  4.91238208322E+01  7.32287429016E+01
 1.30276862411E+02  2.67305530388E+02  6.02807131306E+02  1.38281518652E+03  2.94564033281E+03
 5.18744841525E+03  6.91649471730E+03  7.78153725180E+03  7.32682128030E+03  4.99078595850E+03
 2.66908277946E+03  1.18994898445E+03  5.04240549196E+02  2.38873786821E+02  1.49171461297E+02
 1.28185791348E+02  1.36474430830E+02  1.59376830770E+02  1.88817099723E+02  2.16984328916E+02
 2.35901360173E+02  2.40718745187E+02  2.32145216881E+02  2.15705146282E+02  1.98374397855E+02
 1.85872317177E+02  1.80908021607E+02  1.81442647369E+02  1.85349841111E+02  2.04308061287E+02
 2.82019228640E+02  4.74383595860E+02  7.10652892740E+02  7.47026267900E+02  5.47316268640E+02
 3.44212994310E+02  2.39576652327E+02  1.90026522888E+02  1.53661125730E+02  1.19276029689E+02
 8.82793830483E+01  6.35794348458E+01  4.49531917690E+01  3.14638613490E+01  2.19911002228E+01
 1.54161464518E+01  1.08821056281E+01  7.78582840171E+00  5.72056083198E+00  4.36092421217E+00
 3.49157125979E+00  2.95302776056E+00  2.65872732354E+00  2.53934704026E+00  2.55283815279E+00
 2.65424823931E+00  2.82427176312E+00  3.02463051697E+00  3.23716353624E+00  3.43227625755E+00
 3.60435857456E+00  3.74139269729E+00  3.87054500499E+00  4.02924729911E+00  4.29372617741E+00
 4.37112502315E+00  5.00757144701E+00  5.92907216721E+00  7.19751511434E+00  8.85171757065E+00
 1.09029166883E+01  1.33136593189E+01  1.60071387414E+01  1.88934486880E+01  2.19744720245E+01
 2.53624590902E+01  2.94235920785E+01  3.50569376413E+01  4.46980968527E+01  6.37159304517E+01
 1.04885839026E+02  1.96862242442E+02  4.04745286321E+02  8.49971537942E+02  1.68638193432E+03
 2.91355390423E+03  4.08147932024E+03  4.49813489660E+03  3.90714239612E+03  2.67541784091E+03
 1.48306229728E+03  7.16821622990E+02  3.37673888775E+02  1.78699613482E+02  1.20395646225E+02
 1.08059896646E+02  1.14952219388E+02  1.32312162418E+02  1.54220965870E+02  1.75116090277E+02
 1.89321301629E+02  1.93378705427E+02  1.87783575687E+02  1.76590778765E+02  1.64858423502E+02
 1.56678124652E+02  1.54032015036E+02  1.56217690775E+02  1.60755814756E+02  1.70970935133E+02
 2.00827012721E+02  2.64928502260E+02  3.39167929380E+02  3.58069845160E+02  3.09172814140E+02
 2.48487759533E+02  2.06441816422E+02  1.74819399734E+02  1.43794407312E+02  1.12591608608E+02
 8.46472742819E+01  6.20434099051E+01  4.46362332972E+01  3.17581686324E+01  2.25405491025E+01
 1.60292977058E+01  1.14790156405E+01  8.32002051236E+00  6.17664405357E+00  4.74495116882E+00
 3.82033440100E+00  3.23939728136E+00  2.91014664355E+00  2.74644530865E+00  2.70247650284E+00
 2.74014471598E+00  2.84348521958E+00  2.97920907851E+00  3.13039896178E+00  3.27183552027E+00
 3.39834139045E+00  3.50016111739E+00  3.60005364429E+00  3.73348411481E+00  3.96970450907E+00
 3.93336279326E+00  4.50218386744E+00  5.33228937056E+00  6.46455443270E+00  7.94829132567E+00
 9.79832475390E+00  1.19922450370E+01  1.44721936762E+01  1.71907652922E+01  2.01428154583E+01
 2.34265968537E+01  2.72755329915E+01  3.23006244137E+01  4.00272452742E+01  5.39480722340E+01
 8.02252732698E+01  1.36513380913E+02  2.49414280401E+02  4.67616554737E+02  8.38791091482E+02
 1.34319155119E+03  1.80865736621E+03  1.96959303600E+03  1.71580875641E+03  1.21313800770E+03
 7.24359713800E+02  3.90888078468E+02  2.09984250477E+02  1.26600444045E+02  9.40449940341E+01
 8.68458658811E+01  9.21517740092E+01  1.04118387370E+02  1.18909055290E+02  1.32921883962E+02
 1.42610945850E+02  1.45750128994E+02  1.42736792564E+02  1.36183471564E+02  1.29405685740E+02
 1.24963607783E+02  1.24193622663E+02  1.27343824705E+02  1.33128455196E+02  1.41483087548E+02
 1.55540405479E+02  1.78074028787E+02  2.03035882128E+02  2.16080664372E+02  2.11872642413E+02
 1.98004264810E+02  1.79944498330E+02  1.57611257946E+02  1.31579104663E+02  1.04783366652E+02
 8.07406312222E+01  6.06306831127E+01  4.46184462340E+01  3.24183354590E+01  2.34202746358E+01
 1.69265155606E+01  1.23025117136E+01  9.06209575439E+00  6.82937601033E+00  5.32091185491E+00
 4.32625876298E+00  3.69703859018E+00  3.31511665564E+00  3.09093522509E+00  2.96604066423E+00
 2.91623125318E+00  2.92229412236E+00  2.96726785737E+00  3.02869247067E+00  3.09609263968E+00
 3.15822159917E+00  3.21524325883E+00  3.27547961443E+00  3.37808049955E+00  3.57554237249E+00
 3.46192575589E+00  3.95840083083E+00  4.68879547285E+00  5.69175573507E+00  7.00757563763E+00
 8.66231988794E+00  1.06513234161E+01  1.29379071411E+01  1.54948176056E+01  1.83276205942E+01
 2.15027170848E+01  2.51693985790E+01  2.96653415956E+01  3.58089340766E+01  4.55273256242E+01
 6.24452170624E+01  9.14194397158E+01  1.49812324400E+02  2.46993132667E+02  3.95317290972E+02
 5.78137449033E+02  7.34162805686E+02  7.83004715630E+02  6.94401123556E+02  5.19656648219E+02
 3.41014827689E+02  2.08679496240E+02  1.29337585345E+02  8.81859081761E+01  7.16983190988E+01
 6.78805496134E+01  7.14784557043E+01  7.90218782651E+01  8.81884347644E+01  9.68423430161E+01
 1.02933821445E+02  1.05196743513E+02  1.03859864006E+02  1.00489525760E+02  9.70622338341E+01
 9.51232436887E+01  9.55681237101E+01  9.88675570211E+01  1.05201219751E+02  1.13929479931E+02
 1.25048701126E+02  1.38635870255E+02  1.52829468013E+02  1.63850546872E+02  1.68522367024E+02
 1.65725833524E+02  1.55571464540E+02  1.38998660735E+02  1.18371136200E+02  9.70030305060E+01
 7.70666357834E+01  5.95748460699E+01  4.50312584316E+01  3.34866518904E+01  2.46576954775E+01
 1.81044568082E+01  1.33664751115E+01  1.00172849483E+01  7.69246195394E+00  6.10693073193E+00
 5.04699264967E+00  4.35844983089E+00  3.91240475220E+00  3.60927804544E+00  3.38694057004E+00
 3.22225390738E+00  3.10599016522E+00  3.02803594249E+00  2.97630302301E+00  2.94436113111E+00
 2.92755310029E+00  2.92394559394E+00  2.94009122862E+00  3.00319096673E+00  3.15911609777E+00
 3.00436814132E+00  3.42528109614E+00  4.05852403376E+00  4.94167552857E+00  6.11105819221E+00
 7.59551806827E+00  9.40187101769E+00  1.15221188687E+01  1.39443808197E+01  1.66809450134E+01
 1.97673225379E+01  2.32727722468E+01  2.73306232187E+01  3.22916155857E+01  3.90209577140E+01
 4.93007217068E+01  6.57950312922E+01  9.09403453562E+01  1.34384471925E+02  1.91271838633E+02
 2.55166557447E+02  3.05739029748E+02  3.20135339667E+02  2.90771758934E+02  2.32334123516E+02
 1.69069376056E+02  1.17973707056E+02  8.31875928149E+01  6.43797438125E+01  5.52852832844E+01
 5.29559551893E+01  5.47620966643E+01  5.89094921771E+01  6.40639707341E+01  6.89959029799E+01
 7.25468506241E+01  7.40043103986E+01  7.34824811399E+01  7.18505835246E+01  7.02438537123E+01
 6.96317424122E+01  7.06943261244E+01  7.39242012611E+01  7.96771159788E+01  8.80319288303E+01
 9.83380593121E+01  1.09799479175E+02  1.21354749840E+02  1.31232586576E+02  1.37243064039E+02
 1.37614818242E+02  1.31713960321E+02  1.20455411043E+02  1.05894401260E+02  8.99065120198E+01
 7.38969985613E+01  5.89659181810E+01  4.58585415225E+01  3.49316873815E+01  2.62239815948E+01
 1.95660809783E+01  1.46706124914E+01  1.11941826638E+01  8.78314293523E+00  7.12930173148E+00
 6.00979530249E+00  5.25803954570E+00  4.73952294994E+00  4.34314863928E+00  4.00328670214E+00
 3.69894331052E+00  3.43268684463E+00  3.20458885843E+00  3.01338850579E+00  2.85910407155E+00
 2.74418028437E+00  2.66682356820E+00  2.62980127122E+00  2.64911672752E+00  2.75978269248E+00
 2.59467538396E+00  2.94166333052E+00  3.48440917567E+00  4.25913839275E+00  5.30240400672E+00