 vasp.5.4.1 24Jun15 (build Sep 07 2016 16:06:19) complex                        
  
 executed on           IFC91_ompi date 2016.09.22  13:56:26
 running on   24 total cores
 distrk:  each k-point on   24 cores,    1 groups
 distr:  one band on NCORES_PER_BAND=   6 cores,    4 groups


--------------------------------------------------------------------------------------------------------


 INCAR:
 POTCAR:   PAW_PBE Fe_pv 06Sep2000                
 POTCAR:   PAW_PBE Fe_pv 06Sep2000                
   VRHFIN =Fe:  3pd7s1                                                          
   LEXCH  = PE                                                                  
   EATOM  =  2456.8974 eV,  180.5769 Ry                                         
                                                                                
   TITEL  = PAW_PBE Fe_pv 06Sep2000                                             
   LULTRA =        F    use ultrasoft PP ?                                      
   IUNSCR =        1    unscreen: 0-lin 1-nonlin 2-no                           
   RPACOR =    1.750    partial core radius                                     
   POMASS =   55.847; ZVAL   =   14.000    mass and valenz                      
   RCORE  =    2.200    outmost cutoff radius                                   
   RWIGS  =    2.200; RWIGS  =    1.164    wigner-seitz radius (au A)           
   ENMAX  =  293.238; ENMIN  =  219.929 eV                                      
   RCLOC  =    1.701    cutoff for local pot                                    
   LCOR   =        T    correct aug charges                                     
   LPAW   =        T    paw PP                                                  
   EAUG   =  578.342                                                            
   DEXC   =    -.002                                                            
   RMAX   =    2.693    core radius for proj-oper                               
   RAUG   =    1.300    factor for augmentation sphere                          
   RDEP   =    2.296    radius for radial grids                                 
   QCUT   =   -4.642; QGAM   =    9.285    optimization parameters              
                                                                                
   Description                                                                  
     l     E      TYP  RCUT    TYP  RCUT                                        
     1   .000     23  2.000                                                     
     1  -.400     23  2.000                                                     
     2   .000     23  2.200                                                     
     2   .000     23  2.200                                                     
     0   .000     23  2.000                                                     
     0  2.000     23  2.000                                                     
     3   .000      7   .000                                                     
  local pseudopotential read in
  partial core-charges read in
  atomic valenz-charges read in
  non local Contribution for L=           1  read in
    real space projection operators read in
  non local Contribution for L=           1  read in
    real space projection operators read in
  non local Contribution for L=           2  read in
    real space projection operators read in
  non local Contribution for L=           2  read in
    real space projection operators read in
  non local Contribution for L=           0  read in
    real space projection operators read in
  non local Contribution for L=           0  read in
    real space projection operators read in
    PAW grid and wavefunctions read in
 
   number of l-projection  operators is LMAX  =           6
   number of lm-projection operators is LMMAX =          18
 
 Optimization of the real space projectors (new method)

 maximal supplied QI-value         = 17.01
 optimisation between [QCUT,QGAM] = [ 11.57, 23.30] = [ 37.45,152.03] Ry 
 Optimized for a Real-space Cutoff    1.45 Angstroem

   l    n(q)    QCUT    max X(q) W(low)/X(q) W(high)/X(q)  e(spline) 
   1     10    11.565     4.550    0.21E-05    0.66E-06    0.28E-07
   1     10    11.565     5.234    0.44E-04    0.87E-04    0.16E-06
   2      9    11.565     3.960    0.23E-04    0.11E-05    0.56E-07
   2      9    11.565    29.565    0.22E-03    0.64E-04    0.31E-06
   0     10    11.565    23.582    0.16E-04    0.27E-05    0.12E-07
   0     10    11.565    39.747    0.24E-04    0.76E-05    0.87E-07
 PAW_PBE Fe_pv 06Sep2000                :
 energy of atom  1       EATOM=-2456.8974
 kinetic energy error for atom=    0.0062 (will be added to EATOM!!)
 
 
 POSCAR: Fe31                                    
  positions in direct lattice
  No initial velocities read in
 exchange correlation table for  LEXCH =        8
   RHO(1)=    0.500       N(1)  =     2000
   RHO(2)=  100.500       N(2)  =     4000

 VTST: version 3.1, (03/28/14)

 CHAIN: initializing optimizer
 
 OPT: Using VASP Conjugate-Gradient optimizer
 CHAIN: Read ICHAIN            0
 
 POSCAR: Fe31                                    
  positions in direct lattice
  No initial velocities read in
 


--------------------------------------------------------------------------------------------------------


 ion  position               nearest neighbor table
   1  0.001  0.999  0.500-  16 2.56  17 2.56  10 2.56  11 2.56  27 2.56  31 2.57  25 2.57  21 2.57
                             9 2.57   8 2.57  29 2.57  20 2.58
   2  0.999  0.501  0.999-  23 2.56  26 2.56  11 2.56  28 2.57  18 2.57  30 2.57  10 2.57   9 2.57
                            19 2.57   8 2.58  22 2.58  24 2.58
   3  0.999  0.500  0.499-  22 2.55   8 2.56  29 2.56  23 2.56  31 2.56  25 2.57  27 2.57  18 2.57
                            10 2.57  11 2.57  19 2.57   9 2.58
   4  0.499  0.999  0.000-  24 2.56  14 2.56  30 2.57  16 2.57  12 2.57  26 2.57  20 2.57  17 2.57
                            15 2.57  13 2.58  28 2.58  21 2.59
   5  0.499  0.999  0.499-  14 2.55  20 2.56  12 2.56  16 2.56  27 2.57  15 2.57  31 2.57  21 2.57
                            17 2.58  25 2.58  13 2.58  29 2.58
   6  0.501  0.499  0.000-  13 2.56  30 2.57  22 2.57  28 2.57  15 2.57  23 2.57  12 2.57  18 2.58
                            24 2.58  14 2.58  19 2.58  26 2.58
   7  0.501  0.499  0.500-  22 2.55  13 2.56  29 2.57  23 2.57  12 2.57  19 2.57  15 2.57  25 2.57
                            27 2.57  14 2.57  31 2.57  18 2.58
   8  0.999  0.251  0.251-   3 2.56  29 2.56  25 2.56  22 2.56  18 2.56  28 2.56   1 2.57  20 2.58
                             2 2.58  16 2.58  24 2.58
   9  0.000  0.249  0.750-  17 2.56  21 2.56  28 2.56  29 2.56  24 2.56  25 2.57  23 2.57   1 2.57
                             2 2.57  19 2.58   3 2.58
  10  1.000  0.751  0.249-  16 2.56  26 2.56  30 2.56   1 2.56  20 2.57   2 2.57  18 2.57  31 2.57
                             3 2.57  22 2.58  27 2.58
  11  0.999  0.750  0.750-  31 2.55  21 2.56  23 2.56   1 2.56   2 2.56  17 2.57  27 2.57  26 2.57
                            30 2.57  19 2.57   3 2.57
  12  0.501  0.249  0.250-  20 2.55   5 2.56   7 2.57   4 2.57  22 2.57  25 2.57  29 2.57  28 2.57
                             6 2.57  16 2.58  24 2.58  18 2.58
  13  0.499  0.251  0.750-   7 2.56  24 2.56   6 2.56  19 2.56  25 2.57  23 2.57  29 2.58  17 2.58
                             4 2.58  28 2.58  21 2.58   5 2.58
  14  0.499  0.751  0.251-   5 2.55  16 2.56  20 2.56   4 2.56  27 2.57  30 2.57   7 2.57  26 2.57
                            18 2.58  22 2.58  31 2.58   6 2.58
  15  0.501  0.749  0.750-  31 2.56  30 2.57  19 2.57  23 2.57   7 2.57   4 2.57  21 2.57   6 2.57
                             5 2.57  27 2.57  17 2.58  26 2.58
  16  0.250  0.999  0.250-  14 2.56  10 2.56   1 2.56   5 2.56   4 2.57  26 2.57  27 2.57  25 2.57
                            24 2.57  12 2.58   8 2.58
  17  0.249  1.000  0.750-   9 2.56   1 2.56  24 2.56  11 2.57   4 2.57  26 2.57  27 2.57   5 2.58
                            13 2.58  25 2.58  15 2.58
  18  0.249  0.500  0.249-  26 2.56   8 2.56  25 2.57   2 2.57   3 2.57  10 2.57  27 2.57  24 2.57
                             6 2.58  14 2.58  12 2.58   7 2.58
  19  0.250  0.501  0.749-  27 2.55  13 2.56  26 2.57  15 2.57  25 2.57   7 2.57  11 2.57   2 2.57
                             3 2.57   6 2.58   9 2.58  24 2.58
  20  0.749  0.000  0.250-  12 2.55   5 2.56  30 2.56  14 2.56  28 2.57   4 2.57  29 2.57  10 2.57
                            31 2.57   8 2.58   1 2.58
  21  0.751  0.000  0.749-  29 2.56  31 2.56   9 2.56  11 2.56   1 2.57  28 2.57  15 2.57   5 2.57
                            30 2.58  13 2.58   4 2.59
  22  0.750  0.500  0.251-   3 2.55   7 2.55   8 2.56  29 2.57   6 2.57  12 2.57  31 2.57  10 2.58
                            30 2.58  14 2.58   2 2.58  28 2.58
  23  0.751  0.500  0.749-   2 2.56   3 2.56  11 2.56  29 2.56  31 2.56   7 2.57  15 2.57   9 2.57
                             6 2.57  13 2.57  28 2.57  30 2.58
  24  0.250  0.249  0.999-   4 2.56  13 2.56  17 2.56   9 2.56  18 2.57  16 2.57  12 2.58   6 2.58
                            19 2.58   8 2.58   2 2.58
  25  0.249  0.251  0.499-   8 2.56   1 2.57  18 2.57   3 2.57   9 2.57  19 2.57   7 2.57  12 2.57
                            13 2.57  16 2.57   5 2.58  17 2.58
  26  0.249  0.749  0.000-  10 2.56   2 2.56  18 2.56  19 2.57  16 2.57   4 2.57  17 2.57  11 2.57
                            14 2.57   6 2.58  15 2.58
  27  0.250  0.749  0.501-  19 2.55   1 2.56  14 2.57   3 2.57   5 2.57  16 2.57  11 2.57  17 2.57
                            18 2.57  15 2.57   7 2.57  10 2.58
  28  0.751  0.249  1.000-   9 2.56   8 2.56  20 2.57   2 2.57  21 2.57   6 2.57  12 2.57  23 2.57
                            22 2.58  13 2.58   4 2.58
  29  0.751  0.250  0.501-   3 2.56  21 2.56   8 2.56  23 2.56   9 2.56  22 2.57   7 2.57  20 2.57
                             1 2.57  12 2.57  13 2.58   5 2.58
  30  0.750  0.751  0.001-  10 2.56  20 2.56   4 2.57  15 2.57   6 2.57  14 2.57   2 2.57  11 2.57
                            22 2.58  21 2.58  23 2.58
  31  0.751  0.750  0.501-  11 2.55  21 2.56  15 2.56   3 2.56  23 2.56   1 2.57  22 2.57   5 2.57
                            20 2.57  10 2.57   7 2.57  14 2.58
 
  LATTYP: Found a simple cubic cell.
 ALAT       =     7.2671930000
  
  Lattice vectors:
  
 A1 = (   7.2671930000,   0.0000000000,   0.0000000000)
 A2 = (   0.0000000000,   7.2671930000,   0.0000000000)
 A3 = (   0.0000000000,   0.0000000000,   7.2671930000)


Analysis of symmetry for initial positions (statically):
=====================================================================
 Subroutine PRICEL returns:
 Original cell was already a primitive cell.
 

 Routine SETGRP: Setting up the symmetry group for a 
 simple cubic supercell.


 Subroutine GETGRP returns: Found  1 space group operations
 (whereof  1 operations were pure point group operations)
 out of a pool of 48 trial point group operations.


The static configuration has the point symmetry C_1 .


Analysis of symmetry for dynamics (positions and initial velocities):
=====================================================================
 Subroutine PRICEL returns:
 Original cell was already a primitive cell.
 

 Routine SETGRP: Setting up the symmetry group for a 
 simple cubic supercell.


 Subroutine GETGRP returns: Found  1 space group operations
 (whereof  1 operations were pure point group operations)
 out of a pool of 48 trial point group operations.


The dynamic configuration has the point symmetry C_1 .


Analysis of structural, dynamic, and magnetic symmetry:
=====================================================================
 Subroutine PRICEL returns:
 Original cell was already a primitive cell.
 

 Routine SETGRP: Setting up the symmetry group for a 
 simple cubic supercell.


 Subroutine GETGRP returns: Found  1 space group operations
 (whereof  1 operations were pure point group operations)
 out of a pool of 48 trial point group operations.


The magnetic configuration has the point symmetry C_1 .


 Subroutine INISYM returns: Found  1 space group operations
 (whereof  1 operations are pure point group operations),
 and found     1 'primitive' translations

 
 
 KPOINTS: pymatgen generated KPOINTS with grid den

Automatic generation of k-mesh.
Space group operators:
 irot       det(A)        alpha          n_x          n_y          n_z        tau_x        tau_y        tau_z
    1     1.000000     0.000000     1.000000     0.000000     0.000000     0.000000     0.000000     0.000000
 
 Subroutine IBZKPT returns following result:
 ===========================================
 
 Found     32 irreducible k-points:
 
 Following reciprocal coordinates:
            Coordinates               Weight
  0.125000  0.125000  0.125000      2.000000
  0.375000  0.125000  0.125000      2.000000
 -0.375000  0.125000  0.125000      2.000000
 -0.125000  0.125000  0.125000      2.000000
  0.125000  0.375000  0.125000      2.000000
  0.375000  0.375000  0.125000      2.000000
 -0.375000  0.375000  0.125000      2.000000
 -0.125000  0.375000  0.125000      2.000000
  0.125000 -0.375000  0.125000      2.000000
  0.375000 -0.375000  0.125000      2.000000
 -0.375000 -0.375000  0.125000      2.000000
 -0.125000 -0.375000  0.125000      2.000000
  0.125000 -0.125000  0.125000      2.000000
  0.375000 -0.125000  0.125000      2.000000
 -0.375000 -0.125000  0.125000      2.000000
 -0.125000 -0.125000  0.125000      2.000000
  0.125000  0.125000  0.375000      2.000000
  0.375000  0.125000  0.375000      2.000000
 -0.375000  0.125000  0.375000      2.000000
 -0.125000  0.125000  0.375000      2.000000
  0.125000  0.375000  0.375000      2.000000
  0.375000  0.375000  0.375000      2.000000
 -0.375000  0.375000  0.375000      2.000000
 -0.125000  0.375000  0.375000      2.000000
  0.125000 -0.375000  0.375000      2.000000
  0.375000 -0.375000  0.375000      2.000000
 -0.375000 -0.375000  0.375000      2.000000
 -0.125000 -0.375000  0.375000      2.000000
  0.125000 -0.125000  0.375000      2.000000
  0.375000 -0.125000  0.375000      2.000000
 -0.375000 -0.125000  0.375000      2.000000
 -0.125000 -0.125000  0.375000      2.000000
 
 Following cartesian coordinates:
            Coordinates               Weight
  0.017201  0.017201  0.017201      2.000000
  0.051602  0.017201  0.017201      2.000000
 -0.051602  0.017201  0.017201      2.000000
 -0.017201  0.017201  0.017201      2.000000
  0.017201  0.051602  0.017201      2.000000
  0.051602  0.051602  0.017201      2.000000
 -0.051602  0.051602  0.017201      2.000000
 -0.017201  0.051602  0.017201      2.000000
  0.017201 -0.051602  0.017201      2.000000
  0.051602 -0.051602  0.017201      2.000000
 -0.051602 -0.051602  0.017201      2.000000
 -0.017201 -0.051602  0.017201      2.000000
  0.017201 -0.017201  0.017201      2.000000
  0.051602 -0.017201  0.017201      2.000000
 -0.051602 -0.017201  0.017201      2.000000
 -0.017201 -0.017201  0.017201      2.000000
  0.017201  0.017201  0.051602      2.000000
  0.051602  0.017201  0.051602      2.000000
 -0.051602  0.017201  0.051602      2.000000
 -0.017201  0.017201  0.051602      2.000000
  0.017201  0.051602  0.051602      2.000000
  0.051602  0.051602  0.051602      2.000000
 -0.051602  0.051602  0.051602      2.000000
 -0.017201  0.051602  0.051602      2.000000
  0.017201 -0.051602  0.051602      2.000000
  0.051602 -0.051602  0.051602      2.000000
 -0.051602 -0.051602  0.051602      2.000000
 -0.017201 -0.051602  0.051602      2.000000
  0.017201 -0.017201  0.051602      2.000000
  0.051602 -0.017201  0.051602      2.000000
 -0.051602 -0.017201  0.051602      2.000000
 -0.017201 -0.017201  0.051602      2.000000
 


--------------------------------------------------------------------------------------------------------




 Dimension of arrays:
   k-points           NKPTS =     32   k-points in BZ     NKDIM =     32   number of bands    NBANDS=    340
   number of dos      NEDOS =    301   number of ions     NIONS =     31
   non local maximal  LDIM  =      6   non local SUM 2l+1 LMDIM =     18
   total plane-waves  NPLWV = 157464
   max r-space proj   IRMAX =   5243   max aug-charges    IRDMAX=  12349
   dimension x,y,z NGX =    54 NGY =   54 NGZ =   54
   dimension x,y,z NGXF=   108 NGYF=  108 NGZF=  108
   support grid    NGXF=   108 NGYF=  108 NGZF=  108
   ions per type =              31
 NGX,Y,Z   is equivalent  to a cutoff of  12.35, 12.35, 12.35 a.u.
 NGXF,Y,Z  is equivalent  to a cutoff of  24.71, 24.71, 24.71 a.u.


 I would recommend the setting:
   dimension x,y,z NGX =    54 NGY =   54 NGZ =   54
 SYSTEM =  unknown system                          
 POSCAR =  Fe31                                    

 Startparameter for this run:
   NWRITE =      2    write-flag & timer
   PREC   = accura    normal or accurate (medium, high low for compatibility)
   ISTART =      0    job   : 0-new  1-cont  2-samecut
   ICHARG =      1    charge: 1-file 2-atom 10-const
   ISPIN  =      2    spin polarized calculation?
   LNONCOLLINEAR =      F non collinear calculations
   LSORBIT =      F    spin-orbit coupling
   INIWAV =      1    electr: 0-lowe 1-rand  2-diag
   LASPH  =      F    aspherical Exc in radial PAW
   METAGGA=      F    non-selfconsistent MetaGGA calc.

 Electronic Relaxation 1
   ENCUT  =  520.0 eV  38.22 Ry    6.18 a.u.  13.51 13.51 13.51*2*pi/ulx,y,z
   ENINI  =  520.0     initial cutoff
   ENAUG  =  578.3 eV  augmentation charge cutoff
   NELM   =    100;   NELMIN=  2; NELMDL= -5     # of ELM steps 
   EDIFF  = 0.2E-02   stopping-criterion for ELM
   LREAL  =      T    real-space projection
   NLSPLINE    = F    spline interpolate recip. space projectors
   LCOMPAT=      F    compatible to vasp.4.4
   GGA_COMPAT  = T    GGA compatible to vasp.4.4-vasp.4.6
   LMAXPAW     = -100 max onsite density
   LMAXMIX     =    2 max onsite mixed and CHGCAR
   VOSKOWN=      0    Vosko Wilk Nusair interpolation
   ROPT   =   -0.00025
 Ionic relaxation
   EDIFFG = 0.2E-01   stopping-criterion for IOM
   NSW    =     99    number of steps for IOM
   NBLOCK =      1;   KBLOCK =     99    inner block; outer block 
   IBRION =      2    ionic relax: 0-MD 1-quasi-New 2-CG
   NFREE  =      1    steps in history (QN), initial steepest desc. (CG)
   ISIF   =      0    stress and relaxation
   IWAVPR =     11    prediction:  0-non 1-charg 2-wave 3-comb
   ISYM   =      2    0-nonsym 1-usesym 2-fastsym
   LCORR  =      T    Harris-Foulkes like correction to forces

   POTIM  = 0.5000    time-step for ionic-motion
   TEIN   =    0.0    initial temperature
   TEBEG  =    0.0;   TEEND  =   0.0 temperature during run
   SMASS  =  -3.00    Nose mass-parameter (am)
   estimated Nose-frequenzy (Omega)   =  0.10E-29 period in steps =****** mass=  -0.121E-26a.u.
   SCALEE = 1.0000    scale energy and forces
   NPACO  =    256;   APACO  = 16.0  distance and # of slots for P.C.
   PSTRESS=    0.0 pullay stress

  Mass of Ions in am
   POMASS =  55.85
  Ionic Valenz
   ZVAL   =  14.00
  Atomic Wigner-Seitz radii
   RWIGS  =  -1.00
  virtual crystal weights 
   VCA    =   1.00
   NELECT =     434.0000    total number of electrons
   NUPDOWN=      -1.0000    fix difference up-down

 DOS related values:
   EMIN   =  10.00;   EMAX   =-10.00  energy-range for DOS
   EFERMI =   0.00
   ISMEAR =     0;   SIGMA  =   0.20  broadening in eV -4-tet -1-fermi 0-gaus

 Electronic relaxation 2 (details)
   IALGO  =     68    algorithm
   LDIAG  =      T    sub-space diagonalisation (order eigenvalues)
   LSUBROT=      F    optimize rotation matrix (better conditioning)
   TURBO    =      0    0=normal 1=particle mesh
   IRESTART =      0    0=no restart 2=restart with 2 vectors
   NREBOOT  =      0    no. of reboots
   NMIN     =      0    reboot dimension
   EREF     =   0.00    reference energy to select bands
   IMIX   =      4    mixing-type and parameters
     AMIX     =   0.40;   BMIX     =  1.00
     AMIX_MAG =   1.60;   BMIX_MAG =  1.00
     AMIN     =   0.10
     WC   =   100.;   INIMIX=   1;  MIXPRE=   1;  MAXMIX= -45

 Intra band minimization:
   WEIMIN = 0.0010     energy-eigenvalue tresh-hold
   EBREAK =  0.11E-05  absolut break condition
   DEPER  =   0.30     relativ break condition  

   TIME   =   0.40     timestep for ELM

  volume/ion in A,a.u.               =      12.38        83.55
  Fermi-wavevector in a.u.,A,eV,Ry     =   1.705577  3.223074 39.579260  2.908994
  Thomas-Fermi vector in A             =   2.784772
 
 Write flags
   LWAVE  =      F    write WAVECAR
   LCHARG =      T    write CHGCAR
   LVTOT  =      F    write LOCPOT, total local potential
   LVHAR  =      F    write LOCPOT, Hartree potential only
   LELF   =      F    write electronic localiz. function (ELF)
   LORBIT =     11    0 simple, 1 ext, 2 COOP (PROOUT)


 Dipole corrections
   LMONO  =      F    monopole corrections only (constant potential shift)
   LDIPOL =      F    correct potential (dipole corrections)
   IDIPOL =      0    1-x, 2-y, 3-z, 4-all directions 
   EPSILON=  1.0000000 bulk dielectric constant

 Exchange correlation treatment:
   GGA     =    --    GGA type
   LEXCH   =     8    internal setting for exchange type
   VOSKOWN=      0    Vosko Wilk Nusair interpolation
   LHFCALC =     F    Hartree Fock is set to
   LHFONE  =     F    Hartree Fock one center treatment
   AEXX    =    0.0000 exact exchange contribution

 Linear response parameters
   LEPSILON=     F    determine dielectric tensor
   LRPA    =     F    only Hartree local field effects (RPA)
   LNABLA  =     F    use nabla operator in PAW spheres
   LVEL    =     F    velocity operator in full k-point grid
   LINTERFAST=   F  fast interpolation
   KINTER  =     0    interpolate to denser k-point grid
   CSHIFT  =0.1000    complex shift for real part using Kramers Kronig
   OMEGAMAX=  -1.0    maximum frequency
   DEG_THRESHOLD= 0.2000000E-02 threshold for treating states as degnerate
   RTIME   =    0.100 relaxation time in fs

 Orbital magnetization related:
   ORBITALMAG=     F  switch on orbital magnetization
   LCHIMAG   =     F  perturbation theory with respect to B field
   DQ        =  0.001000  dq finite difference perturbation B field



--------------------------------------------------------------------------------------------------------


 conjugate gradient relaxation of ions
 charge density and potential will be updated during run
 spin polarized calculation
 RMM-DIIS sequential band-by-band and
  variant of blocked Davidson during initial phase
 perform sub-space diagonalisation
    before iterative eigenvector-optimisation
 modified Broyden-mixing scheme, WC =      100.0
 initial mixing is a Kerker type mixing with AMIX =  0.4000 and BMIX =      1.0000
 Hartree-type preconditioning will be used
 using additional bands          123
 real space projection scheme for non local part
 use partial core corrections
 calculate Harris-corrections to forces 
   (improved forces if not selfconsistent)
 use gradient corrections 
 use of overlap-Matrix (Vanderbilt PP)
 Gauss-broadening in eV      SIGMA  =   0.20


--------------------------------------------------------------------------------------------------------


  energy-cutoff  :      520.00
  volume of cell :      383.80
      direct lattice vectors                 reciprocal lattice vectors
     7.267193000  0.000000000  0.000000000     0.137604712  0.000000000  0.000000000
     0.000000000  7.267193000  0.000000000     0.000000000  0.137604712  0.000000000
     0.000000000  0.000000000  7.267193000     0.000000000  0.000000000  0.137604712

  length of vectors
     7.267193000  7.267193000  7.267193000     0.137604712  0.137604712  0.137604712


 
 k-points in units of 2pi/SCALE and weight: pymatgen generated KPOINTS with grid den
   0.01720059  0.01720059  0.01720059       0.031
   0.05160177  0.01720059  0.01720059       0.031
  -0.05160177  0.01720059  0.01720059       0.031
  -0.01720059  0.01720059  0.01720059       0.031
   0.01720059  0.05160177  0.01720059       0.031
   0.05160177  0.05160177  0.01720059       0.031
  -0.05160177  0.05160177  0.01720059       0.031
  -0.01720059  0.05160177  0.01720059       0.031
   0.01720059 -0.05160177  0.01720059       0.031
   0.05160177 -0.05160177  0.01720059       0.031
  -0.05160177 -0.05160177  0.01720059       0.031
  -0.01720059 -0.05160177  0.01720059       0.031
   0.01720059 -0.01720059  0.01720059       0.031
   0.05160177 -0.01720059  0.01720059       0.031
  -0.05160177 -0.01720059  0.01720059       0.031
  -0.01720059 -0.01720059  0.01720059       0.031
   0.01720059  0.01720059  0.05160177       0.031
   0.05160177  0.01720059  0.05160177       0.031
  -0.05160177  0.01720059  0.05160177       0.031
  -0.01720059  0.01720059  0.05160177       0.031
   0.01720059  0.05160177  0.05160177       0.031
   0.05160177  0.05160177  0.05160177       0.031
  -0.05160177  0.05160177  0.05160177       0.031
  -0.01720059  0.05160177  0.05160177       0.031
   0.01720059 -0.05160177  0.05160177       0.031
   0.05160177 -0.05160177  0.05160177       0.031
  -0.05160177 -0.05160177  0.05160177       0.031
  -0.01720059 -0.05160177  0.05160177       0.031
   0.01720059 -0.01720059  0.05160177       0.031
   0.05160177 -0.01720059  0.05160177       0.031
  -0.05160177 -0.01720059  0.05160177       0.031
  -0.01720059 -0.01720059  0.05160177       0.031
 
 k-points in reciprocal lattice and weights: pymatgen generated KPOINTS with grid den
   0.12500000  0.12500000  0.12500000       0.031
   0.37500000  0.12500000  0.12500000       0.031
  -0.37500000  0.12500000  0.12500000       0.031
  -0.12500000  0.12500000  0.12500000       0.031
   0.12500000  0.37500000  0.12500000       0.031
   0.37500000  0.37500000  0.12500000       0.031
  -0.37500000  0.37500000  0.12500000       0.031
  -0.12500000  0.37500000  0.12500000       0.031
   0.12500000 -0.37500000  0.12500000       0.031
   0.37500000 -0.37500000  0.12500000       0.031
  -0.37500000 -0.37500000  0.12500000       0.031
  -0.12500000 -0.37500000  0.12500000       0.031
   0.12500000 -0.12500000  0.12500000       0.031
   0.37500000 -0.12500000  0.12500000       0.031
  -0.37500000 -0.12500000  0.12500000       0.031
  -0.12500000 -0.12500000  0.12500000       0.031
   0.12500000  0.12500000  0.37500000       0.031
   0.37500000  0.12500000  0.37500000       0.031
  -0.37500000  0.12500000  0.37500000       0.031
  -0.12500000  0.12500000  0.37500000       0.031
   0.12500000  0.37500000  0.37500000       0.031
   0.37500000  0.37500000  0.37500000       0.031
  -0.37500000  0.37500000  0.37500000       0.031
  -0.12500000  0.37500000  0.37500000       0.031
   0.12500000 -0.37500000  0.37500000       0.031
   0.37500000 -0.37500000  0.37500000       0.031
  -0.37500000 -0.37500000  0.37500000       0.031
  -0.12500000 -0.37500000  0.37500000       0.031
   0.12500000 -0.12500000  0.37500000       0.031
   0.37500000 -0.12500000  0.37500000       0.031
  -0.37500000 -0.12500000  0.37500000       0.031
  -0.12500000 -0.12500000  0.37500000       0.031
 
 position of ions in fractional coordinates (direct lattice) 
   0.00112100  0.99928100  0.49965300
   0.99921900  0.50055500  0.99901300
   0.99893600  0.49998300  0.49912800
   0.49880000  0.99933200  0.00008400
   0.49931000  0.99920000  0.49911800
   0.50125100  0.49942800  0.00002900
   0.50102000  0.49908900  0.49984400
   0.99927500  0.25079400  0.25085800
   0.00016600  0.24867500  0.75033100
   0.99974900  0.75100000  0.24908800
   0.99869900  0.75039200  0.74978200
   0.50073200  0.24890600  0.25040100
   0.49908000  0.25101700  0.74988300
   0.49920900  0.75092500  0.25064200
   0.50123300  0.74945600  0.74972100
   0.24952300  0.99875300  0.25033300
   0.24868400  0.99963000  0.75016000
   0.24907300  0.49978500  0.24900700
   0.25015900  0.50090400  0.74897500
   0.74865600  0.00017600  0.25023500
   0.75059400  0.00037500  0.74881700
   0.74968800  0.49985600  0.25133200
   0.75114300  0.49966100  0.74931200
   0.25027900  0.24882600  0.99933900
   0.24902600  0.25066600  0.49929200
   0.24878500  0.74935400  0.00000900
   0.24973300  0.74877900  0.50057600
   0.75113500  0.24922700  0.99991600
   0.75122600  0.24997800  0.50062500
   0.74951900  0.75088800  0.00093500
   0.75087200  0.75029900  0.50102200
 
 position of ions in cartesian coordinates  (Angst):
   0.00814652  7.26196789  3.63107478
   7.26151732  3.63762979  7.26002028
   7.25946071  3.63347296  3.62725951
   3.62487587  7.26233852  0.00061044
   3.62858214  7.26137925  3.62718684
   3.64268776  3.62943967  0.00021075
   3.64100904  3.62697609  3.63246282
   7.26192429  1.82256840  1.82303350
   0.00120635  1.80716922  5.45280019
   7.26536893  5.45766194  1.81017057
   7.25773838  5.45324349  5.44881050
   3.63891609  1.80884794  1.81971239
   3.62691068  1.82418899  5.44954449
   3.62784815  5.45711690  1.82146379
   3.64255695  5.44644140  5.44836720
   1.81333180  7.25813081  1.81921823
   1.80723462  7.26450414  5.45155750
   1.81006156  3.63203405  1.80958193
   1.81795373  3.64016604  5.44294588
   5.44062764  0.00127903  1.81850604
   5.45471146  0.00272520  5.44179766
   5.44812739  3.63255002  1.82647815
   5.45870115  3.63113292  5.44539492
   1.81882580  1.80826657  7.26238939
   1.80972000  1.82163820  3.62845133
   1.80796861  5.44570014  0.00006540
   1.81485791  5.44152151  3.63778240
   5.45864301  1.81118071  7.26658256
   5.45930433  1.81663837  3.63813850
   5.44689923  5.45684802  0.00679483
   5.45673174  5.45256764  3.64102357
 


--------------------------------------------------------------------------------------------------------


 k-point  1 :   0.1250 0.1250 0.1250  plane waves:   10356
 k-point  2 :   0.3750 0.1250 0.1250  plane waves:   10344
 k-point  3 :  -0.3750 0.1250 0.1250  plane waves:   10344
 k-point  4 :  -0.1250 0.1250 0.1250  plane waves:   10356
 k-point  5 :   0.1250 0.3750 0.1250  plane waves:   10344
 k-point  6 :   0.3750 0.3750 0.1250  plane waves:   10340
 k-point  7 :  -0.3750 0.3750 0.1250  plane waves:   10340
 k-point  8 :  -0.1250 0.3750 0.1250  plane waves:   10344
 k-point  9 :   0.1250-0.3750 0.1250  plane waves:   10344
 k-point 10 :   0.3750-0.3750 0.1250  plane waves:   10340
 k-point 11 :  -0.3750-0.3750 0.1250  plane waves:   10340
 k-point 12 :  -0.1250-0.3750 0.1250  plane waves:   10344
 k-point 13 :   0.1250-0.1250 0.1250  plane waves:   10356
 k-point 14 :   0.3750-0.1250 0.1250  plane waves:   10344
 k-point 15 :  -0.3750-0.1250 0.1250  plane waves:   10344
 k-point 16 :  -0.1250-0.1250 0.1250  plane waves:   10356
 k-point 17 :   0.1250 0.1250 0.3750  plane waves:   10344
 k-point 18 :   0.3750 0.1250 0.3750  plane waves:   10340
 k-point 19 :  -0.3750 0.1250 0.3750  plane waves:   10340
 k-point 20 :  -0.1250 0.1250 0.3750  plane waves:   10344
 k-point 21 :   0.1250 0.3750 0.3750  plane waves:   10340
 k-point 22 :   0.3750 0.3750 0.3750  plane waves:   10306
 k-point 23 :  -0.3750 0.3750 0.3750  plane waves:   10306
 k-point 24 :  -0.1250 0.3750 0.3750  plane waves:   10340
 k-point 25 :   0.1250-0.3750 0.3750  plane waves:   10340
 k-point 26 :   0.3750-0.3750 0.3750  plane waves:   10306
 k-point 27 :  -0.3750-0.3750 0.3750  plane waves:   10306
 k-point 28 :  -0.1250-0.3750 0.3750  plane waves:   10340
 k-point 29 :   0.1250-0.1250 0.3750  plane waves:   10344
 k-point 30 :   0.3750-0.1250 0.3750  plane waves:   10340
 k-point 31 :  -0.3750-0.1250 0.3750  plane waves:   10340
 k-point 32 :  -0.1250-0.1250 0.3750  plane waves:   10344

 maximum and minimum number of plane-waves per node :      1740     1697

 maximum number of plane-waves:     10356
 maximum index in each direction: 
   IXMAX=   13   IYMAX=   13   IZMAX=   13
   IXMIN=  -13   IYMIN=  -13   IZMIN=  -13

 NGX is ok and might be reduce to  54
 NGY is ok and might be reduce to  54
 NGZ is ok and might be reduce to  54

 real space projection operators:
  total allocation   :      22010.06 KBytes
  max/ min on nodes  :       3670.17       3666.09


 parallel 3D FFT for wavefunctions:
    minimum data exchange during FFTs selected (reduces bandwidth)
 parallel 3D FFT for charge:
    minimum data exchange during FFTs selected (reduces bandwidth)


 total amount of memory used by VASP on root node   207417. kBytes
========================================================================

   base      :      30000. kBytes
   nonlr-proj:       7269. kBytes
   fftplans  :       2739. kBytes
   grid      :       6374. kBytes
   one-center:        186. kBytes
   wavefun   :     160849. kBytes
 
     INWAV:  cpu time    0.0000: real time    0.0000
 Broyden mixing: mesh for mixing (old mesh)
   NGX = 27   NGY = 27   NGZ = 27
  (NGX  =108   NGY  =108   NGZ  =108)
  gives a total of  19683 points

 initial charge density was supplied:
 charge density of overlapping atoms calculated
 number of electron     434.0000000 magnetization     155.0000000
 keeping initial charge density in first step


--------------------------------------------------------------------------------------------------------


 Maximum index for non-local projection operator          872
 Maximum index for augmentation-charges          809 (set IRDMAX)


--------------------------------------------------------------------------------------------------------


 First call to EWALD:  gamma=   0.244
 Maximum number of real-space cells 3x 3x 3
 Maximum number of reciprocal cells 3x 3x 3

 FEWALD executed in parallel
    FEWALD:  cpu time    0.0040: real time    0.0033


----------------------------------------- Iteration    1(   1)  ---------------------------------------


    POTLOK:  cpu time    0.1470: real time    0.1471
    SETDIJ:  cpu time    0.0620: real time    0.0614
     EDDAV:  cpu time   64.8871: real time   64.8276
       DOS:  cpu time    0.0240: real time    0.0239
    --------------------------------------------
      LOOP:  cpu time   65.1211: real time   65.0731

 eigenvalue-minimisations  : 44592
 total energy-change (2. order) : 0.6821375E+04  (-0.2047979E+05)
 number of electron     434.0000000 magnetization     155.0000000
 augmentation part      434.0000000 magnetization     155.0000000

 Free energy of the ion-electron system (eV)
  ---------------------------------------------------
  alpha Z        PSCENC =      4918.63829509
  Ewald energy   TEWEN  =    -53978.14604262
  -Hartree energ DENC   =    -19458.11695255
  -exchange      EXHF   =         0.00000000
  -V(xc)+E(xc)   XCENC  =      2278.91369987
  PAW double counting   =     56852.34795695   -59583.03617781
  entropy T*S    EENTRO =        -0.25535274
  eigenvalues    EBANDS =      -372.59873231
  atomic energy  EATOM  =     76163.62791748
  Solvation  Ediel_sol  =         0.00000000
  ---------------------------------------------------
  free energy    TOTEN  =      6821.37461136 eV

  energy without entropy =     6821.62996410  energy(sigma->0) =     6821.50228773


--------------------------------------------------------------------------------------------------------




----------------------------------------- Iteration    1(   2)  ---------------------------------------


     EDDAV:  cpu time   63.3734: real time   63.3162
       DOS:  cpu time    0.0260: real time    0.0263
    --------------------------------------------
      LOOP:  cpu time   63.4004: real time   63.3547

 eigenvalue-minimisations  : 43520
 total energy-change (2. order) :-0.6099369E+04  (-0.5719111E+04)
 number of electron     434.0000000 magnetization     155.0000000
 augmentation part      434.0000000 magnetization     155.0000000

 Free energy of the ion-electron system (eV)
  ---------------------------------------------------
  alpha Z        PSCENC =      4918.63829509
  Ewald energy   TEWEN  =    -53978.14604262
  -Hartree energ DENC   =    -19458.11695255
  -exchange      EXHF   =         0.00000000
  -V(xc)+E(xc)   XCENC  =      2278.91369987
  PAW double counting   =     56852.34795695   -59583.03617781
  entropy T*S    EENTRO =        -0.54431580
  eigenvalues    EBANDS =     -6471.67854070
  atomic energy  EATOM  =     76163.62791748
  Solvation  Ediel_sol  =         0.00000000
  ---------------------------------------------------
  free energy    TOTEN  =       722.00583992 eV

  energy without entropy =      722.55015572  energy(sigma->0) =      722.27799782


--------------------------------------------------------------------------------------------------------




----------------------------------------- Iteration    1(   3)  ---------------------------------------


     EDDAV:  cpu time   63.7423: real time   63.6848
       DOS:  cpu time    0.0280: real time    0.0273
    --------------------------------------------
      LOOP:  cpu time   63.7723: real time   63.7172

 eigenvalue-minimisations  : 43520
 total energy-change (2. order) :-0.9089189E+03  (-0.7352290E+03)
 number of electron     434.0000000 magnetization     155.0000000
 augmentation part      434.0000000 magnetization     155.0000000

 Free energy of the ion-electron system (eV)
  ---------------------------------------------------
  alpha Z        PSCENC =      4918.63829509
  Ewald energy   TEWEN  =    -53978.14604262
  -Hartree energ DENC   =    -19458.11695255
  -exchange      EXHF   =         0.00000000
  -V(xc)+E(xc)   XCENC  =      2278.91369987
  PAW double counting   =     56852.34795695   -59583.03617781
  entropy T*S    EENTRO =        -0.55314118
  eigenvalues    EBANDS =     -7380.58861408
  atomic energy  EATOM  =     76163.62791748
  Solvation  Ediel_sol  =         0.00000000
  ---------------------------------------------------
  free energy    TOTEN  =      -186.91305885 eV

  energy without entropy =     -186.35991767  energy(sigma->0) =     -186.63648826


--------------------------------------------------------------------------------------------------------




----------------------------------------- Iteration    1(   4)  ---------------------------------------


     EDDAV:  cpu time   73.4808: real time   73.4139
       DOS:  cpu time    0.0280: real time    0.0277
    --------------------------------------------
      LOOP:  cpu time   73.5098: real time   73.4473

 eigenvalue-minimisations  : 52936
 total energy-change (2. order) :-0.6764102E+02  (-0.6503245E+02)
 number of electron     434.0000000 magnetization     155.0000000
 augmentation part      434.0000000 magnetization     155.0000000

 Free energy of the ion-electron system (eV)
  ---------------------------------------------------
  alpha Z        PSCENC =      4918.63829509
  Ewald energy   TEWEN  =    -53978.14604262
  -Hartree energ DENC   =    -19458.11695255
  -exchange      EXHF   =         0.00000000
  -V(xc)+E(xc)   XCENC  =      2278.91369987
  PAW double counting   =     56852.34795695   -59583.03617781
  entropy T*S    EENTRO =        -0.55205604
  eigenvalues    EBANDS =     -7448.23071977
  atomic energy  EATOM  =     76163.62791748
  Solvation  Ediel_sol  =         0.00000000
  ---------------------------------------------------
  free energy    TOTEN  =      -254.55407940 eV

  energy without entropy =     -254.00202336  energy(sigma->0) =     -254.27805138


--------------------------------------------------------------------------------------------------------




----------------------------------------- Iteration    1(   5)  ---------------------------------------


     EDDAV:  cpu time   73.2649: real time   73.1977
       DOS:  cpu time    0.0250: real time    0.0251
    CHARGE:  cpu time    2.4506: real time    2.4491
    MIXING:  cpu time    0.0040: real time    0.0041
    --------------------------------------------
      LOOP:  cpu time   75.7445: real time   75.6806

 eigenvalue-minimisations  : 53056
 total energy-change (2. order) :-0.1249857E+01  (-0.1247032E+01)
 number of electron     434.0000563 magnetization     113.9711439
 augmentation part      247.9193939 magnetization      87.4885750

 Broyden mixing:
  rms(total) = 0.77334E+01    rms(broyden)= 0.77324E+01
  rms(prec ) = 0.90449E+01
  weight for this iteration     100.00

 Free energy of the ion-electron system (eV)
  ---------------------------------------------------
  alpha Z        PSCENC =      4918.63829509
  Ewald energy   TEWEN  =    -53978.14604262
  -Hartree energ DENC   =    -19458.11695255
  -exchange      EXHF   =         0.00000000
  -V(xc)+E(xc)   XCENC  =      2278.91369987
  PAW double counting   =     56852.34795695   -59583.03617781
  entropy T*S    EENTRO =        -0.55247807
  eigenvalues    EBANDS =     -7449.48015452
  atomic energy  EATOM  =     76163.62791748
  Solvation  Ediel_sol  =         0.00000000
  ---------------------------------------------------
  free energy    TOTEN  =      -255.80393619 eV

  energy without entropy =     -255.25145811  energy(sigma->0) =     -255.52769715


--------------------------------------------------------------------------------------------------------




----------------------------------------- Iteration    1(   6)  ---------------------------------------


    POTLOK:  cpu time    0.1450: real time    0.1460
    SETDIJ:  cpu time    0.0640: real time    0.0635
    EDDIAG:  cpu time    9.7145: real time    9.7049
  RMM-DIIS:  cpu time   36.6674: real time   36.6344
    ORTHCH:  cpu time    1.9757: real time    1.9744
       DOS:  cpu time    0.0290: real time    0.0295
    CHARGE:  cpu time    2.5276: real time    2.5253
    MIXING:  cpu time    0.0050: real time    0.0042
    --------------------------------------------
      LOOP:  cpu time   51.1312: real time   51.0871

 eigenvalue-minimisations  : 43520
 total energy-change (2. order) : 0.1034474E+02  (-0.1454648E+02)
 number of electron     434.0000599 magnetization      98.4918309
 augmentation part      267.8044285 magnetization      73.2598053

 Broyden mixing:
  rms(total) = 0.29448E+01    rms(broyden)= 0.29443E+01
  rms(prec ) = 0.38965E+01
  weight for this iteration     100.00

 eigenvalues of (default mixing * dielectric matrix)
  average eigenvalue GAMMA=   0.8246
  0.8246

 Free energy of the ion-electron system (eV)
  ---------------------------------------------------
  alpha Z        PSCENC =      4918.63829509
  Ewald energy   TEWEN  =    -53978.14604262
  -Hartree energ DENC   =    -18312.41420665
  -exchange      EXHF   =         0.00000000
  -V(xc)+E(xc)   XCENC  =      2188.91712825
  PAW double counting   =     55745.77202489   -58411.18069020
  entropy T*S    EENTRO =        -0.92863022
  eigenvalues    EBANDS =     -8559.74498897
  atomic energy  EATOM  =     76163.62791748
  Solvation  Ediel_sol  =         0.00000000
  ---------------------------------------------------
  free energy    TOTEN  =      -245.45919295 eV

  energy without entropy =     -244.53056273  energy(sigma->0) =     -244.99487784


--------------------------------------------------------------------------------------------------------




----------------------------------------- Iteration    1(   7)  ---------------------------------------


    POTLOK:  cpu time    0.1450: real time    0.1455
    SETDIJ:  cpu time    0.0640: real time    0.0638
    EDDIAG:  cpu time    9.7615: real time    9.7525
  RMM-DIIS:  cpu time   36.8304: real time   36.7965
    ORTHCH:  cpu time    1.9897: real time    1.9875
       DOS:  cpu time    0.0290: real time    0.0298
    CHARGE:  cpu time    2.5206: real time    2.5177
    MIXING:  cpu time    0.0040: real time    0.0043
    --------------------------------------------
      LOOP:  cpu time   51.3442: real time   51.3009

 eigenvalue-minimisations  : 43696
 total energy-change (2. order) :-0.3198745E+02  (-0.2065298E+01)
 number of electron     434.0000613 magnetization      93.6090911
 augmentation part      261.9707806 magnetization      74.9364488

 Broyden mixing:
  rms(total) = 0.77962E+01    rms(broyden)= 0.77959E+01
  rms(prec ) = 0.13695E+02
  weight for this iteration     100.00

 eigenvalues of (default mixing * dielectric matrix)
  average eigenvalue GAMMA=   0.5515
  0.9287  0.1743

 Free energy of the ion-electron system (eV)
  ---------------------------------------------------
  alpha Z        PSCENC =      4918.63829509
  Ewald energy   TEWEN  =    -53978.14604262
  -Hartree energ DENC   =    -18532.18899912
  -exchange      EXHF   =         0.00000000
  -V(xc)+E(xc)   XCENC  =      2193.48244296
  PAW double counting   =     56526.68220556   -59277.46122234
  entropy T*S    EENTRO =        -1.06270670
  eigenvalues    EBANDS =     -8291.01853662
  atomic energy  EATOM  =     76163.62791748
  Solvation  Ediel_sol  =         0.00000000
  ---------------------------------------------------
  free energy    TOTEN  =      -277.44664633 eV

  energy without entropy =     -276.38393963  energy(sigma->0) =     -276.91529298


--------------------------------------------------------------------------------------------------------




----------------------------------------- Iteration    1(   8)  ---------------------------------------


    POTLOK:  cpu time    0.1440: real time    0.1441
    SETDIJ:  cpu time    0.0630: real time    0.0629
    EDDIAG:  cpu time    9.7665: real time    9.7575
  RMM-DIIS:  cpu time   36.8484: real time   36.8145
    ORTHCH:  cpu time    1.9867: real time    1.9852
       DOS:  cpu time    0.0280: real time    0.0280
    CHARGE:  cpu time    2.5006: real time    2.4976
    MIXING:  cpu time    0.0040: real time    0.0045
    --------------------------------------------
      LOOP:  cpu time   51.3422: real time   51.2988

 eigenvalue-minimisations  : 43737
 total energy-change (2. order) : 0.2449257E+02  (-0.7931747E+00)
 number of electron     434.0000587 magnetization      86.3390113
 augmentation part      261.5196045 magnetization      64.7434920

 Broyden mixing:
  rms(total) = 0.12369E+01    rms(broyden)= 0.12356E+01
  rms(prec ) = 0.20232E+01
  weight for this iteration     100.00

 eigenvalues of (default mixing * dielectric matrix)
  average eigenvalue GAMMA=   0.6290
  1.0052  0.7540  0.1279

 Free energy of the ion-electron system (eV)
  ---------------------------------------------------
  alpha Z        PSCENC =      4918.63829509
  Ewald energy   TEWEN  =    -53978.14604262
  -Hartree energ DENC   =    -18548.77556908
  -exchange      EXHF   =         0.00000000
  -V(xc)+E(xc)   XCENC  =      2191.37561079
  PAW double counting   =     56642.37111457   -59406.59867164
  entropy T*S    EENTRO =        -0.78145409
  eigenvalues    EBANDS =     -8234.66528056
  atomic energy  EATOM  =     76163.62791748
  Solvation  Ediel_sol  =         0.00000000
  ---------------------------------------------------
  free energy    TOTEN  =      -252.95408006 eV

  energy without entropy =     -252.17262597  energy(sigma->0) =     -252.56335302


--------------------------------------------------------------------------------------------------------




----------------------------------------- Iteration    1(   9)  ---------------------------------------


    POTLOK:  cpu time    0.1440: real time    0.1450
    SETDIJ:  cpu time    0.0640: real time    0.0634
    EDDIAG:  cpu time    9.6415: real time    9.6322
  RMM-DIIS:  cpu time   36.9124: real time   36.8788
    ORTHCH:  cpu time    1.9917: real time    1.9906
       DOS:  cpu time    0.0270: real time    0.0278
    CHARGE:  cpu time    2.5146: real time    2.5126
    MIXING:  cpu time    0.0050: real time    0.0047
    --------------------------------------------
      LOOP:  cpu time   51.3022: real time   51.2574

 eigenvalue-minimisations  : 43735
 total energy-change (2. order) :-0.5878891E+01  (-0.2949057E+00)
 number of electron     434.0000590 magnetization      80.5219631
 augmentation part      261.8955379 magnetization      61.5807542

 Broyden mixing:
  rms(total) = 0.28624E+01    rms(broyden)= 0.28622E+01
  rms(prec ) = 0.51550E+01
  weight for this iteration     100.00

 eigenvalues of (default mixing * dielectric matrix)
  average eigenvalue GAMMA=   0.5539
  1.1472  0.7718  0.1164  0.1803

 Free energy of the ion-electron system (eV)
  ---------------------------------------------------
  alpha Z        PSCENC =      4918.63829509
  Ewald energy   TEWEN  =    -53978.14604262
  -Hartree energ DENC   =    -18484.39904022
  -exchange      EXHF   =         0.00000000
  -V(xc)+E(xc)   XCENC  =      2187.33716210
  PAW double counting   =     56793.03207505   -59573.23206920
  entropy T*S    EENTRO =        -0.95552119
  eigenvalues    EBANDS =     -8284.73574766
  atomic energy  EATOM  =     76163.62791748
  Solvation  Ediel_sol  =         0.00000000
  ---------------------------------------------------
  free energy    TOTEN  =      -258.83297117 eV

  energy without entropy =     -257.87744999  energy(sigma->0) =     -258.35521058


--------------------------------------------------------------------------------------------------------




----------------------------------------- Iteration    1(  10)  ---------------------------------------


    POTLOK:  cpu time    0.1450: real time    0.1459
    SETDIJ:  cpu time    0.0640: real time    0.0636
    EDDIAG:  cpu time    9.7105: real time    9.7006
  RMM-DIIS:  cpu time   37.4153: real time   37.3822
    ORTHCH:  cpu time    1.9807: real time    1.9781
       DOS:  cpu time    0.0290: real time    0.0291
    CHARGE:  cpu time    2.4936: real time    2.4919
    MIXING:  cpu time    0.0050: real time    0.0049
    --------------------------------------------
      LOOP:  cpu time   51.8441: real time   51.8010

 eigenvalue-minimisations  : 44528
 total energy-change (2. order) : 0.2867024E+01  (-0.1966716E+00)
 number of electron     434.0000588 magnetization      80.5028515
 augmentation part      262.7280816 magnetization      61.4662154

 Broyden mixing:
  rms(total) = 0.79323E+00    rms(broyden)= 0.79295E+00
  rms(prec ) = 0.12301E+01
  weight for this iteration     100.00

 eigenvalues of (default mixing * dielectric matrix)
  average eigenvalue GAMMA=   0.6311
  1.1333  1.1333  0.6352  0.1366  0.1170

 Free energy of the ion-electron system (eV)
  ---------------------------------------------------
  alpha Z        PSCENC =      4918.63829509
  Ewald energy   TEWEN  =    -53978.14604262
  -Hartree energ DENC   =    -18436.11368772
  -exchange      EXHF   =         0.00000000
  -V(xc)+E(xc)   XCENC  =      2184.23014178
  PAW double counting   =     56914.98969282   -59708.10606210
  entropy T*S    EENTRO =        -0.79156652
  eigenvalues    EBANDS =     -8314.29463529
  atomic energy  EATOM  =     76163.62791748
  Solvation  Ediel_sol  =         0.00000000
  ---------------------------------------------------
  free energy    TOTEN  =      -255.96594707 eV

  energy without entropy =     -255.17438055  energy(sigma->0) =     -255.57016381


--------------------------------------------------------------------------------------------------------




----------------------------------------- Iteration    1(  11)  ---------------------------------------


    POTLOK:  cpu time    0.1460: real time    0.1456
    SETDIJ:  cpu time    0.0630: real time    0.0636
    EDDIAG:  cpu time    9.7015: real time    9.6926
  RMM-DIIS:  cpu time   37.2353: real time   37.2012
    ORTHCH:  cpu time    1.9867: real time    1.9848
       DOS:  cpu time    0.0250: real time    0.0252
    CHARGE:  cpu time    2.4856: real time    2.4838
    MIXING:  cpu time    0.0050: real time    0.0050
    --------------------------------------------
      LOOP:  cpu time   51.6491: real time   51.6043

 eigenvalue-minimisations  : 44465
 total energy-change (2. order) :-0.4392304E+00  (-0.5342740E-01)
 number of electron     434.0000588 magnetization      80.6980134
 augmentation part      262.7376240 magnetization      62.0246598

 Broyden mixing:
  rms(total) = 0.99020E+00    rms(broyden)= 0.99017E+00
  rms(prec ) = 0.16207E+01
  weight for this iteration     100.00

 eigenvalues of (default mixing * dielectric matrix)
  average eigenvalue GAMMA=   0.6191
  1.3215  1.3215  0.6495  0.1769  0.1315  0.1134

 Free energy of the ion-electron system (eV)
  ---------------------------------------------------
  alpha Z        PSCENC =      4918.63829509
  Ewald energy   TEWEN  =    -53978.14604262
  -Hartree energ DENC   =    -18430.05125947
  -exchange      EXHF   =         0.00000000
  -V(xc)+E(xc)   XCENC  =      2184.82361945
  PAW double counting   =     56975.52410122   -59774.18698198
  entropy T*S    EENTRO =        -0.76970860
  eigenvalues    EBANDS =     -8315.86511807
  atomic energy  EATOM  =     76163.62791748
  Solvation  Ediel_sol  =         0.00000000
  ---------------------------------------------------
  free energy    TOTEN  =      -256.40517750 eV

  energy without entropy =     -255.63546890  energy(sigma->0) =     -256.02032320


--------------------------------------------------------------------------------------------------------




----------------------------------------- Iteration    1(  12)  ---------------------------------------


    POTLOK:  cpu time    0.1470: real time    0.1462
    SETDIJ:  cpu time    0.0640: real time    0.0638
    EDDIAG:  cpu time    9.7695: real time    9.7609
  RMM-DIIS:  cpu time   36.8214: real time   36.7876
    ORTHCH:  cpu time    1.9887: real time    1.9869
       DOS:  cpu time    0.0280: real time    0.0280
    CHARGE:  cpu time    2.4816: real time    2.4787
    MIXING:  cpu time    0.0050: real time    0.0054
    --------------------------------------------
      LOOP:  cpu time   51.3062: real time   51.3772

 eigenvalue-minimisations  : 43509
 total energy-change (2. order) : 0.2360780E+00  (-0.3402982E-01)
 number of electron     434.0000588 magnetization      80.4840635
 augmentation part      262.7004129 magnetization      62.3415750

 Broyden mixing:
  rms(total) = 0.39101E+00    rms(broyden)= 0.39096E+00
  rms(prec ) = 0.67642E+00
  weight for this iteration     100.00

 eigenvalues of (default mixing * dielectric matrix)
  average eigenvalue GAMMA=   0.6050
  1.3138  1.3138  0.6049  0.6049  0.1149  0.1352  0.1474

 Free energy of the ion-electron system (eV)
  ---------------------------------------------------
  alpha Z        PSCENC =      4918.63829509
  Ewald energy   TEWEN  =    -53978.14604262
  -Hartree energ DENC   =    -18420.95831954
  -exchange      EXHF   =         0.00000000
  -V(xc)+E(xc)   XCENC  =      2186.06587112
  PAW double counting   =     57085.48225354   -59894.19250600
  entropy T*S    EENTRO =        -0.71095435
  eigenvalues    EBANDS =     -8315.97561423
  atomic energy  EATOM  =     76163.62791748
  Solvation  Ediel_sol  =         0.00000000
  ---------------------------------------------------
  free energy    TOTEN  =      -256.16909950 eV

  energy without entropy =     -255.45814515  energy(sigma->0) =     -255.81362233


--------------------------------------------------------------------------------------------------------




----------------------------------------- Iteration    1(  13)  ---------------------------------------


    POTLOK:  cpu time    0.1460: real time    0.1457
    SETDIJ:  cpu time    0.0640: real time    0.0638
    EDDIAG:  cpu time    9.7115: real time    9.7029
  RMM-DIIS:  cpu time   36.7334: real time   36.6992
    ORTHCH:  cpu time    1.9897: real time    1.9880
       DOS:  cpu time    0.0280: real time    0.0282
    CHARGE:  cpu time    2.4806: real time    2.4780
    MIXING:  cpu time    0.0060: real time    0.0056
    --------------------------------------------
      LOOP:  cpu time   51.1602: real time   51.1274

 eigenvalue-minimisations  : 43516
 total energy-change (2. order) :-0.8311060E-02  (-0.9412407E-02)
 number of electron     434.0000588 magnetization      79.8861785
 augmentation part      262.6852784 magnetization      61.8332214

 Broyden mixing:
  rms(total) = 0.35947E+00    rms(broyden)= 0.35944E+00
  rms(prec ) = 0.60564E+00
  weight for this iteration     100.00

 eigenvalues of (default mixing * dielectric matrix)
  average eigenvalue GAMMA=   0.6121
  1.2351  1.2351  1.1644  0.7080  0.1688  0.1451  0.1143  0.1263

 Free energy of the ion-electron system (eV)
  ---------------------------------------------------
  alpha Z        PSCENC =      4918.63829509
  Ewald energy   TEWEN  =    -53978.14604262
  -Hartree energ DENC   =    -18417.94161433
  -exchange      EXHF   =         0.00000000
  -V(xc)+E(xc)   XCENC  =      2186.05462351
  PAW double counting   =     57121.00536601   -59933.18080707
  entropy T*S    EENTRO =        -0.71208726
  eigenvalues    EBANDS =     -8315.52306137
  atomic energy  EATOM  =     76163.62791748
  Solvation  Ediel_sol  =         0.00000000
  ---------------------------------------------------
  free energy    TOTEN  =      -256.17741056 eV

  energy without entropy =     -255.46532330  energy(sigma->0) =     -255.82136693


--------------------------------------------------------------------------------------------------------




----------------------------------------- Iteration    1(  14)  ---------------------------------------


    POTLOK:  cpu time    0.1440: real time    0.1441
    SETDIJ:  cpu time    0.0630: real time    0.0622
    EDDIAG:  cpu time    9.7505: real time    9.7418
  RMM-DIIS:  cpu time   36.2605: real time   36.2264
    ORTHCH:  cpu time    1.9707: real time    1.9694
       DOS:  cpu time    0.0290: real time    0.0286
    CHARGE:  cpu time    2.4736: real time    2.4720
    MIXING:  cpu time    0.0060: real time    0.0059
    --------------------------------------------
      LOOP:  cpu time   50.6973: real time   50.6549

 eigenvalue-minimisations  : 42925
 total energy-change (2. order) : 0.2546029E-01  (-0.5211686E-02)
 number of electron     434.0000587 magnetization      79.8017514
 augmentation part      262.6205725 magnetization      61.8410555

 Broyden mixing:
  rms(total) = 0.23018E+00    rms(broyden)= 0.23016E+00
  rms(prec ) = 0.37566E+00
  weight for this iteration     100.00

 eigenvalues of (default mixing * dielectric matrix)
  average eigenvalue GAMMA=   0.6373
  1.4965  1.2627  1.2627  0.7101  0.4580  0.1637  0.1144  0.1347  0.1327

 Free energy of the ion-electron system (eV)
  ---------------------------------------------------
  alpha Z        PSCENC =      4918.63829509
  Ewald energy   TEWEN  =    -53978.14604262
  -Hartree energ DENC   =    -18410.86930251
  -exchange      EXHF   =         0.00000000
  -V(xc)+E(xc)   XCENC  =      2185.75055509
  PAW double counting   =     57203.99395219   -60024.32585948
  entropy T*S    EENTRO =        -0.70275398
  eigenvalues    EBANDS =     -8314.11871153
  atomic energy  EATOM  =     76163.62791748
  Solvation  Ediel_sol  =         0.00000000
  ---------------------------------------------------
  free energy    TOTEN  =      -256.15195027 eV

  energy without entropy =     -255.44919629  energy(sigma->0) =     -255.80057328


--------------------------------------------------------------------------------------------------------




----------------------------------------- Iteration    1(  15)  ---------------------------------------


    POTLOK:  cpu time    0.1420: real time    0.1432
    SETDIJ:  cpu time    0.0630: real time    0.0618
    EDDIAG:  cpu time    9.7245: real time    9.7152
  RMM-DIIS:  cpu time   33.6059: real time   33.5752
    ORTHCH:  cpu time    1.9687: real time    1.9677
       DOS:  cpu time    0.0280: real time    0.0282
    CHARGE:  cpu time    2.4766: real time    2.4738
    MIXING:  cpu time    0.0060: real time    0.0063
    --------------------------------------------
      LOOP:  cpu time   48.0157: real time   47.9739

 eigenvalue-minimisations  : 39203
 total energy-change (2. order) : 0.1400393E-01  (-0.2103603E-02)
 number of electron     434.0000587 magnetization      79.8613273
 augmentation part      262.6266814 magnetization      61.9248993

 Broyden mixing:
  rms(total) = 0.15949E+00    rms(broyden)= 0.15948E+00
  rms(prec ) = 0.26083E+00
  weight for this iteration     100.00

 eigenvalues of (default mixing * dielectric matrix)
  average eigenvalue GAMMA=   0.6537
  1.7425  1.3225  1.3225  0.7991  0.6526  0.1709  0.1146  0.1478  0.1381  0.1268

 Free energy of the ion-electron system (eV)
  ---------------------------------------------------
  alpha Z        PSCENC =      4918.63829509
  Ewald energy   TEWEN  =    -53978.14604262
  -Hartree energ DENC   =    -18407.81445640
  -exchange      EXHF   =         0.00000000
  -V(xc)+E(xc)   XCENC  =      2185.63043726
  PAW double counting   =     57226.33588496   -60048.82023158
  entropy T*S    EENTRO =        -0.70160305
  eigenvalues    EBANDS =     -8314.88814747
  atomic energy  EATOM  =     76163.62791748
  Solvation  Ediel_sol  =         0.00000000
  ---------------------------------------------------
  free energy    TOTEN  =      -256.13794633 eV

  energy without entropy =     -255.43634328  energy(sigma->0) =     -255.78714481


--------------------------------------------------------------------------------------------------------




----------------------------------------- Iteration    1(  16)  ---------------------------------------


    POTLOK:  cpu time    0.1450: real time    0.1455
    SETDIJ:  cpu time    0.0630: real time    0.0614
    EDDIAG:  cpu time    9.7055: real time    9.6969
  RMM-DIIS:  cpu time   45.2601: real time   45.2185
    ORTHCH:  cpu time    3.8264: real time    3.8229
       DOS:  cpu time    0.0530: real time    0.0530
    CHARGE:  cpu time    5.2102: real time    5.2046
    MIXING:  cpu time    0.0130: real time    0.0138
    --------------------------------------------
      LOOP:  cpu time   64.2772: real time   64.2210

 eigenvalue-minimisations  : 33685
 total energy-change (2. order) : 0.6163051E-02  (-0.5452174E-03)
 number of electron     434.0000587 magnetization      79.9426793
 augmentation part      262.6695578 magnetization      62.0304788

 Broyden mixing:
  rms(total) = 0.72496E-01    rms(broyden)= 0.72493E-01
  rms(prec ) = 0.12357E+00
  weight for this iteration     100.00

 eigenvalues of (default mixing * dielectric matrix)
  average eigenvalue GAMMA=   0.6413
  1.6742  1.2682  1.2682  0.9213  0.6760  0.5434  0.1737  0.1145  0.1496  0.1369
  0.1281

 Free energy of the ion-electron system (eV)
  ---------------------------------------------------
  alpha Z        PSCENC =      4918.63829509
  Ewald energy   TEWEN  =    -53978.14604262
  -Hartree energ DENC   =    -18400.62009084
  -exchange      EXHF   =         0.00000000
  -V(xc)+E(xc)   XCENC  =      2185.48407148
  PAW double counting   =     57273.67018856   -60100.48297499
  entropy T*S    EENTRO =        -0.70264570
  eigenvalues    EBANDS =     -8317.60050175
  atomic energy  EATOM  =     76163.62791748
  Solvation  Ediel_sol  =         0.00000000
  ---------------------------------------------------
  free energy    TOTEN  =      -256.13178328 eV

  energy without entropy =     -255.42913758  energy(sigma->0) =     -255.78046043


--------------------------------------------------------------------------------------------------------




----------------------------------------- Iteration    1(  17)  ---------------------------------------


    POTLOK:  cpu time    0.2610: real time    0.2608
    SETDIJ:  cpu time    0.1220: real time    0.1219
    EDDIAG:  cpu time   24.2553: real time   24.2328
  RMM-DIIS:  cpu time   53.7248: real time   53.6749
    ORTHCH:  cpu time    3.7314: real time    3.7280
       DOS:  cpu time    0.0550: real time    0.0550
    --------------------------------------------
      LOOP:  cpu time   82.1515: real time   82.0834

 eigenvalue-minimisations  : 29003
 total energy-change (2. order) :-0.9095149E-03  (-0.2352907E-03)
 number of electron     434.0000587 magnetization      79.9426793
 augmentation part      262.6695578 magnetization      62.0304788

 Free energy of the ion-electron system (eV)
  ---------------------------------------------------
  alpha Z        PSCENC =      4918.63829509
  Ewald energy   TEWEN  =    -53978.14604262
  -Hartree energ DENC   =    -18400.36768708
  -exchange      EXHF   =         0.00000000
  -V(xc)+E(xc)   XCENC  =      2185.52742000
  PAW double counting   =     57282.31782571   -60109.69196013
  entropy T*S    EENTRO =        -0.70264522
  eigenvalues    EBANDS =     -8317.33581602
  atomic energy  EATOM  =     76163.62791748
  Solvation  Ediel_sol  =         0.00000000
  ---------------------------------------------------
  free energy    TOTEN  =      -256.13269280 eV

  energy without entropy =     -255.43004758  energy(sigma->0) =     -255.78137019


--------------------------------------------------------------------------------------------------------




 average (electrostatic) potential at core
  the test charge radii are     0.9500
  (the norm of the test charge is              1.0000)
       1 -45.9370       2 -45.9619       3 -46.0004       4 -45.9541       5 -45.9465
       6 -45.9559       7 -45.9993       8 -45.9641       9 -45.9590      10 -45.9612
      11 -45.9581      12 -45.9855      13 -45.9943      14 -45.9917      15 -45.9993
      16 -45.9470      17 -45.9527      18 -45.9957      19 -46.0018      20 -45.9388
      21 -45.9429      22 -45.9934      23 -46.0035      24 -45.9640      25 -45.9852
      26 -45.9562      27 -45.9787      28 -45.9673      29 -45.9823      30 -45.9557
      31 -45.9750
 
 
 
 E-fermi :   4.7403     XC(G=0): -13.1058     alpha+bet :-12.0074


 spin component 1

 k-point     1 :       0.1250    0.1250    0.1250
  band No.  band energies     occupation 
      1     -49.6773      1.00000
      2     -49.6754      1.00000
      3     -49.6731      1.00000
      4     -49.6700      1.00000
      5     -49.6529      1.00000
      6     -49.6524      1.00000
      7     -49.6520      1.00000
      8     -49.6119      1.00000
      9     -49.6112      1.00000
     10     -49.6079      1.00000
     11     -49.6056      1.00000
     12     -49.6042      1.00000
     13     -49.6027      1.00000
     14     -49.5973      1.00000
     15     -49.5963      1.00000
     16     -49.5920      1.00000
     17     -49.5849      1.00000
     18     -49.5816      1.00000
     19     -49.5794      1.00000
     20     -49.5775      1.00000
     21     -49.5759      1.00000
     22     -49.5743      1.00000
     23     -49.5631      1.00000
     24     -49.5592      1.00000
     25     -49.5575      1.00000
     26     -49.5513      1.00000
     27     -49.5480      1.00000
     28     -49.5476      1.00000
     29     -49.5443      1.00000
     30     -49.5413      1.00000
     31     -49.5406      1.00000
     32     -49.5375      1.00000
     33     -49.5354      1.00000
     34     -49.5271      1.00000
     35     -49.5112      1.00000
     36     -49.5082      1.00000
     37     -49.5067      1.00000
     38     -49.4953      1.00000
     39     -49.4914      1.00000
     40     -49.4899      1.00000
     41     -49.4890      1.00000
     42     -49.4872      1.00000
     43     -49.4851      1.00000
     44     -49.4841      1.00000
     45     -49.4824      1.00000
     46     -49.4802      1.00000
     47     -49.4783      1.00000
     48     -49.4772      1.00000
     49     -49.4750      1.00000
     50     -49.4735      1.00000
     51     -49.4721      1.00000
     52     -49.4704      1.00000
     53     -49.4676      1.00000
     54     -49.4617      1.00000
     55     -49.4594      1.00000
     56     -49.4472      1.00000
     57     -49.4467      1.00000
     58     -49.4460      1.00000
     59     -49.4382      1.00000
     60     -49.4361      1.00000
     61     -49.4323      1.00000
     62     -49.4310      1.00000
     63     -49.4244      1.00000
     64     -49.4236      1.00000
     65     -49.4204      1.00000
     66     -49.4148      1.00000
     67     -49.4107      1.00000
     68     -49.4089      1.00000
     69     -49.4069      1.00000
     70     -49.4056      1.00000
     71     -49.4045      1.00000
     72     -49.4021      1.00000
     73     -49.4012      1.00000
     74     -49.3995      1.00000
     75     -49.3990      1.00000
     76     -49.3970      1.00000
     77     -49.3950      1.00000
     78     -49.3942      1.00000
     79     -49.3906      1.00000
     80     -49.3875      1.00000
     81     -49.3820      1.00000
     82     -49.3788      1.00000
     83     -49.3775      1.00000
     84     -49.3750      1.00000
     85     -49.3729      1.00000
     86     -49.3691      1.00000
     87     -49.3666      1.00000
     88     -49.3644      1.00000
     89     -49.3613      1.00000
     90     -49.3600      1.00000
     91     -49.3405      1.00000
     92     -49.3341      1.00000
     93     -49.3225      1.00000
     94      -3.3980      1.00000
     95      -1.3896      1.00000
     96      -1.3830      1.00000
     97      -1.2211      1.00000
     98      -0.4806      1.00000
     99      -0.4757      1.00000
    100      -0.3648      1.00000
    101      -0.1619      1.00000
    102      -0.1031      1.00000
    103      -0.0679      1.00000
    104      -0.0654      1.00000
    105      -0.0030      1.00000
    106      -0.0020      1.00000
    107       0.0070      1.00000
    108       0.1242      1.00000
    109       0.1288      1.00000
    110       0.3278      1.00000
    111       0.4963      1.00000
    112       0.4982      1.00000
    113       0.5004      1.00000
    114       0.6365      1.00000
    115       0.6591      1.00000
    116       0.6623      1.00000
    117       0.6738      1.00000
    118       0.6818      1.00000
    119       0.6892      1.00000
    120       0.6967      1.00000
    121       0.7688      1.00000
    122       0.7712      1.00000
    123       0.8983      1.00000
    124       0.9042      1.00000
    125       0.9668      1.00000
    126       0.9777      1.00000
    127       0.9827      1.00000
    128       1.1549      1.00000
    129       1.1631      1.00000
    130       1.2078      1.00000
    131       1.2571      1.00000
    132       1.3478      1.00000
    133       1.3584      1.00000
    134       1.3639      1.00000
    135       1.4190      1.00000
    136       1.4267      1.00000
    137       1.4794      1.00000
    138       1.5308      1.00000
    139       1.5367      1.00000
    140       1.5460      1.00000
    141       1.5539      1.00000
    142       1.5563      1.00000
    143       1.5617      1.00000
    144       1.6383      1.00000
    145       1.6529      1.00000
    146       1.6590      1.00000
    147       1.6940      1.00000
    148       1.7200      1.00000
    149       1.7260      1.00000
    150       1.7581      1.00000
    151       1.7603      1.00000
    152       1.7656      1.00000
    153       1.7851      1.00000
    154       1.7915      1.00000
    155       1.7963      1.00000
    156       1.8421      1.00000
    157       1.8519      1.00000
    158       1.8590      1.00000
    159       1.9126      1.00000
    160       1.9163      1.00000
    161       1.9232      1.00000
    162       1.9537      1.00000
    163       2.0040      1.00000
    164       2.0074      1.00000
    165       2.0631      1.00000
    166       2.0703      1.00000
    167       2.0755      1.00000
    168       2.0806      1.00000
    169       2.1332      1.00000
    170       2.1360      1.00000
    171       2.1551      1.00000
    172       2.1603      1.00000
    173       2.2355      1.00000
    174       2.2407      1.00000
    175       2.3080      1.00000
    176       2.3101      1.00000
    177       2.3414      1.00000
    178       2.3455      1.00000
    179       2.5339      1.00000
    180       2.5991      1.00000
    181       2.6024      1.00000
    182       2.6445      1.00000
    183       2.6479      1.00000
    184       2.7367      1.00000
    185       2.7502      1.00000
    186       2.7527      1.00000
    187       2.7610      1.00000
    188       2.8050      1.00000
    189       2.8204      1.00000
    190       2.8232      1.00000
    191       2.8850      1.00000
    192       2.8899      1.00000
    193       2.8931      1.00000
    194       2.8992      1.00000
    195       2.9030      1.00000
    196       2.9102      1.00000
    197       2.9756      1.00000
    198       2.9877      1.00000
    199       3.0905      1.00000
    200       3.0953      1.00000
    201       3.1198      1.00000
    202       3.1271      1.00000
    203       3.2002      1.00000
    204       3.2089      1.00000
    205       3.2941      1.00000
    206       3.2997      1.00000
    207       3.3030      1.00000
    208       3.3051      1.00000
    209       3.3069      1.00000
    210       3.3075      1.00000
    211       3.3184      1.00000
    212       3.3397      1.00000
    213       3.3465      1.00000
    214       3.3502      1.00000
    215       3.3558      1.00000
    216       3.4538      1.00000
    217       3.4613      1.00000
    218       3.5555      1.00000
    219       3.5704      1.00000
    220       3.5778      1.00000
    221       3.5810      1.00000
    222       3.6011      1.00000
    223       3.6071      1.00000
    224       3.6212      1.00000
    225       3.6288      1.00000
    226       3.6542      1.00000
    227       3.6587      1.00000
    228       3.6629      1.00000
    229       3.6911      1.00000
    230       3.6966      1.00000
    231       3.7044      1.00000
    232       3.7250      1.00000
    233       3.8130      1.00000
    234       3.8193      1.00000
    235       3.8605      1.00000
    236       3.9698      1.00000
    237       3.9754      1.00000
    238       4.0068      1.00000
    239       4.0200      1.00000
    240       4.0500      1.00000
    241       4.0968      1.00000
    242       4.1672      0.99997
    243       4.1694      0.99997
    244       4.1740      0.99997
    245       4.2391      0.99980
    246       4.2416      0.99979
    247       4.2440      0.99978
    248       4.3460      0.99735
    249       4.3499      0.99711
    250       4.3705      0.99554
    251       4.4241      0.98733
    252       4.4559      0.97784
    253       4.4614      0.97569
    254       4.4632      0.97497
    255       4.4676      0.97309
    256       4.4709      0.97158
    257       4.9903      0.03853
    258       4.9927      0.03717
    259       5.0646      0.01093
    260       5.3402      0.00001
    261       5.4142      0.00000
    262       5.4172      0.00000
    263       5.8346      0.00000
    264       5.8366      0.00000
    265       5.9548      0.00000
    266       6.0503      0.00000
    267       6.0858      0.00000
    268       6.0897      0.00000
    269       7.0326      0.00000
    270       7.0342      0.00000
    271       7.2480      0.00000
    272       7.4458      0.00000
    273       7.4522      0.00000
    274       7.4535      0.00000
    275      10.7957      0.00000
    276      10.7989      0.00000
    277      10.9839      0.00000
    278      11.1074      0.00000
    279      11.1130      0.00000
    280      11.1378      0.00000
    281      11.2767      0.00000
    282      11.2812      0.00000
    283      11.2937      0.00000
    284      11.6374      0.00000
    285      12.7409      0.00000
    286      12.7497      0.00000
    287      12.8239      0.00000
    288      12.8980      0.00000
    289      12.9871      0.00000
    290      12.9956      0.00000
    291      13.9873      0.00000
    292      13.9894      0.00000
    293      14.0393      0.00000
    294      14.3153      0.00000
    295      14.3166      0.00000
    296      14.3980      0.00000
    297      15.1709      0.00000
    298      15.1813      0.00000
    299      15.1972      0.00000
    300      15.2017      0.00000
    301      15.2092      0.00000
    302      15.2389      0.00000
    303      15.3658      0.00000
    304      15.3715      0.00000
    305      15.4215      0.00000
    306      15.5221      0.00000
    307      15.5647      0.00000
    308      15.5751      0.00000
    309      16.4608      0.00000
    310      16.4630      0.00000
    311      16.5038      0.00000
    312      16.5484      0.00000
    313      16.5539      0.00000
    314      16.6029      0.00000
    315      16.8149      0.00000
    316      16.8462      0.00000
    317      16.8496      0.00000
    318      17.0589      0.00000
    319      17.1202      0.00000
    320      17.1236      0.00000
    321      18.1194      0.00000
    322      18.1279      0.00000
    323      18.1391      0.00000
    324      18.1838      0.00000
    325      18.1909      0.00000
    326      18.2149      0.00000
    327      18.3736      0.00000
    328      18.3857      0.00000
    329      18.3919      0.00000
    330      19.2964      0.00000
    331      19.3688      0.00000
    332      19.3704      0.00000
    333      19.4749      0.00000
    334      19.4779      0.00000
    335      19.5939      0.00000
    336      20.8730      0.00000
    337      20.8736      0.00000
    338      21.0318      0.00000
    339      22.3519      0.00000
    340      22.4041      0.00000

 k-point     2 :       0.3750    0.1250    0.1250
  band No.  band energies     occupation 
      1     -49.6648      1.00000
      2     -49.6603      1.00000
      3     -49.6576      1.00000
      4     -49.6517      1.00000
      5     -49.6408      1.00000
      6     -49.6399      1.00000
      7     -49.6362      1.00000
      8     -49.6343      1.00000
      9     -49.6303      1.00000
     10     -49.6292      1.00000
     11     -49.6238      1.00000
     12     -49.6157      1.00000
     13     -49.6141      1.00000
     14     -49.6046      1.00000
     15     -49.6017      1.00000
     16     -49.5991      1.00000
     17     -49.5938      1.00000
     18     -49.5909      1.00000
     19     -49.5874      1.00000
     20     -49.5861      1.00000
     21     -49.5803      1.00000
     22     -49.5750      1.00000
     23     -49.5718      1.00000
     24     -49.5635      1.00000
     25     -49.5587      1.00000
     26     -49.5515      1.00000
     27     -49.5499      1.00000
     28     -49.5481      1.00000
     29     -49.5399      1.00000
     30     -49.5393      1.00000
     31     -49.5341      1.00000
     32     -49.5292      1.00000
     33     -49.5268      1.00000
     34     -49.5255      1.00000
     35     -49.5196      1.00000
     36     -49.5161      1.00000
     37     -49.5070      1.00000
     38     -49.5047      1.00000
     39     -49.5007      1.00000
     40     -49.4980      1.00000
     41     -49.4938      1.00000
     42     -49.4906      1.00000
     43     -49.4785      1.00000
     44     -49.4765      1.00000
     45     -49.4745      1.00000
     46     -49.4733      1.00000
     47     -49.4710      1.00000
     48     -49.4656      1.00000
     49     -49.4626      1.00000
     50     -49.4588      1.00000
     51     -49.4578      1.00000
     52     -49.4552      1.00000
     53     -49.4547      1.00000
     54     -49.4474      1.00000
     55     -49.4455      1.00000
     56     -49.4428      1.00000
     57     -49.4411      1.00000
     58     -49.4365      1.00000
     59     -49.4325      1.00000
     60     -49.4297      1.00000
     61     -49.4287      1.00000
     62     -49.4264      1.00000
     63     -49.4255      1.00000
     64     -49.4246      1.00000
     65     -49.4223      1.00000
     66     -49.4204      1.00000
     67     -49.4192      1.00000
     68     -49.4186      1.00000
     69     -49.4165      1.00000
     70     -49.4140      1.00000
     71     -49.4092      1.00000
     72     -49.4079      1.00000
     73     -49.4049      1.00000
     74     -49.4035      1.00000
     75     -49.4001      1.00000
     76     -49.3966      1.00000
     77     -49.3952      1.00000
     78     -49.3921      1.00000
     79     -49.3901      1.00000
     80     -49.3889      1.00000
[...]
  0.000   0.000   0.000   0.000   0.000   0.000   0.000   0.075   0.000   0.000  -0.000   0.000   0.188  -0.000   0.000  -0.000
 -0.000   0.000   0.000  -0.000   0.000   0.000  -0.000   0.000   0.016  -0.000   0.000  -0.000  -0.000   0.187   0.000  -0.000
  0.000   0.000   0.000   0.000   0.000   0.000  -0.000   0.000  -0.000   0.076   0.000   0.000   0.000   0.000   0.187   0.000
 -0.000  -0.000  -0.000  -0.000  -0.000  -0.000  -0.000  -0.000   0.000   0.000  -0.022  -0.000  -0.000  -0.000   0.000   0.187
  0.000   0.000   0.000   0.000   0.001   0.000   0.000   0.000   0.002   0.000   0.000   0.000   0.000   0.016   0.000  -0.000
 -0.000   0.001   0.000  -0.000  -0.000   0.000  -0.000  -0.000  -0.014   0.000  -0.000  -0.000  -0.000   0.001  -0.000   0.000
 total augmentation occupancy for first ion, spin component:           2
 -0.013  -0.000  -0.000  -0.019  -0.000  -0.000  -0.000  -0.000   0.000   0.000   0.000  -0.000  -0.000   0.000  -0.000   0.000
 -0.000  -0.014  -0.000  -0.000  -0.021  -0.000   0.000   0.000   0.000  -0.000   0.000   0.000  -0.000  -0.000  -0.000  -0.000
 -0.000  -0.000  -0.013  -0.000  -0.000  -0.018  -0.000  -0.000  -0.000   0.000   0.000   0.000  -0.000  -0.000  -0.000   0.000
 -0.019  -0.000  -0.000  -0.022  -0.000  -0.000  -0.000  -0.000   0.000   0.000   0.000  -0.000  -0.000  -0.000  -0.000   0.000
 -0.000  -0.021  -0.000  -0.000  -0.029  -0.000   0.000   0.000  -0.000  -0.000  -0.000  -0.000  -0.000  -0.000   0.000  -0.000
 -0.000  -0.000  -0.018  -0.000  -0.000  -0.022  -0.000  -0.000  -0.001   0.000   0.001   0.000  -0.000   0.000  -0.000   0.000
 -0.000   0.000  -0.000  -0.000   0.000  -0.000   0.424   0.000   0.000   0.000   0.000  -0.273  -0.000  -0.000  -0.000   0.000
 -0.000   0.000  -0.000  -0.000   0.000  -0.000   0.000   0.451  -0.000   0.000   0.000  -0.000  -0.273   0.000  -0.000  -0.000
  0.000   0.000  -0.000   0.000  -0.000  -0.001   0.000  -0.000   0.576   0.000  -0.001  -0.000   0.000  -0.294  -0.000   0.000
  0.000  -0.000   0.000   0.000  -0.000   0.000   0.000   0.000   0.000   0.449  -0.000  -0.000  -0.000  -0.000  -0.273   0.000
  0.000   0.000   0.000   0.000  -0.000   0.001   0.000   0.000  -0.001  -0.000   0.658   0.000  -0.000   0.000   0.000  -0.283
 -0.000   0.000   0.000  -0.000  -0.000   0.000  -0.273  -0.000  -0.000  -0.000   0.000   0.027   0.000   0.000   0.000   0.000
 -0.000  -0.000  -0.000  -0.000  -0.000  -0.000  -0.000  -0.273   0.000  -0.000  -0.000   0.000   0.024  -0.000  -0.000   0.000
  0.000  -0.000  -0.000  -0.000  -0.000   0.000  -0.000   0.000  -0.294  -0.000   0.000   0.000  -0.000   0.031   0.000  -0.000
 -0.000  -0.000  -0.000  -0.000   0.000  -0.000  -0.000  -0.000  -0.000  -0.273   0.000   0.000  -0.000   0.000   0.024  -0.000
  0.000  -0.000   0.000   0.000  -0.000   0.000   0.000  -0.000   0.000   0.000  -0.283   0.000   0.000  -0.000  -0.000   0.040
 -0.000   0.000   0.000  -0.000  -0.000   0.000  -0.000  -0.000  -0.015  -0.000   0.000   0.000   0.000  -0.004   0.000  -0.000
 -0.000   0.000  -0.000   0.000   0.000  -0.000  -0.000  -0.000  -0.011  -0.000  -0.000  -0.000   0.000   0.003  -0.000   0.000


------------------------ aborting loop because EDIFF is reached ----------------------------------------


 


 total charge     
 
# of ion     s       p       d       tot
----------------------------------------
  1        0.381   6.367   6.007  12.754
  2        0.381   6.368   6.006  12.755
  3        0.367   6.343   6.008  12.718
  4        0.380   6.366   6.005  12.752
  5        0.366   6.341   6.006  12.713
  6        0.366   6.342   6.009  12.718
  7        0.369   6.343   5.999  12.711
  8        0.378   6.339   6.013  12.729
  9        0.378   6.339   6.012  12.728
 10        0.377   6.339   6.012  12.728
 11        0.377   6.339   6.015  12.731
 12        0.370   6.347   6.006  12.724
 13        0.370   6.348   6.002  12.720
 14        0.370   6.347   6.002  12.719
 15        0.370   6.347   6.004  12.722
 16        0.377   6.338   6.015  12.730
 17        0.377   6.338   6.010  12.725
 18        0.371   6.348   6.001  12.720
 19        0.371   6.348   6.003  12.722
 20        0.377   6.339   6.012  12.728
 21        0.377   6.339   6.010  12.726
 22        0.371   6.348   6.002  12.721
 23        0.371   6.349   6.008  12.727
 24        0.377   6.339   6.013  12.730
 25        0.370   6.348   6.004  12.721
 26        0.378   6.339   6.015  12.731
 27        0.370   6.347   6.003  12.720
 28        0.377   6.339   6.011  12.728
 29        0.371   6.348   6.006  12.724
 30        0.378   6.339   6.012  12.729
 31        0.370   6.348   6.005  12.723
------------------------------------------------
tot       11.585 196.706 186.236 394.526
 


 magnetization (x)
 
# of ion     s       p       d       tot
----------------------------------------
  1       -0.008  -0.041   2.554   2.506
  2       -0.008  -0.041   2.552   2.503
  3       -0.007  -0.034   2.663   2.622
  4       -0.008  -0.041   2.556   2.508
  5       -0.006  -0.034   2.669   2.629
  6       -0.007  -0.034   2.664   2.623
  7       -0.005  -0.032   2.638   2.601
  8       -0.005  -0.031   2.639   2.603
  9       -0.005  -0.031   2.640   2.603
 10       -0.005  -0.031   2.641   2.604
 11       -0.005  -0.031   2.639   2.602
 12       -0.005  -0.033   2.647   2.608
 13       -0.005  -0.033   2.648   2.609
 14       -0.005  -0.033   2.650   2.611
 15       -0.005  -0.033   2.647   2.609
 16       -0.005  -0.031   2.642   2.606
 17       -0.005  -0.031   2.644   2.608
 18       -0.005  -0.033   2.648   2.609
 19       -0.005  -0.033   2.647   2.608
 20       -0.005  -0.031   2.640   2.604
 21       -0.005  -0.031   2.642   2.605
 22       -0.005  -0.033   2.647   2.608
 23       -0.005  -0.033   2.643   2.605
 24       -0.005  -0.031   2.639   2.603
 25       -0.005  -0.033   2.648   2.609
 26       -0.005  -0.031   2.639   2.602
 27       -0.005  -0.033   2.649   2.610
 28       -0.005  -0.031   2.640   2.604
 29       -0.005  -0.033   2.646   2.607
 30       -0.005  -0.031   2.640   2.603
 31       -0.005  -0.033   2.647   2.608
------------------------------------------------
tot       -0.176  -1.027  81.748  80.544
 
    CHARGE:  cpu time    5.1242: real time    5.1187
    FORLOC:  cpu time    0.0500: real time    0.0504
    FORNL :  cpu time   34.4998: real time   34.4680
    FORCOR:  cpu time    0.4169: real time    0.4158
    FORHAR:  cpu time    0.0740: real time    0.0743
    MIXING:  cpu time    0.0110: real time    0.0108
    OFIELD:  cpu time    0.0000: real time    0.0000

 VOLUME and BASIS-vectors are now :
 -----------------------------------------------------------------------------
  energy-cutoff  :      520.00
  volume of cell :      383.80
      direct lattice vectors                 reciprocal lattice vectors
     7.267193000  0.000000000  0.000000000     0.137604712  0.000000000  0.000000000
     0.000000000  7.267193000  0.000000000     0.000000000  0.137604712  0.000000000
     0.000000000  0.000000000  7.267193000     0.000000000  0.000000000  0.137604712

  length of vectors
     7.267193000  7.267193000  7.267193000     0.137604712  0.137604712  0.137604712


 FORCES acting on ions
    electron-ion (+dipol)            ewald-force                    non-local-force                 convergence-correction
 -----------------------------------------------------------------------------------------------
   -.111E+01 0.107E+01 0.278E+01   0.113E+01 -.109E+01 -.291E+01   0.449E-01 -.170E-01 -.854E-01   -.641E-01 0.385E-01 0.183E+00
   -.162E+01 -.354E+00 0.303E+01   0.168E+01 0.446E+00 -.323E+01   -.145E-01 -.354E-01 -.639E-01   -.457E-01 -.581E-01 0.224E+00
   -.153E+01 -.736E+00 -.224E+01   0.145E+01 0.760E+00 0.241E+01   0.386E-01 0.576E-01 0.573E-01   0.473E-01 -.757E-01 -.203E+00
   0.194E+01 0.838E+00 0.136E+01   -.213E+01 -.866E+00 -.117E+01   0.158E-02 -.168E-01 -.149E+00   0.187E+00 0.396E-01 -.653E-01
   0.113E+01 0.426E+00 0.223E+00   -.115E+01 -.400E+00 -.405E+00   -.238E-01 0.391E-01 0.135E+00   0.501E-01 -.618E-01 0.535E-01
   0.146E+01 -.980E+00 -.229E+01   -.151E+01 0.999E+00 0.218E+01   0.234E-01 0.398E-01 0.698E-01   0.224E-01 -.488E-01 0.577E-01
   0.223E+01 -.268E+00 0.263E+01   -.215E+01 0.232E+00 -.252E+01   -.224E-01 0.111E-01 -.758E-01   -.722E-01 0.264E-01 -.510E-01
   -.311E+01 0.174E+03 0.166E+03   0.322E+01 -.174E+03 -.165E+03   0.299E-01 -.696E+00 -.699E+00   -.110E+00 0.637E-01 -.233E+00
   0.153E+01 0.169E+03 -.168E+03   -.156E+01 -.168E+03 0.167E+03   0.433E-01 -.607E+00 0.703E+00   -.289E-01 -.265E+00 0.230E+00
   -.184E+01 -.174E+03 0.166E+03   0.196E+01 0.174E+03 -.165E+03   -.530E-01 0.714E+00 -.654E+00   -.634E-01 -.896E-01 -.210E+00
   -.424E+01 -.169E+03 -.167E+03   0.427E+01 0.168E+03 0.166E+03   0.361E-01 0.624E+00 0.688E+00   -.382E-01 0.252E+00 0.184E+00
   0.242E+01 0.201E+02 0.159E+02   -.251E+01 -.200E+02 -.157E+02   -.413E-01 0.101E+00 0.723E-01   0.112E+00 -.146E+00 -.326E+00
   0.641E+00 0.246E+02 -.172E+02   -.612E+00 -.243E+02 0.169E+02   0.127E-01 -.282E-01 -.994E-01   -.349E-01 -.326E+00 0.352E+00
   0.490E-01 -.213E+02 0.176E+02   -.159E+00 0.212E+02 -.174E+02   0.258E-02 -.170E+00 0.814E-01   0.121E+00 0.205E+00 -.290E+00
   0.314E+01 -.244E+02 -.170E+02   -.316E+01 0.241E+02 0.168E+02   -.136E-01 0.192E-01 -.350E-01   0.964E-02 0.330E+00 0.243E+00
   0.167E+03 -.110E+01 0.166E+03   -.167E+03 0.114E+01 -.165E+03   -.779E+00 0.351E-01 -.640E+00   -.102E+00 -.674E-01 -.170E+00
   0.163E+03 0.535E+00 -.168E+03   -.163E+03 -.652E+00 0.167E+03   -.627E+00 -.497E-01 0.662E+00   -.140E+00 0.157E+00 0.145E+00
   0.139E+02 0.418E+00 0.158E+02   -.136E+02 -.469E+00 -.157E+02   0.918E-01 -.908E-02 0.469E-01   -.394E+00 0.556E-01 -.237E+00
   0.187E+02 -.204E+01 -.176E+02   -.184E+02 0.215E+01 0.174E+02   -.429E-01 0.503E-01 -.960E-01   -.246E+00 -.140E+00 0.299E+00
   -.166E+03 0.269E+01 0.166E+03   0.165E+03 -.264E+01 -.165E+03   0.750E+00 -.105E-01 -.630E+00   0.111E+00 -.572E-01 -.296E+00
   -.163E+03 0.322E+00 -.167E+03   0.163E+03 -.443E+00 0.166E+03   0.571E+00 0.765E-01 0.664E+00   0.181E+00 0.499E-01 0.263E+00
   -.133E+02 -.842E+00 0.178E+02   0.129E+02 0.785E+00 -.175E+02   -.857E-01 0.999E-01 0.669E-01   0.390E+00 -.339E-01 -.382E+00
   -.184E+02 0.222E+00 -.179E+02   0.182E+02 -.110E+00 0.176E+02   0.403E-01 -.465E-01 -.501E-01   0.245E+00 -.703E-01 0.368E+00
   0.165E+03 0.173E+03 -.820E+00   -.164E+03 -.172E+03 0.956E+00   -.730E+00 -.643E+00 0.243E-01   -.197E+00 -.581E-01 -.156E+00
   0.145E+02 0.236E+02 0.220E+01   -.142E+02 -.235E+02 -.233E+01   0.375E-01 0.916E-01 0.230E-02   -.306E+00 -.162E+00 0.119E+00
   0.164E+03 -.172E+03 0.498E+00   -.163E+03 0.172E+03 -.517E+00   -.681E+00 0.637E+00 -.833E-01   -.134E+00 0.621E-01 0.886E-01
   0.159E+02 -.239E+02 -.364E+00   -.157E+02 0.238E+02 0.389E+00   0.294E-01 -.138E+00 0.544E-01   -.234E+00 0.207E+00 -.692E-01
   -.166E+03 0.171E+03 0.134E+01   0.165E+03 -.170E+03 -.130E+01   0.735E+00 -.690E+00 -.544E-01   0.191E+00 -.198E+00 -.543E-03
   -.146E+02 0.222E+02 0.264E+00   0.144E+02 -.220E+02 -.298E+00   -.444E-01 0.761E-02 0.945E-01   0.303E+00 -.249E+00 -.570E-01
   -.166E+03 -.170E+03 -.770E+00   0.165E+03 0.169E+03 0.636E+00   0.669E+00 0.656E+00 0.448E-01   0.165E+00 0.209E+00 0.932E-01
   -.156E+02 -.224E+02 0.127E+01   0.154E+02 0.222E+02 -.113E+01   -.829E-02 -.740E-01 -.578E-01   0.206E+00 0.305E+00 -.906E-01
 -----------------------------------------------------------------------------------------------
   -.126E+00 0.855E-01 -.698E-01   -.128E-12 0.277E-12 0.135E-12   -.989E-02 0.282E-01 -.541E-02   0.132E+00 -.107E+00 0.669E-01
 
 
 POSITION                                       TOTAL-FORCE (eV/Angst)
 -----------------------------------------------------------------------------------
      0.00412      7.26536      3.63283         0.003363     -0.006649     -0.028678
      7.26098      3.63283      0.00031         0.005970     -0.001436     -0.033235
      7.26450      3.63489      3.63099         0.005261      0.005414      0.027049
      3.63040      7.26640     -0.00142        -0.002594     -0.004935     -0.024746
      3.62667     -0.00022      3.63656         0.001322      0.003135      0.007021
      3.63897      3.63057     -0.00023        -0.003593      0.009532      0.017586
      3.63717      3.63062      3.63307        -0.011985      0.000773     -0.021551
      7.26491      1.77724      1.77295         0.026666     -0.037806      0.016573
      0.00507      1.77328      5.49124        -0.015583      0.018943      0.004315
      7.26387      5.49021      1.77079         0.000626      0.032677      0.023476
      7.26013      5.49336      5.49415         0.028097     -0.025778     -0.008646
      3.63355      1.80099      1.80246        -0.018312     -0.004469      0.000410
      3.63053      1.80674      5.46365         0.006982     -0.050228      0.007460
      3.63077      5.46188      1.80471         0.013697      0.010348     -0.017995
      3.63824      5.45728      5.46376        -0.022375      0.047387      0.014094
      1.77441      7.26387      1.77312        -0.008618      0.011134      0.016220
      1.77434      7.26242      5.48984         0.032176     -0.008964      0.007712
      1.80012      3.63304      1.79687         0.009632     -0.005560     -0.002404
      1.80132      3.63347      5.46564        -0.038720      0.019449      0.014863
      5.48747      0.00223      1.77906         0.008547     -0.016943      0.019465
      5.49060      0.00264      5.48896        -0.033990      0.005951     -0.010834
      5.46587      3.63233      1.80317        -0.014089      0.008707     -0.011450
      5.46674      3.63011      5.46404         0.034179     -0.004290      0.012094
      1.77466      1.77774     -0.00058         0.006777     -0.013398      0.005055
      1.79845      1.80928      3.63203        -0.004881     -0.030251     -0.013263
      1.77487      5.48493     -0.00255         0.016071      0.011706     -0.014033
      1.79983      5.45414      3.63344        -0.016257      0.031710      0.010222
      5.49233      1.77145      7.26678        -0.006903     -0.002890     -0.017914
      5.46836      1.80140      3.63528         0.001429     -0.027977      0.004527
      5.48795      5.49494      0.00127        -0.015641      0.000336      0.004078
      5.46524      5.46472      3.63287         0.012747      0.024370     -0.007469
 -----------------------------------------------------------------------------------
    total drift:                               -0.004012      0.006464     -0.008340


--------------------------------------------------------------------------------------------------------



  FREE ENERGIE OF THE ION-ELECTRON SYSTEM (eV)
  ---------------------------------------------------
  free  energy   TOTEN  =      -256.31451612 eV

  energy  without entropy=     -255.64533726  energy(sigma->0) =     -255.97992669
 
 d Force = 0.9071795E-04[-0.575E-04, 0.239E-03]  d Energy =-0.5577119E-03 0.648E-03
 d Force = 0.1251630E+01[ 0.123E+01, 0.127E+01]  d Ewald  = 0.1251631E+01-0.163E-05


--------------------------------------------------------------------------------------------------------


    POTLOK:  cpu time    0.3859: real time    0.3856


--------------------------------------------------------------------------------------------------------


 stress matrix after NEB project (eV)
      0.00000      0.00000      0.00000
      0.00000      0.00000      0.00000
      0.00000      0.00000      0.00000
  FORCES: max atom, RMS     0.054266    0.031368
  FORCE total and by dimension    0.174648    0.050228
  Stress total and by dimension    0.000000    0.000000


--------------------------------------------------------------------------------------------------------


  
 reached required accuracy - stopping structural energy minimisation
     LOOP+:  cpu time  549.3365: real time  549.0155
    4ORBIT:  cpu time    0.0000: real time    0.0000
 


 total charge     
 
# of ion     s       p       d       tot
----------------------------------------
  1        0.381   6.367   6.007  12.754
  2        0.381   6.368   6.006  12.755
  3        0.367   6.343   6.008  12.718
  4        0.380   6.366   6.005  12.752
  5        0.366   6.341   6.006  12.713
  6        0.366   6.342   6.009  12.718
  7        0.369   6.343   5.999  12.711
  8        0.378   6.339   6.013  12.729
  9        0.378   6.339   6.012  12.728
 10        0.377   6.339   6.012  12.728
 11        0.377   6.339   6.015  12.731
 12        0.370   6.347   6.006  12.724
 13        0.370   6.348   6.002  12.720
 14        0.370   6.347   6.002  12.719
 15        0.370   6.347   6.004  12.722
 16        0.377   6.338   6.015  12.730
 17        0.377   6.338   6.010  12.725
 18        0.371   6.348   6.001  12.720
 19        0.371   6.348   6.003  12.722
 20        0.377   6.339   6.012  12.728
 21        0.377   6.339   6.010  12.726
 22        0.371   6.348   6.002  12.721
 23        0.371   6.349   6.008  12.727
 24        0.377   6.339   6.013  12.730
 25        0.370   6.348   6.004  12.721
 26        0.378   6.339   6.015  12.731
 27        0.370   6.347   6.003  12.720
 28        0.377   6.339   6.011  12.728
 29        0.371   6.348   6.006  12.724
 30        0.378   6.339   6.012  12.729
 31        0.370   6.348   6.005  12.723
------------------------------------------------
tot       11.585 196.706 186.236 394.526
 


 magnetization (x)
 
# of ion     s       p       d       tot
----------------------------------------
  1       -0.008  -0.041   2.554   2.506
  2       -0.008  -0.041   2.552   2.503
  3       -0.007  -0.034   2.663   2.622
  4       -0.008  -0.041   2.556   2.508
  5       -0.006  -0.034   2.669   2.629
  6       -0.007  -0.034   2.664   2.623
  7       -0.005  -0.032   2.638   2.601
  8       -0.005  -0.031   2.639   2.603
  9       -0.005  -0.031   2.640   2.603
 10       -0.005  -0.031   2.641   2.604
 11       -0.005  -0.031   2.639   2.602
 12       -0.005  -0.033   2.647   2.608
 13       -0.005  -0.033   2.648   2.609
 14       -0.005  -0.033   2.650   2.611
 15       -0.005  -0.033   2.647   2.609
 16       -0.005  -0.031   2.642   2.606
 17       -0.005  -0.031   2.644   2.608
 18       -0.005  -0.033   2.648   2.609
 19       -0.005  -0.033   2.647   2.608
 20       -0.005  -0.031   2.640   2.604
 21       -0.005  -0.031   2.642   2.605
 22       -0.005  -0.033   2.647   2.608
 23       -0.005  -0.033   2.643   2.605
 24       -0.005  -0.031   2.639   2.603
 25       -0.005  -0.033   2.648   2.609
 26       -0.005  -0.031   2.639   2.602
 27       -0.005  -0.033   2.649   2.610
 28       -0.005  -0.031   2.640   2.604
 29       -0.005  -0.033   2.646   2.607
 30       -0.005  -0.031   2.640   2.603
 31       -0.005  -0.033   2.647   2.608
------------------------------------------------
tot       -0.176  -1.027  81.748  80.544
 

 total amount of memory used by VASP on root node   207417. kBytes
========================================================================

   base      :      30000. kBytes
   nonlr-proj:       7269. kBytes
   fftplans  :       2739. kBytes
   grid      :       6374. kBytes
   one-center:        186. kBytes
   wavefun   :     160849. kBytes
 
  
  
 General timing and accounting informations for this job:
 ========================================================
  
                  Total CPU time used (sec):     4478.070
                            User time (sec):     4458.494
                          System time (sec):       19.576
                         Elapsed time (sec):     4482.873
  
                   Maximum memory used (kb):      269428.
                   Average memory used (kb):           0.
  
                          Minor page faults:        84225
                          Major page faults:            0
                 Voluntary context switches:         8589
