<?xml version="1.0" encoding="ISO-8859-1"?>
<modeling>
 <generator>
  <i name="program" type="string">vasp </i>
  <i name="version" type="string">5.2.2  </i>
  <i name="subversion" type="string">15Apr09 complex  parallel </i>
  <i name="platform" type="string">unknown </i>
  <i name="date" type="string">2012 01 31 </i>
  <i name="time" type="string">14:32:52 </i>
 </generator>
 <incar>
  <i type="string" name="SYSTEM"> Al</i>
  <i type="int" name="ISTART">     1</i>
  <i type="string" name="PREC">accurate</i>
  <i type="logical" name="ADDGRID"> F  </i>
  <i type="int" name="ISPIN">     1</i>
  <i type="int" name="ICHARG">     1</i>
  <i type="int" name="IBRION">     2</i>
  <i name="EDIFF">      0.00000010</i>
  <i name="EDIFFG">      0.00000010</i>
  <i type="int" name="NSW">     5</i>
  <i type="int" name="ISIF">     2</i>
  <i name="ENCUT">    550.00000000</i>
  <i name="POTIM">      0.10000000</i>
  <i type="string" name="LREAL"> AUTO</i>
  <i type="int" name="ISMEAR">     2</i>
  <i name="SIGMA">      0.10000000</i>
  <i type="logical" name="LWAVE"> F  </i>
  <i type="logical" name="LPEAD"> F  </i>
  <i type="logical" name="LCALCPOL"> F  </i>
  <i type="logical" name="LCALCEPS"> F  </i>
  <v name="EFIELD_PEAD">      0.00000000      0.00000000      0.00000000</v>
  <i type="int" name="VOSKOWN">     1</i>
  <i type="logical" name="LEFG"> F  </i>
 </incar>
 <kpoints>
  <generation param="Gamma">
   <v type="int" name="divisions">      20       20       20 </v>
   <v name="usershift">      0.00000000       0.00000000       0.00000000 </v>
   <v name="genvec1">      0.05000000       0.00000000       0.00000000 </v>
   <v name="genvec2">      0.00000000       0.05000000       0.00000000 </v>
   <v name="genvec3">      0.00000000       0.00000000       0.05000000 </v>
   <v name="shift">      0.00000000       0.00000000       0.00000000 </v>
  </generation>
  <varray name="kpointlist" >
   <v>       0.00000000       0.00000000       0.00000000 </v>
   <v>       0.05000000       0.00000000       0.00000000 </v>
   <v>       0.10000000       0.00000000       0.00000000 </v>
   <v>       0.15000000       0.00000000       0.00000000 </v>
   <v>       0.20000000       0.00000000       0.00000000 </v>
   <v>       0.25000000       0.00000000       0.00000000 </v>
   <v>       0.30000000       0.00000000       0.00000000 </v>
   <v>       0.35000000       0.00000000       0.00000000 </v>
   <v>       0.40000000       0.00000000       0.00000000 </v>
   <v>       0.45000000       0.00000000       0.00000000 </v>
   <v>       0.50000000       0.00000000       0.00000000 </v>
   <v>       0.00000000       0.05000000       0.00000000 </v>
   <v>       0.05000000       0.05000000       0.00000000 </v>
   <v>       0.10000000       0.05000000       0.00000000 </v>
   <v>       0.15000000       0.05000000       0.00000000 </v>
   <v>       0.20000000       0.05000000       0.00000000 </v>
   <v>       0.25000000       0.05000000       0.00000000 </v>
   <v>       0.30000000       0.05000000       0.00000000 </v>
   <v>       0.35000000       0.05000000       0.00000000 </v>
   <v>       0.40000000       0.05000000       0.00000000 </v>
   <v>       0.45000000       0.05000000       0.00000000 </v>
   <v>       0.50000000       0.05000000       0.00000000 </v>
   <v>       0.00000000       0.10000000       0.00000000 </v>
   <v>       0.05000000       0.10000000       0.00000000 </v>
   <v>       0.10000000       0.10000000       0.00000000 </v>
   <v>       0.15000000       0.10000000       0.00000000 </v>
   <v>       0.20000000       0.10000000       0.00000000 </v>
   <v>       0.25000000       0.10000000       0.00000000 </v>
   <v>       0.30000000       0.10000000       0.00000000 </v>
   <v>       0.35000000       0.10000000       0.00000000 </v>
   <v>       0.40000000       0.10000000       0.00000000 </v>
   <v>       0.45000000       0.10000000       0.00000000 </v>
   <v>       0.50000000       0.10000000       0.00000000 </v>
   <v>       0.00000000       0.15000000       0.00000000 </v>
   <v>       0.05000000       0.15000000       0.00000000 </v>
   <v>       0.10000000       0.15000000       0.00000000 </v>
   <v>       0.15000000       0.15000000       0.00000000 </v>
   <v>       0.20000000       0.15000000       0.00000000 </v>
   <v>       0.25000000       0.15000000       0.00000000 </v>
   <v>       0.30000000       0.15000000       0.00000000 </v>
   <v>       0.35000000       0.15000000       0.00000000 </v>
   <v>       0.40000000       0.15000000       0.00000000 </v>
   <v>       0.45000000       0.15000000       0.00000000 </v>
   <v>       0.50000000       0.15000000       0.00000000 </v>
   <v>       0.00000000       0.20000000       0.00000000 </v>
   <v>       0.05000000       0.20000000       0.00000000 </v>
   <v>       0.10000000       0.20000000       0.00000000 </v>
   <v>       0.15000000       0.20000000       0.00000000 </v>
   <v>       0.20000000       0.20000000       0.00000000 </v>
   <v>       0.25000000       0.20000000       0.00000000 </v>
   <v>       0.30000000       0.20000000       0.00000000 </v>
   <v>       0.35000000       0.20000000       0.00000000 </v>
   <v>       0.40000000       0.20000000       0.00000000 </v>
   <v>       0.45000000       0.20000000       0.00000000 </v>
   <v>       0.50000000       0.20000000       0.00000000 </v>
   <v>       0.00000000       0.25000000       0.00000000 </v>
   <v>       0.05000000       0.25000000       0.00000000 </v>
   <v>       0.10000000       0.25000000       0.00000000 </v>
   <v>       0.15000000       0.25000000       0.00000000 </v>
   <v>       0.20000000       0.25000000       0.00000000 </v>
   <v>       0.25000000       0.25000000       0.00000000 </v>
   <v>       0.30000000       0.25000000       0.00000000 </v>
   <v>       0.35000000       0.25000000       0.00000000 </v>
   <v>       0.40000000       0.25000000       0.00000000 </v>
   <v>       0.45000000       0.25000000       0.00000000 </v>
   <v>       0.50000000       0.25000000       0.00000000 </v>
   <v>       0.00000000       0.30000000       0.00000000 </v>
   <v>       0.05000000       0.30000000       0.00000000 </v>
   <v>       0.10000000       0.30000000       0.00000000 </v>
   <v>       0.15000000       0.30000000       0.00000000 </v>
   <v>       0.20000000       0.30000000       0.00000000 </v>
   <v>       0.25000000       0.30000000       0.00000000 </v>
   <v>       0.30000000       0.30000000       0.00000000 </v>
   <v>       0.35000000       0.30000000       0.00000000 </v>
   <v>       0.40000000       0.30000000       0.00000000 </v>
   <v>       0.45000000       0.30000000       0.00000000 </v>
   <v>       0.50000000       0.30000000       0.00000000 </v>
   <v>       0.00000000       0.35000000       0.00000000 </v>
   <v>       0.05000000       0.35000000       0.00000000 </v>
   <v>       0.10000000       0.35000000       0.00000000 </v>
   <v>       0.15000000       0.35000000       0.00000000 </v>
   <v>       0.20000000       0.35000000       0.00000000 </v>
   <v>       0.25000000       0.35000000       0.00000000 </v>
   <v>       0.30000000       0.35000000       0.00000000 </v>
   <v>       0.35000000       0.35000000       0.00000000 </v>
   <v>       0.40000000       0.35000000       0.00000000 </v>
   <v>       0.45000000       0.35000000       0.00000000 </v>
   <v>       0.50000000       0.35000000       0.00000000 </v>
   <v>       0.00000000       0.40000000       0.00000000 </v>
   <v>       0.05000000       0.40000000       0.00000000 </v>
   <v>       0.10000000       0.40000000       0.00000000 </v>
   <v>       0.15000000       0.40000000       0.00000000 </v>
   <v>       0.20000000       0.40000000       0.00000000 </v>
   <v>       0.25000000       0.40000000       0.00000000 </v>
   <v>       0.30000000       0.40000000       0.00000000 </v>
   <v>       0.35000000       0.40000000       0.00000000 </v>
   <v>       0.40000000       0.40000000       0.00000000 </v>
   <v>       0.45000000       0.40000000       0.00000000 </v>
   <v>       0.50000000       0.40000000       0.00000000 </v>
   <v>       0.00000000       0.45000000       0.00000000 </v>
   <v>       0.05000000       0.45000000       0.00000000 </v>
   <v>       0.10000000       0.45000000       0.00000000 </v>
   <v>       0.15000000       0.45000000       0.00000000 </v>
   <v>       0.20000000       0.45000000       0.00000000 </v>
   <v>       0.25000000       0.45000000       0.00000000 </v>
   <v>       0.30000000       0.45000000       0.00000000 </v>
   <v>       0.35000000       0.45000000       0.00000000 </v>
   <v>       0.40000000       0.45000000       0.00000000 </v>
   <v>       0.45000000       0.45000000       0.00000000 </v>
   <v>       0.50000000       0.45000000       0.00000000 </v>
   <v>       0.00000000       0.50000000       0.00000000 </v>
   <v>       0.05000000       0.50000000       0.00000000 </v>
   <v>       0.10000000       0.50000000       0.00000000 </v>
   <v>       0.15000000       0.50000000       0.00000000 </v>
   <v>       0.20000000       0.50000000       0.00000000 </v>
   <v>       0.25000000       0.50000000       0.00000000 </v>
   <v>       0.30000000       0.50000000       0.00000000 </v>
   <v>       0.35000000       0.50000000       0.00000000 </v>
   <v>       0.40000000       0.50000000       0.00000000 </v>
   <v>       0.45000000       0.50000000       0.00000000 </v>
   <v>       0.50000000       0.50000000       0.00000000 </v>
   <v>       0.05000000       0.00000000       0.05000000 </v>
   <v>       0.10000000       0.00000000       0.05000000 </v>
   <v>       0.15000000       0.00000000       0.05000000 </v>
   <v>       0.20000000       0.00000000       0.05000000 </v>
   <v>       0.25000000       0.00000000       0.05000000 </v>
   <v>       0.30000000       0.00000000       0.05000000 </v>
   <v>       0.35000000       0.00000000       0.05000000 </v>
   <v>       0.40000000       0.00000000       0.05000000 </v>
   <v>       0.45000000       0.00000000       0.05000000 </v>
   <v>       0.50000000       0.00000000       0.05000000 </v>
   <v>       0.05000000       0.05000000       0.05000000 </v>
   <v>       0.10000000       0.05000000       0.05000000 </v>
   <v>       0.15000000       0.05000000       0.05000000 </v>
   <v>       0.20000000       0.05000000       0.05000000 </v>
   <v>       0.25000000       0.05000000       0.05000000 </v>
   <v>       0.30000000       0.05000000       0.05000000 </v>
   <v>       0.35000000       0.05000000       0.05000000 </v>
   <v>       0.40000000       0.05000000       0.05000000 </v>
   <v>       0.45000000       0.05000000       0.05000000 </v>
   <v>       0.50000000       0.05000000       0.05000000 </v>
   <v>       0.05000000       0.10000000       0.05000000 </v>
   <v>       0.10000000       0.10000000       0.05000000 </v>
   <v>       0.15000000       0.10000000       0.05000000 </v>
   <v>       0.20000000       0.10000000       0.05000000 </v>
   <v>       0.25000000       0.10000000       0.05000000 </v>
   <v>       0.30000000       0.10000000       0.05000000 </v>
   <v>       0.35000000       0.10000000       0.05000000 </v>
   <v>       0.40000000       0.10000000       0.05000000 </v>
   <v>       0.45000000       0.10000000       0.05000000 </v>
   <v>       0.50000000       0.10000000       0.05000000 </v>
   <v>       0.05000000       0.15000000       0.05000000 </v>
   <v>       0.10000000       0.15000000       0.05000000 </v>
   <v>       0.15000000       0.15000000       0.05000000 </v>
   <v>       0.20000000       0.15000000       0.05000000 </v>
   <v>       0.25000000       0.15000000       0.05000000 </v>
   <v>       0.30000000       0.15000000       0.05000000 </v>
   <v>       0.35000000       0.15000000       0.05000000 </v>
   <v>       0.40000000       0.15000000       0.05000000 </v>
   <v>       0.45000000       0.15000000       0.05000000 </v>
   <v>       0.50000000       0.15000000       0.05000000 </v>
   <v>       0.05000000       0.20000000       0.05000000 </v>
   <v>       0.10000000       0.20000000       0.05000000 </v>
   <v>       0.15000000       0.20000000       0.05000000 </v>
   <v>       0.20000000       0.20000000       0.05000000 </v>
   <v>       0.25000000       0.20000000       0.05000000 </v>
   <v>       0.30000000       0.20000000       0.05000000 </v>
   <v>       0.35000000       0.20000000       0.05000000 </v>
   <v>       0.40000000       0.20000000       0.05000000 </v>
   <v>       0.45000000       0.20000000       0.05000000 </v>
   <v>       0.50000000       0.20000000       0.05000000 </v>
   <v>       0.05000000       0.25000000       0.05000000 </v>
   <v>       0.10000000       0.25000000       0.05000000 </v>
   <v>       0.15000000       0.25000000       0.05000000 </v>
   <v>       0.20000000       0.25000000       0.05000000 </v>
   <v>       0.25000000       0.25000000       0.05000000 </v>
   <v>       0.30000000       0.25000000       0.05000000 </v>
   <v>       0.35000000       0.25000000       0.05000000 </v>
   <v>       0.40000000       0.25000000       0.05000000 </v>
   <v>       0.45000000       0.25000000       0.05000000 </v>
   <v>       0.50000000       0.25000000       0.05000000 </v>
   <v>       0.05000000       0.30000000       0.05000000 </v>
   <v>       0.10000000       0.30000000       0.05000000 </v>
   <v>       0.15000000       0.30000000       0.05000000 </v>
   <v>       0.20000000       0.30000000       0.05000000 </v>
   <v>       0.25000000       0.30000000       0.05000000 </v>
   <v>       0.30000000       0.30000000       0.05000000 </v>
   <v>       0.35000000       0.30000000       0.05000000 </v>
   <v>       0.40000000       0.30000000       0.05000000 </v>
   <v>       0.45000000       0.30000000       0.05000000 </v>
   <v>       0.50000000       0.30000000       0.05000000 </v>
   <v>       0.05000000       0.35000000       0.05000000 </v>
   <v>       0.10000000       0.35000000       0.05000000 </v>
   <v>       0.15000000       0.35000000       0.05000000 </v>
   <v>       0.20000000       0.35000000       0.05000000 </v>
   <v>       0.25000000       0.35000000       0.05000000 </v>
   <v>       0.30000000       0.35000000       0.05000000 </v>
   <v>       0.35000000       0.35000000       0.05000000 </v>
   <v>       0.40000000       0.35000000       0.05000000 </v>
   <v>       0.45000000       0.35000000       0.05000000 </v>
   <v>       0.50000000       0.35000000       0.05000000 </v>
   <v>       0.05000000       0.40000000       0.05000000 </v>
   <v>       0.10000000       0.40000000       0.05000000 </v>
   <v>       0.15000000       0.40000000       0.05000000 </v>
   <v>       0.20000000       0.40000000       0.05000000 </v>
   <v>       0.25000000       0.40000000       0.05000000 </v>
   <v>       0.30000000       0.40000000       0.05000000 </v>
   <v>       0.35000000       0.40000000       0.05000000 </v>
   <v>       0.40000000       0.40000000       0.05000000 </v>
   <v>       0.45000000       0.40000000       0.05000000 </v>
   <v>       0.50000000       0.40000000       0.05000000 </v>
   <v>       0.05000000       0.45000000       0.05000000 </v>
   <v>       0.10000000       0.45000000       0.05000000 </v>
   <v>       0.15000000       0.45000000       0.05000000 </v>
   <v>       0.20000000       0.45000000       0.05000000 </v>
   <v>       0.25000000       0.45000000       0.05000000 </v>
   <v>       0.30000000       0.45000000       0.05000000 </v>
   <v>       0.35000000       0.45000000       0.05000000 </v>
   <v>       0.40000000       0.45000000       0.05000000 </v>
   <v>       0.45000000       0.45000000       0.05000000 </v>
   <v>       0.50000000       0.45000000       0.05000000 </v>
   <v>       0.05000000       0.50000000       0.05000000 </v>
   <v>       0.10000000       0.50000000       0.05000000 </v>
   <v>       0.15000000       0.50000000       0.05000000 </v>
   <v>       0.20000000       0.50000000       0.05000000 </v>
   <v>       0.25000000       0.50000000       0.05000000 </v>
   <v>       0.30000000       0.50000000       0.05000000 </v>
   <v>       0.35000000       0.50000000       0.05000000 </v>
   <v>       0.40000000       0.50000000       0.05000000 </v>
   <v>       0.45000000       0.50000000       0.05000000 </v>
   <v>       0.50000000       0.50000000       0.05000000 </v>
   <v>       0.10000000       0.00000000       0.10000000 </v>
   <v>       0.15000000       0.00000000       0.10000000 </v>
   <v>       0.20000000       0.00000000       0.10000000 </v>
   <v>       0.25000000       0.00000000       0.10000000 </v>
   <v>       0.30000000       0.00000000       0.10000000 </v>
   <v>       0.35000000       0.00000000       0.10000000 </v>
   <v>       0.40000000       0.00000000       0.10000000 </v>
   <v>       0.45000000       0.00000000       0.10000000 </v>
   <v>       0.50000000       0.00000000       0.10000000 </v>
   <v>       0.10000000       0.05000000       0.10000000 </v>
   <v>       0.15000000       0.05000000       0.10000000 </v>
   <v>       0.20000000       0.05000000       0.10000000 </v>
   <v>       0.25000000       0.05000000       0.10000000 </v>
   <v>       0.30000000       0.05000000       0.10000000 </v>
   <v>       0.35000000       0.05000000       0.10000000 </v>
   <v>       0.40000000       0.05000000       0.10000000 </v>
   <v>       0.45000000       0.05000000       0.10000000 </v>
   <v>       0.50000000       0.05000000       0.10000000 </v>
   <v>       0.10000000       0.10000000       0.10000000 </v>
   <v>       0.15000000       0.10000000       0.10000000 </v>
   <v>       0.20000000       0.10000000       0.10000000 </v>
   <v>       0.25000000       0.10000000       0.10000000 </v>
   <v>       0.30000000       0.10000000       0.10000000 </v>
   <v>       0.35000000       0.10000000       0.10000000 </v>
   <v>       0.40000000       0.10000000       0.10000000 </v>
   <v>       0.45000000       0.10000000       0.10000000 </v>
   <v>       0.50000000       0.10000000       0.10000000 </v>
   <v>       0.10000000       0.15000000       0.10000000 </v>
   <v>       0.15000000       0.15000000       0.10000000 </v>
   <v>       0.20000000       0.15000000       0.10000000 </v>
   <v>       0.25000000       0.15000000       0.10000000 </v>
   <v>       0.30000000       0.15000000       0.10000000 </v>
   <v>       0.35000000       0.15000000       0.10000000 </v>
   <v>       0.40000000       0.15000000       0.10000000 </v>
   <v>       0.45000000       0.15000000       0.10000000 </v>
   <v>       0.50000000       0.15000000       0.10000000 </v>
   <v>       0.10000000       0.20000000       0.10000000 </v>
   <v>       0.15000000       0.20000000       0.10000000 </v>
   <v>       0.20000000       0.20000000       0.10000000 </v>
   <v>       0.25000000       0.20000000       0.10000000 </v>
   <v>       0.30000000       0.20000000       0.10000000 </v>
   <v>       0.35000000       0.20000000       0.10000000 </v>
   <v>       0.40000000       0.20000000       0.10000000 </v>
   <v>       0.45000000       0.20000000       0.10000000 </v>
   <v>       0.50000000       0.20000000       0.10000000 </v>
   <v>       0.10000000       0.25000000       0.10000000 </v>
   <v>       0.15000000       0.25000000       0.10000000 </v>
   <v>       0.20000000       0.25000000       0.10000000 </v>
   <v>       0.25000000       0.25000000       0.10000000 </v>
   <v>       0.30000000       0.25000000       0.10000000 </v>
   <v>       0.35000000       0.25000000       0.10000000 </v>
   <v>       0.40000000       0.25000000       0.10000000 </v>
   <v>       0.45000000       0.25000000       0.10000000 </v>
   <v>       0.50000000       0.25000000       0.10000000 </v>
   <v>       0.10000000       0.30000000       0.10000000 </v>
   <v>       0.15000000       0.30000000       0.10000000 </v>
   <v>       0.20000000       0.30000000       0.10000000 </v>
   <v>       0.25000000       0.30000000       0.10000000 </v>
   <v>       0.30000000       0.30000000       0.10000000 </v>
   <v>       0.35000000       0.30000000       0.10000000 </v>
   <v>       0.40000000       0.30000000       0.10000000 </v>
   <v>       0.45000000       0.30000000       0.10000000 </v>
   <v>       0.50000000       0.30000000       0.10000000 </v>
   <v>       0.10000000       0.35000000       0.10000000 </v>
   <v>       0.15000000       0.35000000       0.10000000 </v>
   <v>       0.20000000       0.35000000       0.10000000 </v>
   <v>       0.25000000       0.35000000       0.10000000 </v>
   <v>       0.30000000       0.35000000       0.10000000 </v>
   <v>       0.35000000       0.35000000       0.10000000 </v>
   <v>       0.40000000       0.35000000       0.10000000 </v>
   <v>       0.45000000       0.35000000       0.10000000 </v>
   <v>       0.50000000       0.35000000       0.10000000 </v>
   <v>       0.10000000       0.40000000       0.10000000 </v>
   <v>       0.15000000       0.40000000       0.10000000 </v>
   <v>       0.20000000       0.40000000       0.10000000 </v>
   <v>       0.25000000       0.40000000       0.10000000 </v>
   <v>       0.30000000       0.40000000       0.10000000 </v>
   <v>       0.35000000       0.40000000       0.10000000 </v>
   <v>       0.40000000       0.40000000       0.10000000 </v>
   <v>       0.45000000       0.40000000       0.10000000 </v>
   <v>       0.50000000       0.40000000       0.10000000 </v>
   <v>       0.10000000       0.45000000       0.10000000 </v>
   <v>       0.15000000       0.45000000       0.10000000 </v>
   <v>       0.20000000       0.45000000       0.10000000 </v>
   <v>       0.25000000       0.45000000       0.10000000 </v>
   <v>       0.30000000       0.45000000       0.10000000 </v>
   <v>       0.35000000       0.45000000       0.10000000 </v>
   <v>       0.40000000       0.45000000       0.10000000 </v>
   <v>       0.45000000       0.45000000       0.10000000 </v>
   <v>       0.50000000       0.45000000       0.10000000 </v>
   <v>       0.10000000       0.50000000       0.10000000 </v>
   <v>       0.15000000       0.50000000       0.10000000 </v>
   <v>       0.20000000       0.50000000       0.10000000 </v>
   <v>       0.25000000       0.50000000       0.10000000 </v>
   <v>       0.30000000       0.50000000       0.10000000 </v>
   <v>       0.35000000       0.50000000       0.10000000 </v>
   <v>       0.40000000       0.50000000       0.10000000 </v>
   <v>       0.45000000       0.50000000       0.10000000 </v>
   <v>       0.50000000       0.50000000       0.10000000 </v>
   <v>       0.15000000       0.00000000       0.15000000 </v>
   <v>       0.20000000       0.00000000       0.15000000 </v>
   <v>       0.25000000       0.00000000       0.15000000 </v>
   <v>       0.30000000       0.00000000       0.15000000 </v>
   <v>       0.35000000       0.00000000       0.15000000 </v>
   <v>       0.40000000       0.00000000       0.15000000 </v>
   <v>       0.45000000       0.00000000       0.15000000 </v>
   <v>       0.50000000       0.00000000       0.15000000 </v>
   <v>       0.15000000       0.05000000       0.15000000 </v>
   <v>       0.20000000       0.05000000       0.15000000 </v>
   <v>       0.25000000       0.05000000       0.15000000 </v>
   <v>       0.30000000       0.05000000       0.15000000 </v>
   <v>       0.35000000       0.05000000       0.15000000 </v>
   <v>       0.40000000       0.05000000       0.15000000 </v>
   <v>       0.45000000       0.05000000       0.15000000 </v>
   <v>       0.50000000       0.05000000       0.15000000 </v>
   <v>       0.15000000       0.10000000       0.15000000 </v>
   <v>       0.20000000       0.10000000       0.15000000 </v>
   <v>       0.25000000       0.10000000       0.15000000 </v>
   <v>       0.30000000       0.10000000       0.15000000 </v>
   <v>       0.35000000       0.10000000       0.15000000 </v>
   <v>       0.40000000       0.10000000       0.15000000 </v>
   <v>       0.45000000       0.10000000       0.15000000 </v>
   <v>       0.50000000       0.10000000       0.15000000 </v>
   <v>       0.15000000       0.15000000       0.15000000 </v>
   <v>       0.20000000       0.15000000       0.15000000 </v>
   <v>       0.25000000       0.15000000       0.15000000 </v>
   <v>       0.30000000       0.15000000       0.15000000 </v>
   <v>       0.35000000       0.15000000       0.15000000 </v>
   <v>       0.40000000       0.15000000       0.15000000 </v>
   <v>       0.45000000       0.15000000       0.15000000 </v>
   <v>       0.50000000       0.15000000       0.15000000 </v>
   <v>       0.15000000       0.20000000       0.15000000 </v>
   <v>       0.20000000       0.20000000       0.15000000 </v>
   <v>       0.25000000       0.20000000       0.15000000 </v>
   <v>       0.30000000       0.20000000       0.15000000 </v>
   <v>       0.35000000       0.20000000       0.15000000 </v>
   <v>       0.40000000       0.20000000       0.15000000 </v>
   <v>       0.45000000       0.20000000       0.15000000 </v>
   <v>       0.50000000       0.20000000       0.15000000 </v>
   <v>       0.15000000       0.25000000       0.15000000 </v>
   <v>       0.20000000       0.25000000       0.15000000 </v>
   <v>       0.25000000       0.25000000       0.15000000 </v>
   <v>       0.30000000       0.25000000       0.15000000 </v>
   <v>       0.35000000       0.25000000       0.15000000 </v>
   <v>       0.40000000       0.25000000       0.15000000 </v>
   <v>       0.45000000       0.25000000       0.15000000 </v>
   <v>       0.50000000       0.25000000       0.15000000 </v>
   <v>       0.15000000       0.30000000       0.15000000 </v>
   <v>       0.20000000       0.30000000       0.15000000 </v>
   <v>       0.25000000       0.30000000       0.15000000 </v>
   <v>       0.30000000       0.30000000       0.15000000 </v>
   <v>       0.35000000       0.30000000       0.15000000 </v>
   <v>       0.40000000       0.30000000       0.15000000 </v>
   <v>       0.45000000       0.30000000       0.15000000 </v>
   <v>       0.50000000       0.30000000       0.15000000 </v>
   <v>       0.15000000       0.35000000       0.15000000 </v>
   <v>       0.20000000       0.35000000       0.15000000 </v>
   <v>       0.25000000       0.35000000       0.15000000 </v>
   <v>       0.30000000       0.35000000       0.15000000 </v>
   <v>       0.35000000       0.35000000       0.15000000 </v>
   <v>       0.40000000       0.35000000       0.15000000 </v>
   <v>       0.45000000       0.35000000       0.15000000 </v>
   <v>       0.50000000       0.35000000       0.15000000 </v>
   <v>       0.15000000       0.40000000       0.15000000 </v>
   <v>       0.20000000       0.40000000       0.15000000 </v>
   <v>       0.25000000       0.40000000       0.15000000 </v>
   <v>       0.30000000       0.40000000       0.15000000 </v>
   <v>       0.35000000       0.40000000       0.15000000 </v>
   <v>       0.40000000       0.40000000       0.15000000 </v>
   <v>       0.45000000       0.40000000       0.15000000 </v>
   <v>       0.50000000       0.40000000       0.15000000 </v>
   <v>       0.15000000       0.45000000       0.15000000 </v>
   <v>       0.20000000       0.45000000       0.15000000 </v>
   <v>       0.25000000       0.45000000       0.15000000 </v>
   <v>       0.30000000       0.45000000       0.15000000 </v>
   <v>       0.35000000       0.45000000       0.15000000 </v>
   <v>       0.40000000       0.45000000       0.15000000 </v>
   <v>       0.45000000       0.45000000       0.15000000 </v>
   <v>       0.50000000       0.45000000       0.15000000 </v>
   <v>       0.15000000       0.50000000       0.15000000 </v>
   <v>       0.20000000       0.50000000       0.15000000 </v>
   <v>       0.25000000       0.50000000       0.15000000 </v>
   <v>       0.30000000       0.50000000       0.15000000 </v>
   <v>       0.35000000       0.50000000       0.15000000 </v>
   <v>       0.40000000       0.50000000       0.15000000 </v>
   <v>       0.45000000       0.50000000       0.15000000 </v>
   <v>       0.50000000       0.50000000       0.15000000 </v>
   <v>       0.20000000       0.00000000       0.20000000 </v>
   <v>       0.25000000       0.00000000       0.20000000 </v>
   <v>       0.30000000       0.00000000       0.20000000 </v>
   <v>       0.35000000       0.00000000       0.20000000 </v>
   <v>       0.40000000       0.00000000       0.20000000 </v>
   <v>       0.45000000       0.00000000       0.20000000 </v>
   <v>       0.50000000       0.00000000       0.20000000 </v>
   <v>       0.20000000       0.05000000       0.20000000 </v>
   <v>       0.25000000       0.05000000       0.20000000 </v>
   <v>       0.30000000       0.05000000       0.20000000 </v>
   <v>       0.35000000       0.05000000       0.20000000 </v>
   <v>       0.40000000       0.05000000       0.20000000 </v>
   <v>       0.45000000       0.05000000       0.20000000 </v>
   <v>       0.50000000       0.05000000       0.20000000 </v>
   <v>       0.20000000       0.10000000       0.20000000 </v>
   <v>       0.25000000       0.10000000       0.20000000 </v>
   <v>       0.30000000       0.10000000       0.20000000 </v>
   <v>       0.35000000       0.10000000       0.20000000 </v>
   <v>       0.40000000       0.10000000       0.20000000 </v>
   <v>       0.45000000       0.10000000       0.20000000 </v>
   <v>       0.50000000       0.10000000       0.20000000 </v>
   <v>       0.20000000       0.15000000       0.20000000 </v>
   <v>       0.25000000       0.15000000       0.20000000 </v>
   <v>       0.30000000       0.15000000       0.20000000 </v>
   <v>       0.35000000       0.15000000       0.20000000 </v>
   <v>       0.40000000       0.15000000       0.20000000 </v>
   <v>       0.45000000       0.15000000       0.20000000 </v>
   <v>       0.50000000       0.15000000       0.20000000 </v>
   <v>       0.20000000       0.20000000       0.20000000 </v>
   <v>       0.25000000       0.20000000       0.20000000 </v>
   <v>       0.30000000       0.20000000       0.20000000 </v>
   <v>       0.35000000       0.20000000       0.20000000 </v>
   <v>       0.40000000       0.20000000       0.20000000 </v>
   <v>       0.45000000       0.20000000       0.20000000 </v>
   <v>       0.50000000       0.20000000       0.20000000 </v>
   <v>       0.20000000       0.25000000       0.20000000 </v>
   <v>       0.25000000       0.25000000       0.20000000 </v>
   <v>       0.30000000       0.25000000       0.20000000 </v>
   <v>       0.35000000       0.25000000       0.20000000 </v>
   <v>       0.40000000       0.25000000       0.20000000 </v>
   <v>       0.45000000       0.25000000       0.20000000 </v>
   <v>       0.50000000       0.25000000       0.20000000 </v>
   <v>       0.20000000       0.30000000       0.20000000 </v>
   <v>       0.25000000       0.30000000       0.20000000 </v>
   <v>       0.30000000       0.30000000       0.20000000 </v>
   <v>       0.35000000       0.30000000       0.20000000 </v>
   <v>       0.40000000       0.30000000       0.20000000 </v>
   <v>       0.45000000       0.30000000       0.20000000 </v>
   <v>       0.50000000       0.30000000       0.20000000 </v>
   <v>       0.20000000       0.35000000       0.20000000 </v>
   <v>       0.25000000       0.35000000       0.20000000 </v>
   <v>       0.30000000       0.35000000       0.20000000 </v>
   <v>       0.35000000       0.35000000       0.20000000 </v>
   <v>       0.40000000       0.35000000       0.20000000 </v>
   <v>       0.45000000       0.35000000       0.20000000 </v>
   <v>       0.50000000       0.35000000       0.20000000 </v>
   <v>       0.20000000       0.40000000       0.20000000 </v>
   <v>       0.25000000       0.40000000       0.20000000 </v>
   <v>       0.30000000       0.40000000       0.20000000 </v>
   <v>       0.35000000       0.40000000       0.20000000 </v>
   <v>       0.40000000       0.40000000       0.20000000 </v>
   <v>       0.45000000       0.40000000       0.20000000 </v>
   <v>       0.50000000       0.40000000       0.20000000 </v>
   <v>       0.20000000       0.45000000       0.20000000 </v>
   <v>       0.25000000       0.45000000       0.20000000 </v>
   <v>       0.30000000       0.45000000       0.20000000 </v>
   <v>       0.35000000       0.45000000       0.20000000 </v>
   <v>       0.40000000       0.45000000       0.20000000 </v>
   <v>       0.45000000       0.45000000       0.20000000 </v>
   <v>       0.50000000       0.45000000       0.20000000 </v>
   <v>       0.20000000       0.50000000       0.20000000 </v>
   <v>       0.25000000       0.50000000       0.20000000 </v>
   <v>       0.30000000       0.50000000       0.20000000 </v>
   <v>       0.35000000       0.50000000       0.20000000 </v>
   <v>       0.40000000       0.50000000       0.20000000 </v>
   <v>       0.45000000       0.50000000       0.20000000 </v>
   <v>       0.50000000       0.50000000       0.20000000 </v>
   <v>       0.25000000       0.00000000       0.25000000 </v>
   <v>       0.30000000       0.00000000       0.25000000 </v>
   <v>       0.35000000       0.00000000       0.25000000 </v>
   <v>       0.40000000       0.00000000       0.25000000 </v>
   <v>       0.45000000       0.00000000       0.25000000 </v>
   <v>       0.50000000       0.00000000       0.25000000 </v>
   <v>       0.25000000       0.05000000       0.25000000 </v>
   <v>       0.30000000       0.05000000       0.25000000 </v>
   <v>       0.35000000       0.05000000       0.25000000 </v>
   <v>       0.40000000       0.05000000       0.25000000 </v>
   <v>       0.45000000       0.05000000       0.25000000 </v>
   <v>       0.50000000       0.05000000       0.25000000 </v>
   <v>       0.25000000       0.10000000       0.25000000 </v>
   <v>       0.30000000       0.10000000       0.25000000 </v>
   <v>       0.35000000       0.10000000       0.25000000 </v>
   <v>       0.40000000       0.10000000       0.25000000 </v>
   <v>       0.45000000       0.10000000       0.25000000 </v>
   <v>       0.50000000       0.10000000       0.25000000 </v>
   <v>       0.25000000       0.15000000       0.25000000 </v>
   <v>       0.30000000       0.15000000       0.25000000 </v>
   <v>       0.35000000       0.15000000       0.25000000 </v>
   <v>       0.40000000       0.15000000       0.25000000 </v>
   <v>       0.45000000       0.15000000       0.25000000 </v>
   <v>       0.50000000       0.15000000       0.25000000 </v>
   <v>       0.25000000       0.20000000       0.25000000 </v>
   <v>       0.30000000       0.20000000       0.25000000 </v>
   <v>       0.35000000       0.20000000       0.25000000 </v>
   <v>       0.40000000       0.20000000       0.25000000 </v>
   <v>       0.45000000       0.20000000       0.25000000 </v>
   <v>       0.50000000       0.20000000       0.25000000 </v>
   <v>       0.25000000       0.25000000       0.25000000 </v>
   <v>       0.30000000       0.25000000       0.25000000 </v>
   <v>       0.35000000       0.25000000       0.25000000 </v>
   <v>       0.40000000       0.25000000       0.25000000 </v>
   <v>       0.45000000       0.25000000       0.25000000 </v>
   <v>       0.50000000       0.25000000       0.25000000 </v>
   <v>       0.25000000       0.30000000       0.25000000 </v>
   <v>       0.30000000       0.30000000       0.25000000 </v>
   <v>       0.35000000       0.30000000       0.25000000 </v>
   <v>       0.40000000       0.30000000       0.25000000 </v>
   <v>       0.45000000       0.30000000       0.25000000 </v>
   <v>       0.50000000       0.30000000       0.25000000 </v>
   <v>       0.25000000       0.35000000       0.25000000 </v>
   <v>       0.30000000       0.35000000       0.25000000 </v>
   <v>       0.35000000       0.35000000       0.25000000 </v>
   <v>       0.40000000       0.35000000       0.25000000 </v>
   <v>       0.45000000       0.35000000       0.25000000 </v>
   <v>       0.50000000       0.35000000       0.25000000 </v>
   <v>       0.25000000       0.40000000       0.25000000 </v>
   <v>       0.30000000       0.40000000       0.25000000 </v>
   <v>       0.35000000       0.40000000       0.25000000 </v>
   <v>       0.40000000       0.40000000       0.25000000 </v>
   <v>       0.45000000       0.40000000       0.25000000 </v>
   <v>       0.50000000       0.40000000       0.25000000 </v>
   <v>       0.25000000       0.45000000       0.25000000 </v>
   <v>       0.30000000       0.45000000       0.25000000 </v>
   <v>       0.35000000       0.45000000       0.25000000 </v>
   <v>       0.40000000       0.45000000       0.25000000 </v>
   <v>       0.45000000       0.45000000       0.25000000 </v>
   <v>       0.50000000       0.45000000       0.25000000 </v>
   <v>       0.25000000       0.50000000       0.25000000 </v>
   <v>       0.30000000       0.50000000       0.25000000 </v>
   <v>       0.35000000       0.50000000       0.25000000 </v>
   <v>       0.40000000       0.50000000       0.25000000 </v>
   <v>       0.45000000       0.50000000       0.25000000 </v>
   <v>       0.50000000       0.50000000       0.25000000 </v>
   <v>       0.30000000       0.00000000       0.30000000 </v>
   <v>       0.35000000       0.00000000       0.30000000 </v>
   <v>       0.40000000       0.00000000       0.30000000 </v>
   <v>       0.45000000       0.00000000       0.30000000 </v>
   <v>       0.50000000       0.00000000       0.30000000 </v>
   <v>       0.30000000       0.05000000       0.30000000 </v>
   <v>       0.35000000       0.05000000       0.30000000 </v>
   <v>       0.40000000       0.05000000       0.30000000 </v>
   <v>       0.45000000       0.05000000       0.30000000 </v>
   <v>       0.50000000       0.05000000       0.30000000 </v>
   <v>       0.30000000       0.10000000       0.30000000 </v>
   <v>       0.35000000       0.10000000       0.30000000 </v>
   <v>       0.40000000       0.10000000       0.30000000 </v>
   <v>       0.45000000       0.10000000       0.30000000 </v>
   <v>       0.50000000       0.10000000       0.30000000 </v>
   <v>       0.30000000       0.15000000       0.30000000 </v>
   <v>       0.35000000       0.15000000       0.30000000 </v>
   <v>       0.40000000       0.15000000       0.30000000 </v>
   <v>       0.45000000       0.15000000       0.30000000 </v>
   <v>       0.50000000       0.15000000       0.30000000 </v>
   <v>       0.30000000       0.20000000       0.30000000 </v>
   <v>       0.35000000       0.20000000       0.30000000 </v>
   <v>       0.40000000       0.20000000       0.30000000 </v>
   <v>       0.45000000       0.20000000       0.30000000 </v>
   <v>       0.50000000       0.20000000       0.30000000 </v>
   <v>       0.30000000       0.25000000       0.30000000 </v>
   <v>       0.35000000       0.25000000       0.30000000 </v>
   <v>       0.40000000       0.25000000       0.30000000 </v>
   <v>       0.45000000       0.25000000       0.30000000 </v>
   <v>       0.50000000       0.25000000       0.30000000 </v>
   <v>       0.30000000       0.30000000       0.30000000 </v>
   <v>       0.35000000       0.30000000       0.30000000 </v>
   <v>       0.40000000       0.30000000       0.30000000 </v>
   <v>       0.45000000       0.30000000       0.30000000 </v>
   <v>       0.50000000       0.30000000       0.30000000 </v>
   <v>       0.30000000       0.35000000       0.30000000 </v>
   <v>       0.35000000       0.35000000       0.30000000 </v>
   <v>       0.40000000       0.35000000       0.30000000 </v>
   <v>       0.45000000       0.35000000       0.30000000 </v>
   <v>       0.50000000       0.35000000       0.30000000 </v>
   <v>       0.30000000       0.40000000       0.30000000 </v>
   <v>       0.35000000       0.40000000       0.30000000 </v>
   <v>       0.40000000       0.40000000       0.30000000 </v>
   <v>       0.45000000       0.40000000       0.30000000 </v>
   <v>       0.50000000       0.40000000       0.30000000 </v>
   <v>       0.30000000       0.45000000       0.30000000 </v>
   <v>       0.35000000       0.45000000       0.30000000 </v>
   <v>       0.40000000       0.45000000       0.30000000 </v>
   <v>       0.45000000       0.45000000       0.30000000 </v>
   <v>       0.50000000       0.45000000       0.30000000 </v>
   <v>       0.30000000       0.50000000       0.30000000 </v>
   <v>       0.35000000       0.50000000       0.30000000 </v>
   <v>       0.40000000       0.50000000       0.30000000 </v>
   <v>       0.45000000       0.50000000       0.30000000 </v>
   <v>       0.50000000       0.50000000       0.30000000 </v>
   <v>       0.35000000       0.00000000       0.35000000 </v>
   <v>       0.40000000       0.00000000       0.35000000 </v>
   <v>       0.45000000       0.00000000       0.35000000 </v>
   <v>       0.50000000       0.00000000       0.35000000 </v>
   <v>       0.35000000       0.05000000       0.35000000 </v>
   <v>       0.40000000       0.05000000       0.35000000 </v>
   <v>       0.45000000       0.05000000       0.35000000 </v>
   <v>       0.50000000       0.05000000       0.35000000 </v>
   <v>       0.35000000       0.10000000       0.35000000 </v>
   <v>       0.40000000       0.10000000       0.35000000 </v>
   <v>       0.45000000       0.10000000       0.35000000 </v>
   <v>       0.50000000       0.10000000       0.35000000 </v>
   <v>       0.35000000       0.15000000       0.35000000 </v>
   <v>       0.40000000       0.15000000       0.35000000 </v>
   <v>       0.45000000       0.15000000       0.35000000 </v>
   <v>       0.50000000       0.15000000       0.35000000 </v>
   <v>       0.35000000       0.20000000       0.35000000 </v>
   <v>       0.40000000       0.20000000       0.35000000 </v>
   <v>       0.45000000       0.20000000       0.35000000 </v>
   <v>       0.50000000       0.20000000       0.35000000 </v>
   <v>       0.35000000       0.25000000       0.35000000 </v>
   <v>       0.40000000       0.25000000       0.35000000 </v>
   <v>       0.45000000       0.25000000       0.35000000 </v>
   <v>       0.50000000       0.25000000       0.35000000 </v>
   <v>       0.35000000       0.30000000       0.35000000 </v>
   <v>       0.40000000       0.30000000       0.35000000 </v>
   <v>       0.45000000       0.30000000       0.35000000 </v>
   <v>       0.50000000       0.30000000       0.35000000 </v>
   <v>       0.35000000       0.35000000       0.35000000 </v>
   <v>       0.40000000       0.35000000       0.35000000 </v>
   <v>       0.45000000       0.35000000       0.35000000 </v>
   <v>       0.50000000       0.35000000       0.35000000 </v>
   <v>       0.35000000       0.40000000       0.35000000 </v>
   <v>       0.40000000       0.40000000       0.35000000 </v>
   <v>       0.45000000       0.40000000       0.35000000 </v>
   <v>       0.50000000       0.40000000       0.35000000 </v>
   <v>       0.35000000       0.45000000       0.35000000 </v>
   <v>       0.40000000       0.45000000       0.35000000 </v>
   <v>       0.45000000       0.45000000       0.35000000 </v>
   <v>       0.50000000       0.45000000       0.35000000 </v>
   <v>       0.35000000       0.50000000       0.35000000 </v>
   <v>       0.40000000       0.50000000       0.35000000 </v>
   <v>       0.45000000       0.50000000       0.35000000 </v>
   <v>       0.50000000       0.50000000       0.35000000 </v>
   <v>       0.40000000       0.00000000       0.40000000 </v>
   <v>       0.45000000       0.00000000       0.40000000 </v>
   <v>       0.50000000       0.00000000       0.40000000 </v>
   <v>       0.40000000       0.05000000       0.40000000 </v>
   <v>       0.45000000       0.05000000       0.40000000 </v>
   <v>       0.50000000       0.05000000       0.40000000 </v>
   <v>       0.40000000       0.10000000       0.40000000 </v>
   <v>       0.45000000       0.10000000       0.40000000 </v>
   <v>       0.50000000       0.10000000       0.40000000 </v>
   <v>       0.40000000       0.15000000       0.40000000 </v>
   <v>       0.45000000       0.15000000       0.40000000 </v>
   <v>       0.50000000       0.15000000       0.40000000 </v>
   <v>       0.40000000       0.20000000       0.40000000 </v>
   <v>       0.45000000       0.20000000       0.40000000 </v>
   <v>       0.50000000       0.20000000       0.40000000 </v>
   <v>       0.40000000       0.25000000       0.40000000 </v>
   <v>       0.45000000       0.25000000       0.40000000 </v>
   <v>       0.50000000       0.25000000       0.40000000 </v>
   <v>       0.40000000       0.30000000       0.40000000 </v>
   <v>       0.45000000       0.30000000       0.40000000 </v>
   <v>       0.50000000       0.30000000       0.40000000 </v>
   <v>       0.40000000       0.35000000       0.40000000 </v>
   <v>       0.45000000       0.35000000       0.40000000 </v>
   <v>       0.50000000       0.35000000       0.40000000 </v>
   <v>       0.40000000       0.40000000       0.40000000 </v>
   <v>       0.45000000       0.40000000       0.40000000 </v>
   <v>       0.50000000       0.40000000       0.40000000 </v>
   <v>       0.40000000       0.45000000       0.40000000 </v>
   <v>       0.45000000       0.45000000       0.40000000 </v>
   <v>       0.50000000       0.45000000       0.40000000 </v>
   <v>       0.40000000       0.50000000       0.40000000 </v>
   <v>       0.45000000       0.50000000       0.40000000 </v>
   <v>       0.50000000       0.50000000       0.40000000 </v>
   <v>       0.45000000       0.00000000       0.45000000 </v>
   <v>       0.50000000       0.00000000       0.45000000 </v>
   <v>       0.45000000       0.05000000       0.45000000 </v>
   <v>       0.50000000       0.05000000       0.45000000 </v>
   <v>       0.45000000       0.10000000       0.45000000 </v>
   <v>       0.50000000       0.10000000       0.45000000 </v>
   <v>       0.45000000       0.15000000       0.45000000 </v>
   <v>       0.50000000       0.15000000       0.45000000 </v>
   <v>       0.45000000       0.20000000       0.45000000 </v>
   <v>       0.50000000       0.20000000       0.45000000 </v>
   <v>       0.45000000       0.25000000       0.45000000 </v>
   <v>       0.50000000       0.25000000       0.45000000 </v>
   <v>       0.45000000       0.30000000       0.45000000 </v>
   <v>       0.50000000       0.30000000       0.45000000 </v>
   <v>       0.45000000       0.35000000       0.45000000 </v>
   <v>       0.50000000       0.35000000       0.45000000 </v>
   <v>       0.45000000       0.40000000       0.45000000 </v>
   <v>       0.50000000       0.40000000       0.45000000 </v>
   <v>       0.45000000       0.45000000       0.45000000 </v>
   <v>       0.50000000       0.45000000       0.45000000 </v>
   <v>       0.45000000       0.50000000       0.45000000 </v>
   <v>       0.50000000       0.50000000       0.45000000 </v>
   <v>       0.50000000       0.00000000       0.50000000 </v>
   <v>       0.50000000       0.05000000       0.50000000 </v>
   <v>       0.50000000       0.10000000       0.50000000 </v>
   <v>       0.50000000       0.15000000       0.50000000 </v>
   <v>       0.50000000       0.20000000       0.50000000 </v>
   <v>       0.50000000       0.25000000       0.50000000 </v>
   <v>       0.50000000       0.30000000       0.50000000 </v>
   <v>       0.50000000       0.35000000       0.50000000 </v>
   <v>       0.50000000       0.40000000       0.50000000 </v>
   <v>       0.50000000       0.45000000       0.50000000 </v>
   <v>       0.50000000       0.50000000       0.50000000 </v>
  </varray>
  <varray name="weights" >
   <v>       0.00012500 </v>
   <v>       0.00050000 </v>
   <v>       0.00050000 </v>
   <v>       0.00050000 </v>
   <v>       0.00050000 </v>
   <v>       0.00050000 </v>
   <v>       0.00050000 </v>
   <v>       0.00050000 </v>
   <v>       0.00050000 </v>
   <v>       0.00050000 </v>
   <v>       0.00025000 </v>
   <v>       0.00025000 </v>
   <v>       0.00100000 </v>
   <v>       0.00100000 </v>
   <v>       0.00100000 </v>
   <v>       0.00100000 </v>
   <v>       0.00100000 </v>
   <v>       0.00100000 </v>
   <v>       0.00100000 </v>
   <v>       0.00100000 </v>
   <v>       0.00100000 </v>
   <v>       0.00050000 </v>
   <v>       0.00025000 </v>
   <v>       0.00100000 </v>
   <v>       0.00100000 </v>
   <v>       0.00100000 </v>
   <v>       0.00100000 </v>
   <v>       0.00100000 </v>
   <v>       0.00100000 </v>
   <v>       0.00100000 </v>
   <v>       0.00100000 </v>
   <v>       0.00100000 </v>
   <v>       0.00050000 </v>
   <v>       0.00025000 </v>
   <v>       0.00100000 </v>
   <v>       0.00100000 </v>
   <v>       0.00100000 </v>
   <v>       0.00100000 </v>
   <v>       0.00100000 </v>
   <v>       0.00100000 </v>
   <v>       0.00100000 </v>
   <v>       0.00100000 </v>
   <v>       0.00100000 </v>
   <v>       0.00050000 </v>
   <v>       0.00025000 </v>
   <v>       0.00100000 </v>
   <v>       0.00100000 </v>
   <v>       0.00100000 </v>
   <v>       0.00100000 </v>
   <v>       0.00100000 </v>
   <v>       0.00100000 </v>
   <v>       0.00100000 </v>
   <v>       0.00100000 </v>
   <v>       0.00100000 </v>
   <v>       0.00050000 </v>
   <v>       0.00025000 </v>
   <v>       0.00100000 </v>
   <v>       0.00100000 </v>
   <v>       0.00100000 </v>
   <v>       0.00100000 </v>
   <v>       0.00100000 </v>
   <v>       0.00100000 </v>
   <v>       0.00100000 </v>
   <v>       0.00100000 </v>
   <v>       0.00100000 </v>
   <v>       0.00050000 </v>
   <v>       0.00025000 </v>
   <v>       0.00100000 </v>
   <v>       0.00100000 </v>
   <v>       0.00100000 </v>
   <v>       0.00100000 </v>
   <v>       0.00100000 </v>
   <v>       0.00100000 </v>
   <v>       0.00100000 </v>
   <v>       0.00100000 </v>
   <v>       0.00100000 </v>
   <v>       0.00050000 </v>
   <v>       0.00025000 </v>
   <v>       0.00100000 </v>
   <v>       0.00100000 </v>
   <v>       0.00100000 </v>
   <v>       0.00100000 </v>
   <v>       0.00100000 </v>
   <v>       0.00100000 </v>
   <v>       0.00100000 </v>
   <v>       0.00100000 </v>
   <v>       0.00100000 </v>
   <v>       0.00050000 </v>
   <v>       0.00025000 </v>
   <v>       0.00100000 </v>
   <v>       0.00100000 </v>
   <v>       0.00100000 </v>
   <v>       0.00100000 </v>
   <v>       0.00100000 </v>
   <v>       0.00100000 </v>
   <v>       0.00100000 </v>
   <v>       0.00100000 </v>
   <v>       0.00100000 </v>
   <v>       0.00050000 </v>
   <v>       0.00025000 </v>
   <v>       0.00100000 </v>
   <v>       0.00100000 </v>
   <v>       0.00100000 </v>
   <v>       0.00100000 </v>
   <v>       0.00100000 </v>
   <v>       0.00100000 </v>
   <v>       0.00100000 </v>
   <v>       0.00100000 </v>
   <v>       0.00100000 </v>
   <v>       0.00050000 </v>
   <v>       0.00012500 </v>
   <v>       0.00050000 </v>
   <v>       0.00050000 </v>
   <v>       0.00050000 </v>
   <v>       0.00050000 </v>
   <v>       0.00050000 </v>
   <v>       0.00050000 </v>
   <v>       0.00050000 </v>
   <v>       0.00050000 </v>
   <v>       0.00050000 </v>
   <v>       0.00025000 </v>
   <v>       0.00050000 </v>
   <v>       0.00100000 </v>
   <v>       0.00100000 </v>
   <v>       0.00100000 </v>
   <v>       0.00100000 </v>
   <v>       0.00100000 </v>
   <v>       0.00100000 </v>
   <v>       0.00100000 </v>
   <v>       0.00100000 </v>
   <v>       0.00050000 </v>
   <v>       0.00100000 </v>
   <v>       0.00200000 </v>
   <v>       0.00200000 </v>
   <v>       0.00200000 </v>
   <v>       0.00200000 </v>
   <v>       0.00200000 </v>
   <v>       0.00200000 </v>
   <v>       0.00200000 </v>
   <v>       0.00200000 </v>
   <v>       0.00100000 </v>
   <v>       0.00100000 </v>
   <v>       0.00200000 </v>
   <v>       0.00200000 </v>
   <v>       0.00200000 </v>
   <v>       0.00200000 </v>
   <v>       0.00200000 </v>
   <v>       0.00200000 </v>
   <v>       0.00200000 </v>
   <v>       0.00200000 </v>
   <v>       0.00100000 </v>
   <v>       0.00100000 </v>
   <v>       0.00200000 </v>
   <v>       0.00200000 </v>
   <v>       0.00200000 </v>
   <v>       0.00200000 </v>
   <v>       0.00200000 </v>
   <v>       0.00200000 </v>
   <v>       0.00200000 </v>
   <v>       0.00200000 </v>
   <v>       0.00100000 </v>
   <v>       0.00100000 </v>
   <v>       0.00200000 </v>
   <v>       0.00200000 </v>
   <v>       0.00200000 </v>
   <v>       0.00200000 </v>
   <v>       0.00200000 </v>
   <v>       0.00200000 </v>
   <v>       0.00200000 </v>
   <v>       0.00200000 </v>
   <v>       0.00100000 </v>
   <v>       0.00100000 </v>
   <v>       0.00200000 </v>
   <v>       0.00200000 </v>
   <v>       0.00200000 </v>
   <v>       0.00200000 </v>
   <v>       0.00200000 </v>
   <v>       0.00200000 </v>
   <v>       0.00200000 </v>
   <v>       0.00200000 </v>
   <v>       0.00100000 </v>
   <v>       0.00100000 </v>
   <v>       0.00200000 </v>
   <v>       0.00200000 </v>
   <v>       0.00200000 </v>
   <v>       0.00200000 </v>
   <v>       0.00200000 </v>
   <v>       0.00200000 </v>
   <v>       0.00200000 </v>
   <v>       0.00200000 </v>
   <v>       0.00100000 </v>
   <v>       0.00100000 </v>
   <v>       0.00200000 </v>
   <v>       0.00200000 </v>
   <v>       0.00200000 </v>
   <v>       0.00200000 </v>
   <v>       0.00200000 </v>
   <v>       0.00200000 </v>
   <v>       0.00200000 </v>
   <v>       0.00200000 </v>
   <v>       0.00100000 </v>
   <v>       0.00100000 </v>
   <v>       0.00200000 </v>
   <v>       0.00200000 </v>
   <v>       0.00200000 </v>
   <v>       0.00200000 </v>
   <v>       0.00200000 </v>
   <v>       0.00200000 </v>
   <v>       0.00200000 </v>
   <v>       0.00200000 </v>
   <v>       0.00100000 </v>
   <v>       0.00100000 </v>
   <v>       0.00200000 </v>
   <v>       0.00200000 </v>
   <v>       0.00200000 </v>
   <v>       0.00200000 </v>
   <v>       0.00200000 </v>
   <v>       0.00200000 </v>
   <v>       0.00200000 </v>
   <v>       0.00200000 </v>
   <v>       0.00100000 </v>
   <v>       0.00050000 </v>
   <v>       0.00100000 </v>
   <v>       0.00100000 </v>
   <v>       0.00100000 </v>
   <v>       0.00100000 </v>
   <v>       0.00100000 </v>
   <v>       0.00100000 </v>
   <v>       0.00100000 </v>
   <v>       0.00100000 </v>
   <v>       0.00050000 </v>
   <v>       0.00050000 </v>
   <v>       0.00100000 </v>
   <v>       0.00100000 </v>
   <v>       0.00100000 </v>
   <v>       0.00100000 </v>
   <v>       0.00100000 </v>
   <v>       0.00100000 </v>
   <v>       0.00100000 </v>
   <v>       0.00050000 </v>
   <v>       0.00100000 </v>
   <v>       0.00200000 </v>
   <v>       0.00200000 </v>
   <v>       0.00200000 </v>
   <v>       0.00200000 </v>
   <v>       0.00200000 </v>
   <v>       0.00200000 </v>
   <v>       0.00200000 </v>
   <v>       0.00100000 </v>
   <v>       0.00100000 </v>
   <v>       0.00200000 </v>
   <v>       0.00200000 </v>
   <v>       0.00200000 </v>
   <v>       0.00200000 </v>
   <v>       0.00200000 </v>
   <v>       0.00200000 </v>
   <v>       0.00200000 </v>
   <v>       0.00100000 </v>
   <v>       0.00100000 </v>
   <v>       0.00200000 </v>
   <v>       0.00200000 </v>
   <v>       0.00200000 </v>
   <v>       0.00200000 </v>
   <v>       0.00200000 </v>
   <v>       0.00200000 </v>
   <v>       0.00200000 </v>
   <v>       0.00100000 </v>
   <v>       0.00100000 </v>
   <v>       0.00200000 </v>
   <v>       0.00200000 </v>
   <v>       0.00200000 </v>
   <v>       0.00200000 </v>
   <v>       0.00200000 </v>
   <v>       0.00200000 </v>
   <v>       0.00200000 </v>
   <v>       0.00100000 </v>
   <v>       0.00100000 </v>
   <v>       0.00200000 </v>
   <v>       0.00200000 </v>
   <v>       0.00200000 </v>
   <v>       0.00200000 </v>
   <v>       0.00200000 </v>
   <v>       0.00200000 </v>
   <v>       0.00200000 </v>
   <v>       0.00100000 </v>
   <v>       0.00100000 </v>
   <v>       0.00200000 </v>
   <v>       0.00200000 </v>
   <v>       0.00200000 </v>
   <v>       0.00200000 </v>
   <v>       0.00200000 </v>
   <v>       0.00200000 </v>
   <v>       0.00200000 </v>
   <v>       0.00100000 </v>
   <v>       0.00100000 </v>
   <v>       0.00200000 </v>
   <v>       0.00200000 </v>
   <v>       0.00200000 </v>
   <v>       0.00200000 </v>
   <v>       0.00200000 </v>
   <v>       0.00200000 </v>
   <v>       0.00200000 </v>
   <v>       0.00100000 </v>
   <v>       0.00100000 </v>
   <v>       0.00200000 </v>
   <v>       0.00200000 </v>
   <v>       0.00200000 </v>
   <v>       0.00200000 </v>
   <v>       0.00200000 </v>
   <v>       0.00200000 </v>
   <v>       0.00200000 </v>
   <v>       0.00100000 </v>
   <v>       0.00100000 </v>
   <v>       0.00200000 </v>
   <v>       0.00200000 </v>
   <v>       0.00200000 </v>
   <v>       0.00200000 </v>
   <v>       0.00200000 </v>
   <v>       0.00200000 </v>
   <v>       0.00200000 </v>
   <v>       0.00100000 </v>
   <v>       0.00050000 </v>
   <v>       0.00100000 </v>
   <v>       0.00100000 </v>
   <v>       0.00100000 </v>
   <v>       0.00100000 </v>
   <v>       0.00100000 </v>
   <v>       0.00100000 </v>
   <v>       0.00100000 </v>
   <v>       0.00050000 </v>
   <v>       0.00050000 </v>
   <v>       0.00100000 </v>
   <v>       0.00100000 </v>
   <v>       0.00100000 </v>
   <v>       0.00100000 </v>
   <v>       0.00100000 </v>
   <v>       0.00100000 </v>
   <v>       0.00050000 </v>
   <v>       0.00100000 </v>
   <v>       0.00200000 </v>
   <v>       0.00200000 </v>
   <v>       0.00200000 </v>
   <v>       0.00200000 </v>
   <v>       0.00200000 </v>
   <v>       0.00200000 </v>
   <v>       0.00100000 </v>
   <v>       0.00100000 </v>
   <v>       0.00200000 </v>
   <v>       0.00200000 </v>
   <v>       0.00200000 </v>
   <v>       0.00200000 </v>
   <v>       0.00200000 </v>
   <v>       0.00200000 </v>
   <v>       0.00100000 </v>
   <v>       0.00100000 </v>
   <v>       0.00200000 </v>
   <v>       0.00200000 </v>
   <v>       0.00200000 </v>
   <v>       0.00200000 </v>
   <v>       0.00200000 </v>
   <v>       0.00200000 </v>
   <v>       0.00100000 </v>
   <v>       0.00100000 </v>
   <v>       0.00200000 </v>
   <v>       0.00200000 </v>
   <v>       0.00200000 </v>
   <v>       0.00200000 </v>
   <v>       0.00200000 </v>
   <v>       0.00200000 </v>
   <v>       0.00100000 </v>
   <v>       0.00100000 </v>
   <v>       0.00200000 </v>
   <v>       0.00200000 </v>
   <v>       0.00200000 </v>
   <v>       0.00200000 </v>
   <v>       0.00200000 </v>
   <v>       0.00200000 </v>
   <v>       0.00100000 </v>
   <v>       0.00100000 </v>
   <v>       0.00200000 </v>
   <v>       0.00200000 </v>
   <v>       0.00200000 </v>
   <v>       0.00200000 </v>
   <v>       0.00200000 </v>
   <v>       0.00200000 </v>
   <v>       0.00100000 </v>
   <v>       0.00100000 </v>
   <v>       0.00200000 </v>
   <v>       0.00200000 </v>
   <v>       0.00200000 </v>
   <v>       0.00200000 </v>
   <v>       0.00200000 </v>
   <v>       0.00200000 </v>
   <v>       0.00100000 </v>
   <v>       0.00100000 </v>
   <v>       0.00200000 </v>
   <v>       0.00200000 </v>
   <v>       0.00200000 </v>
   <v>       0.00200000 </v>
   <v>       0.00200000 </v>
   <v>       0.00200000 </v>
   <v>       0.00100000 </v>
   <v>       0.00100000 </v>
   <v>       0.00200000 </v>
   <v>       0.00200000 </v>
   <v>       0.00200000 </v>
   <v>       0.00200000 </v>
   <v>       0.00200000 </v>
   <v>       0.00200000 </v>
   <v>       0.00100000 </v>
   <v>       0.00050000 </v>
   <v>       0.00100000 </v>
   <v>       0.00100000 </v>
   <v>       0.00100000 </v>
   <v>       0.00100000 </v>
   <v>       0.00100000 </v>
   <v>       0.00100000 </v>
   <v>       0.00050000 </v>
   <v>       0.00050000 </v>
   <v>       0.00100000 </v>
   <v>       0.00100000 </v>
   <v>       0.00100000 </v>
   <v>       0.00100000 </v>
   <v>       0.00100000 </v>
   <v>       0.00050000 </v>
   <v>       0.00100000 </v>
   <v>       0.00200000 </v>
   <v>       0.00200000 </v>
   <v>       0.00200000 </v>
   <v>       0.00200000 </v>
   <v>       0.00200000 </v>
   <v>       0.00100000 </v>
   <v>       0.00100000 </v>
   <v>       0.00200000 </v>
   <v>       0.00200000 </v>
   <v>       0.00200000 </v>
   <v>       0.00200000 </v>
   <v>       0.00200000 </v>
   <v>       0.00100000 </v>
   <v>       0.00100000 </v>
   <v>       0.00200000 </v>
   <v>       0.00200000 </v>
   <v>       0.00200000 </v>
   <v>       0.00200000 </v>
   <v>       0.00200000 </v>
   <v>       0.00100000 </v>
   <v>       0.00100000 </v>
   <v>       0.00200000 </v>
   <v>       0.00200000 </v>
   <v>       0.00200000 </v>
   <v>       0.00200000 </v>
   <v>       0.00200000 </v>
   <v>       0.00100000 </v>
   <v>       0.00100000 </v>
   <v>       0.00200000 </v>
   <v>       0.00200000 </v>
   <v>       0.00200000 </v>
   <v>       0.00200000 </v>
   <v>       0.00200000 </v>
   <v>       0.00100000 </v>
   <v>       0.00100000 </v>
   <v>       0.00200000 </v>
   <v>       0.00200000 </v>
   <v>       0.00200000 </v>
   <v>       0.00200000 </v>
   <v>       0.00200000 </v>
   <v>       0.00100000 </v>
   <v>       0.00100000 </v>
   <v>       0.00200000 </v>
   <v>       0.00200000 </v>
   <v>       0.00200000 </v>
   <v>       0.00200000 </v>
   <v>       0.00200000 </v>
   <v>       0.00100000 </v>
   <v>       0.00100000 </v>
   <v>       0.00200000 </v>
   <v>       0.00200000 </v>
   <v>       0.00200000 </v>
   <v>       0.00200000 </v>
   <v>       0.00200000 </v>
   <v>       0.00100000 </v>
   <v>       0.00100000 </v>
   <v>       0.00200000 </v>
   <v>       0.00200000 </v>
   <v>       0.00200000 </v>
   <v>       0.00200000 </v>
   <v>       0.00200000 </v>
   <v>       0.00100000 </v>
   <v>       0.00050000 </v>
   <v>       0.00100000 </v>
   <v>       0.00100000 </v>
   <v>       0.00100000 </v>
   <v>       0.00100000 </v>
   <v>       0.00100000 </v>
   <v>       0.00050000 </v>
   <v>       0.00050000 </v>
   <v>       0.00100000 </v>
   <v>       0.00100000 </v>
   <v>       0.00100000 </v>
   <v>       0.00100000 </v>
   <v>       0.00050000 </v>
   <v>       0.00100000 </v>
   <v>       0.00200000 </v>
   <v>       0.00200000 </v>
   <v>       0.00200000 </v>
   <v>       0.00200000 </v>
   <v>       0.00100000 </v>
   <v>       0.00100000 </v>
   <v>       0.00200000 </v>
   <v>       0.00200000 </v>
   <v>       0.00200000 </v>
   <v>       0.00200000 </v>
   <v>       0.00100000 </v>
   <v>       0.00100000 </v>
   <v>       0.00200000 </v>
   <v>       0.00200000 </v>
   <v>       0.00200000 </v>
   <v>       0.00200000 </v>
   <v>       0.00100000 </v>
   <v>       0.00100000 </v>
   <v>       0.00200000 </v>
   <v>       0.00200000 </v>
   <v>       0.00200000 </v>
   <v>       0.00200000 </v>
   <v>       0.00100000 </v>
   <v>       0.00100000 </v>
   <v>       0.00200000 </v>
   <v>       0.00200000 </v>
   <v>       0.00200000 </v>
   <v>       0.00200000 </v>
   <v>       0.00100000 </v>
   <v>       0.00100000 </v>
   <v>       0.00200000 </v>
   <v>       0.00200000 </v>
   <v>       0.00200000 </v>
   <v>       0.00200000 </v>
   <v>       0.00100000 </v>
   <v>       0.00100000 </v>
   <v>       0.00200000 </v>
   <v>       0.00200000 </v>
   <v>       0.00200000 </v>
   <v>       0.00200000 </v>
   <v>       0.00100000 </v>
   <v>       0.00100000 </v>
   <v>       0.00200000 </v>
   <v>       0.00200000 </v>
   <v>       0.00200000 </v>
   <v>       0.00200000 </v>
   <v>       0.00100000 </v>
   <v>       0.00100000 </v>
   <v>       0.00200000 </v>
   <v>       0.00200000 </v>
   <v>       0.00200000 </v>
   <v>       0.00200000 </v>
   <v>       0.00100000 </v>
   <v>       0.00050000 </v>
   <v>       0.00100000 </v>
   <v>       0.00100000 </v>
   <v>       0.00100000 </v>
   <v>       0.00100000 </v>
   <v>       0.00050000 </v>
   <v>       0.00050000 </v>
   <v>       0.00100000 </v>
   <v>       0.00100000 </v>
   <v>       0.00100000 </v>
   <v>       0.00050000 </v>
   <v>       0.00100000 </v>
   <v>       0.00200000 </v>
   <v>       0.00200000 </v>
   <v>       0.00200000 </v>
   <v>       0.00100000 </v>
   <v>       0.00100000 </v>
   <v>       0.00200000 </v>
   <v>       0.00200000 </v>
   <v>       0.00200000 </v>
   <v>       0.00100000 </v>
   <v>       0.00100000 </v>
   <v>       0.00200000 </v>
   <v>       0.00200000 </v>
   <v>       0.00200000 </v>
   <v>       0.00100000 </v>
   <v>       0.00100000 </v>
   <v>       0.00200000 </v>
   <v>       0.00200000 </v>
   <v>       0.00200000 </v>
   <v>       0.00100000 </v>
   <v>       0.00100000 </v>
   <v>       0.00200000 </v>
   <v>       0.00200000 </v>
   <v>       0.00200000 </v>
   <v>       0.00100000 </v>
   <v>       0.00100000 </v>
   <v>       0.00200000 </v>
   <v>       0.00200000 </v>
   <v>       0.00200000 </v>
   <v>       0.00100000 </v>
   <v>       0.00100000 </v>
   <v>       0.00200000 </v>
   <v>       0.00200000 </v>
   <v>       0.00200000 </v>
   <v>       0.00100000 </v>
   <v>       0.00100000 </v>
   <v>       0.00200000 </v>
   <v>       0.00200000 </v>
   <v>       0.00200000 </v>
   <v>       0.00100000 </v>
   <v>       0.00100000 </v>
   <v>       0.00200000 </v>
   <v>       0.00200000 </v>
   <v>       0.00200000 </v>
   <v>       0.00100000 </v>
   <v>       0.00050000 </v>
   <v>       0.00100000 </v>
   <v>       0.00100000 </v>
   <v>       0.00100000 </v>
   <v>       0.00050000 </v>
   <v>       0.00050000 </v>
   <v>       0.00100000 </v>
   <v>       0.00100000 </v>
   <v>       0.00050000 </v>
   <v>       0.00100000 </v>
   <v>       0.00200000 </v>
   <v>       0.00200000 </v>
   <v>       0.00100000 </v>
   <v>       0.00100000 </v>
   <v>       0.00200000 </v>
   <v>       0.00200000 </v>
   <v>       0.00100000 </v>
   <v>       0.00100000 </v>
   <v>       0.00200000 </v>
   <v>       0.00200000 </v>
   <v>       0.00100000 </v>
   <v>       0.00100000 </v>
   <v>       0.00200000 </v>
   <v>       0.00200000 </v>
   <v>       0.00100000 </v>
   <v>       0.00100000 </v>
   <v>       0.00200000 </v>
   <v>       0.00200000 </v>
   <v>       0.00100000 </v>
   <v>       0.00100000 </v>
   <v>       0.00200000 </v>
   <v>       0.00200000 </v>
   <v>       0.00100000 </v>
   <v>       0.00100000 </v>
   <v>       0.00200000 </v>
   <v>       0.00200000 </v>
   <v>       0.00100000 </v>
   <v>       0.00100000 </v>
   <v>       0.00200000 </v>
   <v>       0.00200000 </v>
   <v>       0.00100000 </v>
   <v>       0.00100000 </v>
   <v>       0.00200000 </v>
   <v>       0.00200000 </v>
   <v>       0.00100000 </v>
   <v>       0.00050000 </v>
   <v>       0.00100000 </v>
   <v>       0.00100000 </v>
   <v>       0.00050000 </v>
   <v>       0.00050000 </v>
   <v>       0.00100000 </v>
   <v>       0.00050000 </v>
   <v>       0.00100000 </v>
   <v>       0.00200000 </v>
   <v>       0.00100000 </v>
   <v>       0.00100000 </v>
   <v>       0.00200000 </v>
   <v>       0.00100000 </v>
   <v>       0.00100000 </v>
   <v>       0.00200000 </v>
   <v>       0.00100000 </v>
   <v>       0.00100000 </v>
   <v>       0.00200000 </v>
   <v>       0.00100000 </v>
   <v>       0.00100000 </v>
   <v>       0.00200000 </v>
   <v>       0.00100000 </v>
   <v>       0.00100000 </v>
   <v>       0.00200000 </v>
   <v>       0.00100000 </v>
   <v>       0.00100000 </v>
   <v>       0.00200000 </v>
   <v>       0.00100000 </v>
   <v>       0.00100000 </v>
   <v>       0.00200000 </v>
   <v>       0.00100000 </v>
   <v>       0.00100000 </v>
   <v>       0.00200000 </v>
   <v>       0.00100000 </v>
   <v>       0.00050000 </v>
   <v>       0.00100000 </v>
   <v>       0.00050000 </v>
   <v>       0.00050000 </v>
   <v>       0.00050000 </v>
   <v>       0.00100000 </v>
   <v>       0.00100000 </v>
   <v>       0.00100000 </v>
   <v>       0.00100000 </v>
   <v>       0.00100000 </v>
   <v>       0.00100000 </v>
   <v>       0.00100000 </v>
   <v>       0.00100000 </v>
   <v>       0.00100000 </v>
   <v>       0.00100000 </v>
   <v>       0.00100000 </v>
   <v>       0.00100000 </v>
   <v>       0.00100000 </v>
   <v>       0.00100000 </v>
   <v>       0.00100000 </v>
   <v>       0.00100000 </v>
   <v>       0.00100000 </v>
   <v>       0.00100000 </v>
   <v>       0.00050000 </v>
   <v>       0.00050000 </v>
   <v>       0.00012500 </v>
   <v>       0.00025000 </v>
   <v>       0.00025000 </v>
   <v>       0.00025000 </v>
   <v>       0.00025000 </v>
   <v>       0.00025000 </v>
   <v>       0.00025000 </v>
   <v>       0.00025000 </v>
   <v>       0.00025000 </v>
   <v>       0.00025000 </v>
   <v>       0.00012500 </v>
  </varray>
 </kpoints>
 <parameters>
  <separator name="general" >
   <i type="string" name="SYSTEM">Al</i>
   <i type="logical" name="LCOMPAT"> F  </i>
  </separator>
  <separator name="electronic" >
   <i type="string" name="PREC">accura</i>
   <i name="ENMAX">    550.00000000</i>
   <i name="ENAUG">    291.05200000</i>
   <i name="EDIFF">      0.00000010</i>
   <i type="int" name="IALGO">    38</i>
   <i type="int" name="IWAVPR">    11</i>
   <i type="int" name="NBANDS">    16</i>
   <i name="NELECT">     12.00000000</i>
   <separator name="electronic smearing" >
    <i type="int" name="ISMEAR">     2</i>
    <i name="SIGMA">      0.10000000</i>
   </separator>
   <separator name="electronic projectors" >
    <i type="logical" name="LREAL"> T  </i>
    <v name="ROPT">     -0.00025000</v>
    <i type="int" name="LMAXPAW">  -100</i>
    <i type="int" name="LMAXMIX">     2</i>
   </separator>
   <separator name="electronic startup" >
    <i type="int" name="ISTART">     0</i>
    <i type="int" name="ICHARG">     1</i>
    <i type="int" name="INIWAV">     1</i>
   </separator>
   <separator name="electronic spin" >
    <i type="int" name="ISPIN">     1</i>
    <i type="logical" name="LNONCOLLINEAR"> F  </i>
    <v name="MAGMOM">      1.00000000      1.00000000      1.00000000      1.00000000</v>
    <i name="NUPDOWN">     -1.00000000</i>
    <i type="logical" name="LSORBIT"> F  </i>
    <v name="SAXIS">      0.00000000      0.00000000      1.00000000</v>
    <i type="logical" name="LSPIRAL"> F  </i>
    <v name="QSPIRAL">      0.00000000      0.00000000      0.00000000</v>
    <i type="logical" name="LZEROZ"> F  </i>
   </separator>
   <separator name="electronic exchange-correlation" >
    <i type="logical" name="LASPH"> F  </i>
    <i type="logical" name="LMETAGGA"> F  </i>
   </separator>
   <separator name="electronic convergence" >
    <i type="int" name="NELM">    60</i>
    <i type="int" name="NELMDL">     0</i>
    <i type="int" name="NELMIN">     2</i>
    <i name="ENINI">    550.00000000</i>
    <separator name="electronic convergence detail" >
     <i type="logical" name="LDIAG"> T  </i>
     <i name="WEIMIN">      0.00100000</i>
     <i name="EBREAK">      0.00000000</i>
     <i name="DEPER">      0.30000000</i>
     <i type="int" name="NRMM">     4</i>
     <i name="TIME">      0.40000000</i>
    </separator>
   </separator>
   <separator name="electronic mixer" >
    <i name="AMIX">      0.40000000</i>
    <i name="BMIX">      1.00000000</i>
    <i name="AMIN">      0.10000000</i>
    <i name="AMIX_MAG">      1.60000000</i>
    <i name="BMIX_MAG">      1.00000000</i>
    <separator name="electronic mixer details" >
     <i type="int" name="IMIX">     4</i>
     <i type="int" name="MAXMIX">   -45</i>
     <i name="WC">    100.00000000</i>
     <i type="int" name="INIMIX">     1</i>
     <i type="int" name="MIXPRE">     1</i>
     <i type="int" name="MREMOVE">     5</i>
    </separator>
   </separator>
   <separator name="electronic dipolcorrection" >
    <i type="logical" name="LDIPOL"> F  </i>
    <i type="logical" name="LMONO"> F  </i>
    <i type="int" name="IDIPOL">     0</i>
    <i name="EPSILON">      1.00000000</i>
    <v name="DIPOL">   -100.00000000   -100.00000000   -100.00000000</v>
    <i name="EFIELD">      0.00000000</i>
   </separator>
  </separator>
  <separator name="grids" >
   <i type="int" name="NGX">    32</i>
   <i type="int" name="NGY">    32</i>
   <i type="int" name="NGZ">    32</i>
   <i type="int" name="NGXF">    64</i>
   <i type="int" name="NGYF">    64</i>
   <i type="int" name="NGZF">    64</i>
   <i type="logical" name="ADDGRID"> F  </i>
  </separator>
  <separator name="ionic" >
   <i type="int" name="NSW">     5</i>
   <i type="int" name="IBRION">     2</i>
   <i type="int" name="ISIF">     2</i>
   <i name="PSTRESS">      0.00000000</i>
   <i name="EDIFFG">      0.00000010</i>
   <i type="int" name="NFREE">     1</i>
   <i name="POTIM">      0.10000000</i>
   <i name="SMASS">     -3.00000000</i>
  </separator>
  <separator name="ionic md" >
   <i name="TEBEG">      0.00010000</i>
   <i name="TEEND">      0.00010000</i>
   <i type="int" name="NBLOCK">     1</i>
   <i type="int" name="KBLOCK">     5</i>
   <i type="int" name="NPACO">   256</i>
   <i name="APACO">     16.00000000</i>
  </separator>
  <separator name="symmetry" >
   <i type="int" name="ISYM">     2</i>
   <i name="SYMPREC">      0.00001000</i>
  </separator>
  <separator name="dos" >
   <i type="logical" name="LORBIT"> F  </i>
   <v name="RWIGS">     -1.00000000</v>
   <i type="int" name="NEDOS">   301</i>
   <i name="EMIN">     10.00000000</i>
   <i name="EMAX">    -10.00000000</i>
   <i name="EFERMI">      0.00000000</i>
  </separator>
  <separator name="writing" >
   <i type="int" name="NWRITE">     2</i>
   <i type="logical" name="LWAVE"> F  </i>
   <i type="logical" name="LCHARG"> T  </i>
   <i type="logical" name="LPARD"> F  </i>
   <i type="logical" name="LVTOT"> F  </i>
   <i type="logical" name="LELF"> F  </i>
   <i type="logical" name="LOPTICS"> F  </i>
   <v name="STM">      0.00000000      0.00000000      0.00000000      0.00000000      0.00000000</v>
  </separator>
  <separator name="performance" >
   <i type="int" name="NPAR">     8</i>
   <i type="int" name="NSIM">     4</i>
   <i type="int" name="NBLK">    32</i>
   <i type="logical" name="LPLANE"> T  </i>
   <i type="logical" name="LSCALAPACK"> T  </i>
   <i type="logical" name="LSCAAWARE"> F  </i>
   <i type="logical" name="LSCALU"> F  </i>
   <i type="logical" name="LASYNC"> F  </i>
  </separator>
  <separator name="miscellaneous" >
   <i type="int" name="IDIOT">     3</i>
   <i type="logical" name="LMUSIC"> F  </i>
   <v name="POMASS">     26.98200000</v>
   <i type="logical" name="LCORR"> T  </i>
  </separator>
  <i type="logical" name="LREAL_COMPAT"> F  </i>
  <i type="logical" name="GGA_COMPAT"> T  </i>
  <i type="logical" name="LBERRY"> F  </i>
  <i type="int" name="ICORELEVEL">     0</i>
  <i type="logical" name="LDAU"> F  </i>
  <i type="int" name="I_CONSTRAINED_M">     0</i>
  <separator name="electronic exchange-correlation" >
   <i type="string" name="GGA">--</i>
   <i type="int" name="VOSKOWN">     1</i>
   <i type="logical" name="LHFCALC"> F  </i>
   <i type="logical" name="LHFONE"> F  </i>
   <i type="logical" name="LRHFCALC"> F  </i>
   <i type="logical" name="LTHOMAS"> F  </i>
   <i type="logical" name="LMODELHF"> F  </i>
   <i name="ENCUTFOCK">      0.00000000</i>
   <i name="ENCUT4O">     -1.00000000</i>
   <i type="int" name="EXXOEP">     0</i>
   <i type="int" name="FOURORBIT">     0</i>
   <i name="AEXX">      0.00000000</i>
   <i name="HFALPHA">      0.00000000</i>
   <i name="ALDAX">      1.00000000</i>
   <i name="AGGAX">      1.00000000</i>
   <i name="ALDAC">      1.00000000</i>
   <i name="AGGAC">      1.00000000</i>
   <i type="int" name="NKREDX">     1</i>
   <i type="int" name="NKREDY">     1</i>
   <i type="int" name="NKREDZ">     1</i>
   <i type="logical" name="SHIFTRED"> F  </i>
   <i type="logical" name="ODDONLY"> F  </i>
   <i type="logical" name="EVENONLY"> F  </i>
   <i type="int" name="LMAXFOCK">     0</i>
   <i type="int" name="NMAXFOCKAE">     0</i>
   <i name="HFSCREEN">      0.00000000</i>
   <i name="HFSCREENC">      0.00000000</i>
  </separator>
  <separator name="model GW" >
   <i type="int" name="MODEL_GW">     0</i>
   <i name="MODEL_EPS0">      9.79589895</i>
   <i name="MODEL_ALPHA">      1.00000000</i>
  </separator>
  <separator name="linear response parameters" >
   <i type="logical" name="LEPSILON"> F  </i>
   <i type="logical" name="LRPA"> F  </i>
   <i type="logical" name="LNABLA"> F  </i>
   <i type="logical" name="LVEL"> F  </i>
   <i type="int" name="KINTER">     0</i>
   <i name="CSHIFT">      0.10000000</i>
   <i name="OMEGAMAX">     -1.00000000</i>
  </separator>
  <separator name="orbital magnetization" >
   <i type="logical" name="ORBITALMAG"> F  </i>
   <i type="logical" name="LMAGBLOCH"> F  </i>
   <i type="logical" name="LCHIMAG"> F  </i>
   <i type="logical" name="LGAUGE"> T  </i>
   <i type="int" name="MAGATOM">     0</i>
   <v name="MAGDIPOL">      0.00000000      0.00000000      0.00000000</v>
   <v name="AVECCONST">      0.00000000      0.00000000      0.00000000</v>
  </separator>
  <separator name="response functions" >
   <i type="logical" name="LRPA"> T  </i>
   <i type="logical" name="LTCTE"> F  </i>
   <i type="logical" name="LTETE"> F  </i>
   <i type="logical" name="L2ORDER"> F  </i>
   <i type="logical" name="LGWLF"> F  </i>
   <i name="ENCUTGW">    366.66666667</i>
   <i name="ENCUTGWSOFT">     -2.00000000</i>
   <i name="ENCUTLF">     -1.00000000</i>
   <i type="int" name="LMAXMP2">    -1</i>
   <i name="SCISSOR">      0.00000000</i>
   <i type="int" name="NOMEGA">     0</i>
   <i type="int" name="NOMEGAR">     0</i>
   <i type="int" name="NBANDSGW">    -1</i>
   <i type="int" name="NBANDSLF">    -1</i>
   <i type="int" name="NELM">     1</i>
   <i type="int" name="DIM">     3</i>
   <i type="int" name="ANTIRES">     0</i>
   <i type="logical" name="LUSEW"> F  </i>
   <i name="OMEGAMAX">    -30.00000000</i>
   <i name="OMEGATL">   -200.00000000</i>
   <i type="int" name="OMEGAGRID">     0</i>
   <i name="CSHIFT">     -0.10000000</i>
   <i type="logical" name="SELFENERGY"> F  </i>
   <i type="logical" name="LSPECTRAL"> F  </i>
   <i type="logical" name="ODDONLYGW"> F  </i>
   <i type="logical" name="EVENONLYGW"> F  </i>
   <i type="int" name="NKREDLFX">     1</i>
   <i type="int" name="NKREDLFY">     1</i>
   <i type="int" name="NKREDLFZ">     1</i>
   <i type="int" name="MAXMEM">  1024</i>
   <i type="int" name="TELESCOPE">     0</i>
  </separator>
 </parameters>
 <atominfo>
  <atoms>       4 </atoms>
  <types>       1 </types>
  <array name="atoms" >
   <dimension dim="1">ion</dimension>
   <field type="string">element</field>
   <field type="int">atomtype</field>
   <set>
    <rc><c>Al</c><c>   1</c></rc>
    <rc><c>Al</c><c>   1</c></rc>
    <rc><c>Al</c><c>   1</c></rc>
    <rc><c>Al</c><c>   1</c></rc>
   </set>
  </array>
  <array name="atomtypes" >
   <dimension dim="1">type</dimension>
   <field type="int">atomspertype</field>
   <field type="string">element</field>
   <field>mass</field>
   <field>valence</field>
   <field type="string">pseudopotential</field>
   <set>
    <rc><c>   4</c><c>Al</c><c>     26.98200000</c><c>      3.00000000</c><c> PAW_PBE Al 04Jan2001                   </c></rc>
   </set>
  </array>
 </atominfo>
 <structure name="initialpos" >
  <crystal>
   <varray name="basis" >
    <v>       4.04053900       0.00000000       0.00000000 </v>
    <v>       0.00000000       4.00013300       0.00000000 </v>
    <v>       0.00000000       0.00000000       4.04053900 </v>
   </varray>
   <i name="volume">     65.30599299 </i>
   <varray name="rec_basis" >
    <v>       0.24749173       0.00000000       0.00000000 </v>
    <v>       0.00000000       0.24999169       0.00000000 </v>
    <v>       0.00000000       0.00000000       0.24749173 </v>
   </varray>
  </crystal>
  <varray name="positions" >
   <v>       0.00000000       0.00000000       0.00000000 </v>
   <v>       0.50000000       0.50000000       0.00000000 </v>
[...]
      </set>
      <set comment="kpoint 718">
       <r>    1.4550    1.0000 </r>
       <r>    1.4550    1.0000 </r>
       <r>    1.4550    1.0000 </r>
       <r>    1.4550    1.0000 </r>
       <r>    8.3927    0.0013 </r>
       <r>    8.3927    0.0013 </r>
       <r>    8.3927    0.0013 </r>
       <r>    8.3927    0.0013 </r>
       <r>   12.1824    0.0000 </r>
       <r>   12.1824    0.0000 </r>
       <r>   12.1824    0.0000 </r>
       <r>   12.1824    0.0000 </r>
       <r>   17.5957    0.0000 </r>
       <r>   17.5957    0.0000 </r>
       <r>   17.5957    0.0000 </r>
       <r>   17.5957    0.0000 </r>
      </set>
      <set comment="kpoint 719">
       <r>    1.5669    1.0000 </r>
       <r>    1.5669    1.0000 </r>
       <r>    1.5669    1.0000 </r>
       <r>    1.5669    1.0000 </r>
       <r>    7.6860    1.0000 </r>
       <r>    7.6860    1.0000 </r>
       <r>    7.6860    1.0000 </r>
       <r>    7.6860    1.0000 </r>
       <r>   13.0777    0.0000 </r>
       <r>   13.0777    0.0000 </r>
       <r>   13.0777    0.0000 </r>
       <r>   13.0777    0.0000 </r>
       <r>   17.6951    0.0000 </r>
       <r>   17.6951    0.0000 </r>
       <r>   17.6951    0.0000 </r>
       <r>   17.6951    0.0000 </r>
      </set>
      <set comment="kpoint 720">
       <r>    1.7235    1.0000 </r>
       <r>    1.7235    1.0000 </r>
       <r>    1.7235    1.0000 </r>
       <r>    1.7235    1.0000 </r>
       <r>    6.9938    1.0000 </r>
       <r>    6.9938    1.0000 </r>
       <r>    6.9938    1.0000 </r>
       <r>    6.9938    1.0000 </r>
       <r>   14.0310    0.0000 </r>
       <r>   14.0310    0.0000 </r>
       <r>   14.0310    0.0000 </r>
       <r>   14.0310    0.0000 </r>
       <r>   17.8344    0.0000 </r>
       <r>   17.8344    0.0000 </r>
       <r>   17.8344    0.0000 </r>
       <r>   17.8344    0.0000 </r>
      </set>
      <set comment="kpoint 721">
       <r>    1.9244    1.0000 </r>
       <r>    1.9244    1.0000 </r>
       <r>    1.9244    1.0000 </r>
       <r>    1.9244    1.0000 </r>
       <r>    6.3318    1.0000 </r>
       <r>    6.3318    1.0000 </r>
       <r>    6.3318    1.0000 </r>
       <r>    6.3318    1.0000 </r>
       <r>   15.0229    0.0000 </r>
       <r>   15.0229    0.0000 </r>
       <r>   15.0229    0.0000 </r>
       <r>   15.0229    0.0000 </r>
       <r>   18.0136    0.0000 </r>
       <r>   18.0136    0.0000 </r>
       <r>   18.0136    0.0000 </r>
       <r>   18.0136    0.0000 </r>
      </set>
      <set comment="kpoint 722">
       <r>    2.1695    1.0000 </r>
       <r>    2.1695    1.0000 </r>
       <r>    2.1695    1.0000 </r>
       <r>    2.1695    1.0000 </r>
       <r>    5.7059    1.0000 </r>
       <r>    5.7059    1.0000 </r>
       <r>    5.7059    1.0000 </r>
       <r>    5.7059    1.0000 </r>
       <r>   16.0402    0.0000 </r>
       <r>   16.0402    0.0000 </r>
       <r>   16.0402    0.0000 </r>
       <r>   16.0402    0.0000 </r>
       <r>   18.2326    0.0000 </r>
       <r>   18.2326    0.0000 </r>
       <r>   18.2326    0.0000 </r>
       <r>   18.2326    0.0000 </r>
      </set>
      <set comment="kpoint 723">
       <r>    2.4583    1.0000 </r>
       <r>    2.4583    1.0000 </r>
       <r>    2.4583    1.0000 </r>
       <r>    2.4583    1.0000 </r>
       <r>    5.1193    1.0000 </r>
       <r>    5.1193    1.0000 </r>
       <r>    5.1193    1.0000 </r>
       <r>    5.1193    1.0000 </r>
       <r>   17.0668    0.0000 </r>
       <r>   17.0668    0.0000 </r>
       <r>   17.0668    0.0000 </r>
       <r>   17.0668    0.0000 </r>
       <r>   18.4916    0.0000 </r>
       <r>   18.4916    0.0000 </r>
       <r>   18.4916    0.0000 </r>
       <r>   18.4916    0.0000 </r>
      </set>
      <set comment="kpoint 724">
       <r>    2.7897    1.0000 </r>
       <r>    2.7897    1.0000 </r>
       <r>    2.7897    1.0000 </r>
       <r>    2.7897    1.0000 </r>
       <r>    4.5745    1.0000 </r>
       <r>    4.5745    1.0000 </r>
       <r>    4.5745    1.0000 </r>
       <r>    4.5745    1.0000 </r>
       <r>   18.0738    0.0000 </r>
       <r>   18.0738    0.0000 </r>
       <r>   18.0738    0.0000 </r>
       <r>   18.0738    0.0000 </r>
       <r>   18.7906    0.0000 </r>
       <r>   18.7906    0.0000 </r>
       <r>   18.7906    0.0000 </r>
       <r>   18.7906    0.0000 </r>
      </set>
      <set comment="kpoint 725">
       <r>    3.1594    1.0000 </r>
       <r>    3.1594    1.0000 </r>
       <r>    3.1594    1.0000 </r>
       <r>    3.1594    1.0000 </r>
       <r>    4.0765    1.0000 </r>
       <r>    4.0765    1.0000 </r>
       <r>    4.0765    1.0000 </r>
       <r>    4.0765    1.0000 </r>
       <r>   19.0028    0.0000 </r>
       <r>   19.0028    0.0000 </r>
       <r>   19.0028    0.0000 </r>
       <r>   19.0036    0.0000 </r>
       <r>   19.1296    0.0000 </r>
       <r>   19.1296    0.0000 </r>
       <r>   19.1297    0.0000 </r>
       <r>   19.1300    0.0000 </r>
      </set>
      <set comment="kpoint 726">
       <r>    3.4760    1.0000 </r>
       <r>    3.4760    1.0000 </r>
       <r>    3.4760    1.0000 </r>
       <r>    3.4760    1.0000 </r>
       <r>    3.7171    1.0000 </r>
       <r>    3.7171    1.0000 </r>
       <r>    3.7171    1.0000 </r>
       <r>    3.7171    1.0000 </r>
       <r>   19.5073    0.0000 </r>
       <r>   19.5081    0.0000 </r>
       <r>   19.5090    0.0000 </r>
       <r>   19.5100    0.0000 </r>
       <r>   19.5105    0.0000 </r>
       <r>   19.5194    0.0000 </r>
       <r>   19.5339    0.0000 </r>
       <r>   19.7324    0.0000 </r>
      </set>
     </set>
    </set>
   </array>
  </eigenvalues>
  <separator name="orbital magnetization" >
   <v name="MAGDIPOLOUT">      0.00000000      0.00000000      0.00000000</v>
  </separator>
  <dos>
   <i name="efermi">      8.12866952 </i>
   <total>
    <array>
     <dimension dim="1">gridpoints</dimension>
     <dimension dim="2">spin</dimension>
     <field>energy</field>
     <field>total</field>
     <field>integrated</field>
     <set>
      <set comment="spin 1">
       <r>  -4.2418   0.0000   0.0000 </r>
       <r>  -4.1578   0.0000   0.0000 </r>
       <r>  -4.0739   0.0000   0.0000 </r>
       <r>  -3.9899   0.0000   0.0000 </r>
       <r>  -3.9060   0.0000   0.0000 </r>
       <r>  -3.8220   0.0000   0.0000 </r>
       <r>  -3.7381   0.0000   0.0000 </r>
       <r>  -3.6541   0.0000   0.0000 </r>
       <r>  -3.5702   0.0000   0.0000 </r>
       <r>  -3.4862   0.0000   0.0000 </r>
       <r>  -3.4023   0.0000   0.0000 </r>
       <r>  -3.3183   0.0001   0.0000 </r>
       <r>  -3.2344   0.0003   0.0000 </r>
       <r>  -3.1504  -0.0033  -0.0002 </r>
       <r>  -3.0665   0.0254   0.0019 </r>
       <r>  -2.9825   0.1175   0.0117 </r>
       <r>  -2.8986   0.1780   0.0267 </r>
       <r>  -2.8147   0.2309   0.0461 </r>
       <r>  -2.7307   0.2443   0.0666 </r>
       <r>  -2.6468   0.3189   0.0933 </r>
       <r>  -2.5628   0.2890   0.1176 </r>
       <r>  -2.4789   0.3650   0.1483 </r>
       <r>  -2.3949   0.3859   0.1807 </r>
       <r>  -2.3110   0.3662   0.2114 </r>
       <r>  -2.2270   0.4192   0.2466 </r>
       <r>  -2.1431   0.4710   0.2861 </r>
       <r>  -2.0591   0.4618   0.3249 </r>
       <r>  -1.9752   0.3882   0.3575 </r>
       <r>  -1.8912   0.5904   0.4070 </r>
       <r>  -1.8073   0.5295   0.4515 </r>
       <r>  -1.7233   0.4653   0.4905 </r>
       <r>  -1.6394   0.5299   0.5350 </r>
       <r>  -1.5554   0.6436   0.5891 </r>
       <r>  -1.4715   0.5426   0.6346 </r>
       <r>  -1.3875   0.6297   0.6875 </r>
       <r>  -1.3036   0.5814   0.7363 </r>
       <r>  -1.2196   0.5701   0.7841 </r>
       <r>  -1.1357   0.6740   0.8407 </r>
       <r>  -1.0518   0.7944   0.9074 </r>
       <r>  -0.9678   0.5956   0.9574 </r>
       <r>  -0.8839   0.5216   1.0012 </r>
       <r>  -0.7999   0.8242   1.0704 </r>
       <r>  -0.7160   0.7377   1.1323 </r>
       <r>  -0.6320   0.7564   1.1958 </r>
       <r>  -0.5481   0.6596   1.2512 </r>
       <r>  -0.4641   0.7862   1.3172 </r>
       <r>  -0.3802   0.7209   1.3777 </r>
       <r>  -0.2962   0.7633   1.4418 </r>
       <r>  -0.2123   0.8223   1.5108 </r>
       <r>  -0.1283   0.8373   1.5811 </r>
       <r>  -0.0444   0.8473   1.6522 </r>
       <r>   0.0396   0.8165   1.7208 </r>
       <r>   0.1235   0.6670   1.7768 </r>
       <r>   0.2075   0.8206   1.8457 </r>
       <r>   0.2914   1.0462   1.9335 </r>
       <r>   0.3754   0.9790   2.0157 </r>
       <r>   0.4593   0.7436   2.0781 </r>
       <r>   0.5433   0.7962   2.1449 </r>
       <r>   0.6272   0.9665   2.2261 </r>
       <r>   0.7111   0.8526   2.2977 </r>
       <r>   0.7951   1.0742   2.3878 </r>
       <r>   0.8790   0.8514   2.4593 </r>
       <r>   0.9630   0.8999   2.5349 </r>
       <r>   1.0469   1.0950   2.6268 </r>
       <r>   1.1309   1.0356   2.7137 </r>
       <r>   1.2148   0.7318   2.7751 </r>
       <r>   1.2988   1.0152   2.8604 </r>
       <r>   1.3827   1.0419   2.9478 </r>
       <r>   1.4667   0.9806   3.0301 </r>
       <r>   1.5506   1.1290   3.1249 </r>
       <r>   1.6346   1.1907   3.2249 </r>
       <r>   1.7185   0.8775   3.2985 </r>
       <r>   1.8025   0.9156   3.3754 </r>
       <r>   1.8864   1.0652   3.4648 </r>
       <r>   1.9704   1.0467   3.5527 </r>
       <r>   2.0543   1.2052   3.6539 </r>
       <r>   2.1383   1.2109   3.7555 </r>
       <r>   2.2222   1.0844   3.8466 </r>
       <r>   2.3062   0.8947   3.9217 </r>
       <r>   2.3901   1.1662   4.0196 </r>
       <r>   2.4740   1.2671   4.1259 </r>
       <r>   2.5580   1.1162   4.2197 </r>
       <r>   2.6419   0.9851   4.3023 </r>
       <r>   2.7259   1.2065   4.4036 </r>
       <r>   2.8098   1.1339   4.4988 </r>
       <r>   2.8938   1.3112   4.6089 </r>
       <r>   2.9777   1.3336   4.7208 </r>
       <r>   3.0617   1.1139   4.8144 </r>
       <r>   3.1456   1.1327   4.9094 </r>
       <r>   3.2296   1.1514   5.0061 </r>
       <r>   3.3135   1.1014   5.0986 </r>
       <r>   3.3975   1.2950   5.2073 </r>
       <r>   3.4814   1.4666   5.3304 </r>
       <r>   3.5654   1.3745   5.4458 </r>
       <r>   3.6493   1.1827   5.5451 </r>
       <r>   3.7333   1.2133   5.6469 </r>
       <r>   3.8172   1.2134   5.7488 </r>
       <r>   3.9012   1.2774   5.8560 </r>
       <r>   3.9851   1.1225   5.9502 </r>
       <r>   4.0691   1.4219   6.0696 </r>
       <r>   4.1530   1.4365   6.1902 </r>
       <r>   4.2369   1.3459   6.3032 </r>
       <r>   4.3209   1.3026   6.4125 </r>
       <r>   4.4048   1.2519   6.5176 </r>
       <r>   4.4888   1.3237   6.6288 </r>
       <r>   4.5727   1.4975   6.7545 </r>
       <r>   4.6567   1.4237   6.8740 </r>
       <r>   4.7406   1.3704   6.9890 </r>
       <r>   4.8246   1.3755   7.1045 </r>
       <r>   4.9085   1.2231   7.2072 </r>
       <r>   4.9925   1.3978   7.3245 </r>
       <r>   5.0764   1.7603   7.4723 </r>
       <r>   5.1604   1.7155   7.6163 </r>
       <r>   5.2443   1.3687   7.7312 </r>
       <r>   5.3283   1.4528   7.8532 </r>
       <r>   5.4122   1.2892   7.9614 </r>
       <r>   5.4962   1.5686   8.0931 </r>
       <r>   5.5801   1.8355   8.2472 </r>
       <r>   5.6641   1.4751   8.3710 </r>
       <r>   5.7480   1.0791   8.4616 </r>
       <r>   5.8320   1.6116   8.5969 </r>
       <r>   5.9159   1.6736   8.7374 </r>
       <r>   5.9998   1.3175   8.8480 </r>
       <r>   6.0838   1.1765   8.9467 </r>
       <r>   6.1677   1.5775   9.0791 </r>
       <r>   6.2517   1.4518   9.2010 </r>
       <r>   6.3356   1.2761   9.3082 </r>
       <r>   6.4196   1.2650   9.4144 </r>
       <r>   6.5035   1.6100   9.5495 </r>
       <r>   6.5875   1.5387   9.6787 </r>
       <r>   6.6714   1.2506   9.7837 </r>
       <r>   6.7554   1.2916   9.8921 </r>
       <r>   6.8393   1.5887  10.0255 </r>
       <r>   6.9233   1.3503  10.1388 </r>
       <r>   7.0072   1.7532  10.2860 </r>
       <r>   7.0912   1.5558  10.4166 </r>
       <r>   7.1751   1.4998  10.5425 </r>
       <r>   7.2591   1.7420  10.6887 </r>
       <r>   7.3430   1.5292  10.8171 </r>
       <r>   7.4270   1.4701  10.9405 </r>
       <r>   7.5109   1.4740  11.0643 </r>
       <r>   7.5949   1.4149  11.1830 </r>
       <r>   7.6788   1.6874  11.3247 </r>
       <r>   7.7627   1.4866  11.4495 </r>
       <r>   7.8467   1.4133  11.5681 </r>
       <r>   7.9306   1.5673  11.6997 </r>
       <r>   8.0146   1.4483  11.8213 </r>
       <r>   8.0985   1.5443  11.9509 </r>
       <r>   8.1825   1.6531  12.0897 </r>
       <r>   8.2664   1.8461  12.2447 </r>
       <r>   8.3504   1.9336  12.4070 </r>
       <r>   8.4343   1.6191  12.5429 </r>
       <r>   8.5183   1.4357  12.6634 </r>
       <r>   8.6022   1.4035  12.7812 </r>
       <r>   8.6862   1.5803  12.9139 </r>
       <r>   8.7701   1.5657  13.0453 </r>
       <r>   8.8541   1.7712  13.1940 </r>
       <r>   8.9380   1.9963  13.3616 </r>
       <r>   9.0220   2.0278  13.5318 </r>
       <r>   9.1059   1.7551  13.6792 </r>
       <r>   9.1899   1.3749  13.7946 </r>
       <r>   9.2738   1.5651  13.9260 </r>
       <r>   9.3578   1.4654  14.0490 </r>
       <r>   9.4417   1.5807  14.1817 </r>
       <r>   9.5256   1.6301  14.3185 </r>
       <r>   9.6096   1.8316  14.4723 </r>
       <r>   9.6935   1.9432  14.6354 </r>
       <r>   9.7775   1.7257  14.7803 </r>
       <r>   9.8614   2.0007  14.9482 </r>
       <r>   9.9454   1.7317  15.0936 </r>
       <r>  10.0293   1.5745  15.2258 </r>
       <r>  10.1133   1.5123  15.3527 </r>
       <r>  10.1972   1.6848  15.4942 </r>
       <r>  10.2812   2.1918  15.6782 </r>
       <r>  10.3651   1.7133  15.8220 </r>
       <r>  10.4491   1.5830  15.9549 </r>
       <r>  10.5330   1.8550  16.1106 </r>
       <r>  10.6170   2.0537  16.2830 </r>
       <r>  10.7009   1.7548  16.4303 </r>
       <r>  10.7849   1.5527  16.5607 </r>
       <r>  10.8688   1.7140  16.7046 </r>
       <r>  10.9528   2.0974  16.8806 </r>
       <r>  11.0367   1.9979  17.0483 </r>
       <r>  11.1207   1.7337  17.1939 </r>
       <r>  11.2046   1.7463  17.3405 </r>
       <r>  11.2885   2.1718  17.5228 </r>
       <r>  11.3725   1.8617  17.6791 </r>
       <r>  11.4564   1.8192  17.8318 </r>
       <r>  11.5404   1.7033  17.9748 </r>
       <r>  11.6243   1.9915  18.1420 </r>
       <r>  11.7083   1.6496  18.2805 </r>
       <r>  11.7922   1.8869  18.4389 </r>
       <r>  11.8762   2.0796  18.6134 </r>
       <r>  11.9601   2.0388  18.7846 </r>
       <r>  12.0441   2.1868  18.9682 </r>
       <r>  12.1280   1.8499  19.1235 </r>
       <r>  12.2120   1.7810  19.2730 </r>
       <r>  12.2959   2.1493  19.4534 </r>
       <r>  12.3799   1.9242  19.6149 </r>
       <r>  12.4638   1.9494  19.7786 </r>
       <r>  12.5478   2.1468  19.9588 </r>
       <r>  12.6317   1.7787  20.1081 </r>
       <r>  12.7157   1.9207  20.2694 </r>
       <r>  12.7996   1.9153  20.4301 </r>
       <r>  12.8836   2.1366  20.6095 </r>
       <r>  12.9675   2.0504  20.7816 </r>
       <r>  13.0514   2.4119  20.9841 </r>
       <r>  13.1354   2.1252  21.1625 </r>
       <r>  13.2193   2.0604  21.3355 </r>
       <r>  13.3033   2.1373  21.5149 </r>
       <r>  13.3872   1.9886  21.6818 </r>
       <r>  13.4712   1.9038  21.8417 </r>
       <r>  13.5551   2.1684  22.0237 </r>
       <r>  13.6391   2.2913  22.2160 </r>
       <r>  13.7230   2.4681  22.4232 </r>
       <r>  13.8070   2.5781  22.6397 </r>
       <r>  13.8909   2.1157  22.8173 </r>
       <r>  13.9749   2.1096  22.9944 </r>
       <r>  14.0588   2.3532  23.1919 </r>
       <r>  14.1428   2.3015  23.3851 </r>
       <r>  14.2267   2.3352  23.5812 </r>
       <r>  14.3107   2.3361  23.7773 </r>
       <r>  14.3946   2.2521  23.9663 </r>
       <r>  14.4786   2.3332  24.1622 </r>
       <r>  14.5625   2.2410  24.3503 </r>
       <r>  14.6465   2.1308  24.5292 </r>
       <r>  14.7304   1.9676  24.6944 </r>
       <r>  14.8143   2.1951  24.8786 </r>
       <r>  14.8983   2.5341  25.0914 </r>
       <r>  14.9822   2.0525  25.2637 </r>
       <r>  15.0662   1.9439  25.4269 </r>
       <r>  15.1501   2.0490  25.5989 </r>
       <r>  15.2341   1.9522  25.7628 </r>
       <r>  15.3180   2.2668  25.9530 </r>
       <r>  15.4020   2.2570  26.1425 </r>
       <r>  15.4859   2.2190  26.3288 </r>
       <r>  15.5699   1.9738  26.4945 </r>
       <r>  15.6538   2.1291  26.6732 </r>
       <r>  15.7378   2.3918  26.8740 </r>
       <r>  15.8217   2.1098  27.0511 </r>
       <r>  15.9057   2.0645  27.2244 </r>
       <r>  15.9896   1.8919  27.3833 </r>
       <r>  16.0736   1.8644  27.5398 </r>
       <r>  16.1575   2.0211  27.7094 </r>
       <r>  16.2415   2.3603  27.9076 </r>
       <r>  16.3254   2.0848  28.0826 </r>
       <r>  16.4094   1.9759  28.2485 </r>
       <r>  16.4933   2.3239  28.4436 </r>
       <r>  16.5772   2.1061  28.6204 </r>
       <r>  16.6612   1.7374  28.7662 </r>
       <r>  16.7451   1.7654  28.9144 </r>
       <r>  16.8291   1.9310  29.0765 </r>
       <r>  16.9130   2.1238  29.2548 </r>
       <r>  16.9970   2.2720  29.4455 </r>
       <r>  17.0809   1.9193  29.6066 </r>
       <r>  17.1649   1.9578  29.7710 </r>
       <r>  17.2488   1.6437  29.9090 </r>
       <r>  17.3328   1.3804  30.0249 </r>
       <r>  17.4167   1.7034  30.1679 </r>
       <r>  17.5007   1.8909  30.3266 </r>
       <r>  17.5846   1.5188  30.4541 </r>
       <r>  17.6686   1.4259  30.5738 </r>
       <r>  17.7525   1.4130  30.6924 </r>
       <r>  17.8365   1.1917  30.7924 </r>
       <r>  17.9204   1.4100  30.9108 </r>
       <r>  18.0044   1.2731  31.0177 </r>
       <r>  18.0883   1.0899  31.1092 </r>
       <r>  18.1723   1.1110  31.2025 </r>
       <r>  18.2562   1.0972  31.2946 </r>
       <r>  18.3401   0.8322  31.3644 </r>
       <r>  18.4241   0.8977  31.4398 </r>
       <r>  18.5080   1.1272  31.5344 </r>
       <r>  18.5920   0.8699  31.6074 </r>
       <r>  18.6759   0.8067  31.6751 </r>
       <r>  18.7599   0.8351  31.7453 </r>
       <r>  18.8438   0.5464  31.7911 </r>
       <r>  18.9278   0.6015  31.8416 </r>
       <r>  19.0117   0.5074  31.8842 </r>
       <r>  19.0957   0.2963  31.9091 </r>
       <r>  19.1796   0.2240  31.9279 </r>
       <r>  19.2636   0.2338  31.9475 </r>
       <r>  19.3475   0.1587  31.9608 </r>
       <r>  19.4315   0.1009  31.9693 </r>
       <r>  19.5154   0.1962  31.9858 </r>
       <r>  19.5994   0.1113  31.9951 </r>
       <r>  19.6833   0.0065  31.9957 </r>
       <r>  19.7673   0.0126  31.9967 </r>
       <r>  19.8512   0.0369  31.9998 </r>
       <r>  19.9352   0.0030  32.0001 </r>
       <r>  20.0191  -0.0012  32.0000 </r>
       <r>  20.1030   0.0002  32.0000 </r>
       <r>  20.1870   0.0000  32.0000 </r>
       <r>  20.2709   0.0000  32.0000 </r>
       <r>  20.3549   0.0000  32.0000 </r>
       <r>  20.4388   0.0000  32.0000 </r>
       <r>  20.5228   0.0000  32.0000 </r>
       <r>  20.6067   0.0000  32.0000 </r>
       <r>  20.6907   0.0000  32.0000 </r>
       <r>  20.7746   0.0000  32.0000 </r>
       <r>  20.8586   0.0000  32.0000 </r>
       <r>  20.9425   0.0000  32.0000 </r>
      </set>
     </set>
    </array>
   </total>
  </dos>
 </calculation>
 <structure name="finalpos" >
  <crystal>
   <varray name="basis" >
    <v>       4.04053900       0.00000000       0.00000000 </v>
    <v>       0.00000000       4.00013300       0.00000000 </v>
    <v>       0.00000000       0.00000000       4.04053900 </v>
   </varray>
   <i name="volume">     65.30599299 </i>
   <varray name="rec_basis" >
    <v>       0.24749173       0.00000000       0.00000000 </v>
    <v>       0.00000000       0.24999169       0.00000000 </v>
    <v>       0.00000000       0.00000000       0.24749173 </v>
   </varray>
  </crystal>
  <varray name="positions" >
   <v>       0.00000000       0.00000000       0.00000000 </v>
   <v>       0.50000000       0.50000000       0.00000000 </v>
   <v>       0.50000000       0.00000000       0.50000000 </v>
   <v>       0.00000000       0.50000000       0.50000000 </v>
  </varray>
 </structure>
</modeling>
