<?xml version="1.0" encoding="ISO-8859-1"?>
<modeling>
 <generator>
  <i name="program" type="string">vasp </i>
  <i name="version" type="string">5.4.1  </i>
  <i name="subversion" type="string">24Jun15 (build Nov 25 2015 22:48:06) complex                          parallel </i>
  <i name="platform" type="string">IFC91_craympich </i>
  <i name="date" type="string">2016 02 04 </i>
  <i name="time" type="string">15:04:00 </i>
 </generator>
 <incar>
  <i type="int" name="ISTART">     0</i>
  <i type="string" name="PREC">accurate</i>
  <i name="EDIFF">      0.00000100</i>
  <i name="ENCUT">    600.00000000</i>
  <i type="string" name="LREAL"> Auto</i>
  <i type="int" name="ISMEAR">    -5</i>
  <i name="SIGMA">      0.00000000</i>
  <i type="logical" name="LWAVE"> F  </i>
  <i type="logical" name="LCHARG"> F  </i>
  <v type="int" name="KPOINT_BSE">    -1     0     0     0</v>
  <i type="logical" name="LEFG"> T  </i>
  <v name="QUAD_EFG">      0.00000000    146.60000000      0.00000000      0.00000000      0.00000000</v>
 </incar>
 <kpoints>
  <generation param="Monkhorst-Pack">
   <v type="int" name="divisions">       8        8        2 </v>
   <v name="usershift">      0.00000000       0.00000000       0.00000000 </v>
   <v name="genvec1">      0.12500000       0.00000000       0.00000000 </v>
   <v name="genvec2">      0.00000000       0.12500000       0.00000000 </v>
   <v name="genvec3">      0.00000000       0.00000000       0.50000000 </v>
   <v name="shift">      0.50000000       0.50000000       0.50000000 </v>
  </generation>
  <varray name="kpointlist" >
   <v>       0.06250000       0.06250000       0.25000000 </v>
   <v>       0.18750000       0.06250000       0.25000000 </v>
   <v>       0.31250000       0.06250000       0.25000000 </v>
   <v>       0.43750000       0.06250000       0.25000000 </v>
   <v>      -0.43750000       0.06250000       0.25000000 </v>
   <v>      -0.31250000       0.06250000       0.25000000 </v>
   <v>      -0.18750000       0.06250000       0.25000000 </v>
   <v>      -0.06250000       0.06250000       0.25000000 </v>
   <v>       0.18750000       0.18750000       0.25000000 </v>
   <v>       0.31250000       0.18750000       0.25000000 </v>
   <v>       0.43750000       0.18750000       0.25000000 </v>
   <v>      -0.43750000       0.18750000       0.25000000 </v>
   <v>      -0.31250000       0.18750000       0.25000000 </v>
   <v>      -0.18750000       0.18750000       0.25000000 </v>
   <v>      -0.06250000       0.18750000       0.25000000 </v>
   <v>       0.31250000       0.31250000       0.25000000 </v>
   <v>       0.43750000       0.31250000       0.25000000 </v>
   <v>      -0.43750000       0.31250000       0.25000000 </v>
   <v>      -0.31250000       0.31250000       0.25000000 </v>
   <v>      -0.18750000       0.31250000       0.25000000 </v>
   <v>      -0.06250000       0.31250000       0.25000000 </v>
   <v>       0.43750000       0.43750000       0.25000000 </v>
   <v>      -0.43750000       0.43750000       0.25000000 </v>
   <v>      -0.31250000       0.43750000       0.25000000 </v>
   <v>      -0.18750000       0.43750000       0.25000000 </v>
   <v>      -0.06250000       0.43750000       0.25000000 </v>
   <v>      -0.43750000      -0.43750000       0.25000000 </v>
   <v>      -0.31250000      -0.43750000       0.25000000 </v>
   <v>      -0.18750000      -0.43750000       0.25000000 </v>
   <v>      -0.06250000      -0.43750000       0.25000000 </v>
   <v>      -0.31250000      -0.31250000       0.25000000 </v>
   <v>      -0.18750000      -0.31250000       0.25000000 </v>
   <v>      -0.06250000      -0.31250000       0.25000000 </v>
   <v>      -0.18750000      -0.18750000       0.25000000 </v>
   <v>      -0.06250000      -0.18750000       0.25000000 </v>
   <v>      -0.06250000      -0.06250000       0.25000000 </v>
  </varray>
  <varray name="weights" >
   <v>       0.01562500 </v>
   <v>       0.03125000 </v>
   <v>       0.03125000 </v>
   <v>       0.03125000 </v>
   <v>       0.03125000 </v>
   <v>       0.03125000 </v>
   <v>       0.03125000 </v>
   <v>       0.03125000 </v>
   <v>       0.01562500 </v>
   <v>       0.03125000 </v>
   <v>       0.03125000 </v>
   <v>       0.03125000 </v>
   <v>       0.03125000 </v>
   <v>       0.03125000 </v>
   <v>       0.03125000 </v>
   <v>       0.01562500 </v>
   <v>       0.03125000 </v>
   <v>       0.03125000 </v>
   <v>       0.03125000 </v>
   <v>       0.03125000 </v>
   <v>       0.03125000 </v>
   <v>       0.01562500 </v>
   <v>       0.03125000 </v>
   <v>       0.03125000 </v>
   <v>       0.03125000 </v>
   <v>       0.03125000 </v>
   <v>       0.01562500 </v>
   <v>       0.03125000 </v>
   <v>       0.03125000 </v>
   <v>       0.03125000 </v>
   <v>       0.01562500 </v>
   <v>       0.03125000 </v>
   <v>       0.03125000 </v>
   <v>       0.01562500 </v>
   <v>       0.03125000 </v>
   <v>       0.01562500 </v>
  </varray>
  <varray name="tetrahedronlist"  type="int" >
   <v type="int" >        4        1        2        2       35 </v>
   <v type="int" >        4        2        2        9       35 </v>
   <v type="int" >        4        2        9       34       35 </v>
   <v type="int" >        4        1        2       35       36 </v>
   <v type="int" >        4        2       35       35       36 </v>
   <v type="int" >        4        2       34       35       35 </v>
   <v type="int" >        4        2        3        9       33 </v>
   <v type="int" >        4        3        9       10       33 </v>
   <v type="int" >        4        9       10       32       33 </v>
   <v type="int" >        4        2        9       33       35 </v>
   <v type="int" >        4        9       33       34       35 </v>
   <v type="int" >        4        9       32       33       34 </v>
   <v type="int" >        4        3        4       10       30 </v>
   <v type="int" >        4        4       10       11       30 </v>
   <v type="int" >        4       10       11       29       30 </v>
   <v type="int" >        4        3       10       30       33 </v>
   <v type="int" >        4       10       30       32       33 </v>
   <v type="int" >        4       10       29       30       32 </v>
   <v type="int" >        4        4        5       11       26 </v>
   <v type="int" >        4        5       11       12       26 </v>
   <v type="int" >        4       11       12       25       26 </v>
   <v type="int" >        4        4       11       26       30 </v>
   <v type="int" >        4       11       26       29       30 </v>
   <v type="int" >        4       11       25       26       29 </v>
   <v type="int" >        4        5        6       12       21 </v>
   <v type="int" >        4        6       12       13       21 </v>
   <v type="int" >        4       12       13       20       21 </v>
   <v type="int" >        4        5       12       21       26 </v>
   <v type="int" >        4       12       21       25       26 </v>
   <v type="int" >        4       12       20       21       25 </v>
   <v type="int" >        4        6        7       13       15 </v>
   <v type="int" >        4        7       13       14       15 </v>
   <v type="int" >        4       13       14       14       15 </v>
   <v type="int" >        4        6       13       15       21 </v>
   <v type="int" >        4       13       15       20       21 </v>
   <v type="int" >        4       13       14       15       20 </v>
   <v type="int" >        4        7        8        8       14 </v>
   <v type="int" >        4        8        8       14       15 </v>
   <v type="int" >        8        7        8       14       15 </v>
   <v type="int" >        4        8       14       14       15 </v>
   <v type="int" >        4        7        8       14       14 </v>
   <v type="int" >        4        1        8       15       36 </v>
   <v type="int" >        4        1        2       15       36 </v>
   <v type="int" >        4        2       15       35       36 </v>
   <v type="int" >        4        8        8       15       36 </v>
   <v type="int" >        4        7        8       15       36 </v>
   <v type="int" >        4        7       15       35       36 </v>
   <v type="int" >        4        2        3        9       34 </v>
   <v type="int" >        4        3        9       10       34 </v>
   <v type="int" >        4        3       10       32       34 </v>
   <v type="int" >        4        2        3       34       35 </v>
   <v type="int" >        4        3       33       34       35 </v>
   <v type="int" >        4        3       32       33       34 </v>
   <v type="int" >        4        9       10       10       32 </v>
   <v type="int" >        4       10       10       16       32 </v>
   <v type="int" >        4       10       16       31       32 </v>
   <v type="int" >        4        9       10       32       34 </v>
   <v type="int" >        4       10       32       32       34 </v>
   <v type="int" >        4       10       31       32       32 </v>
   <v type="int" >        4       10       11       16       29 </v>
   <v type="int" >        4       11       16       17       29 </v>
   <v type="int" >        4       16       17       28       29 </v>
   <v type="int" >        4       10       16       29       32 </v>
   <v type="int" >        4       16       29       31       32 </v>
   <v type="int" >        4       16       28       29       31 </v>
   <v type="int" >        4       11       12       17       25 </v>
   <v type="int" >        4       12       17       18       25 </v>
   <v type="int" >        4       17       18       24       25 </v>
   <v type="int" >        4       11       17       25       29 </v>
   <v type="int" >        4       17       25       28       29 </v>
   <v type="int" >        4       17       24       25       28 </v>
   <v type="int" >        4       12       13       18       20 </v>
   <v type="int" >        4       13       18       19       20 </v>
   <v type="int" >        4       18       19       19       20 </v>
   <v type="int" >        4       12       18       20       25 </v>
   <v type="int" >        4       18       20       24       25 </v>
   <v type="int" >        4       18       19       20       24 </v>
   <v type="int" >        4       13       14       14       19 </v>
   <v type="int" >        4       14       14       19       20 </v>
   <v type="int" >        8       13       14       19       20 </v>
   <v type="int" >        4       14       19       19       20 </v>
   <v type="int" >        4       13       14       19       19 </v>
   <v type="int" >        4        7       14       15       20 </v>
   <v type="int" >        4        7       15       20       21 </v>
   <v type="int" >        4        6        7       20       21 </v>
   <v type="int" >        4        7       14       14       20 </v>
   <v type="int" >        4        7       13       14       20 </v>
   <v type="int" >        4        6        7       13       20 </v>
   <v type="int" >        4        2       15       21       35 </v>
   <v type="int" >        4        2        3       21       35 </v>
   <v type="int" >        4        3       21       33       35 </v>
   <v type="int" >        4        7       15       21       35 </v>
   <v type="int" >        4        6        7       21       35 </v>
   <v type="int" >        4        6       21       33       35 </v>
   <v type="int" >        4        3        4       10       32 </v>
   <v type="int" >        4        4       10       11       32 </v>
   <v type="int" >        4        4       11       29       32 </v>
   <v type="int" >        4        3        4       32       33 </v>
   <v type="int" >        4        4       30       32       33 </v>
   <v type="int" >        4        4       29       30       32 </v>
   <v type="int" >        4       10       11       16       31 </v>
   <v type="int" >        4       11       16       17       31 </v>
   <v type="int" >        4       11       17       28       31 </v>
   <v type="int" >        4       10       11       31       32 </v>
   <v type="int" >        4       11       29       31       32 </v>
   <v type="int" >        4       11       28       29       31 </v>
   <v type="int" >        4       16       17       17       28 </v>
   <v type="int" >        4       17       17       22       28 </v>
   <v type="int" >        4       17       22       27       28 </v>
   <v type="int" >        4       16       17       28       31 </v>
   <v type="int" >        4       17       28       28       31 </v>
   <v type="int" >        4       17       27       28       28 </v>
   <v type="int" >        4       17       18       22       24 </v>
   <v type="int" >        4       18       22       23       24 </v>
   <v type="int" >        4       22       23       23       24 </v>
   <v type="int" >        4       17       22       24       28 </v>
   <v type="int" >        4       22       24       27       28 </v>
   <v type="int" >        4       22       23       24       27 </v>
   <v type="int" >        4       18       19       19       23 </v>
   <v type="int" >        4       19       19       23       24 </v>
   <v type="int" >        8       18       19       23       24 </v>
   <v type="int" >        4       19       23       23       24 </v>
   <v type="int" >        4       18       19       23       23 </v>
   <v type="int" >        4       13       19       20       24 </v>
   <v type="int" >        4       13       20       24       25 </v>
   <v type="int" >        4       12       13       24       25 </v>
   <v type="int" >        4       13       19       19       24 </v>
   <v type="int" >        4       13       18       19       24 </v>
   <v type="int" >        4       12       13       18       24 </v>
   <v type="int" >        4        6       20       21       25 </v>
   <v type="int" >        4        6       21       25       26 </v>
   <v type="int" >        4        5        6       25       26 </v>
   <v type="int" >        4        6       13       20       25 </v>
   <v type="int" >        4        6       12       13       25 </v>
   <v type="int" >        4        5        6       12       25 </v>
   <v type="int" >        4        3       21       26       33 </v>
   <v type="int" >        4        3        4       26       33 </v>
   <v type="int" >        4        4       26       30       33 </v>
   <v type="int" >        4        6       21       26       33 </v>
   <v type="int" >        4        5        6       26       33 </v>
   <v type="int" >        4        5       26       30       33 </v>
   <v type="int" >        4        4        5       11       29 </v>
   <v type="int" >        4        5       11       12       29 </v>
   <v type="int" >        4        5       12       25       29 </v>
   <v type="int" >        4        4        5       29       30 </v>
   <v type="int" >        4        5       26       29       30 </v>
   <v type="int" >        4        5       25       26       29 </v>
   <v type="int" >        4       11       12       17       28 </v>
   <v type="int" >        4       12       17       18       28 </v>
   <v type="int" >        4       12       18       24       28 </v>
   <v type="int" >        4       11       12       28       29 </v>
   <v type="int" >        4       12       25       28       29 </v>
   <v type="int" >        4       12       24       25       28 </v>
   <v type="int" >        4       17       18       22       27 </v>
   <v type="int" >        4       18       22       23       27 </v>
   <v type="int" >        4       18       23       23       27 </v>
   <v type="int" >        4       17       18       27       28 </v>
   <v type="int" >        4       18       24       27       28 </v>
   <v type="int" >        4       18       23       24       27 </v>
   <v type="int" >        4       22       23       23       23 </v>
   <v type="int" >        4       23       23       23       27 </v>
   <v type="int" >        4       22       23       23       27 </v>
   <v type="int" >        4        4       26       30       30 </v>
   <v type="int" >        4        4        5       30       30 </v>
   <v type="int" >        4        5       26       30       30 </v>
   <v type="int" >        4        1        7        8       15 </v>
   <v type="int" >        4        1        2        7       15 </v>
   <v type="int" >        4        1        2        7       35 </v>
   <v type="int" >        4        1        7        8        8 </v>
   <v type="int" >        4        1        7        8       36 </v>
   <v type="int" >        4        1        7       35       36 </v>
   <v type="int" >        4        2        6       15       21 </v>
   <v type="int" >        4        2        3        6       21 </v>
   <v type="int" >        4        2        3        6       33 </v>
   <v type="int" >        4        2        6        7       15 </v>
   <v type="int" >        4        2        6        7       35 </v>
   <v type="int" >        4        2        6       33       35 </v>
   <v type="int" >        4        3        5       21       26 </v>
   <v type="int" >        4        3        4        5       26 </v>
   <v type="int" >        4        3        4        5       30 </v>
   <v type="int" >        4        3        5        6       21 </v>
   <v type="int" >        4        3        5        6       33 </v>
   <v type="int" >        4        3        5       30       33 </v>
   <v type="int" >        4        4        4       26       30 </v>
   <v type="int" >        4        4        4        5       30 </v>
   <v type="int" >        4        4        4        5       26 </v>
   <v type="int" >        4        8        8        8       36 </v>
   <v type="int" >        4        1        8        8        8 </v>
   <v type="int" >        4        1        8        8       36 </v>
  </varray>
  <i name="volumeweight">      0.00130208 </i>
 </kpoints>
 <parameters>
  <separator name="general" >
   <i type="string" name="SYSTEM">unknown system</i>
   <i type="logical" name="LCOMPAT"> F  </i>
  </separator>
  <separator name="electronic" >
   <i type="string" name="PREC">accura</i>
   <i name="ENMAX">    600.00000000</i>
   <i name="ENAUG">    605.39200000</i>
   <i name="EDIFF">      0.00000100</i>
   <i type="int" name="IALGO">    38</i>
   <i type="int" name="IWAVPR">    10</i>
   <i type="int" name="NBANDS">   128</i>
   <i name="NELECT">    204.00000000</i>
   <i type="int" name="TURBO">     0</i>
   <i type="int" name="IRESTART">     0</i>
   <i type="int" name="NREBOOT">     0</i>
   <i type="int" name="NMIN">     0</i>
   <i name="EREF">      0.00000000</i>
   <separator name="electronic smearing" >
    <i type="int" name="ISMEAR">    -5</i>
    <i name="SIGMA">      0.00000000</i>
    <i name="KSPACING">      0.50000000</i>
    <i type="logical" name="KGAMMA"> T  </i>
   </separator>
   <separator name="electronic projectors" >
    <i type="logical" name="LREAL"> T  </i>
    <v name="ROPT">     -0.00025000     -0.00025000     -0.00025000     -0.00025000     -0.00025000</v>
    <i type="int" name="LMAXPAW">  -100</i>
    <i type="int" name="LMAXMIX">     2</i>
    <i type="logical" name="NLSPLINE"> F  </i>
   </separator>
   <separator name="electronic startup" >
    <i type="int" name="ISTART">     0</i>
    <i type="int" name="ICHARG">     2</i>
    <i type="int" name="INIWAV">     1</i>
   </separator>
   <separator name="electronic spin" >
    <i type="int" name="ISPIN">     1</i>
    <i type="logical" name="LNONCOLLINEAR"> F  </i>
    <v name="MAGMOM">      1.00000000      1.00000000      1.00000000      1.00000000      1.00000000      1.00000000      1.00000000      1.00000000      1.00000000      1.00000000      1.00000000      1.00000000      1.00000000      1.00000000      1.00000000      1.00000000      1.00000000      1.00000000      1.00000000      1.00000000
      1.00000000      1.00000000      1.00000000      1.00000000      1.00000000      1.00000000      1.00000000      1.00000000      1.00000000      1.00000000      1.00000000      1.00000000      1.00000000      1.00000000      1.00000000      1.00000000      1.00000000      1.00000000      1.00000000      1.00000000
      1.00000000      1.00000000</v>
    <i name="NUPDOWN">     -1.00000000</i>
    <i type="logical" name="LSORBIT"> F  </i>
    <v name="SAXIS">      0.00000000      0.00000000      1.00000000</v>
    <i type="logical" name="LSPIRAL"> F  </i>
    <v name="QSPIRAL">      0.00000000      0.00000000      0.00000000</v>
    <i type="logical" name="LZEROZ"> F  </i>
   </separator>
   <separator name="electronic exchange-correlation" >
    <i type="logical" name="LASPH"> F  </i>
    <i type="logical" name="LMETAGGA"> F  </i>
   </separator>
   <separator name="electronic convergence" >
    <i type="int" name="NELM">    60</i>
    <i type="int" name="NELMDL">    -5</i>
    <i type="int" name="NELMIN">     2</i>
    <i name="ENINI">    600.00000000</i>
    <separator name="electronic convergence detail" >
     <i type="logical" name="LDIAG"> T  </i>
     <i type="logical" name="LSUBROT"> F  </i>
     <i name="WEIMIN">      0.00000000</i>
     <i name="EBREAK">      0.00000000</i>
     <i name="DEPER">      0.30000000</i>
     <i type="int" name="NRMM">     4</i>
     <i name="TIME">      0.40000000</i>
    </separator>
   </separator>
   <separator name="electronic mixer" >
    <i name="AMIX">      0.40000000</i>
    <i name="BMIX">      1.00000000</i>
    <i name="AMIN">      0.10000000</i>
    <i name="AMIX_MAG">      1.60000000</i>
    <i name="BMIX_MAG">      1.00000000</i>
    <separator name="electronic mixer details" >
     <i type="int" name="IMIX">     4</i>
     <i type="logical" name="MIXFIRST"> F  </i>
     <i type="int" name="MAXMIX">   -45</i>
     <i name="WC">    100.00000000</i>
     <i type="int" name="INIMIX">     1</i>
     <i type="int" name="MIXPRE">     1</i>
     <i type="int" name="MREMOVE">     5</i>
    </separator>
   </separator>
   <separator name="electronic dipolcorrection" >
    <i type="logical" name="LDIPOL"> F  </i>
    <i type="logical" name="LMONO"> F  </i>
    <i type="int" name="IDIPOL">     0</i>
    <i name="EPSILON">      1.00000000</i>
    <v name="DIPOL">   -100.00000000   -100.00000000   -100.00000000</v>
    <i name="EFIELD">      0.00000000</i>
   </separator>
  </separator>
  <separator name="grids" >
   <i type="int" name="NGX">    42</i>
   <i type="int" name="NGY">    42</i>
   <i type="int" name="NGZ">   160</i>
   <i type="int" name="NGXF">    84</i>
   <i type="int" name="NGYF">    84</i>
   <i type="int" name="NGZF">   320</i>
   <i type="logical" name="ADDGRID"> F  </i>
  </separator>
  <separator name="ionic" >
   <i type="int" name="NSW">     0</i>
   <i type="int" name="IBRION">    -1</i>
   <i type="int" name="ISIF">     2</i>
   <i name="PSTRESS">      0.00000000</i>
   <i name="EDIFFG">      0.00001000</i>
   <i type="int" name="NFREE">     0</i>
   <i name="POTIM">      0.50000000</i>
   <i name="SMASS">     -3.00000000</i>
   <i name="SCALEE">      1.00000000</i>
  </separator>
  <separator name="ionic md" >
   <i name="TEBEG">      0.00010000</i>
   <i name="TEEND">      0.00010000</i>
   <i type="int" name="NBLOCK">     1</i>
   <i type="int" name="KBLOCK">     1</i>
   <i type="int" name="NPACO">   256</i>
   <i name="APACO">     16.00000000</i>
  </separator>
  <separator name="symmetry" >
   <i type="int" name="ISYM">     2</i>
   <i name="SYMPREC">      0.00001000</i>
  </separator>
  <separator name="dos" >
   <i type="logical" name="LORBIT"> F  </i>
   <v name="RWIGS">     -1.00000000     -1.00000000     -1.00000000     -1.00000000     -1.00000000</v>
   <i type="int" name="NEDOS">   301</i>
   <i name="EMIN">     10.00000000</i>
   <i name="EMAX">    -10.00000000</i>
   <i name="EFERMI">      0.00000000</i>
  </separator>
  <separator name="writing" >
   <i type="int" name="NWRITE">     2</i>
   <i type="logical" name="LWAVE"> F  </i>
   <i type="logical" name="LCHARG"> F  </i>
   <i type="logical" name="LPARD"> F  </i>
   <i type="logical" name="LVTOT"> F  </i>
   <i type="logical" name="LVHAR"> F  </i>
   <i type="logical" name="LELF"> F  </i>
   <i type="logical" name="LOPTICS"> F  </i>
   <v name="STM">      0.00000000      0.00000000      0.00000000      0.00000000      0.00000000      0.00000000      0.00000000</v>
  </separator>
  <separator name="performance" >
   <i type="int" name="NPAR">     8</i>
   <i type="int" name="NSIM">     4</i>
   <i type="int" name="NBLK">    -1</i>
   <i type="logical" name="LPLANE"> T  </i>
   <i type="logical" name="LSCALAPACK"> T  </i>
   <i type="logical" name="LSCAAWARE"> F  </i>
   <i type="logical" name="LSCALU"> F  </i>
   <i type="logical" name="LASYNC"> F  </i>
   <i type="logical" name="LORBITALREAL"> F  </i>
  </separator>
  <separator name="miscellaneous" >
   <i type="int" name="IDIOT">     3</i>
   <i type="logical" name="LMUSIC"> F  </i>
   <v name="POMASS">     40.07800000     26.98200000     28.08500000      1.00000000     16.00000000</v>
   <v name="DARWINR">      0.00000000      0.00000000      0.00000000      0.00000000      0.00000000</v>
   <v name="DARWINV">      1.00000000      1.00000000      1.00000000      1.00000000      1.00000000</v>
   <i type="logical" name="LCORR"> T  </i>
  </separator>
  <i type="logical" name="GGA_COMPAT"> T  </i>
  <i type="logical" name="LBERRY"> F  </i>
  <i type="int" name="ICORELEVEL">     0</i>
  <i type="logical" name="LDAU"> F  </i>
  <i type="int" name="I_CONSTRAINED_M">     0</i>
  <separator name="electronic exchange-correlation" >
   <i type="string" name="GGA">--</i>
   <i type="int" name="VOSKOWN">     0</i>
   <i type="logical" name="LHFCALC"> F  </i>
   <i type="string" name="PRECFOCK"></i>
   <i type="logical" name="LSYMGRAD"> F  </i>
   <i type="logical" name="LHFONE"> F  </i>
   <i type="logical" name="LRHFCALC"> F  </i>
   <i type="logical" name="LTHOMAS"> F  </i>
   <i type="logical" name="LMODELHF"> F  </i>
   <i name="ENCUT4O">     -1.00000000</i>
   <i type="int" name="EXXOEP">     0</i>
   <i type="int" name="FOURORBIT">     0</i>
   <i name="AEXX">      0.00000000</i>
   <i name="HFALPHA">      0.00000000</i>
   <i name="MCALPHA">      0.00000000</i>
   <i name="ALDAX">      1.00000000</i>
   <i name="AGGAX">      1.00000000</i>
   <i name="ALDAC">      1.00000000</i>
   <i name="AGGAC">      1.00000000</i>
   <i type="int" name="NKREDX">     1</i>
   <i type="int" name="NKREDY">     1</i>
   <i type="int" name="NKREDZ">     1</i>
   <i type="logical" name="SHIFTRED"> F  </i>
   <i type="logical" name="ODDONLY"> F  </i>
   <i type="logical" name="EVENONLY"> F  </i>
   <i type="int" name="LMAXFOCK">     0</i>
   <i type="int" name="NMAXFOCKAE">     0</i>
   <i type="logical" name="LFOCKAEDFT"> F  </i>
   <i name="HFSCREEN">      0.00000000</i>
   <i name="HFSCREENC">      0.00000000</i>
   <i type="int" name="NBANDSGWLOW">     0</i>
  </separator>
  <separator name="vdW DFT" >
   <i type="logical" name="LUSE_VDW"> F  </i>
   <i name="Zab_VDW">     -0.84910000</i>
   <i name="PARAM1">      0.12340000</i>
   <i name="PARAM2">      1.00000000</i>
   <i name="PARAM3">      0.00000000</i>
  </separator>
  <separator name="model GW" >
   <i type="int" name="MODEL_GW">     0</i>
   <i name="MODEL_EPS0">      6.33495713</i>
   <i name="MODEL_ALPHA">      1.00000000</i>
  </separator>
  <separator name="linear response parameters" >
   <i type="logical" name="LEPSILON"> F  </i>
   <i type="logical" name="LRPA"> F  </i>
   <i type="logical" name="LNABLA"> F  </i>
   <i type="logical" name="LVEL"> F  </i>
   <i type="int" name="KINTER">     0</i>
   <i name="CSHIFT">      0.10000000</i>
   <i name="OMEGAMAX">     -1.00000000</i>
   <i name="DEG_THRESHOLD">      0.00200000</i>
  </separator>
  <separator name="orbital magnetization" >
   <i type="logical" name="NUCIND"> F  </i>
   <v name="MAGPOS">      0.00000000      0.00000000      0.00000000</v>
   <i type="logical" name="LNICSALL"> T  </i>
   <i type="logical" name="ORBITALMAG"> F  </i>
   <i type="logical" name="LMAGBLOCH"> F  </i>
   <i type="logical" name="LCHIMAG"> F  </i>
   <i type="logical" name="LGAUGE"> T  </i>
   <i type="int" name="MAGATOM">     0</i>
   <v name="MAGDIPOL">      0.00000000      0.00000000      0.00000000</v>
   <v name="AVECCONST">      0.00000000      0.00000000      0.00000000</v>
  </separator>
  <separator name="response functions" >
   <i type="logical" name="LADDER"> F  </i>
   <i type="logical" name="LFXC"> F  </i>
   <i type="logical" name="LHARTREE"> T  </i>
   <i type="int" name="IBSE">     0</i>
   <v type="int" name="KPOINT">    -1     0     0     0</v>
   <i type="logical" name="LTCTE"> F  </i>
   <i type="logical" name="LTETE"> F  </i>
   <i type="logical" name="LTRIPLET"> F  </i>
   <i type="logical" name="LFXCEPS"> F  </i>
   <i type="logical" name="LFXHEG"> F  </i>
   <i type="int" name="NATURALO">     0</i>
   <i type="logical" name="L2ORDER"> F  </i>
   <i type="logical" name="LUSEW"> F  </i>
   <i name="ENCUTGW">     -2.00000000</i>
   <i name="ENCUTGWSOFT">     -2.00000000</i>
   <i name="ENCUTLF">     -1.00000000</i>
   <i type="int" name="LMAXMP2">    -1</i>
   <i name="SCISSOR">      0.00000000</i>
   <i type="int" name="NOMEGA">     0</i>
   <i type="int" name="NOMEGAR">     0</i>
   <i type="int" name="NBANDSGW">    -1</i>
   <i type="int" name="NBANDSO">    -1</i>
   <i type="int" name="NBANDSV">    -1</i>
   <i type="int" name="NELM">     1</i>
   <i type="int" name="NELMHF">     1</i>
   <i type="int" name="DIM">     3</i>
   <i type="int" name="ANTIRES">     0</i>
   <i name="OMEGAMAX">    -30.00000000</i>
   <i name="OMEGAMIN">    -30.00000000</i>
   <i name="OMEGATL">   -200.00000000</i>
   <i type="int" name="OMEGAGRID">     0</i>
   <i name="CSHIFT">     -0.10000000</i>
   <i type="logical" name="SELFENERGY"> F  </i>
   <i type="logical" name="LSPECTRAL"> F  </i>
   <i type="logical" name="LSPECTRALGW"> F  </i>
   <i type="logical" name="LSINGLES"> F  </i>
   <i type="logical" name="LFERMIGW"> F  </i>
   <i type="logical" name="ODDONLYGW"> F  </i>
   <i type="logical" name="EVENONLYGW"> F  </i>
   <i type="int" name="NKREDLFX">     1</i>
   <i type="int" name="NKREDLFY">     1</i>
   <i type="int" name="NKREDLFZ">     1</i>
   <i type="int" name="MAXMEM">  1800</i>
   <i type="int" name="TELESCOPE">     0</i>
   <i type="int" name="TAUPAR">     1</i>
   <i type="int" name="OMEGAPAR">    -1</i>
   <i name="LAMBDA">      1.00000000</i>
  </separator>
  <separator name="External order field" >
   <i name="OFIELD_KAPPA">      0.00000000</i>
   <v name="OFIELD_K">      0.00000000      0.00000000      0.00000000</v>
   <i name="OFIELD_Q6_NEAR">      0.00000000</i>
   <i name="OFIELD_Q6_FAR">      0.00000000</i>
   <i name="OFIELD_A">      0.00000000</i>
  </separator>
 </parameters>
 <atominfo>
  <atoms>      42 </atoms>
  <types>       5 </types>
  <array name="atoms" >
   <dimension dim="1">ion</dimension>
   <field type="string">element</field>
   <field type="int">atomtype</field>
   <set>
    <rc><c>Ca</c><c>   1</c></rc>
    <rc><c>Ca</c><c>   1</c></rc>
    <rc><c>Al</c><c>   2</c></rc>
    <rc><c>Al</c><c>   2</c></rc>
    <rc><c>Al</c><c>   2</c></rc>
    <rc><c>Al</c><c>   2</c></rc>
    <rc><c>Al</c><c>   2</c></rc>
    <rc><c>Al</c><c>   2</c></rc>
    <rc><c>Al</c><c>   2</c></rc>
    <rc><c>Al</c><c>   2</c></rc>
    <rc><c>Si</c><c>   3</c></rc>
    <rc><c>Si</c><c>   3</c></rc>
    <rc><c>Si</c><c>   3</c></rc>
    <rc><c>Si</c><c>   3</c></rc>
    <rc><c>H </c><c>   4</c></rc>
    <rc><c>H </c><c>   4</c></rc>
    <rc><c>H </c><c>   4</c></rc>
    <rc><c>H </c><c>   4</c></rc>
    <rc><c>O </c><c>   5</c></rc>
    <rc><c>O </c><c>   5</c></rc>
    <rc><c>O </c><c>   5</c></rc>
    <rc><c>O </c><c>   5</c></rc>
    <rc><c>O </c><c>   5</c></rc>
    <rc><c>O </c><c>   5</c></rc>
    <rc><c>O </c><c>   5</c></rc>
    <rc><c>O </c><c>   5</c></rc>
    <rc><c>O </c><c>   5</c></rc>
    <rc><c>O </c><c>   5</c></rc>
    <rc><c>O </c><c>   5</c></rc>
    <rc><c>O </c><c>   5</c></rc>
    <rc><c>O </c><c>   5</c></rc>
    <rc><c>O </c><c>   5</c></rc>
    <rc><c>O </c><c>   5</c></rc>
    <rc><c>O </c><c>   5</c></rc>
    <rc><c>O </c><c>   5</c></rc>
    <rc><c>O </c><c>   5</c></rc>
    <rc><c>O </c><c>   5</c></rc>
    <rc><c>O </c><c>   5</c></rc>
    <rc><c>O </c><c>   5</c></rc>
    <rc><c>O </c><c>   5</c></rc>
    <rc><c>O </c><c>   5</c></rc>
    <rc><c>O </c><c>   5</c></rc>
   </set>
  </array>
  <array name="atomtypes" >
   <dimension dim="1">type</dimension>
   <field type="int">atomspertype</field>
   <field type="string">element</field>
   <field>mass</field>
   <field>valence</field>
   <field type="string">pseudopotential</field>
   <set>
    <rc><c>   2</c><c>Ca</c><c>     40.07800000</c><c>      8.00000000</c><c> PAW_PBE Ca_pv 06Sep2000                </c></rc>
    <rc><c>   8</c><c>Al</c><c>     26.98200000</c><c>      3.00000000</c><c> PAW_PBE Al 04Jan2001                   </c></rc>
    <rc><c>   4</c><c>Si</c><c>     28.08500000</c><c>      4.00000000</c><c> PAW_PBE Si 05Jan2001                   </c></rc>
    <rc><c>   4</c><c>H </c><c>      1.00000000</c><c>      1.00000000</c><c> PAW_PBE H 15Jun2001                    </c></rc>
    <rc><c>  24</c><c>O </c><c>     16.00000000</c><c>      6.00000000</c><c> PAW_PBE O 08Apr2002                    </c></rc>
   </set>
  </array>
 </atominfo>
 <structure name="initialpos" >
  <crystal>
   <varray name="basis" >
    <v>      -2.56019425      -4.46063878       0.27487364 </v>
    <v>      -2.56019425       4.46063878       0.27487364 </v>
    <v>      -0.17629625       0.00000000     -19.39626683 </v>
   </varray>
   <i name="volume">    443.44699924 </i>
   <varray name="rec_basis" >
    <v>      -0.19510728      -0.11209157       0.00177337 </v>
    <v>      -0.19510728       0.11209157       0.00177337 </v>
    <v>      -0.00552991      -0.00000000      -0.05150605 </v>
   </varray>
  </crystal>
  <varray name="positions" >
   <v>       0.90565794       0.09454665       0.74915538 </v>
   <v>       0.09454665       0.90565794       0.24915538 </v>
   <v>       0.53322514       0.39310001       0.64067324 </v>
   <v>       0.39310001       0.53322514       0.14067324 </v>
   <v>       0.83168923       0.66659457       0.49906399 </v>
   <v>       0.66659457       0.83168923       0.99906399 </v>
   <v>       0.16547733       0.33421807       0.49917966 </v>
   <v>       0.33421807       0.16547733       0.99917966 </v>
   <v>       0.80677431       0.29055122       0.35753526 </v>
   <v>       0.29055122       0.80677431       0.85753526 </v>
   <v>       0.19413556       0.71258646       0.64400795 </v>
   <v>       0.71258646       0.19413556       0.14400795 </v>
   <v>       0.46364195       0.60775551       0.35419717 </v>
   <v>       0.60775551       0.46364195       0.85419717 </v>
   <v>       0.70630189       0.02348583       0.55983981 </v>
   <v>       0.02348583       0.70630189       0.05983981 </v>
   <v>       0.29235467       0.97956038       0.43867221 </v>
   <v>       0.97956038       0.29235467       0.93867221 </v>
   <v>       0.89456660       0.68197076       0.67869209 </v>
   <v>       0.68197076       0.89456660       0.17869209 </v>
   <v>       0.51474825       0.41017862       0.55150884 </v>
   <v>       0.41017862       0.51474825       0.05150884 </v>
   <v>       0.13248232       0.33476279       0.31922290 </v>
   <v>       0.33476279       0.13248232       0.81922290 </v>
   <v>       0.13693859       0.64751297       0.55958651 </v>
   <v>       0.64751297       0.13693859       0.05958651 </v>
   <v>       0.11000258       0.98337874       0.44746427 </v>
   <v>       0.98337874       0.11000258       0.94746427 </v>
   <v>       0.26233066       0.46214216       0.67777081 </v>
   <v>       0.46214216       0.26233066       0.17777081 </v>
   <v>       0.48401660       0.60271082       0.43859782 </v>
   <v>       0.60271082       0.48401660       0.93859782 </v>
   <v>       0.72308821       0.55463279       0.32073029 </v>
   <v>       0.55463279       0.72308821       0.82073029 </v>
   <v>       0.87318689       0.37123933       0.44674653 </v>
   <v>       0.37123933       0.87318689       0.94674653 </v>
   <v>       0.48746829       0.04854451       0.66800858 </v>
   <v>       0.04854451       0.48746829       0.16800858 </v>
   <v>       0.88901982       0.02089507       0.55077874 </v>
   <v>       0.02089507       0.88901982       0.05077874 </v>
   <v>       0.49779462       0.92613128       0.33016795 </v>
   <v>       0.92613128       0.49779462       0.83016795 </v>
  </varray>
 </structure>
 <calculation>
  <scstep>
   <time name="dav">   12.10   12.18</time>
   <time name="total">   12.21   12.31</time>
   <energy>
    <i name="alphaZ">    356.49354171 </i>
    <i name="ewald">  -9258.26265422 </i>
    <i name="hartreedc">  -3274.33301705 </i>
    <i name="XCdc">    471.00350032 </i>
    <i name="pawpsdc">   7071.17828647 </i>
    <i name="pawaedc">  -6786.06564365 </i>
    <i name="eentropy">      0.00000000 </i>
    <i name="bandstr">   1654.59793123 </i>
    <i name="atom">  12492.27920431 </i>
    <i name="e_fr_energy">   2726.89114912 </i>
    <i name="e_wo_entrp">   2726.89114912 </i>
    <i name="e_0_energy">   2726.89114912 </i>
   </energy>
  </scstep>
  <scstep>
   <time name="dav">   12.25   12.26</time>
   <time name="total">   12.29   12.31</time>
   <energy>
    <i name="e_fr_energy">    288.09763845 </i>
    <i name="e_wo_entrp">    288.09763845 </i>
    <i name="e_0_energy">    288.09763845 </i>
   </energy>
  </scstep>
  <scstep>
   <time name="dav">   11.71   11.72</time>
   <time name="total">   11.72   11.75</time>
   <energy>
    <i name="e_fr_energy">   -288.15927862 </i>
    <i name="e_wo_entrp">   -288.15927862 </i>
    <i name="e_0_energy">   -288.15927862 </i>
   </energy>
  </scstep>
  <scstep>
   <time name="dav">   14.19   14.20</time>
   <time name="total">   14.20   14.23</time>
   <energy>
    <i name="e_fr_energy">   -338.33237906 </i>
    <i name="e_wo_entrp">   -338.33237906 </i>
    <i name="e_0_energy">   -338.33237906 </i>
   </energy>
  </scstep>
  <scstep>
   <time name="dav">   14.88   14.89</time>
   <time name="total">   15.42   15.44</time>
   <energy>
    <i name="e_fr_energy">   -340.11898533 </i>
    <i name="e_wo_entrp">   -340.11898533 </i>
    <i name="e_0_energy">   -340.11898533 </i>
   </energy>
  </scstep>
  <scstep>
   <time name="dav">   13.72   13.72</time>
   <time name="total">   14.31   14.34</time>
   <energy>
    <i name="e_fr_energy">   -302.14313181 </i>
    <i name="e_wo_entrp">   -302.14313181 </i>
    <i name="e_0_energy">   -302.14313181 </i>
   </energy>
  </scstep>
  <scstep>
   <time name="dav">   14.33   14.34</time>
   <time name="total">   14.93   14.96</time>
   <energy>
    <i name="e_fr_energy">   -302.61264484 </i>
    <i name="e_wo_entrp">   -302.61264484 </i>
    <i name="e_0_energy">   -302.61264484 </i>
   </energy>
  </scstep>
  <scstep>
   <time name="dav">   14.28   14.28</time>
   <time name="total">   14.88   14.90</time>
   <energy>
    <i name="e_fr_energy">   -302.63428135 </i>
    <i name="e_wo_entrp">   -302.63428135 </i>
    <i name="e_0_energy">   -302.63428135 </i>
   </energy>
  </scstep>
  <scstep>
   <time name="dav">   14.39   14.40</time>
   <time name="total">   14.98   15.02</time>
   <energy>
    <i name="e_fr_energy">   -302.62415678 </i>
    <i name="e_wo_entrp">   -302.62415678 </i>
    <i name="e_0_energy">   -302.62415678 </i>
   </energy>
  </scstep>
  <scstep>
   <time name="dav">   14.52   14.53</time>
   <time name="total">   15.12   15.15</time>
   <energy>
    <i name="e_fr_energy">   -302.62092687 </i>
    <i name="e_wo_entrp">   -302.62092687 </i>
    <i name="e_0_energy">   -302.62092687 </i>
   </energy>
  </scstep>
  <scstep>
   <time name="dav">   13.85   13.86</time>
   <time name="total">   14.45   14.93</time>
   <energy>
    <i name="e_fr_energy">   -302.62426248 </i>
    <i name="e_wo_entrp">   -302.62426248 </i>
    <i name="e_0_energy">   -302.62426248 </i>
   </energy>
  </scstep>
  <scstep>
   <time name="dav">   13.00   13.00</time>
   <time name="total">   13.60   13.61</time>
   <energy>
    <i name="e_fr_energy">   -302.62571103 </i>
    <i name="e_wo_entrp">   -302.62571103 </i>
    <i name="e_0_energy">   -302.62571103 </i>
   </energy>
  </scstep>
  <scstep>
   <time name="dav">   14.74   14.75</time>
   <time name="total">   15.34   15.37</time>
   <energy>
    <i name="e_fr_energy">   -302.62564586 </i>
    <i name="e_wo_entrp">   -302.62564586 </i>
    <i name="e_0_energy">   -302.62564586 </i>
   </energy>
  </scstep>
  <scstep>
   <time name="dav">   13.53   13.54</time>
   <time name="total">   14.12   14.15</time>
   <energy>
    <i name="e_fr_energy">   -302.62550422 </i>
    <i name="e_wo_entrp">   -302.62550422 </i>
    <i name="e_0_energy">   -302.62550422 </i>
   </energy>
  </scstep>
  <scstep>
   <time name="dav">   13.60   13.60</time>
   <time name="total">   14.20   14.22</time>
   <energy>
    <i name="e_fr_energy">   -302.62549571 </i>
    <i name="e_wo_entrp">   -302.62549571 </i>
    <i name="e_0_energy">   -302.62549571 </i>
   </energy>
  </scstep>
  <scstep>
   <time name="dav">   15.17   15.18</time>
   <time name="total">   15.77   15.79</time>
   <energy>
    <i name="e_fr_energy">   -302.62549340 </i>
    <i name="e_wo_entrp">   -302.62549340 </i>
    <i name="e_0_energy">   -302.62549340 </i>
   </energy>
  </scstep>
  <scstep>
   <time name="dav">   13.25   13.26</time>
   <time name="total">   13.85   13.89</time>
   <energy>
    <i name="e_fr_energy">   -302.62549202 </i>
    <i name="e_wo_entrp">   -302.62549202 </i>
    <i name="e_0_energy">   -302.62549202 </i>
   </energy>
  </scstep>
  <scstep>
   <time name="dav">   11.10   11.10</time>
   <time name="total">   11.17   11.20</time>
   <energy>
    <i name="alphaZ">    356.49354171 </i>
    <i name="ewald">  -9258.26265422 </i>
    <i name="hartreedc">  -3784.17737606 </i>
    <i name="XCdc">    506.36895812 </i>
    <i name="pawpsdc">   8759.57563454 </i>
    <i name="pawaedc">  -8477.82121248 </i>
    <i name="eentropy">      0.00000000 </i>
    <i name="bandstr">   -897.08158769 </i>
    <i name="atom">  12492.27920431 </i>
    <i name="e_fr_energy">   -302.62549178 </i>
    <i name="e_wo_entrp">   -302.62549178 </i>
    <i name="e_0_energy">   -302.62549178 </i>
   </energy>
  </scstep>
  <structure>
   <crystal>
    <varray name="basis" >
     <v>      -2.56019425      -4.46063878       0.27487364 </v>
     <v>      -2.56019425       4.46063878       0.27487364 </v>
     <v>      -0.17629625       0.00000000     -19.39626683 </v>
    </varray>
    <i name="volume">    443.44699924 </i>
    <varray name="rec_basis" >
     <v>      -0.19510728      -0.11209157       0.00177337 </v>
     <v>      -0.19510728       0.11209157       0.00177337 </v>
     <v>      -0.00552991      -0.00000000      -0.05150605 </v>
    </varray>
   </crystal>
   <varray name="positions" >
    <v>       0.90565794       0.09454665       0.74915538 </v>
    <v>       0.09454665       0.90565794       0.24915538 </v>
    <v>       0.53322514       0.39310001       0.64067324 </v>
    <v>       0.39310001       0.53322514       0.14067324 </v>
    <v>       0.83168923       0.66659457       0.49906399 </v>
    <v>       0.66659457       0.83168923       0.99906399 </v>
    <v>       0.16547733       0.33421807       0.49917966 </v>
    <v>       0.33421807       0.16547733       0.99917966 </v>
    <v>       0.80677431       0.29055122       0.35753526 </v>
    <v>       0.29055122       0.80677431       0.85753526 </v>
    <v>       0.19413556       0.71258646       0.64400795 </v>
    <v>       0.71258646       0.19413556       0.14400795 </v>
    <v>       0.46364195       0.60775551       0.35419717 </v>
    <v>       0.60775551       0.46364195       0.85419717 </v>
    <v>       0.70630189       0.02348583       0.55983981 </v>
    <v>       0.02348583       0.70630189       0.05983981 </v>
    <v>       0.29235467       0.97956038       0.43867221 </v>
    <v>       0.97956038       0.29235467       0.93867221 </v>
    <v>       0.89456660       0.68197076       0.67869209 </v>
    <v>       0.68197076       0.89456660       0.17869209 </v>
    <v>       0.51474825       0.41017862       0.55150884 </v>
    <v>       0.41017862       0.51474825       0.05150884 </v>
    <v>       0.13248232       0.33476279       0.31922290 </v>
    <v>       0.33476279       0.13248232       0.81922290 </v>
    <v>       0.13693859       0.64751297       0.55958651 </v>
    <v>       0.64751297       0.13693859       0.05958651 </v>
    <v>       0.11000258       0.98337874       0.44746427 </v>
    <v>       0.98337874       0.11000258       0.94746427 </v>
    <v>       0.26233066       0.46214216       0.67777081 </v>
    <v>       0.46214216       0.26233066       0.17777081 </v>
    <v>       0.48401660       0.60271082       0.43859782 </v>
    <v>       0.60271082       0.48401660       0.93859782 </v>
    <v>       0.72308821       0.55463279       0.32073029 </v>
    <v>       0.55463279       0.72308821       0.82073029 </v>
    <v>       0.87318689       0.37123933       0.44674653 </v>
    <v>       0.37123933       0.87318689       0.94674653 </v>
    <v>       0.48746829       0.04854451       0.66800858 </v>
    <v>       0.04854451       0.48746829       0.16800858 </v>
    <v>       0.88901982       0.02089507       0.55077874 </v>
    <v>       0.02089507       0.88901982       0.05077874 </v>
    <v>       0.49779462       0.92613128       0.33016795 </v>
    <v>       0.92613128       0.49779462       0.83016795 </v>
   </varray>
  </structure>
  <varray name="forces" >
   <v>      -0.00031419       0.00160155       0.00034300 </v>
   <v>      -0.00031419      -0.00160155       0.00034300 </v>
   <v>      -0.00029411       0.00219579      -0.00128419 </v>
   <v>      -0.00029411      -0.00219579      -0.00128419 </v>
   <v>      -0.00028576      -0.00069462       0.00001706 </v>
   <v>      -0.00028576       0.00069462       0.00001706 </v>
   <v>       0.00098735      -0.00118457       0.00037928 </v>
   <v>       0.00098735       0.00118457       0.00037928 </v>
   <v>       0.00307321      -0.00092141       0.00026742 </v>
   <v>       0.00307321       0.00092141       0.00026742 </v>
   <v>       0.00110919      -0.00013285      -0.00154883 </v>
   <v>       0.00110919       0.00013285      -0.00154883 </v>
   <v>      -0.00136858      -0.00238684       0.00296687 </v>
   <v>      -0.00136858       0.00238684       0.00296687 </v>
   <v>      -0.00071101      -0.00274114       0.00657014 </v>
   <v>      -0.00071101       0.00274114       0.00657014 </v>
   <v>      -0.00004349       0.00182804      -0.00327746 </v>
   <v>      -0.00004349      -0.00182804      -0.00327746 </v>
   <v>       0.00248882       0.00103418       0.00105047 </v>
   <v>       0.00248882      -0.00103418       0.00105047 </v>
   <v>       0.00089875      -0.00020422      -0.00008586 </v>
   <v>       0.00089875       0.00020422      -0.00008586 </v>
   <v>      -0.00126759      -0.00207822      -0.00057087 </v>
   <v>      -0.00126759       0.00207822      -0.00057087 </v>
   <v>      -0.00110250       0.00019368      -0.00074578 </v>
   <v>      -0.00110250      -0.00019368      -0.00074578 </v>
   <v>      -0.00264227      -0.00526568      -0.00041961 </v>
   <v>      -0.00264227       0.00526568      -0.00041961 </v>
   <v>       0.00169432      -0.00160037       0.00087733 </v>
   <v>       0.00169432       0.00160037       0.00087733 </v>
   <v>      -0.00177722      -0.00123483      -0.00173314 </v>
   <v>      -0.00177722       0.00123483      -0.00173314 </v>
   <v>      -0.00229329      -0.00106927      -0.00131369 </v>
   <v>      -0.00229329       0.00106927      -0.00131369 </v>
   <v>      -0.00099017      -0.00159758      -0.00047429 </v>
   <v>      -0.00099017       0.00159758      -0.00047429 </v>
   <v>       0.00163801       0.00095516      -0.00036498 </v>
   <v>       0.00163801      -0.00095516      -0.00036498 </v>
   <v>       0.00435183       0.00525634       0.00003840 </v>
   <v>       0.00435183      -0.00525634       0.00003840 </v>
   <v>      -0.00315129      -0.00268765      -0.00069126 </v>
   <v>      -0.00315129       0.00268765      -0.00069126 </v>
  </varray>
  <varray name="stress" >
   <v>       0.20527389       0.00000000       0.00548841 </v>
   <v>       0.00000000       0.10169851       0.00000000 </v>
   <v>       0.00548840       0.00000000       0.08216054 </v>
  </varray>
  <energy>
   <i name="e_fr_energy">   -302.62549178 </i>
   <i name="e_wo_entrp">   -302.62549178 </i>
   <i name="e_0_energy">      0.00000000 </i>
  </energy>
  <time name="totalsc">  265.18  266.22</time>
  <eigenvalues>
   <array>
    <dimension dim="1">band</dimension>
    <dimension dim="2">kpoint</dimension>
    <dimension dim="3">spin</dimension>
    <field>eigene</field>
    <field>occ</field>
    <set>
     <set comment="spin 1">
      <set comment="kpoint 1">
       <r>  -16.8701    1.0000 </r>
       <r>  -16.8673    1.0000 </r>
       <r>  -16.7723    1.0000 </r>
       <r>  -16.7718    1.0000 </r>
       <r>  -16.7619    1.0000 </r>
       <r>  -16.7619    1.0000 </r>
       <r>  -16.0194    1.0000 </r>
       <r>  -15.9614    1.0000 </r>
       <r>  -15.7607    1.0000 </r>
       <r>  -15.6671    1.0000 </r>
       <r>  -15.1765    1.0000 </r>
       <r>  -15.1302    1.0000 </r>
       <r>  -14.4952    1.0000 </r>
       <r>  -14.4940    1.0000 </r>
       <r>  -14.4449    1.0000 </r>
       <r>  -14.4323    1.0000 </r>
       <r>  -14.4025    1.0000 </r>
       <r>  -14.3787    1.0000 </r>
       <r>  -14.3480    1.0000 </r>
       <r>  -14.3443    1.0000 </r>
       <r>  -14.2724    1.0000 </r>
       <r>  -14.2661    1.0000 </r>
       <r>  -14.2117    1.0000 </r>
       <r>  -14.1873    1.0000 </r>
       <r>  -14.0902    1.0000 </r>
       <r>  -14.0748    1.0000 </r>
       <r>  -13.3543    1.0000 </r>
       <r>  -13.3507    1.0000 </r>
       <r>  -13.2880    1.0000 </r>
       <r>  -13.2874    1.0000 </r>
       <r>   -4.2169    1.0000 </r>
       <r>   -4.1840    1.0000 </r>
       <r>   -4.0791    1.0000 </r>
       <r>   -4.0596    1.0000 </r>
       <r>   -3.4420    1.0000 </r>
       <r>   -3.4420    1.0000 </r>
       <r>   -2.8901    1.0000 </r>
       <r>   -2.8742    1.0000 </r>
       <r>   -2.1823    1.0000 </r>
       <r>   -2.1759    1.0000 </r>
       <r>   -2.0877    1.0000 </r>
       <r>   -2.0600    1.0000 </r>
       <r>   -2.0166    1.0000 </r>
       <r>   -2.0118    1.0000 </r>
       <r>   -1.9747    1.0000 </r>
       <r>   -1.9742    1.0000 </r>
       <r>   -1.8014    1.0000 </r>
       <r>   -1.7629    1.0000 </r>
       <r>   -1.6258    1.0000 </r>
       <r>   -1.6003    1.0000 </r>
       <r>   -1.4051    1.0000 </r>
       <r>   -1.3983    1.0000 </r>
       <r>   -1.1472    1.0000 </r>
       <r>   -0.9658    1.0000 </r>
       <r>   -0.8222    1.0000 </r>
       <r>   -0.8207    1.0000 </r>
       <r>   -0.2908    1.0000 </r>
       <r>   -0.2555    1.0000 </r>
       <r>   -0.1617    1.0000 </r>
       <r>    0.0100    1.0000 </r>
       <r>    0.0240    1.0000 </r>
       <r>    0.1260    1.0000 </r>
       <r>    0.1448    1.0000 </r>
       <r>    0.2664    1.0000 </r>
       <r>    0.4283    1.0000 </r>
       <r>    0.4532    1.0000 </r>
       <r>    0.5176    1.0000 </r>
       <r>    0.5603    1.0000 </r>
       <r>    0.7194    1.0000 </r>
       <r>    0.7221    1.0000 </r>
       <r>    0.7726    1.0000 </r>
       <r>    0.8259    1.0000 </r>
       <r>    0.8911    1.0000 </r>
       <r>    0.9254    1.0000 </r>
       <r>    0.9858    1.0000 </r>
       <r>    1.0040    1.0000 </r>
       <r>    1.1488    1.0000 </r>
       <r>    1.1680    1.0000 </r>
       <r>    1.2446    1.0000 </r>
       <r>    1.2593    1.0000 </r>
       <r>    1.2640    1.0000 </r>
       <r>    1.2947    1.0000 </r>
       <r>    1.3731    1.0000 </r>
       <r>    1.4094    1.0000 </r>
       <r>    1.5489    1.0000 </r>
       <r>    1.5579    1.0000 </r>
       <r>    1.6679    1.0000 </r>
       <r>    1.6691    1.0000 </r>
       <r>    1.7471    1.0000 </r>
       <r>    1.7880    1.0000 </r>
       <r>    1.9775    1.0000 </r>
       <r>    2.0053    1.0000 </r>
       <r>    2.3594    1.0000 </r>
       <r>    2.3638    1.0000 </r>
       <r>    2.4862    1.0000 </r>
       <r>    2.4882    1.0000 </r>
       <r>    2.6311    1.0000 </r>
       <r>    2.6498    1.0000 </r>
       <r>    2.8455    1.0000 </r>
       <r>    2.8467    1.0000 </r>
       <r>    2.9345    1.0000 </r>
       <r>    2.9560    1.0000 </r>
       <r>    7.9070    0.0000 </r>
       <r>    8.2155    0.0000 </r>
       <r>    8.9611    0.0000 </r>
       <r>    9.4182    0.0000 </r>
       <r>    9.5310    0.0000 </r>
       <r>    9.5427    0.0000 </r>
       <r>    9.5739    0.0000 </r>
       <r>    9.5817    0.0000 </r>
       <r>    9.7210    0.0000 </r>
       <r>    9.7243    0.0000 </r>
       <r>   10.6860    0.0000 </r>
       <r>   10.7046    0.0000 </r>
       <r>   10.7232    0.0000 </r>
       <r>   10.7409    0.0000 </r>
       <r>   10.9335    0.0000 </r>
       <r>   11.2083    0.0000 </r>
       <r>   11.5863    0.0000 </r>
       <r>   11.6100    0.0000 </r>
       <r>   11.6582    0.0000 </r>
       <r>   11.7723    0.0000 </r>
       <r>   11.8318    0.0000 </r>
       <r>   11.8986    0.0000 </r>
       <r>   11.9810    0.0000 </r>
       <r>   12.0611    0.0000 </r>
       <r>   12.2375    0.0000 </r>
       <r>   12.3286    0.0000 </r>
      </set>
      <set comment="kpoint 2">
       <r>  -16.8397    1.0000 </r>
       <r>  -16.8348    1.0000 </r>
       <r>  -16.8138    1.0000 </r>
       <r>  -16.8088    1.0000 </r>
       <r>  -16.7684    1.0000 </r>
       <r>  -16.7681    1.0000 </r>
       <r>  -15.8825    1.0000 </r>
       <r>  -15.8436    1.0000 </r>
       <r>  -15.7047    1.0000 </r>
       <r>  -15.6514    1.0000 </r>
       <r>  -15.1183    1.0000 </r>
       <r>  -15.0989    1.0000 </r>
       <r>  -14.5912    1.0000 </r>
       <r>  -14.5825    1.0000 </r>
       <r>  -14.5087    1.0000 </r>
       <r>  -14.4771    1.0000 </r>
       <r>  -14.4218    1.0000 </r>
       <r>  -14.4124    1.0000 </r>
       <r>  -14.3708    1.0000 </r>
       <r>  -14.3582    1.0000 </r>
       <r>  -14.3233    1.0000 </r>
       <r>  -14.3057    1.0000 </r>
       <r>  -14.2496    1.0000 </r>
       <r>  -14.2091    1.0000 </r>
       <r>  -14.0829    1.0000 </r>
       <r>  -14.0736    1.0000 </r>
       <r>  -13.3911    1.0000 </r>
       <r>  -13.3504    1.0000 </r>
       <r>  -13.2958    1.0000 </r>
       <r>  -13.2800    1.0000 </r>
       <r>   -4.0906    1.0000 </r>
       <r>   -4.0672    1.0000 </r>
       <r>   -3.9767    1.0000 </r>
       <r>   -3.9572    1.0000 </r>
       <r>   -3.5043    1.0000 </r>
       <r>   -3.4183    1.0000 </r>
       <r>   -2.9242    1.0000 </r>
       <r>   -2.8698    1.0000 </r>
       <r>   -2.2208    1.0000 </r>
       <r>   -2.1306    1.0000 </r>
       <r>   -2.0788    1.0000 </r>
       <r>   -2.0536    1.0000 </r>
       <r>   -2.0155    1.0000 </r>
       <r>   -1.9867    1.0000 </r>
       <r>   -1.8666    1.0000 </r>
       <r>   -1.8388    1.0000 </r>
       <r>   -1.6910    1.0000 </r>
       <r>   -1.6664    1.0000 </r>
       <r>   -1.4990    1.0000 </r>
       <r>   -1.4205    1.0000 </r>
       <r>   -1.3947    1.0000 </r>
       <r>   -1.3341    1.0000 </r>
       <r>   -1.0832    1.0000 </r>
       <r>   -0.9693    1.0000 </r>
       <r>   -0.8617    1.0000 </r>
       <r>   -0.6807    1.0000 </r>
       <r>   -0.3513    1.0000 </r>
       <r>   -0.2578    1.0000 </r>
       <r>   -0.1096    1.0000 </r>
       <r>   -0.0809    1.0000 </r>
       <r>   -0.0054    1.0000 </r>
       <r>    0.0525    1.0000 </r>
       <r>    0.0988    1.0000 </r>
       <r>    0.1571    1.0000 </r>
       <r>    0.2640    1.0000 </r>
       <r>    0.3610    1.0000 </r>
       <r>    0.3934    1.0000 </r>
       <r>    0.4534    1.0000 </r>
       <r>    0.6572    1.0000 </r>
       <r>    0.6829    1.0000 </r>
       <r>    0.7371    1.0000 </r>
       <r>    0.7763    1.0000 </r>
       <r>    0.9469    1.0000 </r>
       <r>    1.0018    1.0000 </r>
       <r>    1.0545    1.0000 </r>
       <r>    1.0745    1.0000 </r>
       <r>    1.1595    1.0000 </r>
       <r>    1.1839    1.0000 </r>
       <r>    1.1958    1.0000 </r>
       <r>    1.2414    1.0000 </r>
       <r>    1.2767    1.0000 </r>
       <r>    1.3029    1.0000 </r>
       <r>    1.3603    1.0000 </r>
       <r>    1.3937    1.0000 </r>
       <r>    1.4775    1.0000 </r>
       <r>    1.5879    1.0000 </r>
       <r>    1.6508    1.0000 </r>
       <r>    1.6620    1.0000 </r>
       <r>    1.7417    1.0000 </r>
       <r>    1.7894    1.0000 </r>
       <r>    1.9560    1.0000 </r>
       <r>    2.0400    1.0000 </r>
       <r>    2.1489    1.0000 </r>
       <r>    2.2214    1.0000 </r>
       <r>    2.2803    1.0000 </r>
       <r>    2.3981    1.0000 </r>
       <r>    2.4769    1.0000 </r>
       <r>    2.6265    1.0000 </r>
       <r>    2.7373    1.0000 </r>
       <r>    2.8100    1.0000 </r>
       <r>    3.0116    1.0000 </r>
       <r>    3.0422    1.0000 </r>
       <r>    8.4804    0.0000 </r>
       <r>    8.6692    0.0000 </r>
       <r>    9.2845    0.0000 </r>
       <r>    9.4085    0.0000 </r>
       <r>    9.4913    0.0000 </r>
       <r>    9.5047    0.0000 </r>
       <r>    9.5878    0.0000 </r>
       <r>    9.6783    0.0000 </r>
       <r>    9.6935    0.0000 </r>
       <r>    9.7136    0.0000 </r>
       <r>   10.6122    0.0000 </r>
       <r>   10.6408    0.0000 </r>
       <r>   10.7110    0.0000 </r>
       <r>   10.9071    0.0000 </r>
       <r>   11.1295    0.0000 </r>
       <r>   11.3052    0.0000 </r>
       <r>   11.3612    0.0000 </r>
       <r>   11.4545    0.0000 </r>
       <r>   11.6025    0.0000 </r>
       <r>   11.6842    0.0000 </r>
       <r>   11.8583    0.0000 </r>
       <r>   11.9817    0.0000 </r>
       <r>   12.0458    0.0000 </r>
       <r>   12.1367    0.0000 </r>
       <r>   12.1903    0.0000 </r>
       <r>   12.2322    0.0000 </r>
      </set>
      <set comment="kpoint 3">
       <r>  -16.8551    1.0000 </r>
       <r>  -16.8530    1.0000 </r>
       <r>  -16.7944    1.0000 </r>
       <r>  -16.7920    1.0000 </r>
       <r>  -16.7758    1.0000 </r>
       <r>  -16.7752    1.0000 </r>
       <r>  -15.7197    1.0000 </r>
       <r>  -15.7064    1.0000 </r>
       <r>  -15.6132    1.0000 </r>
       <r>  -15.5969    1.0000 </r>
       <r>  -15.0780    1.0000 </r>
       <r>  -15.0347    1.0000 </r>
       <r>  -14.7310    1.0000 </r>
       <r>  -14.7092    1.0000 </r>
       <r>  -14.6329    1.0000 </r>
       <r>  -14.5898    1.0000 </r>
       <r>  -14.4423    1.0000 </r>
       <r>  -14.4167    1.0000 </r>
       <r>  -14.4035    1.0000 </r>
       <r>  -14.3852    1.0000 </r>
       <r>  -14.3437    1.0000 </r>
       <r>  -14.3237    1.0000 </r>
       <r>  -14.3022    1.0000 </r>
       <r>  -14.2125    1.0000 </r>
       <r>  -14.0938    1.0000 </r>
       <r>  -14.0724    1.0000 </r>
       <r>  -13.4320    1.0000 </r>
       <r>  -13.3501    1.0000 </r>
       <r>  -13.3046    1.0000 </r>
       <r>  -13.2836    1.0000 </r>
       <r>   -3.9352    1.0000 </r>
       <r>   -3.8923    1.0000 </r>
       <r>   -3.8478    1.0000 </r>
       <r>   -3.7898    1.0000 </r>
       <r>   -3.5826    1.0000 </r>
       <r>   -3.3635    1.0000 </r>
       <r>   -2.9089    1.0000 </r>
       <r>   -2.7771    1.0000 </r>
       <r>   -2.3731    1.0000 </r>
       <r>   -2.2472    1.0000 </r>
       <r>   -2.1207    1.0000 </r>
       <r>   -2.0482    1.0000 </r>
       <r>   -2.0242    1.0000 </r>
       <r>   -1.9404    1.0000 </r>
       <r>   -1.8442    1.0000 </r>
       <r>   -1.7099    1.0000 </r>
       <r>   -1.4684    1.0000 </r>
       <r>   -1.4229    1.0000 </r>
       <r>   -1.3334    1.0000 </r>
       <r>   -1.2691    1.0000 </r>
       <r>   -1.1678    1.0000 </r>
       <r>   -1.1036    1.0000 </r>
       <r>   -1.0601    1.0000 </r>
       <r>   -0.9120    1.0000 </r>
       <r>   -0.8164    1.0000 </r>
       <r>   -0.5724    1.0000 </r>
       <r>   -0.4756    1.0000 </r>
       <r>   -0.3775    1.0000 </r>
       <r>   -0.2916    1.0000 </r>
       <r>   -0.2491    1.0000 </r>
       <r>   -0.1949    1.0000 </r>
       <r>   -0.0748    1.0000 </r>
       <r>   -0.0335    1.0000 </r>
       <r>    0.0358    1.0000 </r>
       <r>    0.1535    1.0000 </r>
       <r>    0.2814    1.0000 </r>
       <r>    0.3579    1.0000 </r>
       <r>    0.4892    1.0000 </r>
       <r>    0.5436    1.0000 </r>
       <r>    0.5816    1.0000 </r>
       <r>    0.6584    1.0000 </r>
       <r>    0.7112    1.0000 </r>
       <r>    0.8694    1.0000 </r>
       <r>    0.9366    1.0000 </r>
       <r>    0.9796    1.0000 </r>
       <r>    1.0312    1.0000 </r>
       <r>    1.1131    1.0000 </r>
       <r>    1.1576    1.0000 </r>
       <r>    1.1864    1.0000 </r>
       <r>    1.2588    1.0000 </r>
       <r>    1.3499    1.0000 </r>
       <r>    1.3984    1.0000 </r>
       <r>    1.4419    1.0000 </r>
       <r>    1.4773    1.0000 </r>
       <r>    1.5180    1.0000 </r>
       <r>    1.5773    1.0000 </r>
       <r>    1.6787    1.0000 </r>
       <r>    1.7148    1.0000 </r>
       <r>    1.7917    1.0000 </r>
       <r>    1.8614    1.0000 </r>
       <r>    1.8898    1.0000 </r>
       <r>    1.9682    1.0000 </r>
       <r>    2.0319    1.0000 </r>
       <r>    2.1271    1.0000 </r>
       <r>    2.1792    1.0000 </r>
       <r>    2.2925    1.0000 </r>
       <r>    2.3407    1.0000 </r>
       <r>    2.6078    1.0000 </r>
       <r>    2.7296    1.0000 </r>
       <r>    2.7664    1.0000 </r>
       <r>    3.0381    1.0000 </r>
       <r>    3.0707    1.0000 </r>
       <r>    9.2189    0.0000 </r>
       <r>    9.2861    0.0000 </r>
       <r>    9.3379    0.0000 </r>
       <r>    9.3666    0.0000 </r>
       <r>    9.4384    0.0000 </r>
       <r>    9.4593    0.0000 </r>
       <r>    9.6571    0.0000 </r>
       <r>    9.6630    0.0000 </r>
       <r>    9.9430    0.0000 </r>
       <r>    9.9882    0.0000 </r>
       <r>   10.4471    0.0000 </r>
       <r>   10.5072    0.0000 </r>
       <r>   10.7585    0.0000 </r>
       <r>   10.9230    0.0000 </r>
       <r>   11.0253    0.0000 </r>
       <r>   11.0778    0.0000 </r>
       <r>   11.3901    0.0000 </r>
       <r>   11.4473    0.0000 </r>
       <r>   11.5050    0.0000 </r>
       <r>   11.6152    0.0000 </r>
       <r>   11.7876    0.0000 </r>
       <r>   11.8415    0.0000 </r>
       <r>   11.9694    0.0000 </r>
       <r>   12.0196    0.0000 </r>
       <r>   12.1880    0.0000 </r>
       <r>   12.3422    0.0000 </r>
      </set>
      <set comment="kpoint 4">
       <r>  -16.8722    1.0000 </r>
       <r>  -16.8712    1.0000 </r>
       <r>  -16.7826    1.0000 </r>
       <r>  -16.7824    1.0000 </r>
       <r>  -16.7691    1.0000 </r>
       <r>  -16.7673    1.0000 </r>
       <r>  -15.6576    1.0000 </r>
       <r>  -15.6330    1.0000 </r>
       <r>  -15.5247    1.0000 </r>
       <r>  -15.4952    1.0000 </r>
       <r>  -15.0805    1.0000 </r>
       <r>  -15.0168    1.0000 </r>
       <r>  -14.8250    1.0000 </r>
       <r>  -14.7983    1.0000 </r>
       <r>  -14.6859    1.0000 </r>
       <r>  -14.6478    1.0000 </r>
       <r>  -14.4630    1.0000 </r>
       <r>  -14.4474    1.0000 </r>
       <r>  -14.4378    1.0000 </r>
       <r>  -14.3960    1.0000 </r>
       <r>  -14.3800    1.0000 </r>
       <r>  -14.3213    1.0000 </r>
       <r>  -14.2964    1.0000 </r>
       <r>  -14.2067    1.0000 </r>
       <r>  -14.1054    1.0000 </r>
       <r>  -14.0710    1.0000 </r>
       <r>  -13.4566    1.0000 </r>
       <r>  -13.3510    1.0000 </r>
       <r>  -13.3093    1.0000 </r>
       <r>  -13.2900    1.0000 </r>
       <r>   -3.8342    1.0000 </r>
       <r>   -3.8045    1.0000 </r>
       <r>   -3.7433    1.0000 </r>
       <r>   -3.6686    1.0000 </r>
       <r>   -3.6161    1.0000 </r>
       <r>   -3.3178    1.0000 </r>
       <r>   -2.9073    1.0000 </r>
       <r>   -2.6316    1.0000 </r>
       <r>   -2.4704    1.0000 </r>
       <r>   -2.4192    1.0000 </r>
       <r>   -2.1520    1.0000 </r>
       <r>   -2.0564    1.0000 </r>
       <r>   -1.9839    1.0000 </r>
       <r>   -1.8801    1.0000 </r>
       <r>   -1.7880    1.0000 </r>
       <r>   -1.6710    1.0000 </r>
       <r>   -1.3784    1.0000 </r>
       <r>   -1.2881    1.0000 </r>
       <r>   -1.2322    1.0000 </r>
       <r>   -1.1396    1.0000 </r>
       <r>   -1.0924    1.0000 </r>
       <r>   -1.0303    1.0000 </r>
       <r>   -0.9096    1.0000 </r>
       <r>   -0.8572    1.0000 </r>
       <r>   -0.8261    1.0000 </r>
       <r>   -0.6141    1.0000 </r>
       <r>   -0.5532    1.0000 </r>
       <r>   -0.5071    1.0000 </r>
       <r>   -0.4534    1.0000 </r>
       <r>   -0.3174    1.0000 </r>
       <r>   -0.2137    1.0000 </r>
       <r>   -0.1552    1.0000 </r>
       <r>   -0.0854    1.0000 </r>
       <r>    0.0070    1.0000 </r>
       <r>    0.1400    1.0000 </r>
       <r>    0.1960    1.0000 </r>
       <r>    0.3452    1.0000 </r>
       <r>    0.3711    1.0000 </r>
       <r>    0.4321    1.0000 </r>
       <r>    0.4581    1.0000 </r>
       <r>    0.6380    1.0000 </r>
       <r>    0.7284    1.0000 </r>
       <r>    0.7992    1.0000 </r>
       <r>    0.8562    1.0000 </r>
       <r>    0.9313    1.0000 </r>
       <r>    0.9719    1.0000 </r>
       <r>    1.0124    1.0000 </r>
       <r>    1.1664    1.0000 </r>
       <r>    1.1737    1.0000 </r>
       <r>    1.2426    1.0000 </r>
       <r>    1.3674    1.0000 </r>
       <r>    1.4698    1.0000 </r>
       <r>    1.5331    1.0000 </r>
       <r>    1.5738    1.0000 </r>
       <r>    1.5772    1.0000 </r>
       <r>    1.5978    1.0000 </r>
       <r>    1.7089    1.0000 </r>
       <r>    1.7651    1.0000 </r>
       <r>    1.8232    1.0000 </r>
       <r>    1.8530    1.0000 </r>
       <r>    1.8977    1.0000 </r>
       <r>    1.9321    1.0000 </r>
       <r>    2.0285    1.0000 </r>
       <r>    2.0971    1.0000 </r>
       <r>    2.1857    1.0000 </r>
       <r>    2.2446    1.0000 </r>
       <r>    2.2906    1.0000 </r>
       <r>    2.5515    1.0000 </r>
       <r>    2.7448    1.0000 </r>
       <r>    2.7646    1.0000 </r>
       <r>    3.0348    1.0000 </r>
       <r>    3.0707    1.0000 </r>
       <r>    9.2913    0.0000 </r>
       <r>    9.3131    0.0000 </r>
       <r>    9.3663    0.0000 </r>
       <r>    9.3832    0.0000 </r>
       <r>    9.6389    0.0000 </r>
       <r>    9.6434    0.0000 </r>
       <r>    9.9454    0.0000 </r>
       <r>    9.9959    0.0000 </r>
       <r>   10.1449    0.0000 </r>
       <r>   10.1869    0.0000 </r>
       <r>   10.2693    0.0000 </r>
       <r>   10.4175    0.0000 </r>
       <r>   10.6103    0.0000 </r>
       <r>   10.7728    0.0000 </r>
       <r>   10.9103    0.0000 </r>
       <r>   10.9973    0.0000 </r>
       <r>   11.1903    0.0000 </r>
       <r>   11.2818    0.0000 </r>
       <r>   11.4821    0.0000 </r>
       <r>   11.5791    0.0000 </r>
       <r>   11.6987    0.0000 </r>
       <r>   11.7298    0.0000 </r>
       <r>   11.8112    0.0000 </r>
       <r>   11.9785    0.0000 </r>
       <r>   12.2342    0.0000 </r>
       <r>   12.2837    0.0000 </r>
      </set>
      <set comment="kpoint 5">
       <r>  -16.8660    1.0000 </r>
       <r>  -16.8642    1.0000 </r>
       <r>  -16.7813    1.0000 </r>
       <r>  -16.7805    1.0000 </r>
       <r>  -16.7769    1.0000 </r>
       <r>  -16.7751    1.0000 </r>
       <r>  -15.6876    1.0000 </r>
       <r>  -15.6292    1.0000 </r>
       <r>  -15.5955    1.0000 </r>
       <r>  -15.5254    1.0000 </r>
       <r>  -15.0789    1.0000 </r>
       <r>  -15.0167    1.0000 </r>
       <r>  -14.7955    1.0000 </r>
       <r>  -14.7621    1.0000 </r>
       <r>  -14.6634    1.0000 </r>
       <r>  -14.6294    1.0000 </r>
       <r>  -14.4556    1.0000 </r>
       <r>  -14.4402    1.0000 </r>
       <r>  -14.4114    1.0000 </r>
       <r>  -14.3936    1.0000 </r>
       <r>  -14.3754    1.0000 </r>
       <r>  -14.3235    1.0000 </r>
       <r>  -14.3001    1.0000 </r>
       <r>  -14.1968    1.0000 </r>
       <r>  -14.1037    1.0000 </r>
       <r>  -14.0718    1.0000 </r>
       <r>  -13.4580    1.0000 </r>
       <r>  -13.3505    1.0000 </r>
       <r>  -13.3076    1.0000 </r>
       <r>  -13.2865    1.0000 </r>
       <r>   -3.8847    1.0000 </r>
       <r>   -3.8434    1.0000 </r>
       <r>   -3.7565    1.0000 </r>
       <r>   -3.7196    1.0000 </r>
       <r>   -3.6085    1.0000 </r>
       <r>   -3.3138    1.0000 </r>
       <r>   -2.9109    1.0000 </r>
       <r>   -2.6753    1.0000 </r>
       <r>   -2.4597    1.0000 </r>
       <r>   -2.3062    1.0000 </r>
       <r>   -2.1380    1.0000 </r>
       <r>   -2.0616    1.0000 </r>
       <r>   -2.0030    1.0000 </r>
       <r>   -1.8823    1.0000 </r>
       <r>   -1.7806    1.0000 </r>
       <r>   -1.6887    1.0000 </r>
       <r>   -1.4274    1.0000 </r>
       <r>   -1.3346    1.0000 </r>
       <r>   -1.2768    1.0000 </r>
       <r>   -1.2365    1.0000 </r>
       <r>   -1.1373    1.0000 </r>
       <r>   -1.0483    1.0000 </r>
       <r>   -0.9557    1.0000 </r>
       <r>   -0.8806    1.0000 </r>
       <r>   -0.8291    1.0000 </r>
       <r>   -0.5935    1.0000 </r>
       <r>   -0.5520    1.0000 </r>
       <r>   -0.4525    1.0000 </r>
       <r>   -0.4209    1.0000 </r>
       <r>   -0.3525    1.0000 </r>
       <r>   -0.2007    1.0000 </r>
       <r>   -0.1177    1.0000 </r>
       <r>   -0.0157    1.0000 </r>
       <r>    0.0692    1.0000 </r>
       <r>    0.1674    1.0000 </r>
       <r>    0.2227    1.0000 </r>
       <r>    0.3407    1.0000 </r>
       <r>    0.3986    1.0000 </r>
       <r>    0.4636    1.0000 </r>
       <r>    0.4947    1.0000 </r>
       <r>    0.6412    1.0000 </r>
       <r>    0.7525    1.0000 </r>
       <r>    0.8191    1.0000 </r>
       <r>    0.8871    1.0000 </r>
       <r>    0.9594    1.0000 </r>
       <r>    0.9962    1.0000 </r>
       <r>    1.0471    1.0000 </r>
       <r>    1.1728    1.0000 </r>
       <r>    1.1862    1.0000 </r>
       <r>    1.2254    1.0000 </r>
       <r>    1.3480    1.0000 </r>
       <r>    1.4665    1.0000 </r>
       <r>    1.4977    1.0000 </r>
       <r>    1.5273    1.0000 </r>
       <r>    1.5488    1.0000 </r>
       <r>    1.5839    1.0000 </r>
       <r>    1.6769    1.0000 </r>
       <r>    1.7274    1.0000 </r>
       <r>    1.8114    1.0000 </r>
       <r>    1.8358    1.0000 </r>
       <r>    1.9107    1.0000 </r>
       <r>    1.9492    1.0000 </r>
       <r>    2.0219    1.0000 </r>
       <r>    2.1121    1.0000 </r>
       <r>    2.2145    1.0000 </r>
       <r>    2.2345    1.0000 </r>
       <r>    2.3244    1.0000 </r>
       <r>    2.5785    1.0000 </r>
       <r>    2.7514    1.0000 </r>
       <r>    2.7848    1.0000 </r>
       <r>    3.0166    1.0000 </r>
       <r>    3.0709    1.0000 </r>
       <r>    9.3069    0.0000 </r>
       <r>    9.3137    0.0000 </r>
       <r>    9.3703    0.0000 </r>
       <r>    9.3874    0.0000 </r>
       <r>    9.6072    0.0000 </r>
       <r>    9.6409    0.0000 </r>
       <r>    9.6778    0.0000 </r>
       <r>    9.8080    0.0000 </r>
       <r>    9.9883    0.0000 </r>
       <r>   10.1634    0.0000 </r>
       <r>   10.3856    0.0000 </r>
       <r>   10.4359    0.0000 </r>
       <r>   10.7189    0.0000 </r>
       <r>   10.8499    0.0000 </r>
       <r>   10.9338    0.0000 </r>
       <r>   11.0689    0.0000 </r>
       <r>   11.1918    0.0000 </r>
       <r>   11.3083    0.0000 </r>
       <r>   11.5516    0.0000 </r>
       <r>   11.6671    0.0000 </r>
       <r>   11.7608    0.0000 </r>
       <r>   11.7726    0.0000 </r>
       <r>   11.8514    0.0000 </r>
       <r>   12.0390    0.0000 </r>
       <r>   12.1276    0.0000 </r>
       <r>   12.3019    0.0000 </r>
      </set>
      <set comment="kpoint 6">
       <r>  -16.8413    1.0000 </r>
       <r>  -16.8345    1.0000 </r>
       <r>  -16.8130    1.0000 </r>
       <r>  -16.8059    1.0000 </r>
       <r>  -16.7725    1.0000 </r>
       <r>  -16.7714    1.0000 </r>
       <r>  -15.8090    1.0000 </r>
       <r>  -15.7491    1.0000 </r>
       <r>  -15.6918    1.0000 </r>
       <r>  -15.6166    1.0000 </r>
       <r>  -15.1034    1.0000 </r>
       <r>  -15.0663    1.0000 </r>
       <r>  -14.6586    1.0000 </r>
       <r>  -14.6366    1.0000 </r>
       <r>  -14.5620    1.0000 </r>
       <r>  -14.5305    1.0000 </r>
       <r>  -14.4325    1.0000 </r>
       <r>  -14.4171    1.0000 </r>
       <r>  -14.3951    1.0000 </r>
       <r>  -14.3644    1.0000 </r>
       <r>  -14.3388    1.0000 </r>
       <r>  -14.3120    1.0000 </r>
       <r>  -14.2962    1.0000 </r>
       <r>  -14.1855    1.0000 </r>
       <r>  -14.0900    1.0000 </r>
       <r>  -14.0738    1.0000 </r>
       <r>  -13.4341    1.0000 </r>
       <r>  -13.3499    1.0000 </r>
       <r>  -13.3004    1.0000 </r>
       <r>  -13.2767    1.0000 </r>
       <r>   -4.0372    1.0000 </r>
       <r>   -3.9714    1.0000 </r>
       <r>   -3.9031    1.0000 </r>
       <r>   -3.8809    1.0000 </r>
       <r>   -3.5462    1.0000 </r>
       <r>   -3.3485    1.0000 </r>
       <r>   -2.9205    1.0000 </r>
       <r>   -2.7894    1.0000 </r>
       <r>   -2.3075    1.0000 </r>
       <r>   -2.1643    1.0000 </r>
       <r>   -2.0913    1.0000 </r>
       <r>   -2.0752    1.0000 </r>
       <r>   -2.0085    1.0000 </r>
       <r>   -1.9447    1.0000 </r>
       <r>   -1.7669    1.0000 </r>
       <r>   -1.7306    1.0000 </r>
       <r>   -1.5905    1.0000 </r>
       <r>   -1.5637    1.0000 </r>
       <r>   -1.5122    1.0000 </r>
       <r>   -1.4428    1.0000 </r>
       <r>   -1.2641    1.0000 </r>
       <r>   -1.2374    1.0000 </r>
       <r>   -1.1054    1.0000 </r>
       <r>   -0.9425    1.0000 </r>
       <r>   -0.8533    1.0000 </r>
       <r>   -0.6272    1.0000 </r>
       <r>   -0.4375    1.0000 </r>
       <r>   -0.3288    1.0000 </r>
       <r>   -0.2486    1.0000 </r>
       <r>   -0.1389    1.0000 </r>
       <r>   -0.0715    1.0000 </r>
       <r>    0.0083    1.0000 </r>
       <r>    0.0732    1.0000 </r>
       <r>    0.1757    1.0000 </r>
       <r>    0.2553    1.0000 </r>
       <r>    0.3415    1.0000 </r>
       <r>    0.3939    1.0000 </r>
       <r>    0.5020    1.0000 </r>
       <r>    0.5939    1.0000 </r>
       <r>    0.6310    1.0000 </r>
       <r>    0.6843    1.0000 </r>
       <r>    0.7140    1.0000 </r>
       <r>    0.8787    1.0000 </r>
       <r>    0.9355    1.0000 </r>
       <r>    0.9993    1.0000 </r>
       <r>    1.0565    1.0000 </r>
       <r>    1.0998    1.0000 </r>
       <r>    1.1700    1.0000 </r>
       <r>    1.2016    1.0000 </r>
       <r>    1.2227    1.0000 </r>
       <r>    1.3428    1.0000 </r>
       <r>    1.3604    1.0000 </r>
       <r>    1.3784    1.0000 </r>
       <r>    1.4603    1.0000 </r>
       <r>    1.4960    1.0000 </r>
       <r>    1.5436    1.0000 </r>
       <r>    1.6345    1.0000 </r>
       <r>    1.6719    1.0000 </r>
       <r>    1.7878    1.0000 </r>
       <r>    1.8207    1.0000 </r>
       <r>    1.9668    1.0000 </r>
       <r>    1.9893    1.0000 </r>
       <r>    2.0520    1.0000 </r>
       <r>    2.1764    1.0000 </r>
       <r>    2.1981    1.0000 </r>
       <r>    2.3408    1.0000 </r>
       <r>    2.4413    1.0000 </r>
       <r>    2.6229    1.0000 </r>
       <r>    2.7275    1.0000 </r>
       <r>    2.8507    1.0000 </r>
       <r>    2.9869    1.0000 </r>
       <r>    3.0629    1.0000 </r>
       <r>    8.7982    0.0000 </r>
       <r>    9.0902    0.0000 </r>
       <r>    9.3363    0.0000 </r>
       <r>    9.3723    0.0000 </r>
       <r>    9.4643    0.0000 </r>
       <r>    9.4849    0.0000 </r>
       <r>    9.5598    0.0000 </r>
       <r>    9.6809    0.0000 </r>
       <r>    9.6948    0.0000 </r>
       <r>    9.9651    0.0000 </r>
       <r>   10.5724    0.0000 </r>
       <r>   10.6037    0.0000 </r>
       <r>   10.7505    0.0000 </r>
       <r>   10.9318    0.0000 </r>
       <r>   11.0508    0.0000 </r>
       <r>   11.1980    0.0000 </r>
       <r>   11.2622    0.0000 </r>
       <r>   11.4808    0.0000 </r>
       <r>   11.6484    0.0000 </r>
       <r>   11.7380    0.0000 </r>
       <r>   11.8578    0.0000 </r>
       <r>   11.8968    0.0000 </r>
       <r>   12.0064    0.0000 </r>
       <r>   12.0580    0.0000 </r>
       <r>   12.2226    0.0000 </r>
       <r>   12.3426    0.0000 </r>
      </set>
      <set comment="kpoint 7">
       <r>  -16.8564    1.0000 </r>
       <r>  -16.8532    1.0000 </r>
       <r>  -16.7920    1.0000 </r>
       <r>  -16.7907    1.0000 </r>
       <r>  -16.7629    1.0000 </r>
       <r>  -16.7613    1.0000 </r>
       <r>  -15.9698    1.0000 </r>
       <r>  -15.8964    1.0000 </r>
       <r>  -15.7587    1.0000 </r>
       <r>  -15.6474    1.0000 </r>
       <r>  -15.1623    1.0000 </r>
       <r>  -15.1145    1.0000 </r>
       <r>  -14.5278    1.0000 </r>
       <r>  -14.5235    1.0000 </r>
       <r>  -14.4543    1.0000 </r>
       <r>  -14.4376    1.0000 </r>
       <r>  -14.4032    1.0000 </r>
       <r>  -14.3950    1.0000 </r>
       <r>  -14.3754    1.0000 </r>
       <r>  -14.3681    1.0000 </r>
       <r>  -14.3087    1.0000 </r>
       <r>  -14.2883    1.0000 </r>
       <r>  -14.2243    1.0000 </r>
       <r>  -14.1827    1.0000 </r>
       <r>  -14.0803    1.0000 </r>
       <r>  -14.0783    1.0000 </r>
       <r>  -13.3922    1.0000 </r>
       <r>  -13.3514    1.0000 </r>
       <r>  -13.2911    1.0000 </r>
       <r>  -13.2748    1.0000 </r>
       <r>   -4.1833    1.0000 </r>
       <r>   -4.1174    1.0000 </r>
       <r>   -4.0546    1.0000 </r>
       <r>   -4.0077    1.0000 </r>
       <r>   -3.4675    1.0000 </r>
       <r>   -3.3958    1.0000 </r>
       <r>   -2.9159    1.0000 </r>
       <r>   -2.8286    1.0000 </r>
       <r>   -2.2395    1.0000 </r>
       <r>   -2.1526    1.0000 </r>
       <r>   -2.0603    1.0000 </r>
       <r>   -2.0312    1.0000 </r>
       <r>   -2.0121    1.0000 </r>
       <r>   -1.9541    1.0000 </r>
       <r>   -1.9209    1.0000 </r>
       <r>   -1.8359    1.0000 </r>
       <r>   -1.7835    1.0000 </r>
       <r>   -1.7484    1.0000 </r>
       <r>   -1.6470    1.0000 </r>
       <r>   -1.5185    1.0000 </r>
       <r>   -1.4919    1.0000 </r>
       <r>   -1.3846    1.0000 </r>
       <r>   -1.1469    1.0000 </r>
       <r>   -0.9610    1.0000 </r>
       <r>   -0.8930    1.0000 </r>
       <r>   -0.7450    1.0000 </r>
       <r>   -0.3845    1.0000 </r>
       <r>   -0.1987    1.0000 </r>
       <r>   -0.0962    1.0000 </r>
       <r>   -0.0049    1.0000 </r>
       <r>    0.0254    1.0000 </r>
       <r>    0.1101    1.0000 </r>
       <r>    0.1533    1.0000 </r>
       <r>    0.3153    1.0000 </r>
       <r>    0.3352    1.0000 </r>
       <r>    0.4514    1.0000 </r>
       <r>    0.5035    1.0000 </r>
       <r>    0.5369    1.0000 </r>
       <r>    0.6677    1.0000 </r>
       <r>    0.6933    1.0000 </r>
       <r>    0.7438    1.0000 </r>
       <r>    0.7808    1.0000 </r>
       <r>    0.8672    1.0000 </r>
[...]
       <r>    1.7718    1.0000 </r>
       <r>    1.9641    1.0000 </r>
       <r>    2.0285    1.0000 </r>
       <r>    2.3557    1.0000 </r>
       <r>    2.3649    1.0000 </r>
       <r>    2.4750    1.0000 </r>
       <r>    2.4990    1.0000 </r>
       <r>    2.6325    1.0000 </r>
       <r>    2.6459    1.0000 </r>
       <r>    2.8426    1.0000 </r>
       <r>    2.8551    1.0000 </r>
       <r>    2.9291    1.0000 </r>
       <r>    2.9593    1.0000 </r>
       <r>    7.8700    0.0000 </r>
       <r>    8.3022    0.0000 </r>
       <r>    8.8582    0.0000 </r>
       <r>    9.4395    0.0000 </r>
       <r>    9.5320    0.0000 </r>
       <r>    9.5398    0.0000 </r>
       <r>    9.5631    0.0000 </r>
       <r>    9.6521    0.0000 </r>
       <r>    9.7234    0.0000 </r>
       <r>    9.7235    0.0000 </r>
       <r>   10.5957    0.0000 </r>
       <r>   10.7059    0.0000 </r>
       <r>   10.7188    0.0000 </r>
       <r>   10.7768    0.0000 </r>
       <r>   10.9270    0.0000 </r>
       <r>   11.2877    0.0000 </r>
       <r>   11.5707    0.0000 </r>
       <r>   11.5732    0.0000 </r>
       <r>   11.6582    0.0000 </r>
       <r>   11.7073    0.0000 </r>
       <r>   11.8814    0.0000 </r>
       <r>   11.9396    0.0000 </r>
       <r>   12.0271    0.0000 </r>
       <r>   12.0455    0.0000 </r>
       <r>   12.1542    0.0000 </r>
       <r>   12.3401    0.0000 </r>
      </set>
     </set>
    </set>
   </array>
  </eigenvalues>
  <separator name="orbital magnetization" >
   <v name="MAGDIPOLOUT">      0.00000000      0.00000000      0.00000000</v>
  </separator>
  <dos>
   <i name="efermi">      3.12974429 </i>
   <total>
    <array>
     <dimension dim="1">gridpoints</dimension>
     <dimension dim="2">spin</dimension>
     <field>energy</field>
     <field>total</field>
     <field>integrated</field>
     <set>
      <set comment="spin 1">
       <r>   -18.3402     0.0000     0.0000 </r>
       <r>   -18.2330     0.0000     0.0000 </r>
       <r>   -18.1258     0.0000     0.0000 </r>
       <r>   -18.0186     0.0000     0.0000 </r>
       <r>   -17.9114     0.0000     0.0000 </r>
       <r>   -17.8041     0.0000     0.0000 </r>
       <r>   -17.6969     0.0000     0.0000 </r>
       <r>   -17.5897     0.0000     0.0000 </r>
       <r>   -17.4825     0.0000     0.0000 </r>
       <r>   -17.3753     0.0000     0.0000 </r>
       <r>   -17.2681     0.0000     0.0000 </r>
       <r>   -17.1608     0.0000     0.0000 </r>
       <r>   -17.0536     0.0000     0.0000 </r>
       <r>   -16.9464     0.0000     0.0000 </r>
       <r>   -16.8392    68.6090     3.6107 </r>
       <r>   -16.7320     0.0000    12.0000 </r>
       <r>   -16.6248     0.0000    12.0000 </r>
       <r>   -16.5175     0.0000    12.0000 </r>
       <r>   -16.4103     0.0000    12.0000 </r>
       <r>   -16.3031     0.0000    12.0000 </r>
       <r>   -16.1959     0.0000    12.0000 </r>
       <r>   -16.0887     0.0000    12.0000 </r>
       <r>   -15.9815     4.2224    12.1507 </r>
       <r>   -15.8743     4.9792    12.6320 </r>
       <r>   -15.7670    13.2244    13.3434 </r>
       <r>   -15.6598    39.3734    15.2444 </r>
       <r>   -15.5526    23.8651    18.6499 </r>
       <r>   -15.4454     0.0000    20.0000 </r>
       <r>   -15.3382     0.0000    20.0000 </r>
       <r>   -15.2310     0.0000    20.0000 </r>
       <r>   -15.1237    18.2052    20.4934 </r>
       <r>   -15.0165    74.9551    23.8892 </r>
       <r>   -14.9093     0.0000    24.0000 </r>
       <r>   -14.8021    18.9156    24.3156 </r>
       <r>   -14.6949    23.7137    27.0235 </r>
       <r>   -14.5877    17.4990    29.6357 </r>
       <r>   -14.4804    38.8692    31.7872 </r>
       <r>   -14.3732    63.2702    39.1853 </r>
       <r>   -14.2660    27.6645    45.1672 </r>
       <r>   -14.1588     0.0000    48.0000 </r>
       <r>   -14.0516     0.0000    52.0000 </r>
       <r>   -13.9444     0.0000    52.0000 </r>
       <r>   -13.8372     0.0000    52.0000 </r>
       <r>   -13.7299     0.0000    52.0000 </r>
       <r>   -13.6227     0.0000    52.0000 </r>
       <r>   -13.5155     0.0000    52.0000 </r>
       <r>   -13.4083    22.7965    54.0980 </r>
       <r>   -13.3011    42.2922    56.3441 </r>
       <r>   -13.1939     0.0000    60.0000 </r>
       <r>   -13.0866     0.0000    60.0000 </r>
       <r>   -12.9794     0.0000    60.0000 </r>
       <r>   -12.8722     0.0000    60.0000 </r>
       <r>   -12.7650     0.0000    60.0000 </r>
       <r>   -12.6578     0.0000    60.0000 </r>
       <r>   -12.5506     0.0000    60.0000 </r>
       <r>   -12.4433     0.0000    60.0000 </r>
       <r>   -12.3361     0.0000    60.0000 </r>
       <r>   -12.2289     0.0000    60.0000 </r>
       <r>   -12.1217     0.0000    60.0000 </r>
       <r>   -12.0145     0.0000    60.0000 </r>
       <r>   -11.9073     0.0000    60.0000 </r>
       <r>   -11.8001     0.0000    60.0000 </r>
       <r>   -11.6928     0.0000    60.0000 </r>
       <r>   -11.5856     0.0000    60.0000 </r>
       <r>   -11.4784     0.0000    60.0000 </r>
       <r>   -11.3712     0.0000    60.0000 </r>
       <r>   -11.2640     0.0000    60.0000 </r>
       <r>   -11.1568     0.0000    60.0000 </r>
       <r>   -11.0495     0.0000    60.0000 </r>
       <r>   -10.9423     0.0000    60.0000 </r>
       <r>   -10.8351     0.0000    60.0000 </r>
       <r>   -10.7279     0.0000    60.0000 </r>
       <r>   -10.6207     0.0000    60.0000 </r>
       <r>   -10.5135     0.0000    60.0000 </r>
       <r>   -10.4062     0.0000    60.0000 </r>
       <r>   -10.2990     0.0000    60.0000 </r>
       <r>   -10.1918     0.0000    60.0000 </r>
       <r>   -10.0846     0.0000    60.0000 </r>
       <r>    -9.9774     0.0000    60.0000 </r>
       <r>    -9.8702     0.0000    60.0000 </r>
       <r>    -9.7630     0.0000    60.0000 </r>
       <r>    -9.6557     0.0000    60.0000 </r>
       <r>    -9.5485     0.0000    60.0000 </r>
       <r>    -9.4413     0.0000    60.0000 </r>
       <r>    -9.3341     0.0000    60.0000 </r>
       <r>    -9.2269     0.0000    60.0000 </r>
       <r>    -9.1197     0.0000    60.0000 </r>
       <r>    -9.0124     0.0000    60.0000 </r>
       <r>    -8.9052     0.0000    60.0000 </r>
       <r>    -8.7980     0.0000    60.0000 </r>
       <r>    -8.6908     0.0000    60.0000 </r>
       <r>    -8.5836     0.0000    60.0000 </r>
       <r>    -8.4764     0.0000    60.0000 </r>
       <r>    -8.3691     0.0000    60.0000 </r>
       <r>    -8.2619     0.0000    60.0000 </r>
       <r>    -8.1547     0.0000    60.0000 </r>
       <r>    -8.0475     0.0000    60.0000 </r>
       <r>    -7.9403     0.0000    60.0000 </r>
       <r>    -7.8331     0.0000    60.0000 </r>
       <r>    -7.7259     0.0000    60.0000 </r>
       <r>    -7.6186     0.0000    60.0000 </r>
       <r>    -7.5114     0.0000    60.0000 </r>
       <r>    -7.4042     0.0000    60.0000 </r>
       <r>    -7.2970     0.0000    60.0000 </r>
       <r>    -7.1898     0.0000    60.0000 </r>
       <r>    -7.0826     0.0000    60.0000 </r>
       <r>    -6.9753     0.0000    60.0000 </r>
       <r>    -6.8681     0.0000    60.0000 </r>
       <r>    -6.7609     0.0000    60.0000 </r>
       <r>    -6.6537     0.0000    60.0000 </r>
       <r>    -6.5465     0.0000    60.0000 </r>
       <r>    -6.4393     0.0000    60.0000 </r>
       <r>    -6.3320     0.0000    60.0000 </r>
       <r>    -6.2248     0.0000    60.0000 </r>
       <r>    -6.1176     0.0000    60.0000 </r>
       <r>    -6.0104     0.0000    60.0000 </r>
       <r>    -5.9032     0.0000    60.0000 </r>
       <r>    -5.7960     0.0000    60.0000 </r>
       <r>    -5.6888     0.0000    60.0000 </r>
       <r>    -5.5815     0.0000    60.0000 </r>
       <r>    -5.4743     0.0000    60.0000 </r>
       <r>    -5.3671     0.0000    60.0000 </r>
       <r>    -5.2599     0.0000    60.0000 </r>
       <r>    -5.1527     0.0000    60.0000 </r>
       <r>    -5.0455     0.0000    60.0000 </r>
       <r>    -4.9382     0.0000    60.0000 </r>
       <r>    -4.8310     0.0000    60.0000 </r>
       <r>    -4.7238     0.0000    60.0000 </r>
       <r>    -4.6166     0.0000    60.0000 </r>
       <r>    -4.5094     0.0000    60.0000 </r>
       <r>    -4.4022     0.0000    60.0000 </r>
       <r>    -4.2949     0.0000    60.0000 </r>
       <r>    -4.1877     4.6728    60.1781 </r>
       <r>    -4.0805     7.9970    60.8003 </r>
       <r>    -3.9733    12.6873    62.0288 </r>
       <r>    -3.8661    19.8847    63.6611 </r>
       <r>    -3.7589    21.5735    66.0126 </r>
       <r>    -3.6517     9.6670    67.6349 </r>
       <r>    -3.5444     6.2959    68.4315 </r>
       <r>    -3.4372    17.8734    69.4026 </r>
       <r>    -3.3300    20.2930    71.1984 </r>
       <r>    -3.2228     0.0000    72.0000 </r>
       <r>    -3.1156     0.0000    72.0000 </r>
       <r>    -3.0084     0.0000    72.0000 </r>
       <r>    -2.9011    15.8444    72.5931 </r>
       <r>    -2.7939    11.3238    74.1637 </r>
       <r>    -2.6867    10.1315    75.1889 </r>
       <r>    -2.5795     0.0173    76.0000 </r>
       <r>    -2.4723    10.1874    76.5501 </r>
       <r>    -2.3651     8.7212    77.6498 </r>
       <r>    -2.2578    11.3696    78.5222 </r>
       <r>    -2.1506    30.2203    79.9623 </r>
       <r>    -2.0434    24.1951    83.8182 </r>
       <r>    -1.9362    26.8602    87.3899 </r>
       <r>    -1.8290    24.2923    89.7416 </r>
       <r>    -1.7218    12.5460    92.1777 </r>
       <r>    -1.6146     8.4922    93.1965 </r>
       <r>    -1.5073    11.7710    94.2562 </r>
       <r>    -1.4001    28.4068    96.1988 </r>
       <r>    -1.2929    22.4456    99.3376 </r>
       <r>    -1.1857    15.7930   101.5362 </r>
       <r>    -1.0785    13.1091   104.1513 </r>
       <r>    -0.9713    13.2565   105.5663 </r>
       <r>    -0.8640    21.4368   107.9716 </r>
       <r>    -0.7568    13.8945   110.3564 </r>
       <r>    -0.6496     7.4978   111.2116 </r>
       <r>    -0.5424    14.1983   113.1012 </r>
       <r>    -0.4352    23.4632   115.2878 </r>
       <r>    -0.3280    17.0578   117.0807 </r>
       <r>    -0.2207    25.6684   119.1793 </r>
       <r>    -0.1135    23.4505   121.8349 </r>
       <r>    -0.0063    22.8927   124.3209 </r>
       <r>     0.1009    14.4807   126.3877 </r>
       <r>     0.2081    21.9669   129.2958 </r>
       <r>     0.3153    13.8762   130.9845 </r>
       <r>     0.4225    18.1979   134.0366 </r>
       <r>     0.5298    26.3019   137.0911 </r>
       <r>     0.6370    28.7298   139.1720 </r>
       <r>     0.7442    34.6790   142.6434 </r>
       <r>     0.8514    18.6570   144.6825 </r>
       <r>     0.9586    32.6438   148.2748 </r>
       <r>     1.0658    29.6358   152.1161 </r>
       <r>     1.1731    42.4131   155.6069 </r>
       <r>     1.2803    39.0632   160.0737 </r>
       <r>     1.3875    25.2453   163.6328 </r>
       <r>     1.4947    37.5138   167.4342 </r>
       <r>     1.6019    37.6120   171.3825 </r>
       <r>     1.7091    31.5289   174.7021 </r>
       <r>     1.8164    33.7751   177.8192 </r>
       <r>     1.9236    19.9609   180.1447 </r>
       <r>     2.0308    36.8437   184.2242 </r>
       <r>     2.1380    19.5616   186.4380 </r>
       <r>     2.2452    40.6391   189.2308 </r>
       <r>     2.3524    23.7464   191.9229 </r>
       <r>     2.4596    13.4156   193.7914 </r>
       <r>     2.5669    10.7191   195.1462 </r>
       <r>     2.6741     2.1119   195.9891 </r>
       <r>     2.7813    27.4692   198.1983 </r>
       <r>     2.8885     0.0000   200.0000 </r>
       <r>     2.9957    23.5850   201.3184 </r>
       <r>     3.1029     0.0000   204.0000 </r>
       <r>     3.2102     0.0000   204.0000 </r>
       <r>     3.3174     0.0000   204.0000 </r>
       <r>     3.4246     0.0000   204.0000 </r>
       <r>     3.5318     0.0000   204.0000 </r>
       <r>     3.6390     0.0000   204.0000 </r>
       <r>     3.7462     0.0000   204.0000 </r>
       <r>     3.8535     0.0000   204.0000 </r>
       <r>     3.9607     0.0000   204.0000 </r>
       <r>     4.0679     0.0000   204.0000 </r>
       <r>     4.1751     0.0000   204.0000 </r>
       <r>     4.2823     0.0000   204.0000 </r>
       <r>     4.3895     0.0000   204.0000 </r>
       <r>     4.4967     0.0000   204.0000 </r>
       <r>     4.6040     0.0000   204.0000 </r>
       <r>     4.7112     0.0000   204.0000 </r>
       <r>     4.8184     0.0000   204.0000 </r>
       <r>     4.9256     0.0000   204.0000 </r>
       <r>     5.0328     0.0000   204.0000 </r>
       <r>     5.1400     0.0000   204.0000 </r>
       <r>     5.2473     0.0000   204.0000 </r>
       <r>     5.3545     0.0000   204.0000 </r>
       <r>     5.4617     0.0000   204.0000 </r>
       <r>     5.5689     0.0000   204.0000 </r>
       <r>     5.6761     0.0000   204.0000 </r>
       <r>     5.7833     0.0000   204.0000 </r>
       <r>     5.8906     0.0000   204.0000 </r>
       <r>     5.9978     0.0000   204.0000 </r>
       <r>     6.1050     0.0000   204.0000 </r>
       <r>     6.2122     0.0000   204.0000 </r>
       <r>     6.3194     0.0000   204.0000 </r>
       <r>     6.4266     0.0000   204.0000 </r>
       <r>     6.5338     0.0000   204.0000 </r>
       <r>     6.6411     0.0000   204.0000 </r>
       <r>     6.7483     0.0000   204.0000 </r>
       <r>     6.8555     0.0000   204.0000 </r>
       <r>     6.9627     0.0000   204.0000 </r>
       <r>     7.0699     0.0000   204.0000 </r>
       <r>     7.1771     0.0000   204.0000 </r>
       <r>     7.2844     0.0000   204.0000 </r>
       <r>     7.3916     0.0000   204.0000 </r>
       <r>     7.4988     0.0000   204.0000 </r>
       <r>     7.6060     0.0000   204.0000 </r>
       <r>     7.7132     0.0000   204.0000 </r>
       <r>     7.8204     0.4510   204.0292 </r>
       <r>     7.9277     0.4439   204.0762 </r>
       <r>     8.0349     0.4877   204.1261 </r>
       <r>     8.1421     0.5261   204.1807 </r>
       <r>     8.2493     1.0318   204.2906 </r>
       <r>     8.3565     1.1090   204.4053 </r>
       <r>     8.4637     1.1884   204.5288 </r>
       <r>     8.5709     1.2181   204.6577 </r>
       <r>     8.6782     1.2915   204.7923 </r>
       <r>     8.7854     1.4190   204.9360 </r>
       <r>     8.8926     2.2748   205.1455 </r>
       <r>     8.9998     2.6688   205.4069 </r>
       <r>     9.1070     3.6386   205.7402 </r>
       <r>     9.2142     5.4812   206.2068 </r>
       <r>     9.3215    36.3059   208.1281 </r>
       <r>     9.4287    15.1730   211.9861 </r>
       <r>     9.5359    22.1683   213.8753 </r>
       <r>     9.6431    43.2639   216.6436 </r>
       <r>     9.7503    20.6806   219.3682 </r>
       <r>     9.8575    13.8250   220.7988 </r>
       <r>     9.9648     7.3283   221.7709 </r>
       <r>    10.0720    11.0471   222.8193 </r>
       <r>    10.1792     5.7685   223.9513 </r>
       <r>    10.2864     3.1266   224.0683 </r>
       <r>    10.3936     9.9852   224.7366 </r>
       <r>    10.5008    10.2098   226.0932 </r>
       <r>    10.6080    10.7338   226.9725 </r>
       <r>    10.7153    14.7579   228.1926 </r>
       <r>    10.8225    18.0065   230.2612 </r>
       <r>    10.9297    16.2461   231.8891 </r>
       <r>    11.0369    20.3870   233.6609 </r>
       <r>    11.1441    20.1169   235.4597 </r>
       <r>    11.2513    14.1103   236.8357 </r>
       <r>    11.3586    11.4318   238.3888 </r>
       <r>    11.4658     8.2156   239.3353 </r>
       <r>    11.5730    23.5477   241.0995 </r>
       <r>    11.6802    21.5920   243.6888 </r>
       <r>    11.7874    16.6833   245.9773 </r>
       <r>    11.8946    17.5411   248.1101 </r>
       <r>    12.0019    22.9432   250.2657 </r>
       <r>    12.1091    18.7343   252.5278 </r>
       <r>    12.2163    13.7382   254.4096 </r>
       <r>    12.3235     8.1065   255.8555 </r>
       <r>    12.4307     0.0000   256.0000 </r>
       <r>    12.5379     0.0000   256.0000 </r>
       <r>    12.6451     0.0000   256.0000 </r>
       <r>    12.7524     0.0000   256.0000 </r>
       <r>    12.8596     0.0000   256.0000 </r>
       <r>    12.9668     0.0000   256.0000 </r>
       <r>    13.0740     0.0000   256.0000 </r>
       <r>    13.1812     0.0000   256.0000 </r>
       <r>    13.2884     0.0000   256.0000 </r>
       <r>    13.3957     0.0000   256.0000 </r>
       <r>    13.5029     0.0000   256.0000 </r>
       <r>    13.6101     0.0000   256.0000 </r>
       <r>    13.7173     0.0000   256.0000 </r>
       <r>    13.8245     0.0000   256.0000 </r>
      </set>
     </set>
    </array>
   </total>
  </dos>
 </calculation>
 <structure name="finalpos" >
  <crystal>
   <varray name="basis" >
    <v>      -2.56019425      -4.46063878       0.27487364 </v>
    <v>      -2.56019425       4.46063878       0.27487364 </v>
    <v>      -0.17629625       0.00000000     -19.39626683 </v>
   </varray>
   <i name="volume">    443.44699924 </i>
   <varray name="rec_basis" >
    <v>      -0.19510728      -0.11209157       0.00177337 </v>
    <v>      -0.19510728       0.11209157       0.00177337 </v>
    <v>      -0.00552991      -0.00000000      -0.05150605 </v>
   </varray>
  </crystal>
  <varray name="positions" >
   <v>       0.90565794       0.09454665       0.74915538 </v>
   <v>       0.09454665       0.90565794       0.24915538 </v>
   <v>       0.53322514       0.39310001       0.64067324 </v>
   <v>       0.39310001       0.53322514       0.14067324 </v>
   <v>       0.83168923       0.66659457       0.49906399 </v>
   <v>       0.66659457       0.83168923       0.99906399 </v>
   <v>       0.16547733       0.33421807       0.49917966 </v>
   <v>       0.33421807       0.16547733       0.99917966 </v>
   <v>       0.80677431       0.29055122       0.35753526 </v>
   <v>       0.29055122       0.80677431       0.85753526 </v>
   <v>       0.19413556       0.71258646       0.64400795 </v>
   <v>       0.71258646       0.19413556       0.14400795 </v>
   <v>       0.46364195       0.60775551       0.35419717 </v>
   <v>       0.60775551       0.46364195       0.85419717 </v>
   <v>       0.70630189       0.02348583       0.55983981 </v>
   <v>       0.02348583       0.70630189       0.05983981 </v>
   <v>       0.29235467       0.97956038       0.43867221 </v>
   <v>       0.97956038       0.29235467       0.93867221 </v>
   <v>       0.89456660       0.68197076       0.67869209 </v>
   <v>       0.68197076       0.89456660       0.17869209 </v>
   <v>       0.51474825       0.41017862       0.55150884 </v>
   <v>       0.41017862       0.51474825       0.05150884 </v>
   <v>       0.13248232       0.33476279       0.31922290 </v>
   <v>       0.33476279       0.13248232       0.81922290 </v>
   <v>       0.13693859       0.64751297       0.55958651 </v>
   <v>       0.64751297       0.13693859       0.05958651 </v>
   <v>       0.11000258       0.98337874       0.44746427 </v>
   <v>       0.98337874       0.11000258       0.94746427 </v>
   <v>       0.26233066       0.46214216       0.67777081 </v>
   <v>       0.46214216       0.26233066       0.17777081 </v>
   <v>       0.48401660       0.60271082       0.43859782 </v>
   <v>       0.60271082       0.48401660       0.93859782 </v>
   <v>       0.72308821       0.55463279       0.32073029 </v>
   <v>       0.55463279       0.72308821       0.82073029 </v>
   <v>       0.87318689       0.37123933       0.44674653 </v>
   <v>       0.37123933       0.87318689       0.94674653 </v>
   <v>       0.48746829       0.04854451       0.66800858 </v>
   <v>       0.04854451       0.48746829       0.16800858 </v>
   <v>       0.88901982       0.02089507       0.55077874 </v>
   <v>       0.02089507       0.88901982       0.05077874 </v>
   <v>       0.49779462       0.92613128       0.33016795 </v>
   <v>       0.92613128       0.49779462       0.83016795 </v>
  </varray>
 </structure>
</modeling>
