 vasp.6.2.1 16May21 (build Jul 28 2021 23:24:15) complex                        
  
 executed on      IFC19_CrayMPICH date 2021.11.24  21:56:07
 running   64 mpi-ranks, with    1 threads/rank
 distrk:  each k-point on   64 cores,    1 groups
 distr:  one band on NCORE=   1 cores,   64 groups


--------------------------------------------------------------------------------------------------------


 INCAR:
   ALGO = All
   EDIFF = 1e-05
   EDIFFG = -0.05
   ENCUT = 400
   GGA = Pe
   IBRION = 2
   ISIF = 2
   ISMEAR = 0
   ISYM = 0
   IVDW = 12
   LASPH = False
   LCHARG = False
   LORBIT = 11
   LREAL = False
   NELM = 150
   NELMIN = 3
   NSW = 300
   PREC = Accurate
   SIGMA = 0.01
   SYMPREC = 1e-05

 POTCAR:    PAW_PBE Cu 22Jun2005                  
 POTCAR:    PAW_PBE Cu 22Jun2005                  
   VRHFIN =Cu: d10 p1                                                                               
   LEXCH  = PE                                                                                      
   EATOM  =  1390.9808 eV,  102.2342 Ry                                                             
                                                                                                    
   TITEL  = PAW_PBE Cu 22Jun2005                                                                    
   LULTRA =        F    use ultrasoft PP ?                                                          
   IUNSCR =        1    unscreen: 0-lin 1-nonlin 2-no                                               
   RPACOR =    2.000    partial core radius                                                         
   POMASS =   63.546; ZVAL   =   11.000    mass and valenz                                          
   RCORE  =    2.300    outmost cutoff radius                                                       
   RWIGS  =    2.200; RWIGS  =    1.164    wigner-seitz radius (au A)                               
   ENMAX  =  295.446; ENMIN  =  221.585 eV                                                          
   ICORE  =        3    local potential                                                             
   LCOR   =        T    correct aug charges                                                         
   LPAW   =        T    paw PP                                                                      
   EAUG   =  586.980                                                                                
   DEXC   =    0.000                                                                                
   RMAX   =    2.344    core radius for proj-oper                                                   
   RAUG   =    1.300    factor for augmentation sphere                                              
   RDEP   =    2.302    radius for radial grids                                                     
   RDEPT  =    1.771    core radius for aug-charge                                                  
                                                                                                    
   Atomic configuration                                                                             
    9 entries                                                                                       
     n  l   j            E        occ.                                                              
     1  0  0.50     -8850.2468   2.0000                                                             
     2  0  0.50     -1062.3498   2.0000                                                             
     2  1  1.50      -916.8226   6.0000                                                             
     3  0  0.50      -114.6929   2.0000                                                             
     3  1  1.50       -72.1325   6.0000                                                             
     3  2  2.50        -5.0394  10.0000                                                             
     4  0  0.50        -4.6097   1.0000                                                             
     4  1  0.50        -4.0817   0.0000                                                             
     4  3  2.50        -1.3606   0.0000                                                             
   Description                                                                                      
     l       E           TYP  RCUT    TYP  RCUT                                                     
     2     -5.0393973     23  2.200                                                                 
     2     10.8846608     23  2.200                                                                 
     0     -4.6097109     23  2.200                                                                 
     0      8.2520465     23  2.200                                                                 
     1     -2.7211652     23  2.200                                                                 
     1     21.7055443     23  2.200                                                                 
     3      2.7211652     23  2.300                                                                 
  local pseudopotential read in
  partial core-charges read in
  partial kinetic energy density read in
  atomic valenz-charges read in
  non local Contribution for L=           2  read in
    real space projection operators read in
  non local Contribution for L=           2  read in
    real space projection operators read in
  non local Contribution for L=           0  read in
    real space projection operators read in
  non local Contribution for L=           0  read in
    real space projection operators read in
  non local Contribution for L=           1  read in
    real space projection operators read in
  non local Contribution for L=           1  read in
    real space projection operators read in
    PAW grid and wavefunctions read in
 
   number of l-projection  operators is LMAX  =           6
   number of lm-projection operators is LMMAX =          18
 
  PAW_PBE Cu 22Jun2005                  :
 energy of atom  1       EATOM=-1390.9808
 kinetic energy error for atom=    0.0232 (will be added to EATOM!!)
 
 
 POSCAR: Cu1
  positions in direct lattice
  No initial velocities read in
 exchange correlation table for  LEXCH =        8
   RHO(1)=    0.500       N(1)  =     2000
   RHO(2)=  100.500       N(2)  =     4000
 


--------------------------------------------------------------------------------------------------------


 ion  position               nearest neighbor table
   1  0.000  0.000  0.000-
 

IMPORTANT INFORMATION: All symmetrisations will be switched off!
NOSYMM: (Re-)initialisation of all symmetry stuff for point group C_1.


----------------------------------------------------------------------------------------

                                     Primitive cell                                     

  volume of cell :      11.8719

  direct lattice vectors                    reciprocal lattice vectors
     2.217561000  0.000000000  1.280309000     0.450945882 -0.159433412  0.000000000
     0.739187000  2.090737000  1.280309000     0.000000000  0.478300236  0.000000000
     0.000000000  0.000000000  2.560619000    -0.225472853 -0.159433350  0.390530571

  length of vectors
     2.560618660  2.560619019  2.560619000     0.478300325  0.478300236  0.478300248

  position of ions in fractional coordinates (direct lattice)
     0.000000000  0.000000000  0.000000000

  ion indices of the primitive-cell ions
   primitive index   ion index
                 1           1

----------------------------------------------------------------------------------------

 
 
 KPOINTS: pymatgen with grid density = 500 / numbe

Automatic generation of k-mesh.
 Grid dimensions read from file:
 generate k-points for:    7    7    7

 Generating k-lattice:

  Cartesian coordinates                     Fractional coordinates (reciprocal lattice)
     0.064420840 -0.022776202  0.000000000     0.142857143  0.000000000  0.000000000
     0.000000000  0.068328605  0.000000000     0.000000000  0.142857143  0.000000000
    -0.032210408 -0.022776193  0.055790082    -0.000000000 -0.000000000  0.142857143

  Length of vectors
     0.068328618  0.068328605  0.068328607

  Shift w.r.t. Gamma in fractional coordinates (k-lattice)
     0.000000000  0.000000000  0.000000000

 
 Subroutine IBZKPT returns following result:
 ===========================================
 
 Found    172 irreducible k-points:
 
 Following reciprocal coordinates:
            Coordinates               Weight
  0.000000  0.000000  0.000000      1.000000
  0.142857 -0.000000  0.000000      2.000000
  0.000000  0.142857  0.000000      2.000000
 -0.000000  0.000000  0.142857      2.000000
  0.142857  0.142857  0.142857      2.000000
  0.285714 -0.000000  0.000000      2.000000
  0.000000  0.285714  0.000000      2.000000
 -0.000000 -0.000000  0.285714      2.000000
  0.285714  0.285714  0.285714      2.000000
  0.428571 -0.000000  0.000000      2.000000
  0.000000  0.428571  0.000000      2.000000
  0.000000  0.000000  0.428571      2.000000
  0.428571  0.428571  0.428571      2.000000
  0.142857  0.142857  0.000000      2.000000
 -0.000000  0.142857  0.142857      2.000000
  0.142857 -0.000000  0.142857      2.000000
  0.285714  0.142857  0.000000      2.000000
 -0.000000  0.285714  0.142857      2.000000
  0.142857 -0.000000  0.285714      2.000000
  0.142857  0.142857 -0.142857      2.000000
  0.285714  0.142857  0.285714      2.000000
  0.142857  0.285714  0.000000      2.000000
  0.142857 -0.142857 -0.142857      2.000000
  0.285714  0.285714  0.142857      2.000000
 -0.000000  0.142857  0.285714      2.000000
 -0.142857  0.142857 -0.142857      2.000000
  0.142857  0.285714  0.285714      2.000000
  0.285714 -0.000000  0.142857      2.000000
  0.428571  0.142857  0.000000      2.000000
 -0.000000  0.428571  0.142857      2.000000
  0.142857  0.000000  0.428571      2.000000
  0.142857  0.142857 -0.285714      2.000000
  0.428571  0.285714  0.428571      2.000000
  0.142857  0.428571  0.000000      2.000000
  0.285714 -0.142857 -0.142857      2.000000
  0.428571  0.428571  0.285714      2.000000
  0.000000  0.142857  0.428571      2.000000
 -0.142857  0.285714 -0.142857      2.000000
  0.285714  0.428571  0.428571      2.000000
  0.428571  0.000000  0.142857      2.000000
 -0.428571  0.142857  0.000000      2.000000
 -0.000000 -0.428571  0.142857      2.000000
  0.142857 -0.000000 -0.428571      2.000000
  0.142857  0.142857 -0.428571      2.000000
 -0.428571  0.428571 -0.428571      2.000000
  0.142857 -0.428571  0.000000      2.000000
  0.428571 -0.142857 -0.142857      2.000000
 -0.428571 -0.428571  0.428571      2.000000
 -0.000000  0.142857 -0.428571      2.000000
 -0.142857  0.428571 -0.142857      2.000000
  0.428571 -0.428571 -0.428571      2.000000
 -0.428571 -0.000000  0.142857      2.000000
 -0.285714  0.142857  0.000000      2.000000
 -0.000000 -0.285714  0.142857      2.000000
  0.142857 -0.000000 -0.285714      2.000000
  0.142857  0.142857  0.428571      2.000000
 -0.285714 -0.428571 -0.285714      2.000000
  0.142857 -0.285714  0.000000      2.000000
 -0.428571 -0.142857 -0.142857      2.000000
 -0.285714 -0.285714 -0.428571      2.000000
  0.000000  0.142857 -0.285714      2.000000
 -0.142857 -0.428571 -0.142857      2.000000
 -0.428571 -0.285714 -0.285714      2.000000
 -0.285714  0.000000  0.142857      2.000000
 -0.142857  0.142857  0.000000      2.000000
 -0.000000 -0.142857  0.142857      2.000000
  0.142857 -0.000000 -0.142857      2.000000
  0.142857  0.142857  0.285714      2.000000
 -0.142857 -0.285714 -0.142857      2.000000
 -0.285714 -0.142857 -0.142857      2.000000
  0.285714  0.285714  0.000000      2.000000
 -0.000000  0.285714  0.285714      2.000000
  0.285714 -0.000000  0.285714      2.000000
  0.428571  0.285714  0.000000      2.000000
 -0.000000  0.428571  0.285714      2.000000
  0.285714 -0.000000  0.428571      2.000000
  0.285714  0.285714 -0.142857      2.000000
  0.428571  0.142857  0.428571      2.000000
  0.285714  0.428571  0.000000      2.000000
  0.142857 -0.285714 -0.285714      2.000000
  0.428571  0.428571  0.142857      2.000000
  0.000000  0.285714  0.428571      2.000000
 -0.285714  0.142857 -0.285714      2.000000
  0.142857  0.428571  0.428571      2.000000
  0.428571 -0.000000  0.285714      2.000000
 -0.428571  0.285714  0.000000      2.000000
 -0.000000 -0.428571  0.285714      2.000000
  0.285714 -0.000000 -0.428571      2.000000
  0.285714  0.285714 -0.285714      2.000000
 -0.428571  0.285714 -0.428571      2.000000
  0.285714 -0.428571  0.000000      2.000000
  0.285714 -0.285714 -0.285714      2.000000
 -0.428571 -0.428571  0.285714      2.000000
 -0.000000  0.285714 -0.428571      2.000000
 -0.285714  0.285714 -0.285714      2.000000
  0.285714 -0.428571 -0.428571      2.000000
 -0.428571  0.000000  0.285714      2.000000
 -0.285714  0.285714  0.000000      2.000000
 -0.000000 -0.285714  0.285714      2.000000
  0.285714 -0.000000 -0.285714      2.000000
  0.285714  0.285714 -0.428571      2.000000
 -0.285714  0.428571 -0.285714      2.000000
  0.428571 -0.285714 -0.285714      2.000000
  0.428571  0.428571  0.000000      2.000000
  0.000000  0.428571  0.428571      2.000000
  0.428571 -0.000000  0.428571      2.000000
 -0.428571  0.428571  0.000000      2.000000
  0.000000 -0.428571  0.428571      2.000000
  0.428571  0.000000 -0.428571      2.000000
  0.428571  0.428571 -0.142857      2.000000
 -0.428571  0.142857 -0.428571      2.000000
  0.142857 -0.428571 -0.428571      2.000000
  0.428571  0.285714  0.142857      2.000000
  0.142857  0.428571  0.285714      2.000000
  0.285714  0.142857  0.428571      2.000000
  0.285714  0.142857 -0.142857      2.000000
  0.428571  0.142857  0.285714      2.000000
  0.142857 -0.285714 -0.142857      2.000000
  0.142857  0.285714 -0.142857      2.000000
  0.142857 -0.142857 -0.285714      2.000000
  0.285714  0.428571  0.142857      2.000000
 -0.142857  0.142857 -0.285714      2.000000
 -0.285714  0.142857 -0.142857      2.000000
  0.142857  0.285714  0.428571      2.000000
 -0.428571  0.285714  0.142857      2.000000
  0.142857 -0.428571  0.285714      2.000000
  0.285714  0.142857 -0.428571      2.000000
  0.285714  0.142857 -0.285714      2.000000
 -0.428571  0.285714  0.428571      2.000000
  0.142857 -0.428571 -0.142857      2.000000
  0.142857  0.428571 -0.142857      2.000000
  0.285714 -0.142857 -0.285714      2.000000
 -0.428571 -0.285714  0.428571      2.000000
  0.428571 -0.428571  0.285714      2.000000
 -0.142857  0.142857 -0.428571      2.000000
 -0.285714  0.285714  0.142857      2.000000
 -0.142857  0.142857  0.428571      2.000000
 -0.285714  0.285714 -0.142857      2.000000
  0.428571 -0.428571 -0.285714      2.000000
  0.285714  0.428571 -0.428571      2.000000
 -0.428571 -0.142857  0.142857      2.000000
  0.142857 -0.285714  0.285714      2.000000
  0.428571 -0.142857  0.142857      2.000000
 -0.142857 -0.285714  0.285714      2.000000
 -0.285714  0.428571 -0.428571      2.000000
  0.428571 -0.142857 -0.285714      2.000000
 -0.285714  0.428571 -0.142857      2.000000
 -0.142857 -0.285714  0.428571      2.000000
 -0.428571  0.428571  0.142857      2.000000
  0.142857 -0.428571  0.428571      2.000000
  0.428571  0.142857 -0.428571      2.000000
  0.428571  0.285714 -0.142857      2.000000
 -0.428571  0.142857  0.428571      2.000000
  0.142857 -0.428571 -0.285714      2.000000
  0.285714  0.428571 -0.142857      2.000000
  0.142857 -0.285714 -0.428571      2.000000
  0.428571 -0.428571  0.142857      2.000000
 -0.285714  0.142857 -0.428571      2.000000
 -0.428571  0.142857 -0.285714      2.000000
  0.142857  0.428571 -0.428571      2.000000
 -0.285714  0.428571  0.142857      2.000000
  0.142857 -0.285714  0.428571      2.000000
  0.428571  0.142857 -0.285714      2.000000
  0.428571  0.285714 -0.285714      2.000000
 -0.285714  0.285714 -0.428571      2.000000
  0.142857  0.428571 -0.285714      2.000000
  0.285714 -0.285714 -0.428571      2.000000
  0.428571 -0.285714  0.285714      2.000000
 -0.285714  0.142857  0.428571      2.000000
 -0.285714  0.428571  0.285714      2.000000
  0.285714  0.428571 -0.285714      2.000000
  0.428571 -0.285714  0.142857      2.000000
 
 Following cartesian coordinates:
            Coordinates               Weight
  0.000000  0.000000  0.000000      1.000000
  0.064421 -0.022776  0.000000      2.000000
  0.000000  0.068329  0.000000      2.000000
 -0.032210 -0.022776  0.055790      2.000000
  0.032210  0.022776  0.055790      2.000000
  0.128842 -0.045552  0.000000      2.000000
  0.000000  0.136657  0.000000      2.000000
 -0.064421 -0.045552  0.111580      2.000000
  0.064421  0.045552  0.111580      2.000000
  0.193263 -0.068329  0.000000      2.000000
  0.000000  0.204986  0.000000      2.000000
 -0.096631 -0.068329  0.167370      2.000000
  0.096631  0.068329  0.167370      2.000000
  0.064421  0.045552  0.000000      2.000000
 -0.032210  0.045552  0.055790      2.000000
  0.032210 -0.045552  0.055790      2.000000
  0.128842  0.022776  0.000000      2.000000
 -0.032210  0.113881  0.055790      2.000000
  0.000000 -0.068329  0.111580      2.000000
  0.096631  0.068329 -0.055790      2.000000
  0.064421 -0.022776  0.111580      2.000000
  0.064421  0.113881  0.000000      2.000000
  0.096631 -0.068329 -0.055790      2.000000
  0.096631  0.068329  0.055790      2.000000
 -0.064421  0.022776  0.111580      2.000000
 -0.032210  0.113881 -0.055790      2.000000
  0.000000  0.068329  0.111580      2.000000
  0.096631 -0.068329  0.055790      2.000000
  0.193263  0.000000  0.000000      2.000000
 -0.032210  0.182210  0.055790      2.000000
 -0.032210 -0.091105  0.167370      2.000000
  0.128842  0.091105 -0.111580      2.000000
  0.096631  0.000000  0.167370      2.000000
  0.064421  0.182210  0.000000      2.000000
  0.161052 -0.091105 -0.055790      2.000000
  0.128842  0.091105  0.111580      2.000000
 -0.096631  0.000000  0.167370      2.000000
 -0.032210  0.182210 -0.055790      2.000000
  0.032210  0.091105  0.167370      2.000000
  0.161052 -0.091105  0.055790      2.000000
 -0.193263  0.136657  0.000000      2.000000
 -0.032210 -0.227762  0.055790      2.000000
  0.161052  0.045552 -0.167370      2.000000
  0.161052  0.113881 -0.167370      2.000000
 -0.096631  0.341643 -0.167370      2.000000
  0.064421 -0.227762  0.000000      2.000000
  0.225473 -0.113881 -0.055790      2.000000
 -0.289894 -0.204986  0.167370      2.000000
  0.096631  0.136657 -0.167370      2.000000
 -0.032210  0.250538 -0.055790      2.000000
  0.289894 -0.204986 -0.167370      2.000000
 -0.225473  0.045552  0.055790      2.000000
 -0.128842  0.113881  0.000000      2.000000
 -0.032210 -0.159433  0.055790      2.000000
  0.128842  0.022776 -0.111580      2.000000
 -0.032210 -0.022776  0.167370      2.000000
 -0.064421 -0.113881 -0.111580      2.000000
  0.064421 -0.159433  0.000000      2.000000
 -0.161052  0.022776 -0.055790      2.000000
 -0.032210 -0.022776 -0.167370      2.000000
  0.064421  0.113881 -0.111580      2.000000
 -0.032210 -0.159433 -0.055790      2.000000
 -0.128842 -0.022776 -0.111580      2.000000
 -0.161052  0.022776  0.055790      2.000000
 -0.064421  0.091105  0.000000      2.000000
 -0.032210 -0.091105  0.055790      2.000000
  0.096631 -0.000000 -0.055790      2.000000
  0.000000  0.000000  0.111580      2.000000
 -0.032210 -0.091105 -0.055790      2.000000
 -0.096631 -0.000000 -0.055790      2.000000
  0.128842  0.091105  0.000000      2.000000
 -0.064421  0.091105  0.111580      2.000000
  0.064421 -0.091105  0.111580      2.000000
  0.193263  0.068329  0.000000      2.000000
 -0.064421  0.159433  0.111580      2.000000
  0.032210 -0.113881  0.167370      2.000000
  0.161052  0.113881 -0.055790      2.000000
  0.096631 -0.068329  0.167370      2.000000
  0.128842  0.159433  0.000000      2.000000
  0.128842 -0.113881 -0.111580      2.000000
  0.161052  0.113881  0.055790      2.000000
 -0.096631  0.068329  0.167370      2.000000
 -0.064421  0.159433 -0.111580      2.000000
 -0.032210  0.113881  0.167370      2.000000
  0.128842 -0.113881  0.111580      2.000000
 -0.193263  0.204986  0.000000      2.000000
 -0.064421 -0.250538  0.111580      2.000000
  0.225473  0.022776 -0.167370      2.000000
  0.193262  0.136657 -0.111580      2.000000
 -0.096631  0.273314 -0.167370      2.000000
  0.128842 -0.250538  0.000000      2.000000
  0.193262 -0.136657 -0.111580      2.000000
 -0.257683 -0.182210  0.111580      2.000000
  0.096631  0.204986 -0.167370      2.000000
 -0.064421  0.227762 -0.111580      2.000000
  0.225473 -0.182210 -0.167370      2.000000
 -0.257683  0.022776  0.111580      2.000000
 -0.128842  0.182210  0.000000      2.000000
 -0.064421 -0.182210  0.111580      2.000000
  0.193262 -0.000000 -0.111580      2.000000
  0.225473  0.159433 -0.167370      2.000000
 -0.064421  0.296091 -0.111580      2.000000
  0.257683 -0.159433 -0.111580      2.000000
  0.193263  0.136657  0.000000      2.000000
 -0.096631  0.136657  0.167370      2.000000
  0.096631 -0.136657  0.167370      2.000000
 -0.193263  0.273314  0.000000      2.000000
 -0.096631 -0.273314  0.167370      2.000000
  0.289894 -0.000000 -0.167370      2.000000
  0.225473  0.159433 -0.055790      2.000000
 -0.096631  0.204986 -0.167370      2.000000
  0.161052 -0.159433 -0.167370      2.000000
  0.161052  0.045552  0.055790      2.000000
  0.000000  0.136657  0.111580      2.000000
  0.032210 -0.045552  0.167370      2.000000
  0.161052  0.045552 -0.055790      2.000000
  0.128842 -0.045552  0.111580      2.000000
  0.096631 -0.136657 -0.055790      2.000000
  0.096631  0.136657 -0.055790      2.000000
  0.128842 -0.045552 -0.111580      2.000000
  0.096631  0.136657  0.055790      2.000000
 -0.000000  0.136657 -0.111580      2.000000
 -0.096631  0.136657 -0.055790      2.000000
 -0.032210  0.045552  0.167370      2.000000
 -0.225473  0.182210  0.055790      2.000000
  0.000000 -0.273314  0.111580      2.000000
  0.225473  0.091105 -0.167370      2.000000
  0.193262  0.068329 -0.111580      2.000000
 -0.289894  0.136657  0.167370      2.000000
  0.096631 -0.204986 -0.055790      2.000000
  0.096631  0.204986 -0.055790      2.000000
  0.193262 -0.068329 -0.111580      2.000000
 -0.289894 -0.136657  0.167370      2.000000
  0.128842 -0.318867  0.111580      2.000000
  0.032210  0.159433 -0.167370      2.000000
 -0.161052  0.159433  0.055790      2.000000
 -0.161052  0.022776  0.167370      2.000000
 -0.096631  0.204986 -0.055790      2.000000
  0.257683 -0.227762 -0.111580      2.000000
  0.225473  0.227762 -0.167370      2.000000
 -0.225473 -0.022776  0.055790      2.000000
  0.000000 -0.204986  0.111580      2.000000
  0.161052 -0.159433  0.055790      2.000000
 -0.128842 -0.159433  0.111580      2.000000
 -0.032210  0.318867 -0.167370      2.000000
  0.257683 -0.091105 -0.111580      2.000000
 -0.096631  0.273314 -0.055790      2.000000
 -0.161052 -0.182210  0.167370      2.000000
 -0.225473  0.250538  0.055790      2.000000
 -0.032210 -0.296091  0.167370      2.000000
  0.289894  0.068329 -0.167370      2.000000
  0.225473  0.091105 -0.055790      2.000000
 -0.289894  0.068329  0.167370      2.000000
  0.128842 -0.182210 -0.111580      2.000000
  0.161052  0.182210 -0.055790      2.000000
  0.161052 -0.091105 -0.167370      2.000000
  0.161052 -0.296091  0.055790      2.000000
 -0.032210  0.182210 -0.167370      2.000000
 -0.128842  0.182210 -0.111580      2.000000
  0.161052  0.250538 -0.167370      2.000000
 -0.161052  0.227762  0.055790      2.000000
 -0.032210 -0.227762  0.167370      2.000000
  0.257683  0.045552 -0.111580      2.000000
  0.257683  0.113881 -0.111580      2.000000
 -0.032210  0.250538 -0.167370      2.000000
  0.128842  0.227762 -0.111580      2.000000
  0.225473 -0.113881 -0.167370      2.000000
  0.128842 -0.250538  0.111580      2.000000
 -0.225473  0.045552  0.167370      2.000000
 -0.193262  0.204986  0.111580      2.000000
  0.193262  0.204986 -0.111580      2.000000
  0.161052 -0.227762  0.055790      2.000000
 


--------------------------------------------------------------------------------------------------------




 Dimension of arrays:
   k-points           NKPTS =    172   k-points in BZ     NKDIM =    172   number of bands    NBANDS=     64
   number of dos      NEDOS =    301   number of ions     NIONS =      1
   non local maximal  LDIM  =      6   non local SUM 2l+1 LMDIM =     18
   total plane-waves  NPLWV =   5832
   max r-space proj   IRMAX =      1   max aug-charges    IRDMAX=  14427
   dimension x,y,z NGX =    18 NGY =   18 NGZ =   18
   dimension x,y,z NGXF=    36 NGYF=   36 NGZF=   36
   support grid    NGXF=    36 NGYF=   36 NGZF=   36
   ions per type =               1
   NGX,Y,Z   is equivalent  to a cutoff of  11.69, 11.69, 11.69 a.u.
   NGXF,Y,Z  is equivalent  to a cutoff of  23.37, 23.37, 23.37 a.u.

 SYSTEM =  unknown system                          
 POSCAR =  Cu1                                     

 Startparameter for this run:
   NWRITE =      2    write-flag & timer
   PREC   = accura    normal or accurate (medium, high low for compatibility)
   ISTART =      0    job   : 0-new  1-cont  2-samecut
   ICHARG =      2    charge: 1-file 2-atom 10-const
   ISPIN  =      1    spin polarized calculation?
   LNONCOLLINEAR =      F non collinear calculations
   LSORBIT =      F    spin-orbit coupling
   INIWAV =      1    electr: 0-lowe 1-rand  2-diag
   LASPH  =      F    aspherical Exc in radial PAW
 Electronic Relaxation 1
   ENCUT  =  400.0 eV  29.40 Ry    5.42 a.u.   4.18  4.18  4.18*2*pi/ulx,y,z
   ENINI  =  400.0     initial cutoff
   ENAUG  =  587.0 eV  augmentation charge cutoff
   NELM   =    150;   NELMIN=  3; NELMDL= -5     # of ELM steps 
   EDIFF  = 0.1E-04   stopping-criterion for ELM
   LREAL  =      F    real-space projection
   NLSPLINE    = F    spline interpolate recip. space projectors
   LCOMPAT=      F    compatible to vasp.4.4
   GGA_COMPAT  = T    GGA compatible to vasp.4.4-vasp.4.6
   LMAXPAW     = -100 max onsite density
   LMAXMIX     =    2 max onsite mixed and CHGCAR
   VOSKOWN=      0    Vosko Wilk Nusair interpolation
   ROPT   =    0.00000
 Ionic relaxation
   EDIFFG = -.5E-01   stopping-criterion for IOM
   NSW    =    300    number of steps for IOM
   NBLOCK =      1;   KBLOCK =    300    inner block; outer block 
   IBRION =      2    ionic relax: 0-MD 1-quasi-New 2-CG
   NFREE  =      1    steps in history (QN), initial steepest desc. (CG)
   ISIF   =      2    stress and relaxation
   IWAVPR =     11    prediction:  0-non 1-charg 2-wave 3-comb
   ISYM   =      0    0-nonsym 1-usesym 2-fastsym
   LCORR  =      T    Harris-Foulkes like correction to forces

   POTIM  = 0.5000    time-step for ionic-motion
   TEIN   =    0.0    initial temperature
   TEBEG  =    0.0;   TEEND  =   0.0 temperature during run
   SMASS  =  -3.00    Nose mass-parameter (am)
   estimated Nose-frequenzy (Omega)   =  0.10E-29 period in steps = 0.13E+47 mass=  -0.150E-27a.u.
   SCALEE = 1.0000    scale energy and forces
   NPACO  =    256;   APACO  = 16.0  distance and # of slots for P.C.
   PSTRESS=    0.0 pullay stress

  Mass of Ions in am
   POMASS =  63.55
  Ionic Valenz
   ZVAL   =  11.00
  Atomic Wigner-Seitz radii
   RWIGS  =  -1.00
  virtual crystal weights 
   VCA    =   1.00
   NELECT =      11.0000    total number of electrons
   NUPDOWN=      -1.0000    fix difference up-down

 DOS related values:
   EMIN   =  10.00;   EMAX   =-10.00  energy-range for DOS
   EFERMI =   0.00
   ISMEAR =     0;   SIGMA  =   0.01  broadening in eV -4-tet -1-fermi 0-gaus

 Electronic relaxation 2 (details)
   IALGO  =     58    algorithm
   LDIAG  =      T    sub-space diagonalisation (order eigenvalues)
   LSUBROT=      F    optimize rotation matrix (better conditioning)
   TURBO    =      0    0=normal 1=particle mesh
   IRESTART =      0    0=no restart 2=restart with 2 vectors
   NREBOOT  =      0    no. of reboots
   NMIN     =      0    reboot dimension
   EREF     =   0.00    reference energy to select bands
   IMIX   =      4    mixing-type and parameters
     AMIX     =   0.40;   BMIX     =  1.00
     AMIX_MAG =   1.60;   BMIX_MAG =  1.00
     AMIN     =   0.10
     WC   =   100.;   INIMIX=   1;  MIXPRE=   1;  MAXMIX= -45

 Intra band minimization:
   WEIMIN = 0.0010     energy-eigenvalue tresh-hold
   EBREAK =  0.39E-07  absolut break condition
   DEPER  =   0.30     relativ break condition  

   TIME   =   0.40     timestep for ELM

  volume/ion in A,a.u.               =      11.87        80.12
  Fermi-wavevector in a.u.,A,eV,Ry     =   1.595998  3.015999 34.656902  2.547210
  Thomas-Fermi vector in A             =   2.693829
 
 Write flags
   LWAVE        =      T    write WAVECAR
   LDOWNSAMPLE  =      F    k-point downsampling of WAVECAR
   LCHARG       =      F    write CHGCAR
   LVTOT        =      F    write LOCPOT, total local potential
   LVHAR        =      F    write LOCPOT, Hartree potential only
   LELF         =      F    write electronic localiz. function (ELF)
   LORBIT       =     11    0 simple, 1 ext, 2 COOP (PROOUT), +10 PAW based schemes


 Dipole corrections
   LMONO  =      F    monopole corrections only (constant potential shift)
   LDIPOL =      F    correct potential (dipole corrections)
   IDIPOL =      0    1-x, 2-y, 3-z, 4-all directions 
   EPSILON=  1.0000000 bulk dielectric constant

 Exchange correlation treatment:
   GGA     =    PE    GGA type
   LEXCH   =     8    internal setting for exchange type
   VOSKOWN=      0    Vosko Wilk Nusair interpolation
   LHFCALC =     F    Hartree Fock is set to
   LHFONE  =     F    Hartree Fock one center treatment
   AEXX    =    0.0000 exact exchange contribution

 Linear response parameters
   LEPSILON=     F    determine dielectric tensor
   LRPA    =     F    only Hartree local field effects (RPA)
   LNABLA  =     F    use nabla operator in PAW spheres
   LVEL    =     F    velocity operator in full k-point grid
   LINTERFAST=   F  fast interpolation
   KINTER  =     0    interpolate to denser k-point grid
   CSHIFT  =0.1000    complex shift for real part using Kramers Kronig
   OMEGAMAX=  -1.0    maximum frequency
   DEG_THRESHOLD= 0.2000000E-02 threshold for treating states as degnerate
   RTIME   =   -0.100 relaxation time in fs
  (WPLASMAI=    0.000 imaginary part of plasma frequency in eV, 0.658/RTIME)
   DFIELD  = 0.0000000 0.0000000 0.0000000 field for delta impulse in time
 
 Orbital magnetization related:
   ORBITALMAG=     F  switch on orbital magnetization
   LCHIMAG   =     F  perturbation theory with respect to B field
   DQ        =  0.001000  dq finite difference perturbation B field
   LLRAUG    =     F  two centre corrections for induced B field



--------------------------------------------------------------------------------------------------------


 conjugate gradient relaxation of ions
 charge density and potential will be updated during run
 non-spin polarized calculation
 Conjugate gradient for all bands (Freysoldt, et al. PRB 79, 241103 (2009))
 preconditioned conjugated gradient                                        
 perform sub-space diagonalisation
    before iterative eigenvector-optimisation
 modified Broyden-mixing scheme, WC =      100.0
 initial mixing is a Kerker type mixing with AMIX =  0.4000 and BMIX =      1.0000
 Hartree-type preconditioning will be used
 using additional bands           58
 reciprocal scheme for non local part
 use partial core corrections
 no Harris-corrections to forces 
 use gradient corrections 
 use of overlap-Matrix (Vanderbilt PP)
 Gauss-broadening in eV      SIGMA  =   0.01


--------------------------------------------------------------------------------------------------------


  energy-cutoff  :      400.00
  volume of cell :       11.87
      direct lattice vectors                 reciprocal lattice vectors
     2.217561000  0.000000000  1.280309000     0.450945882 -0.159433412  0.000000000
     0.739187000  2.090737000  1.280309000     0.000000000  0.478300236  0.000000000
     0.000000000  0.000000000  2.560619000    -0.225472853 -0.159433350  0.390530571

  length of vectors
     2.560618660  2.560619019  2.560619000     0.478300325  0.478300236  0.478300248


 
 k-points in units of 2pi/SCALE and weight: pymatgen with grid density = 500 / numbe
   0.00000000  0.00000000  0.00000000       0.003
   0.06442084 -0.02277620  0.00000000       0.006
   0.00000000  0.06832861  0.00000000       0.006
  -0.03221041 -0.02277619  0.05579008       0.006
   0.03221043  0.02277621  0.05579008       0.006
   0.12884168 -0.04555240  0.00000000       0.006
   0.00000000  0.13665721  0.00000000       0.006
  -0.06442082 -0.04555239  0.11158016       0.006
   0.06442087  0.04555242  0.11158016       0.006
   0.19326252 -0.06832861  0.00000000       0.006
   0.00000000  0.20498582  0.00000000       0.006
  -0.09663122 -0.06832858  0.16737024       0.006
   0.09663130  0.06832863  0.16737024       0.006
   0.06442084  0.04555240  0.00000000       0.006
  -0.03221041  0.04555241  0.05579008       0.006
   0.03221043 -0.04555239  0.05579008       0.006
   0.12884168  0.02277620  0.00000000       0.006
  -0.03221041  0.11388102  0.05579008       0.006
   0.00000003 -0.06832859  0.11158016       0.006
   0.09663125  0.06832860 -0.05579008       0.006
   0.06442087 -0.02277618  0.11158016       0.006
   0.06442084  0.11388101  0.00000000       0.006
   0.09663125 -0.06832861 -0.05579008       0.006
   0.09663127  0.06832861  0.05579008       0.006
  -0.06442082  0.02277622  0.11158016       0.006
  -0.03221043  0.11388100 -0.05579008       0.006
   0.00000003  0.06832862  0.11158016       0.006
   0.09663127 -0.06832860  0.05579008       0.006
   0.19326252  0.00000000  0.00000000       0.006
  -0.03221041  0.18220962  0.05579008       0.006
  -0.03221038 -0.09110478  0.16737024       0.006
   0.12884166  0.09110479 -0.11158016       0.006
   0.09663130  0.00000003  0.16737024       0.006
   0.06442084  0.18220961  0.00000000       0.006
   0.16105209 -0.09110482 -0.05579008       0.006
   0.12884171  0.09110482  0.11158016       0.006
  -0.09663122  0.00000003  0.16737024       0.006
  -0.03221043  0.18220960 -0.05579008       0.006
   0.03221046  0.09110483  0.16737024       0.006
   0.16105211 -0.09110480  0.05579008       0.006
  -0.19326252  0.13665721  0.00000000       0.006
  -0.03221041 -0.22776201  0.05579008       0.006
   0.16105206  0.04555238 -0.16737024       0.006
   0.16105206  0.11388098 -0.16737024       0.006
  -0.09663130  0.34164300 -0.16737024       0.006
   0.06442084 -0.22776202  0.00000000       0.006
   0.22547293 -0.11388102 -0.05579008       0.006
  -0.28989374 -0.20498579  0.16737024       0.006
   0.09663122  0.13665718 -0.16737024       0.006
  -0.03221043  0.25053821 -0.05579008       0.006
   0.28989374 -0.20498584 -0.16737024       0.006
  -0.22547293  0.04555241  0.05579008       0.006
  -0.12884168  0.11388101  0.00000000       0.006
  -0.03221041 -0.15943340  0.05579008       0.006
   0.12884166  0.02277618 -0.11158016       0.006
  -0.03221038 -0.02277618  0.16737024       0.006
  -0.06442087 -0.11388103 -0.11158016       0.006
   0.06442084 -0.15943341  0.00000000       0.006
  -0.16105211  0.02277619 -0.05579008       0.006
  -0.03221046 -0.02277623 -0.16737024       0.006
   0.06442082  0.11388099 -0.11158016       0.006
  -0.03221043 -0.15943342 -0.05579008       0.006
  -0.12884171 -0.02277622 -0.11158016       0.006
  -0.16105209  0.02277621  0.05579008       0.006
  -0.06442084  0.09110481  0.00000000       0.006
  -0.03221041 -0.09110480  0.05579008       0.006
   0.09663125 -0.00000001 -0.05579008       0.006
   0.00000003  0.00000002  0.11158016       0.006
  -0.03221043 -0.09110482 -0.05579008       0.006
  -0.09663127 -0.00000001 -0.05579008       0.006
   0.12884168  0.09110481  0.00000000       0.006
  -0.06442082  0.09110482  0.11158016       0.006
   0.06442087 -0.09110479  0.11158016       0.006
   0.19326252  0.06832861  0.00000000       0.006
  -0.06442082  0.15943343  0.11158016       0.006
   0.03221046 -0.11388098  0.16737024       0.006
   0.16105209  0.11388100 -0.05579008       0.006
   0.09663130 -0.06832858  0.16737024       0.006
   0.12884168  0.15943341  0.00000000       0.006
   0.12884166 -0.11388103 -0.11158016       0.006
   0.16105211  0.11388102  0.05579008       0.006
  -0.09663122  0.06832863  0.16737024       0.006
  -0.06442087  0.15943339 -0.11158016       0.006
  -0.03221038  0.11388104  0.16737024       0.006
   0.12884171 -0.11388099  0.11158016       0.006
  -0.19326252  0.20498582  0.00000000       0.006
  -0.06442082 -0.25053820  0.11158016       0.006
   0.22547290  0.02277618 -0.16737024       0.006
   0.19326250  0.13665719 -0.11158016       0.006
  -0.09663130  0.27331439 -0.16737024       0.006
   0.12884168 -0.25053822  0.00000000       0.006
   0.19326250 -0.13665723 -0.11158016       0.006
  -0.25768334 -0.18220960  0.11158016       0.006
   0.09663122  0.20498579 -0.16737024       0.006
  -0.06442087  0.22776200 -0.11158016       0.006
   0.22547290 -0.18220964 -0.16737024       0.006
  -0.25768334  0.02277622  0.11158016       0.006
  -0.12884168  0.18220961  0.00000000       0.006
  -0.06442082 -0.18220960  0.11158016       0.006
   0.19326250 -0.00000002 -0.11158016       0.006
   0.22547290  0.15943339 -0.16737024       0.006
  -0.06442087  0.29609060 -0.11158016       0.006
   0.25768334 -0.15943343 -0.11158016       0.006
   0.19326252  0.13665721  0.00000000       0.006
  -0.09663122  0.13665724  0.16737024       0.006
   0.09663130 -0.13665718  0.16737024       0.006
  -0.19326252  0.27331442  0.00000000       0.006
  -0.09663122 -0.27331439  0.16737024       0.006
   0.28989374 -0.00000003 -0.16737024       0.006
   0.22547293  0.15943340 -0.05579008       0.006
  -0.09663130  0.20498579 -0.16737024       0.006
   0.16105206 -0.15943344 -0.16737024       0.006
   0.16105211  0.04555241  0.05579008       0.006
   0.00000003  0.13665723  0.11158016       0.006
   0.03221046 -0.04555238  0.16737024       0.006
   0.16105209  0.04555239 -0.05579008       0.006
   0.12884171 -0.04555239  0.11158016       0.006
   0.09663125 -0.13665722 -0.05579008       0.006
   0.09663125  0.13665720 -0.05579008       0.006
   0.12884166 -0.04555242 -0.11158016       0.006
   0.09663127  0.13665722  0.05579008       0.006
  -0.00000003  0.13665719 -0.11158016       0.006
  -0.09663127  0.13665720 -0.05579008       0.006
  -0.03221038  0.04555243  0.16737024       0.006
  -0.22547293  0.18220962  0.05579008       0.006
   0.00000003 -0.27331440  0.11158016       0.006
   0.22547290  0.09110478 -0.16737024       0.006
   0.19326250  0.06832859 -0.11158016       0.006
  -0.28989374  0.13665724  0.16737024       0.006
   0.09663125 -0.20498582 -0.05579008       0.006
   0.09663125  0.20498581 -0.05579008       0.006
   0.19326250 -0.06832862 -0.11158016       0.006
  -0.28989374 -0.13665718  0.16737024       0.006
   0.12884171 -0.31886681  0.11158016       0.006
   0.03221038  0.15943339 -0.16737024       0.006
  -0.16105209  0.15943342  0.05579008       0.006
  -0.16105206  0.02277623  0.16737024       0.006
  -0.09663127  0.20498581 -0.05579008       0.006
   0.25768334 -0.22776203 -0.11158016       0.006
   0.22547290  0.22776199 -0.16737024       0.006
  -0.22547293 -0.02277619  0.05579008       0.006
   0.00000003 -0.20498580  0.11158016       0.006
   0.16105211 -0.15943340  0.05579008       0.006
  -0.12884166 -0.15943339  0.11158016       0.006
  -0.03221046  0.31886680 -0.16737024       0.006
   0.25768334 -0.09110482 -0.11158016       0.006
  -0.09663127  0.27331441 -0.05579008       0.006
  -0.16105206 -0.18220959  0.16737024       0.006
  -0.22547293  0.25053823  0.05579008       0.006
  -0.03221038 -0.29609060  0.16737024       0.006
   0.28989374  0.06832858 -0.16737024       0.006
   0.22547293  0.09110480 -0.05579008       0.006
  -0.28989374  0.06832863  0.16737024       0.006
   0.12884166 -0.18220963 -0.11158016       0.006
   0.16105209  0.18220960 -0.05579008       0.006
   0.16105206 -0.09110483 -0.16737024       0.006
   0.16105211 -0.29609061  0.05579008       0.006
  -0.03221046  0.18220959 -0.16737024       0.006
  -0.12884171  0.18220960 -0.11158016       0.006
   0.16105206  0.25053819 -0.16737024       0.006
  -0.16105209  0.22776203  0.05579008       0.006
  -0.03221038 -0.22776199  0.16737024       0.006
   0.25768334  0.04555239 -0.11158016       0.006
   0.25768334  0.11388099 -0.11158016       0.006
  -0.03221046  0.25053819 -0.16737024       0.006
   0.12884166  0.22776200 -0.11158016       0.006
   0.22547290 -0.11388104 -0.16737024       0.006
   0.12884171 -0.25053820  0.11158016       0.006
  -0.22547290  0.04555243  0.16737024       0.006
  -0.19326250  0.20498583  0.11158016       0.006
   0.19326250  0.20498580 -0.11158016       0.006
   0.16105211 -0.22776201  0.05579008       0.006
 
 k-points in reciprocal lattice and weights: pymatgen with grid density = 500 / numbe
   0.00000000  0.00000000  0.00000000       0.003
   0.14285714 -0.00000000  0.00000000       0.006
   0.00000000  0.14285714  0.00000000       0.006
  -0.00000000  0.00000000  0.14285714       0.006
   0.14285714  0.14285714  0.14285714       0.006
   0.28571429 -0.00000000  0.00000000       0.006
   0.00000000  0.28571429  0.00000000       0.006
  -0.00000000 -0.00000000  0.28571429       0.006
   0.28571429  0.28571429  0.28571429       0.006
   0.42857143 -0.00000000  0.00000000       0.006
   0.00000000  0.42857143  0.00000000       0.006
   0.00000000  0.00000000  0.42857143       0.006
   0.42857143  0.42857143  0.42857143       0.006
   0.14285714  0.14285714  0.00000000       0.006
  -0.00000000  0.14285714  0.14285714       0.006
   0.14285714 -0.00000000  0.14285714       0.006
   0.28571429  0.14285714  0.00000000       0.006
  -0.00000000  0.28571429  0.14285714       0.006
   0.14285714 -0.00000000  0.28571429       0.006
   0.14285714  0.14285714 -0.14285714       0.006
   0.28571429  0.14285714  0.28571429       0.006
   0.14285714  0.28571429  0.00000000       0.006
   0.14285714 -0.14285714 -0.14285714       0.006
   0.28571429  0.28571429  0.14285714       0.006
  -0.00000000  0.14285714  0.28571429       0.006
  -0.14285714  0.14285714 -0.14285714       0.006
   0.14285714  0.28571429  0.28571429       0.006
   0.28571429 -0.00000000  0.14285714       0.006
   0.42857143  0.14285714  0.00000000       0.006
  -0.00000000  0.42857143  0.14285714       0.006
   0.14285714  0.00000000  0.42857143       0.006
   0.14285714  0.14285714 -0.28571429       0.006
   0.42857143  0.28571429  0.42857143       0.006
   0.14285714  0.42857143  0.00000000       0.006
   0.28571429 -0.14285714 -0.14285714       0.006
   0.42857143  0.42857143  0.28571429       0.006
   0.00000000  0.14285714  0.42857143       0.006
  -0.14285714  0.28571429 -0.14285714       0.006
   0.28571429  0.42857143  0.42857143       0.006
   0.42857143  0.00000000  0.14285714       0.006
  -0.42857143  0.14285714  0.00000000       0.006
  -0.00000000 -0.42857143  0.14285714       0.006
   0.14285714 -0.00000000 -0.42857143       0.006
   0.14285714  0.14285714 -0.42857143       0.006
  -0.42857143  0.42857143 -0.42857143       0.006
   0.14285714 -0.42857143  0.00000000       0.006
   0.42857143 -0.14285714 -0.14285714       0.006
  -0.42857143 -0.42857143  0.42857143       0.006
  -0.00000000  0.14285714 -0.42857143       0.006
  -0.14285714  0.42857143 -0.14285714       0.006
   0.42857143 -0.42857143 -0.42857143       0.006
  -0.42857143 -0.00000000  0.14285714       0.006
  -0.28571429  0.14285714  0.00000000       0.006
  -0.00000000 -0.28571429  0.14285714       0.006
   0.14285714 -0.00000000 -0.28571429       0.006
   0.14285714  0.14285714  0.42857143       0.006
  -0.28571429 -0.42857143 -0.28571429       0.006
   0.14285714 -0.28571429  0.00000000       0.006
  -0.42857143 -0.14285714 -0.14285714       0.006
  -0.28571429 -0.28571429 -0.42857143       0.006
   0.00000000  0.14285714 -0.28571429       0.006
  -0.14285714 -0.42857143 -0.14285714       0.006
  -0.42857143 -0.28571429 -0.28571429       0.006
  -0.28571429  0.00000000  0.14285714       0.006
  -0.14285714  0.14285714  0.00000000       0.006
  -0.00000000 -0.14285714  0.14285714       0.006
   0.14285714 -0.00000000 -0.14285714       0.006
   0.14285714  0.14285714  0.28571429       0.006
  -0.14285714 -0.28571429 -0.14285714       0.006
  -0.28571429 -0.14285714 -0.14285714       0.006
   0.28571429  0.28571429  0.00000000       0.006
  -0.00000000  0.28571429  0.28571429       0.006
   0.28571429 -0.00000000  0.28571429       0.006
   0.42857143  0.28571429  0.00000000       0.006
  -0.00000000  0.42857143  0.28571429       0.006
   0.28571429 -0.00000000  0.42857143       0.006
   0.28571429  0.28571429 -0.14285714       0.006
   0.42857143  0.14285714  0.42857143       0.006
   0.28571429  0.42857143  0.00000000       0.006
   0.14285714 -0.28571429 -0.28571429       0.006
   0.42857143  0.42857143  0.14285714       0.006
   0.00000000  0.28571429  0.42857143       0.006
  -0.28571429  0.14285714 -0.28571429       0.006
   0.14285714  0.42857143  0.42857143       0.006
   0.42857143 -0.00000000  0.28571429       0.006
  -0.42857143  0.28571429  0.00000000       0.006
  -0.00000000 -0.42857143  0.28571429       0.006
   0.28571429 -0.00000000 -0.42857143       0.006
   0.28571429  0.28571429 -0.28571429       0.006
  -0.42857143  0.28571429 -0.42857143       0.006
   0.28571429 -0.42857143  0.00000000       0.006
   0.28571429 -0.28571429 -0.28571429       0.006
  -0.42857143 -0.42857143  0.28571429       0.006
  -0.00000000  0.28571429 -0.42857143       0.006
  -0.28571429  0.28571429 -0.28571429       0.006
   0.28571429 -0.42857143 -0.42857143       0.006
  -0.42857143  0.00000000  0.28571429       0.006
  -0.28571429  0.28571429  0.00000000       0.006
  -0.00000000 -0.28571429  0.28571429       0.006
   0.28571429 -0.00000000 -0.28571429       0.006
   0.28571429  0.28571429 -0.42857143       0.006
  -0.28571429  0.42857143 -0.28571429       0.006
   0.42857143 -0.28571429 -0.28571429       0.006
   0.42857143  0.42857143  0.00000000       0.006
   0.00000000  0.42857143  0.42857143       0.006
   0.42857143 -0.00000000  0.42857143       0.006
  -0.42857143  0.42857143  0.00000000       0.006
   0.00000000 -0.42857143  0.42857143       0.006
   0.42857143  0.00000000 -0.42857143       0.006
   0.42857143  0.42857143 -0.14285714       0.006
  -0.42857143  0.14285714 -0.42857143       0.006
   0.14285714 -0.42857143 -0.42857143       0.006
   0.42857143  0.28571429  0.14285714       0.006
   0.14285714  0.42857143  0.28571429       0.006
   0.28571429  0.14285714  0.42857143       0.006
   0.28571429  0.14285714 -0.14285714       0.006
   0.42857143  0.14285714  0.28571429       0.006
   0.14285714 -0.28571429 -0.14285714       0.006
   0.14285714  0.28571429 -0.14285714       0.006
   0.14285714 -0.14285714 -0.28571429       0.006
   0.28571429  0.42857143  0.14285714       0.006
  -0.14285714  0.14285714 -0.28571429       0.006
  -0.28571429  0.14285714 -0.14285714       0.006
   0.14285714  0.28571429  0.42857143       0.006
  -0.42857143  0.28571429  0.14285714       0.006
   0.14285714 -0.42857143  0.28571429       0.006
   0.28571429  0.14285714 -0.42857143       0.006
   0.28571429  0.14285714 -0.28571429       0.006
  -0.42857143  0.28571429  0.42857143       0.006
   0.14285714 -0.42857143 -0.14285714       0.006
   0.14285714  0.42857143 -0.14285714       0.006
   0.28571429 -0.14285714 -0.28571429       0.006
  -0.42857143 -0.28571429  0.42857143       0.006
   0.42857143 -0.42857143  0.28571429       0.006
  -0.14285714  0.14285714 -0.42857143       0.006
  -0.28571429  0.28571429  0.14285714       0.006
  -0.14285714  0.14285714  0.42857143       0.006
  -0.28571429  0.28571429 -0.14285714       0.006
   0.42857143 -0.42857143 -0.28571429       0.006
   0.28571429  0.42857143 -0.42857143       0.006
  -0.42857143 -0.14285714  0.14285714       0.006
   0.14285714 -0.28571429  0.28571429       0.006
   0.42857143 -0.14285714  0.14285714       0.006
  -0.14285714 -0.28571429  0.28571429       0.006
  -0.28571429  0.42857143 -0.42857143       0.006
   0.42857143 -0.14285714 -0.28571429       0.006
  -0.28571429  0.42857143 -0.14285714       0.006
  -0.14285714 -0.28571429  0.42857143       0.006
  -0.42857143  0.42857143  0.14285714       0.006
   0.14285714 -0.42857143  0.42857143       0.006
   0.42857143  0.14285714 -0.42857143       0.006
   0.42857143  0.28571429 -0.14285714       0.006
  -0.42857143  0.14285714  0.42857143       0.006
   0.14285714 -0.42857143 -0.28571429       0.006
   0.28571429  0.42857143 -0.14285714       0.006
   0.14285714 -0.28571429 -0.42857143       0.006
   0.42857143 -0.42857143  0.14285714       0.006
  -0.28571429  0.14285714 -0.42857143       0.006
  -0.42857143  0.14285714 -0.28571429       0.006
   0.14285714  0.42857143 -0.42857143       0.006
  -0.28571429  0.42857143  0.14285714       0.006
   0.14285714 -0.28571429  0.42857143       0.006
   0.42857143  0.14285714 -0.28571429       0.006
   0.42857143  0.28571429 -0.28571429       0.006
  -0.28571429  0.28571429 -0.42857143       0.006
   0.14285714  0.42857143 -0.28571429       0.006
   0.28571429 -0.28571429 -0.42857143       0.006
   0.42857143 -0.28571429  0.28571429       0.006
  -0.28571429  0.14285714  0.42857143       0.006
  -0.28571429  0.42857143  0.28571429       0.006
   0.28571429  0.42857143 -0.28571429       0.006
   0.42857143 -0.28571429  0.14285714       0.006
 
 position of ions in fractional coordinates (direct lattice) 
   0.00000000  0.00000000  0.00000000
 
 position of ions in cartesian coordinates  (Angst):
   0.00000000  0.00000000  0.00000000
 


--------------------------------------------------------------------------------------------------------


 k-point   1 :   0.0000 0.0000 0.0000  plane waves:     181
 k-point   2 :   0.1429-0.0000 0.0000  plane waves:     214
 k-point   3 :   0.0000 0.1429 0.0000  plane waves:     214
 k-point   4 :  -0.0000 0.0000 0.1429  plane waves:     214
 k-point   5 :   0.1429 0.1429 0.1429  plane waves:     214
 k-point   6 :   0.2857-0.0000 0.0000  plane waves:     211
 k-point   7 :   0.0000 0.2857 0.0000  plane waves:     211
 k-point   8 :  -0.0000-0.0000 0.2857  plane waves:     211
 k-point   9 :   0.2857 0.2857 0.2857  plane waves:     211
 k-point  10 :   0.4286-0.0000 0.0000  plane waves:     225
 k-point  11 :   0.0000 0.4286 0.0000  plane waves:     225
 k-point  12 :   0.0000 0.0000 0.4286  plane waves:     225
 k-point  13 :   0.4286 0.4286 0.4286  plane waves:     225
 k-point  14 :   0.1429 0.1429 0.0000  plane waves:     214
 k-point  15 :  -0.0000 0.1429 0.1429  plane waves:     214
 k-point  16 :   0.1429-0.0000 0.1429  plane waves:     214
 k-point  17 :   0.2857 0.1429 0.0000  plane waves:     217
 k-point  18 :  -0.0000 0.2857 0.1429  plane waves:     217
 k-point  19 :   0.1429-0.0000 0.2857  plane waves:     217
 k-point  20 :   0.1429 0.1429-0.1429  plane waves:     217
 k-point  21 :   0.2857 0.1429 0.2857  plane waves:     217
 k-point  22 :   0.1429 0.2857 0.0000  plane waves:     217
 k-point  23 :   0.1429-0.1429-0.1429  plane waves:     217
 k-point  24 :   0.2857 0.2857 0.1429  plane waves:     217
 k-point  25 :  -0.0000 0.1429 0.2857  plane waves:     217
 k-point  26 :  -0.1429 0.1429-0.1429  plane waves:     217
 k-point  27 :   0.1429 0.2857 0.2857  plane waves:     217
 k-point  28 :   0.2857-0.0000 0.1429  plane waves:     217
 k-point  29 :   0.4286 0.1429 0.0000  plane waves:     218
 k-point  30 :  -0.0000 0.4286 0.1429  plane waves:     218
 k-point  31 :   0.1429 0.0000 0.4286  plane waves:     218
 k-point  32 :   0.1429 0.1429-0.2857  plane waves:     218
 k-point  33 :   0.4286 0.2857 0.4286  plane waves:     218
 k-point  34 :   0.1429 0.4286 0.0000  plane waves:     218
 k-point  35 :   0.2857-0.1429-0.1429  plane waves:     218
 k-point  36 :   0.4286 0.4286 0.2857  plane waves:     218
 k-point  37 :   0.0000 0.1429 0.4286  plane waves:     218
 k-point  38 :  -0.1429 0.2857-0.1429  plane waves:     218
 k-point  39 :   0.2857 0.4286 0.4286  plane waves:     218
 k-point  40 :   0.4286 0.0000 0.1429  plane waves:     218
 k-point  41 :  -0.4286 0.1429 0.0000  plane waves:     215
 k-point  42 :  -0.0000-0.4286 0.1429  plane waves:     215
 k-point  43 :   0.1429-0.0000-0.4286  plane waves:     215
 k-point  44 :   0.1429 0.1429-0.4286  plane waves:     215
 k-point  45 :  -0.4286 0.4286-0.4286  plane waves:     215
 k-point  46 :   0.1429-0.4286 0.0000  plane waves:     215
 k-point  47 :   0.4286-0.1429-0.1429  plane waves:     215
 k-point  48 :  -0.4286-0.4286 0.4286  plane waves:     215
 k-point  49 :  -0.0000 0.1429-0.4286  plane waves:     215
 k-point  50 :  -0.1429 0.4286-0.1429  plane waves:     215
 k-point  51 :   0.4286-0.4286-0.4286  plane waves:     215
 k-point  52 :  -0.4286-0.0000 0.1429  plane waves:     215
 k-point  53 :  -0.2857 0.1429 0.0000  plane waves:     215
 k-point  54 :  -0.0000-0.2857 0.1429  plane waves:     215
 k-point  55 :   0.1429-0.0000-0.2857  plane waves:     215
 k-point  56 :   0.1429 0.1429 0.4286  plane waves:     215
 k-point  57 :  -0.2857-0.4286-0.2857  plane waves:     215
 k-point  58 :   0.1429-0.2857 0.0000  plane waves:     215
 k-point  59 :  -0.4286-0.1429-0.1429  plane waves:     215
 k-point  60 :  -0.2857-0.2857-0.4286  plane waves:     215
 k-point  61 :   0.0000 0.1429-0.2857  plane waves:     215
 k-point  62 :  -0.1429-0.4286-0.1429  plane waves:     215
 k-point  63 :  -0.4286-0.2857-0.2857  plane waves:     215
 k-point  64 :  -0.2857 0.0000 0.1429  plane waves:     215
 k-point  65 :  -0.1429 0.1429 0.0000  plane waves:     212
 k-point  66 :  -0.0000-0.1429 0.1429  plane waves:     212
 k-point  67 :   0.1429-0.0000-0.1429  plane waves:     212
 k-point  68 :   0.1429 0.1429 0.2857  plane waves:     212
 k-point  69 :  -0.1429-0.2857-0.1429  plane waves:     212
 k-point  70 :  -0.2857-0.1429-0.1429  plane waves:     212
 k-point  71 :   0.2857 0.2857 0.0000  plane waves:     218
 k-point  72 :  -0.0000 0.2857 0.2857  plane waves:     218
 k-point  73 :   0.2857-0.0000 0.2857  plane waves:     218
 k-point  74 :   0.4286 0.2857 0.0000  plane waves:     220
 k-point  75 :  -0.0000 0.4286 0.2857  plane waves:     220
 k-point  76 :   0.2857-0.0000 0.4286  plane waves:     220
 k-point  77 :   0.2857 0.2857-0.1429  plane waves:     220
 k-point  78 :   0.4286 0.1429 0.4286  plane waves:     220
 k-point  79 :   0.2857 0.4286 0.0000  plane waves:     220
 k-point  80 :   0.1429-0.2857-0.2857  plane waves:     220
 k-point  81 :   0.4286 0.4286 0.1429  plane waves:     220
 k-point  82 :   0.0000 0.2857 0.4286  plane waves:     220
 k-point  83 :  -0.2857 0.1429-0.2857  plane waves:     220
 k-point  84 :   0.1429 0.4286 0.4286  plane waves:     220
 k-point  85 :   0.4286-0.0000 0.2857  plane waves:     220
 k-point  86 :  -0.4286 0.2857 0.0000  plane waves:     219
 k-point  87 :  -0.0000-0.4286 0.2857  plane waves:     219
 k-point  88 :   0.2857-0.0000-0.4286  plane waves:     219
 k-point  89 :   0.2857 0.2857-0.2857  plane waves:     219
 k-point  90 :  -0.4286 0.2857-0.4286  plane waves:     219
 k-point  91 :   0.2857-0.4286 0.0000  plane waves:     219
 k-point  92 :   0.2857-0.2857-0.2857  plane waves:     219
 k-point  93 :  -0.4286-0.4286 0.2857  plane waves:     219
 k-point  94 :  -0.0000 0.2857-0.4286  plane waves:     219
 k-point  95 :  -0.2857 0.2857-0.2857  plane waves:     219
 k-point  96 :   0.2857-0.4286-0.4286  plane waves:     219
 k-point  97 :  -0.4286 0.0000 0.2857  plane waves:     219
 k-point  98 :  -0.2857 0.2857 0.0000  plane waves:     222
 k-point  99 :  -0.0000-0.2857 0.2857  plane waves:     222
 k-point 100 :   0.2857-0.0000-0.2857  plane waves:     222
 k-point 101 :   0.2857 0.2857-0.4286  plane waves:     222
 k-point 102 :  -0.2857 0.4286-0.2857  plane waves:     222
 k-point 103 :   0.4286-0.2857-0.2857  plane waves:     222
 k-point 104 :   0.4286 0.4286 0.0000  plane waves:     218
 k-point 105 :   0.0000 0.4286 0.4286  plane waves:     218
 k-point 106 :   0.4286-0.0000 0.4286  plane waves:     218
 k-point 107 :  -0.4286 0.4286 0.0000  plane waves:     216
 k-point 108 :   0.0000-0.4286 0.4286  plane waves:     216
 k-point 109 :   0.4286 0.0000-0.4286  plane waves:     216
 k-point 110 :   0.4286 0.4286-0.1429  plane waves:     216
 k-point 111 :  -0.4286 0.1429-0.4286  plane waves:     216
 k-point 112 :   0.1429-0.4286-0.4286  plane waves:     216
 k-point 113 :   0.4286 0.2857 0.1429  plane waves:     219
 k-point 114 :   0.1429 0.4286 0.2857  plane waves:     219
 k-point 115 :   0.2857 0.1429 0.4286  plane waves:     219
 k-point 116 :   0.2857 0.1429-0.1429  plane waves:     219
 k-point 117 :   0.4286 0.1429 0.2857  plane waves:     219
 k-point 118 :   0.1429-0.2857-0.1429  plane waves:     219
 k-point 119 :   0.1429 0.2857-0.1429  plane waves:     219
 k-point 120 :   0.1429-0.1429-0.2857  plane waves:     219
 k-point 121 :   0.2857 0.4286 0.1429  plane waves:     219
 k-point 122 :  -0.1429 0.1429-0.2857  plane waves:     219
 k-point 123 :  -0.2857 0.1429-0.1429  plane waves:     219
 k-point 124 :   0.1429 0.2857 0.4286  plane waves:     219
 k-point 125 :  -0.4286 0.2857 0.1429  plane waves:     213
 k-point 126 :   0.1429-0.4286 0.2857  plane waves:     213
 k-point 127 :   0.2857 0.1429-0.4286  plane waves:     213
 k-point 128 :   0.2857 0.1429-0.2857  plane waves:     213
 k-point 129 :  -0.4286 0.2857 0.4286  plane waves:     213
 k-point 130 :   0.1429-0.4286-0.1429  plane waves:     213
 k-point 131 :   0.1429 0.4286-0.1429  plane waves:     213
 k-point 132 :   0.2857-0.1429-0.2857  plane waves:     213
 k-point 133 :  -0.4286-0.2857 0.4286  plane waves:     213
 k-point 134 :   0.4286-0.4286 0.2857  plane waves:     213
 k-point 135 :  -0.1429 0.1429-0.4286  plane waves:     213
 k-point 136 :  -0.2857 0.2857 0.1429  plane waves:     213
 k-point 137 :  -0.1429 0.1429 0.4286  plane waves:     213
 k-point 138 :  -0.2857 0.2857-0.1429  plane waves:     213
 k-point 139 :   0.4286-0.4286-0.2857  plane waves:     213
 k-point 140 :   0.2857 0.4286-0.4286  plane waves:     213
 k-point 141 :  -0.4286-0.1429 0.1429  plane waves:     213
 k-point 142 :   0.1429-0.2857 0.2857  plane waves:     213
 k-point 143 :   0.4286-0.1429 0.1429  plane waves:     213
 k-point 144 :  -0.1429-0.2857 0.2857  plane waves:     213
 k-point 145 :  -0.2857 0.4286-0.4286  plane waves:     213
 k-point 146 :   0.4286-0.1429-0.2857  plane waves:     213
 k-point 147 :  -0.2857 0.4286-0.1429  plane waves:     213
 k-point 148 :  -0.1429-0.2857 0.4286  plane waves:     213
 k-point 149 :  -0.4286 0.4286 0.1429  plane waves:     214
 k-point 150 :   0.1429-0.4286 0.4286  plane waves:     214
 k-point 151 :   0.4286 0.1429-0.4286  plane waves:     214
 k-point 152 :   0.4286 0.2857-0.1429  plane waves:     214
 k-point 153 :  -0.4286 0.1429 0.4286  plane waves:     214
 k-point 154 :   0.1429-0.4286-0.2857  plane waves:     214
 k-point 155 :   0.2857 0.4286-0.1429  plane waves:     214
 k-point 156 :   0.1429-0.2857-0.4286  plane waves:     214
 k-point 157 :   0.4286-0.4286 0.1429  plane waves:     214
 k-point 158 :  -0.2857 0.1429-0.4286  plane waves:     214
 k-point 159 :  -0.4286 0.1429-0.2857  plane waves:     214
 k-point 160 :   0.1429 0.4286-0.4286  plane waves:     214
 k-point 161 :  -0.2857 0.4286 0.1429  plane waves:     216
 k-point 162 :   0.1429-0.2857 0.4286  plane waves:     216
 k-point 163 :   0.4286 0.1429-0.2857  plane waves:     216
 k-point 164 :   0.4286 0.2857-0.2857  plane waves:     216
 k-point 165 :  -0.2857 0.2857-0.4286  plane waves:     216
 k-point 166 :   0.1429 0.4286-0.2857  plane waves:     216
 k-point 167 :   0.2857-0.2857-0.4286  plane waves:     216
 k-point 168 :   0.4286-0.2857 0.2857  plane waves:     216
 k-point 169 :  -0.2857 0.1429 0.4286  plane waves:     216
 k-point 170 :  -0.2857 0.4286 0.2857  plane waves:     216
 k-point 171 :   0.2857 0.4286-0.2857  plane waves:     216
 k-point 172 :   0.4286-0.2857 0.1429  plane waves:     216

 maximum and minimum number of plane-waves per node :       225      181

 maximum number of plane-waves:       225
 maximum index in each direction: 
   IXMAX=    4   IYMAX=    4   IZMAX=    4
   IXMIN=   -4   IYMIN=   -4   IZMIN=   -4


 serial   3D FFT for wavefunctions
 parallel 3D FFT for charge:
    minimum data exchange during FFTs selected (reduces bandwidth)


 total amount of memory used by VASP MPI-rank0    39387. kBytes
=======================================================================

   base      :      30000. kBytes
   nonl-proj :       6344. kBytes
   fftplans  :         85. kBytes
   grid      :        303. kBytes
   one-center:         15. kBytes
   wavefun   :       2640. kBytes
 
     INWAV:  cpu time    0.0004: real time    0.0007
 Broyden mixing: mesh for mixing (old mesh)
   NGX =  9   NGY =  9   NGZ =  9
  (NGX  = 36   NGY  = 36   NGZ  = 36)
  gives a total of    729 points

 initial charge density was supplied:
 charge density of overlapping atoms calculated
 number of electron      11.0000000 magnetization 
 keeping initial charge density in first step


--------------------------------------------------------------------------------------------------------


 Maximum index for augmentation-charges          649 (set IRDMAX)


--------------------------------------------------------------------------------------------------------


 First call to EWALD:  gamma=   0.777
 Maximum number of real-space cells 3x 3x 3
 Maximum number of reciprocal cells 3x 3x 3

    FEWALD:  cpu time    0.0060: real time    0.0060


--------------------------------------- Iteration      1(   1)  ---------------------------------------


    POTLOK:  cpu time    0.0125: real time    0.0142
    SETDIJ:  cpu time    0.0088: real time    0.0094
    TRIAL :  cpu time   20.1116: real time   20.1477
    CORREC:  cpu time    0.0044: real time    0.0058
    --------------------------------------------
      LOOP:  cpu time   20.1785: real time   20.2208

 eigenvalue-minimisations  : 27776
 total energy-change (2. order) :-0.4354334E+01  (-0.5912826E+03)
 number of electron      11.0000000 magnetization 
 augmentation part       11.0000000 magnetization 

 Free energy of the ion-electron system (eV)
  ---------------------------------------------------
  alpha Z        PSCENC =        61.60164072
  Ewald energy   TEWEN  =     -1103.00566943
  -Hartree energ DENC   =      -362.92658495
  -exchange      EXHF   =         0.00000000
  -V(xc)+E(xc)   XCENC  =        45.77064986
  PAW double counting   =      1228.20665988    -1334.04846713
  entropy T*S    EENTRO =        -0.00004150
  eigenvalues    EBANDS =        69.08983791
  atomic energy  EATOM  =      1390.95764020
  ---------------------------------------------------
  free energy    TOTEN  =        -4.35433443 eV

  energy without entropy =       -4.35429293  energy(sigma->0) =       -4.35431368


--------------------------------------------------------------------------------------------------------




--------------------------------------- Iteration      1(   2)  ---------------------------------------


    TRIAL :  cpu time   14.6251: real time   14.6261
    CORREC:  cpu time    0.0045: real time    0.0058
    --------------------------------------------
      LOOP:  cpu time   14.6612: real time   14.6651

 eigenvalue-minimisations  : 22080
 total energy-change (2. order) :-0.3014872E+00  (-0.3013024E+00)
 number of electron      11.0000000 magnetization 
 augmentation part       11.0000000 magnetization 

 Free energy of the ion-electron system (eV)
  ---------------------------------------------------
  alpha Z        PSCENC =        61.60164072
  Ewald energy   TEWEN  =     -1103.00566943
  -Hartree energ DENC   =      -362.92658495
  -exchange      EXHF   =         0.00000000
  -V(xc)+E(xc)   XCENC  =        45.77064986
  PAW double counting   =      1228.20665988    -1334.04846713
  entropy T*S    EENTRO =        -0.00022641
  eigenvalues    EBANDS =        68.78853558
  atomic energy  EATOM  =      1390.95764020
  ---------------------------------------------------
  free energy    TOTEN  =        -4.65582168 eV

  energy without entropy =       -4.65559527  energy(sigma->0) =       -4.65570847


--------------------------------------------------------------------------------------------------------




--------------------------------------- Iteration      1(   3)  ---------------------------------------


    TRIAL :  cpu time   15.0730: real time   15.0740
    CORREC:  cpu time    0.0039: real time    0.0039
    --------------------------------------------
      LOOP:  cpu time   15.1061: real time   15.1076

 eigenvalue-minimisations  : 22464
 total energy-change (2. order) :-0.1358539E-04  (-0.1358531E-04)
 number of electron      11.0000000 magnetization 
 augmentation part       11.0000000 magnetization 

 Free energy of the ion-electron system (eV)
  ---------------------------------------------------
  alpha Z        PSCENC =        61.60164072
  Ewald energy   TEWEN  =     -1103.00566943
  -Hartree energ DENC   =      -362.92658495
  -exchange      EXHF   =         0.00000000
  -V(xc)+E(xc)   XCENC  =        45.77064986
  PAW double counting   =      1228.20665988    -1334.04846713
  entropy T*S    EENTRO =        -0.00022641
  eigenvalues    EBANDS =        68.78852199
  atomic energy  EATOM  =      1390.95764020
  ---------------------------------------------------
  free energy    TOTEN  =        -4.65583526 eV

  energy without entropy =       -4.65560885  energy(sigma->0) =       -4.65572206


--------------------------------------------------------------------------------------------------------




--------------------------------------- Iteration      1(   4)  ---------------------------------------


    TRIAL :  cpu time   16.8584: real time   16.8595
    CORREC:  cpu time    0.0040: real time    0.0040
    --------------------------------------------
      LOOP:  cpu time   16.8923: real time   16.8936

 eigenvalue-minimisations  : 24512
 total energy-change (2. order) :-0.1428731E-07  (-0.1395155E-07)
 number of electron      11.0000000 magnetization 
 augmentation part       11.0000000 magnetization 

 Free energy of the ion-electron system (eV)
  ---------------------------------------------------
  alpha Z        PSCENC =        61.60164072
  Ewald energy   TEWEN  =     -1103.00566943
  -Hartree energ DENC   =      -362.92658495
  -exchange      EXHF   =         0.00000000
  -V(xc)+E(xc)   XCENC  =        45.77064986
  PAW double counting   =      1228.20665988    -1334.04846713
  entropy T*S    EENTRO =        -0.00022641
  eigenvalues    EBANDS =        68.78852198
  atomic energy  EATOM  =      1390.95764020
  ---------------------------------------------------
  free energy    TOTEN  =        -4.65583528 eV

  energy without entropy =       -4.65560887  energy(sigma->0) =       -4.65572207


--------------------------------------------------------------------------------------------------------




--------------------------------------- Iteration      1(   5)  ---------------------------------------


    TRIAL :  cpu time   15.3758: real time   15.3769
    CORREC:  cpu time    0.0039: real time    0.0039
    CHARGE:  cpu time    0.0537: real time    0.0547
    --------------------------------------------
      LOOP:  cpu time   15.4636: real time   15.4661

 eigenvalue-minimisations  : 22656
 total energy-change (2. order) : 0.4242793E-09  (-0.2680638E-10)
 number of electron      11.0000012 magnetization 
 augmentation part        6.4867940 magnetization 

 Free energy of the ion-electron system (eV)
  ---------------------------------------------------
  alpha Z        PSCENC =        61.60164072
  Ewald energy   TEWEN  =     -1103.00566943
  -Hartree energ DENC   =      -362.92658495
  -exchange      EXHF   =         0.00000000
  -V(xc)+E(xc)   XCENC  =        45.77064986
  PAW double counting   =      1228.20665988    -1334.04846713
  entropy T*S    EENTRO =        -0.00022641
  eigenvalues    EBANDS =        68.78852198
  atomic energy  EATOM  =      1390.95764020
  ---------------------------------------------------
  free energy    TOTEN  =        -4.65583528 eV

  energy without entropy =       -4.65560887  energy(sigma->0) =       -4.65572207


--------------------------------------------------------------------------------------------------------




--------------------------------------- Iteration      1(   6)  ---------------------------------------


    POTLOK:  cpu time    0.0082: real time    0.0082
    SETDIJ:  cpu time    0.0079: real time    0.0079
    TRIAL :  cpu time    5.1966: real time    5.2014
    CORREC:  cpu time    4.1784: real time    4.1791
    CHARGE:  cpu time    0.0511: real time    0.0511
    --------------------------------------------
      LOOP:  cpu time    9.4576: real time    9.4786

 eigenvalue-minimisations  :     0
 total energy-change (2. order) : 0.3923061E+01  (-0.3032876E+01)
 number of electron      11.0000013 magnetization 
 augmentation part        7.0025746 magnetization 

 Free energy of the ion-electron system (eV)
  ---------------------------------------------------
  alpha Z        PSCENC =        61.60164072
  Ewald energy   TEWEN  =     -1103.00566943
  -Hartree energ DENC   =      -289.31347172
  -exchange      EXHF   =         0.00000000
  -V(xc)+E(xc)   XCENC  =        42.13512825
  PAW double counting   =      1280.59197037    -1372.76367565
  entropy T*S    EENTRO =        -0.00009653
  eigenvalues    EBANDS =       -10.93611015
  atomic energy  EATOM  =      1390.95764020
  ---------------------------------------------------
  free energy    TOTEN  =        -0.73277382 eV

  energy without entropy =       -0.73267729  energy(sigma->0) =       -0.73272555


--------------------------------------------------------------------------------------------------------




--------------------------------------- Iteration      1(   7)  ---------------------------------------


    POTLOK:  cpu time    0.0079: real time    0.0079
    SETDIJ:  cpu time    0.0122: real time    0.0122
    TRIAL :  cpu time    4.9492: real time    4.9496
    CORREC:  cpu time    4.1801: real time    4.1804
    CHARGE:  cpu time    0.0503: real time    0.0503
    --------------------------------------------
      LOOP:  cpu time    9.2316: real time    9.2339

 eigenvalue-minimisations  :     0
 total energy-change (2. order) :-0.3022772E+01  (-0.1246574E-01)
 number of electron      11.0000013 magnetization 
 augmentation part        7.0133756 magnetization 

 Free energy of the ion-electron system (eV)
  ---------------------------------------------------
  alpha Z        PSCENC =        61.60164072
  Ewald energy   TEWEN  =     -1103.00566943
  -Hartree energ DENC   =      -338.73266293
  -exchange      EXHF   =         0.00000000
  -V(xc)+E(xc)   XCENC  =        44.62672479
  PAW double counting   =      1314.62141281    -1422.45017405
  entropy T*S    EENTRO =        -0.00009653
  eigenvalues    EBANDS =        48.62563864
  atomic energy  EATOM  =      1390.95764020
  ---------------------------------------------------
  free energy    TOTEN  =        -3.75554578 eV

  energy without entropy =       -3.75544924  energy(sigma->0) =       -3.75549751


--------------------------------------------------------------------------------------------------------




--------------------------------------- Iteration      1(   8)  ---------------------------------------


    POTLOK:  cpu time    0.0079: real time    0.0079
    SETDIJ:  cpu time    0.0074: real time    0.0074
    TRIAL :  cpu time    4.9435: real time    4.9453
    CORREC:  cpu time    4.1714: real time    4.1758
    CHARGE:  cpu time    0.0509: real time    0.0509
    --------------------------------------------
      LOOP:  cpu time    9.2133: real time    9.2198

 eigenvalue-minimisations  :     0
 total energy-change (2. order) :-0.1247964E-01  (-0.2069355E-03)
 number of electron      11.0000013 magnetization 
 augmentation part        7.0099317 magnetization 

 Free energy of the ion-electron system (eV)
  ---------------------------------------------------
  alpha Z        PSCENC =        61.60164072
  Ewald energy   TEWEN  =     -1103.00566943
  -Hartree energ DENC   =      -340.03158563
  -exchange      EXHF   =         0.00000000
  -V(xc)+E(xc)   XCENC  =        44.68574959
  PAW double counting   =      1316.68742739    -1424.66098998
  entropy T*S    EENTRO =        -0.00009653
  eigenvalues    EBANDS =        49.99785825
  atomic energy  EATOM  =      1390.95764020
  ---------------------------------------------------
  free energy    TOTEN  =        -3.76802542 eV

  energy without entropy =       -3.76792889  energy(sigma->0) =       -3.76797715


--------------------------------------------------------------------------------------------------------




--------------------------------------- Iteration      1(   9)  ---------------------------------------


    POTLOK:  cpu time    0.0079: real time    0.0079
    SETDIJ:  cpu time    0.0075: real time    0.0075
    TRIAL :  cpu time    4.9449: real time    4.9466
    CORREC:  cpu time    4.1757: real time    4.1760
    CHARGE:  cpu time    0.0503: real time    0.0503
    --------------------------------------------
      LOOP:  cpu time    9.2163: real time    9.2197

 eigenvalue-minimisations  :     0
 total energy-change (2. order) :-0.2075003E-03  (-0.9100920E-04)
 number of electron      11.0000013 magnetization 
 augmentation part        7.0108427 magnetization 

 Free energy of the ion-electron system (eV)
  ---------------------------------------------------
  alpha Z        PSCENC =        61.60164072
  Ewald energy   TEWEN  =     -1103.00566943
  -Hartree energ DENC   =      -339.71072563
  -exchange      EXHF   =         0.00000000
  -V(xc)+E(xc)   XCENC  =        44.66900991
  PAW double counting   =      1316.26095921    -1424.08735206
  entropy T*S    EENTRO =        -0.00009653
  eigenvalues    EBANDS =        49.54636069
  atomic energy  EATOM  =      1390.95764020
  ---------------------------------------------------
  free energy    TOTEN  =        -3.76823292 eV

  energy without entropy =       -3.76813639  energy(sigma->0) =       -3.76818465


--------------------------------------------------------------------------------------------------------




--------------------------------------- Iteration      1(  10)  ---------------------------------------


    POTLOK:  cpu time    0.0078: real time    0.0078
    SETDIJ:  cpu time    0.0075: real time    0.0075
    TRIAL :  cpu time    4.9406: real time    4.9421
    CORREC:  cpu time    4.1752: real time    4.1755
    CHARGE:  cpu time    0.0508: real time    0.0508
    --------------------------------------------
      LOOP:  cpu time    9.2070: real time    9.2155

 eigenvalue-minimisations  :     0
 total energy-change (2. order) :-0.9613033E-04  (-0.6238115E-05)
 number of electron      11.0000013 magnetization 
 augmentation part        7.0111348 magnetization 

 Free energy of the ion-electron system (eV)
  ---------------------------------------------------
  alpha Z        PSCENC =        61.60164072
  Ewald energy   TEWEN  =     -1103.00566943
  -Hartree energ DENC   =      -339.81680980
  -exchange      EXHF   =         0.00000000
  -V(xc)+E(xc)   XCENC  =        44.67411279
  PAW double counting   =      1315.81068937    -1423.62384473
  entropy T*S    EENTRO =        -0.00009653
  eigenvalues    EBANDS =        49.63400836
  atomic energy  EATOM  =      1390.95764020
  ---------------------------------------------------
  free energy    TOTEN  =        -3.76832905 eV

  energy without entropy =       -3.76823252  energy(sigma->0) =       -3.76828078


--------------------------------------------------------------------------------------------------------




--------------------------------------- Iteration      1(  11)  ---------------------------------------


    POTLOK:  cpu time    0.0076: real time    0.0076
    SETDIJ:  cpu time    0.0075: real time    0.0075
    TRIAL :  cpu time    4.9428: real time    4.9446
    CORREC:  cpu time    4.1727: real time    4.1730
    EDDIAG:  cpu time    3.6367: real time    3.6397
    CHARGE:  cpu time    0.0508: real time    0.0509
    --------------------------------------------
      LOOP:  cpu time   12.8538: real time   12.8592

 eigenvalue-minimisations  :     0
 total energy-change (2. order) :-0.6519522E-05  (-0.3542500E-06)
 number of electron      11.0000013 magnetization 
 augmentation part        7.0110232 magnetization 

 Free energy of the ion-electron system (eV)
  ---------------------------------------------------
  alpha Z        PSCENC =        61.60164072
  Ewald energy   TEWEN  =     -1103.00566943
  -Hartree energ DENC   =      -339.84958239
  -exchange      EXHF   =         0.00000000
  -V(xc)+E(xc)   XCENC  =        44.67572844
  PAW double counting   =      1315.75525849    -1423.57104158
  entropy T*S    EENTRO =        -0.00009653
  eigenvalues    EBANDS =        49.66778651
  atomic energy  EATOM  =      1390.95764020
  ---------------------------------------------------
  free energy    TOTEN  =        -3.76833557 eV

  energy without entropy =       -3.76823904  energy(sigma->0) =       -3.76828730


--------------------------------------------------------------------------------------------------------


  average scaling for gradient   1.1211


 average (electrostatic) potential at core
  the test charge radii are     0.9430
  (the norm of the test charge is              1.0000)
       1 -63.7294
 
 
 
 E-fermi :   7.7512     XC(G=0): -12.6930     alpha+bet :-13.3545

 Fermi energy:         7.7512160231

 k-point     1 :       0.0000    0.0000    0.0000
  band No.  band energies     occupation 
      1      -1.7906      2.00000
      2       4.5295      2.00000
      3       4.5295      2.00000
      4       4.5295      2.00000
      5       5.3503      2.00000
      6       5.3503      2.00000
      7      30.0757      0.00000
      8      32.6770      0.00000
      9      32.6770      0.00000
     10      32.6770      0.00000
     11      35.1680      0.00000
     12      35.1680      0.00000
     13      35.1680      0.00000
     14      38.9324      0.00000
     15      43.6650      0.00000
     16      43.6650      0.00000
     17      43.6650      0.00000
     18      46.2251      0.00000
     19      46.2251      0.00000
     20      60.1112      0.00000
     21      78.6691      0.00000
     22      78.6691      0.00000
     23      78.6691      0.00000
     24      86.9166      0.00000
     25      86.9166      0.00000
     26      86.9166      0.00000
     27      87.4974      0.00000
     28      87.4974      0.00000
     29      92.0206      0.00000
     30      92.0206      0.00000
     31      92.0206      0.00000
     32      96.4854      0.00000
     33     103.6871      0.00000
     34     103.6871      0.00000
     35     103.6871      0.00000
     36     110.1574      0.00000
     37     110.1914      0.00000
     38     110.1914      0.00000
     39     110.1914      0.00000
     40     110.6497      0.00000
     41     115.2045      0.00000
     42     115.2045      0.00000
     43     115.2045      0.00000
     44     115.5957      0.00000
     45     115.5957      0.00000
     46     115.5957      0.00000
     47     119.4189      0.00000
     48     119.4189      0.00000
     49     119.4189      0.00000
     50     121.1169      0.00000
     51     121.1169      0.00000
     52     128.1983      0.00000
[...]
  169            orth1_nosubindex                      0.140060                     2064   5
  170            m_sum_g                               0.622844                     2064   5
  171              m_sumb_d                              0.594316                   2064   6
  172            distri_slice                          0.025149                     2064   5
  173          choleski                              2.018247                       2064   4
  174            bg_ppotrf_trtri                       1.992292                     2064   5
  175          lincom_distri                         1.186951                       2064   4
  176            recon_slice                           0.026964                     2064   5
  177            m_sum_g                               0.839556                     2064   5
  178              m_sumb_d                              0.810281                   2064   6
  179            lincom_slice                          0.253660                     2064   5
  180        redis_pw_over_bands                   0.213154                           12   3
  181          redis_pw_all                          0.213012                         12   4
  182            redis_pw                              0.196339                     2064   5
  183              m_alltoall_d                          0.167663                   2064   6
  184      eddiag                                3.959003                              7   2
  185        fftwav_mpi                            0.329577                         1204   3
  186          fftwav                                0.315905                       1204   4
  187            fft3d                                 0.276797                     1204   5
  188        eccp                                  0.028375                         1032   3
  189        m_sumb_d                              0.141346                          350   3
  190        overl                                 0.006626                          172   3
  191        redis_proj                            0.062127                          516   3
  192          m_alltoall_d                          0.053734                        516   4
  193        hamilt_local                          0.077416                          172   3
  194          vhamil                                0.008514                        172   4
  195          kinhamil                              0.065123                        172   4
  196            fftext_mpi                            0.061701                      172   5
  197              fft3d_mpi                             0.056834                    172   6
  198                fft3d                                 0.054284                  172   7
  199        redis_pw                              0.071700                          516   3
  200          m_alltoall_d                          0.059624                        516   4
  201        orth1                                 0.021676                          172   3
  202        shift_bands_between_low_high          0.000676                          172   3
  203        pdssyex_zheevx                        3.119256                          172   3
  204        lincom                                0.025956                          172   3
  205      rotate_active_occupied_orbital        0.000011                              1   2
  206      sphpro_fast                           0.997291                              2   2
  207        m_sumb_d                              0.005458                            5   3
  208      force_and_stress                      0.352045                              1   2
  209        forloc                                0.000387                            1   3
  210          m_sumb_d                              0.000300                          1   4
  211        fornl                                 0.008685                            1   3
  212          phase                                 0.001635                        172   4
  213          m_sumb_d                              0.000049                          2   4
  214        fordep                                0.003986                            1   3
  215          setdij_                               0.003858                          6   4
  216            m_sumb_d                              0.001003                        6   5
  217        setdij_                               0.012253                           20   3
  218          m_sumb_d                              0.003501                         20   4
  219        set_dd_magatom                        0.000007                            1   3
  220        set_dd_paw                            0.006883                            1   3
  221          set_rsgf_all                          0.000004                          1   4
  222          m_sumb_d                              0.006547                          7   4
  223        strkin                                0.000653                            1   3
  224          m_sumb_d                              0.000332                          1   4
  225        strelo                                0.000789                            1   3
  226          m_sumb_d                              0.000247                          2   4
  227        strenl                                0.242042                            1   3
  228          spher                                 0.145866                         19   4
  229          phase                                 0.016642                       1548   4
  230          proj1                                 0.047586                       1548   4
  231            crexp_mul_wave                        0.010594                     1548   5
  232          m_sumb_d                              0.001121                          1   4
  233        fft3d_mpi                             0.005037                           11   3
  234          fftbas_plan_mpi                       0.004862                         11   4
  235            dfftw_execute                         0.000697                       33   5
  236            map_forward                           0.001232                       10   5
  237              map_gather                            0.000058                      5   6
  238              m_alltoallv_z                         0.000921                      5   6
  239              map_scatter                           0.000082                      5   6
  240            map_backward                          0.001187                       12   5
  241              map_gather                            0.000087                      6   6
  242              m_alltoallv_z                         0.000768                      6   6
  243              map_scatter                           0.000080                      6   6
  244        ggaall_grid                           0.000849                            1   3
  245        m_sumb_d                              0.000105                            5   3
  246        forhar                                0.000464                            1   3
  247          m_sumb_d                              0.000378                          1   4
  248        strehar                               0.000167                            1   3
  249          m_sumb_d                              0.000024                          1   4
  250        m_bcast_d                             0.001188                            2   3
  251      set_dd_magatom                        0.000003                              1   2
 
 Flat profile
 ============
 
             routine name                   CPU           calls
 ---------------------------------------------------------------
 eddav                                  65.210568           5
 pdssyex_zheevx                         41.863183        2236
 m_sumb_d                               12.546215       29386
 m_alltoall_d                            6.064514       56929
 total_time                              4.480743           1
 fft3d                                   3.531024       12162
 edwav                                   3.362443          12
 bg_ppotrf_trtri                         2.197491        2236
 m_bcast_z                               1.603247       13735
 orth1                                   1.005462        8525
 sphpro_fast                             0.991833           2
 redis_proj                              0.642707       37740
 lincom                                  0.491737        4300
 redis_pw                                0.392918       19189
 fftwav                                  0.316372        8231
 m_bcast_d                               0.285083        5473
 lincom_slice                            0.274158        2236
 overl                                   0.212664       10098
 orth1_nosubindex                        0.191026        2236
 orthch                                  0.174915          13
 eccp                                    0.174639        4988
 proj1                                   0.169215        4619
 hamiltmu                                0.167733        2727
 spher                                   0.164813          20
 vhamil                                  0.153483        3931
 w1_copy                                 0.127881        8181
 fftext_mpi                              0.122959        3931
 fftwav_mpi                              0.097234        8231
 vnlac0                                  0.087759        3759
 gemm                                    0.084788        3759
 orth1_distri                            0.077671        2236
 kinhamil                                0.076394        3931
 newband                                 0.075198        3587
 eddiag                                  0.074272           7
 lincom_distri                           0.072236        2236
 force_and_stress                        0.068550           1
 fft3d_mpi                               0.064892        4151
 m_sum_g                                 0.062657        4472
 apply_precond                           0.061465        1867
 densta                                  0.056371          24
 phase                                   0.055724        3785
 work_mul_crexp                          0.053437        3759
 pw_charge                               0.049373        2236
 crexp_mul_wave                          0.041831        4619
 soft_charge                             0.041605          13
 m_alltoallv_z                           0.039548         247
 fftbas_plan_mpi                         0.036251         220
 overl1                                  0.034692        2727
 strenl                                  0.030828           1
 recon_slice                             0.029255        2236
 distri_slice                            0.028106        2236
 choleski                                0.028101        2236
 hamilt_local                            0.026053        1204
 w1_projall                              0.022952        1867
 setdij_                                 0.021502          41
 w1_dscal                                0.021492        1032
 redis_pw_all                            0.016672          12
 dfftw_execute                           0.014084         660
 setup_precond                           0.013129         860
 ggaall_grid                             0.012746          15
 truncate_high_frequency_w1              0.012696        3587
 potlok                                  0.010897          14
 augmentation_charge                     0.009218          13
 set_dd_paw                              0.008345          15
 fornl                                   0.007001           1
 depsum                                  0.005877          13
 fewald                                  0.004629           1
 map_backward                            0.004223         232
 map_scatter                             0.003933         247
 map_forward                             0.003828         208
 map_gather                              0.003349         247
 proj                                    0.002836         172
 set_charge                              0.000843          13
 shift_bands_between_low_high            0.000676         172
 strelo                                  0.000542           1
 rsp                                     0.000495           1
 pothar                                  0.000492          14
 strkin                                  0.000321           1
 brgrid                                  0.000276           1
 fft_gq                                  0.000242          13
 crpa_reader                             0.000191           1
 redis_pw_over_bands                     0.000146          13
 strehar                                 0.000143           1
 fordep                                  0.000128           1
 forloc                                  0.000087           1
 forhar                                  0.000086           1
 set_rsgf_all                            0.000072          15
 rcp                                     0.000062           1
 potlok_metagga                          0.000055          14
 stufak                                  0.000043           1
 FERMAT_RAZOR                            0.000022           1
 vectorpot                               0.000017           1
 rotate_active_occupied_orbital          0.000011           1
 set_dd_magatom                          0.000010           2
 ---------------------------------------------------------------
  summed up times    148.577688932419     
 
 Accumulative profile
 ====================
 
             routine name                   CPU           calls
 ---------------------------------------------------------------
 total_time                            148.577689           1
 eddav                                  82.060944           5
 edwav                                  54.205879          12
 pdssyex_zheevx                         41.863183        2236
 m_sumb_d                               12.546215       29386
 m_alltoall_d                            6.064514       56929
 orthch                                  5.554041          13
 redis_proj                              4.593687       37740
 eddiag                                  3.959003           7
 fft3d                                   3.531024       12162
 fftwav_mpi                              2.725715        8231
 fftwav                                  2.628481        8231
 redis_pw                                2.506453       19189
 choleski                                2.225592        2236
 bg_ppotrf_trtri                         2.197491        2236
 m_bcast_z                               1.603247       13735
 m_sum_g                                 1.591465        4472
 hamiltmu                                1.515958        2727
 kinhamil                                1.478010        3931
 fftext_mpi                              1.401617        3931
 fft3d_mpi                               1.389023        4151
 lincom_distri                           1.284956        2236
 orth1                                   1.005462        8525
 sphpro_fast                             0.997291           2
 orth1_distri                            0.978962        2236
 set_charge                              0.663179          13
 newband                                 0.657250        3587
 soft_charge                             0.638851          13
 hamilt_local                            0.494101        1204
 lincom                                  0.491737        4300
 force_and_stress                        0.352045           1
 m_bcast_d                               0.285083        5473
 lincom_slice                            0.274158        2236
 strenl                                  0.242042           1
 vnlac0                                  0.225984        3759
 redis_pw_over_bands                     0.213158          13
 redis_pw_all                            0.213012          12
 overl                                   0.212664       10098
 proj1                                   0.211045        4619
 orth1_nosubindex                        0.191026        2236
 eccp                                    0.174639        4988
 spher                                   0.164813          20
 vhamil                                  0.153483        3931
 w1_copy                                 0.127881        8181
 w1_projall                              0.120129        1867
 potlok                                  0.117765          14
 set_dd_paw                              0.108038          15
 fftbas_plan_mpi                         0.105215         220
 densta                                  0.094418          24
 gemm                                    0.084788        3759
 apply_precond                           0.061465        1867
 phase                                   0.055724        3785
 work_mul_crexp                          0.053437        3759
 pw_charge                               0.049373        2236
 crexp_mul_wave                          0.041831        4619
 m_alltoallv_z                           0.039548         247
 overl1                                  0.034692        2727
 recon_slice                             0.029255        2236
 map_forward                             0.029250         208
 setdij_                                 0.028284          41
 distri_slice                            0.028106        2236
 map_backward                            0.025631         232
 w1_dscal                                0.021492        1032
 augmentation_charge                     0.015862          13
 dfftw_execute                           0.014084         660
 setup_precond                           0.013129         860
 ggaall_grid                             0.012746          15
 truncate_high_frequency_w1              0.012696        3587
 fornl                                   0.008685           1
 proj                                    0.008025         172
 depsum                                  0.007624          13
 fft_gq                                  0.007253          13
 fewald                                  0.005924           1
 fordep                                  0.003986           1
 map_scatter                             0.003933         247
 map_gather                              0.003349         247
 pothar                                  0.000996          14
 strelo                                  0.000789           1
 shift_bands_between_low_high            0.000676         172
 strkin                                  0.000653           1
 rsp                                     0.000495           1
 forhar                                  0.000464           1
 forloc                                  0.000387           1
 brgrid                                  0.000276           1
 crpa_reader                             0.000191           1
 strehar                                 0.000167           1
 set_rsgf_all                            0.000072          15
 rcp                                     0.000062           1
 potlok_metagga                          0.000055          14
 stufak                                  0.000043           1
 FERMAT_RAZOR                            0.000022           1
 vectorpot                               0.000017           1
 rotate_active_occupied_orbital          0.000011           1
 set_dd_magatom                          0.000010           2
 ---------------------------------------------------------------
 
Profiling took   0.854990  0.964328  0.005963  0.004928 seconds
Profiling took   0.868780 seconds
