PROCAR lm decomposed + phase
# of k-points:   60         # of bands:  12         # of ions:   3

 k-point    1 :    0.06250000 0.06250000 0.06250000     weight = 0.00390625

band   1 # energy  -43.00085757 # occ.  1.00000000
 
ion      s     py     pz     px    dxy    dyz    dz2    dxz    dx2    tot
  1  0.496  0.000  0.000  0.000  0.000  0.000  0.000  0.000  0.000  0.496
  2  0.496  0.000  0.000  0.000  0.000  0.000  0.000  0.000  0.000  0.496
  3  0.001  0.000  0.000  0.000  0.000  0.000  0.000  0.000  0.000  0.001
tot  0.992  0.000  0.000  0.000  0.000  0.000  0.000  0.000  0.000  0.992
ion      s     py     pz     px    dxy    dyz    dz2    dxz    dx2
  1 -0.746  0.000  0.000  0.000  0.000  0.000  0.000  0.000  0.000
  1  0.099  0.000  0.000  0.000  0.000  0.000  0.000  0.000  0.000
  2 -0.746  0.000  0.000  0.000  0.000  0.000  0.000  0.000  0.000
  2  0.099  0.000  0.000  0.000  0.000  0.000  0.000  0.000  0.000
  3 -0.053  0.000  0.000  0.000  0.000  0.000  0.000  0.000  0.000
  3  0.007  0.003  0.003  0.003  0.000  0.000  0.000  0.000  0.000
 
band   2 # energy  -42.67172300 # occ.  1.00000000
 
ion      s     py     pz     px    dxy    dyz    dz2    dxz    dx2    tot
  1  0.500  0.000  0.000  0.000  0.000  0.000  0.000  0.000  0.000  0.500
  2  0.500  0.000  0.000  0.000  0.000  0.000  0.000  0.000  0.000  0.500
  3  0.000  0.000  0.000  0.000  0.000  0.000  0.000  0.000  0.000  0.000
tot  1.000  0.000  0.000  0.000  0.000  0.000  0.000  0.000  0.000  1.000
ion      s     py     pz     px    dxy    dyz    dz2    dxz    dx2
  1 -0.562  0.000  0.000  0.000  0.000  0.000  0.000  0.000  0.000
  1 -0.416 -0.000 -0.000 -0.000  0.000  0.000  0.000  0.000  0.000
  2  0.562 -0.000 -0.000 -0.000  0.000  0.000  0.000  0.000  0.000
  2  0.416  0.000  0.000  0.000  0.000  0.000  0.000  0.000  0.000
  3  0.000 -0.000 -0.000 -0.000  0.000  0.000  0.000  0.000  0.000
  3 -0.000 -0.000 -0.000 -0.000  0.000  0.000  0.000  0.000  0.000
 
band   3 # energy  -15.49935783 # occ.  1.00000000
 
ion      s     py     pz     px    dxy    dyz    dz2    dxz    dx2    tot
  1  0.026  0.000  0.000  0.000  0.000  0.000  0.000  0.000  0.000  0.027
  2  0.026  0.000  0.000  0.000  0.000  0.000  0.000  0.000  0.000  0.027
  3  0.738  0.000  0.000  0.000  0.000  0.000  0.000  0.000  0.000  0.738
tot  0.790  0.000  0.000  0.000  0.000  0.000  0.000  0.000  0.000  0.791
ion      s     py     pz     px    dxy    dyz    dz2    dxz    dx2
  1 -0.491 -0.000 -0.000 -0.000  0.000  0.000  0.000  0.000  0.000
  1 -0.073  0.010  0.010  0.010  0.000  0.000  0.000  0.000  0.000
  2 -0.491 -0.002 -0.002 -0.002  0.000  0.000  0.000  0.000  0.000
  2 -0.073  0.010  0.010  0.010  0.000  0.000  0.000  0.000  0.000
  3 -1.008 -0.000 -0.000 -0.000  0.000  0.000  0.000  0.000  0.000
  3 -0.150  0.003  0.003  0.003  0.000  0.000  0.000  0.000  0.000
 
band   4 # energy   -0.18463466 # occ.  1.00000000
 
ion      s     py     pz     px    dxy    dyz    dz2    dxz    dx2    tot
  1  0.005  0.005  0.005  0.005  0.000  0.000  0.000  0.000  0.000  0.019
  2  0.005  0.005  0.005  0.005  0.000  0.000  0.000  0.000  0.000  0.019
  3  0.002  0.229  0.229  0.229  0.000  0.000  0.000  0.000  0.000  0.690
tot  0.011  0.239  0.239  0.239  0.000  0.000  0.000  0.000  0.000  0.727
ion      s     py     pz     px    dxy    dyz    dz2    dxz    dx2
  1  0.176 -0.013 -0.013 -0.013  0.000  0.000  0.000  0.000  0.000
  1  0.145  0.066  0.066  0.066  0.000  0.000  0.000  0.000  0.000
  2  0.148 -0.066 -0.066 -0.066  0.000  0.000  0.000  0.000  0.000
  2  0.173  0.015  0.015  0.015  0.000  0.000  0.000  0.000  0.000
  3 -0.024  0.415  0.415  0.415  0.000  0.000  0.000  0.000  0.000
  3 -0.023 -0.424 -0.424 -0.424  0.000  0.000  0.000  0.000  0.000
 
band   5 # energy   -0.06300181 # occ.  1.00000000
 
ion      s     py     pz     px    dxy    dyz    dz2    dxz    dx2    tot
  1  0.000  0.005  0.006  0.003  0.000  0.000  0.000  0.000  0.000  0.014
  2  0.000  0.005  0.006  0.003  0.000  0.000  0.000  0.000  0.000  0.014
  3  0.000  0.249  0.302  0.157  0.000  0.000  0.000  0.000  0.000  0.708
tot  0.000  0.259  0.313  0.163  0.000  0.000  0.000  0.000  0.000  0.735
ion      s     py     pz     px    dxy    dyz    dz2    dxz    dx2
  1 -0.000  0.066 -0.066  0.001  0.000  0.000  0.000  0.000  0.000
  1 -0.000  0.019  0.035 -0.054  0.000  0.000  0.000  0.000  0.000
  2 -0.000  0.066 -0.037 -0.029  0.000  0.000  0.000  0.000  0.000
  2 -0.000 -0.019  0.065 -0.046  0.000  0.000  0.000  0.000  0.000
  3 -0.000 -0.616  0.486  0.130  0.000  0.000  0.000  0.000  0.000
  3  0.000  0.001 -0.473  0.472  0.000  0.000  0.000  0.000  0.000
 
band   6 # energy   -0.06300181 # occ.  1.00000000
 
ion      s     py     pz     px    dxy    dyz    dz2    dxz    dx2    tot
  1  0.000  0.004  0.003  0.006  0.000  0.000  0.000  0.000  0.000  0.014
  2  0.000  0.004  0.003  0.006  0.000  0.000  0.000  0.000  0.000  0.014
  3  0.000  0.223  0.170  0.315  0.000  0.000  0.000  0.000  0.000  0.708
tot  0.000  0.232  0.177  0.327  0.000  0.000  0.000  0.000  0.000  0.735
ion      s     py     pz     px    dxy    dyz    dz2    dxz    dx2
  1 -0.000  0.012  0.052 -0.064  0.000  0.000  0.000  0.000  0.000
  1 -0.000  0.064 -0.021 -0.042  0.000  0.000  0.000  0.000  0.000
  2 -0.000  0.044  0.032 -0.077  0.000  0.000  0.000  0.000  0.000
  2  0.000  0.047 -0.046 -0.001  0.000  0.000  0.000  0.000  0.000
  3 -0.000 -0.265 -0.398  0.663  0.000  0.000  0.000  0.000  0.000
  3  0.000 -0.520  0.318  0.202  0.000  0.000  0.000  0.000  0.000
 
band   7 # energy    5.33049184 # occ.  0.00000000
 
ion      s     py     pz     px    dxy    dyz    dz2    dxz    dx2    tot
  1  0.155  0.002  0.002  0.002  0.000  0.000  0.000  0.000  0.000  0.160
  2  0.155  0.002  0.002  0.002  0.000  0.000  0.000  0.000  0.000  0.160
  3  0.142  0.006  0.006  0.006  0.000  0.000  0.000  0.000  0.000  0.159
tot  0.453  0.009  0.009  0.009  0.000  0.000  0.000  0.000  0.000  0.479
ion      s     py     pz     px    dxy    dyz    dz2    dxz    dx2
  1  0.044  0.043  0.043  0.043  0.000  0.000  0.000  0.000  0.000
  1  1.356 -0.007 -0.007 -0.007  0.000  0.000  0.000  0.000  0.000
  2  0.051  0.043  0.043  0.043  0.000  0.000  0.000  0.000  0.000
  2  1.356  0.004  0.004  0.004  0.000  0.000  0.000  0.000  0.000
  3 -0.007 -0.080 -0.080 -0.080  0.000  0.000  0.000  0.000  0.000
  3 -0.195  0.003  0.003  0.003  0.000  0.000  0.000  0.000  0.000
 
band   8 # energy   11.90438467 # occ.  0.00000000
 
ion      s     py     pz     px    dxy    dyz    dz2    dxz    dx2    tot
  1  0.005  0.115  0.115  0.115  0.000  0.000  0.000  0.000  0.000  0.349
  2  0.005  0.115  0.115  0.115  0.000  0.000  0.000  0.000  0.000  0.349
  3  0.000  0.004  0.004  0.004  0.000  0.000  0.000  0.000  0.000  0.013
tot  0.009  0.234  0.234  0.234  0.000  0.000  0.000  0.000  0.000  0.711
ion      s     py     pz     px    dxy    dyz    dz2    dxz    dx2
  1 -0.208 -0.180 -0.180 -0.180  0.000  0.000  0.000  0.000  0.000
  1  0.112 -0.403 -0.403 -0.403  0.000  0.000  0.000  0.000  0.000
  2  0.233  0.102  0.102  0.102  0.000  0.000  0.000  0.000  0.000
  2 -0.038  0.429  0.429  0.429  0.000  0.000  0.000  0.000  0.000
  3 -0.001  0.051  0.051  0.051  0.000  0.000  0.000  0.000  0.000
  3 -0.002 -0.017 -0.017 -0.017  0.000  0.000  0.000  0.000  0.000
 
band   9 # energy   11.95513082 # occ.  0.00000000
 
ion      s     py     pz     px    dxy    dyz    dz2    dxz    dx2    tot
  1  0.000  0.097  0.160  0.096  0.000  0.000  0.000  0.000  0.000  0.353
  2  0.000  0.097  0.160  0.096  0.000  0.000  0.000  0.000  0.000  0.353
  3  0.000  0.001  0.001  0.001  0.000  0.000  0.000  0.000  0.000  0.003
tot  0.000  0.195  0.322  0.193  0.000  0.000  0.000  0.000  0.000  0.710
ion      s     py     pz     px    dxy    dyz    dz2    dxz    dx2
  1  0.000  0.009  0.390 -0.400  0.000  0.000  0.000  0.000  0.000
  1 -0.000 -0.406  0.346  0.060  0.000  0.000  0.000  0.000  0.000
  2  0.000  0.031 -0.423  0.392  0.000  0.000  0.000  0.000  0.000
  2 -0.000  0.405 -0.305 -0.100  0.000  0.000  0.000  0.000  0.000
  3 -0.000 -0.024  0.019  0.005  0.000  0.000  0.000  0.000  0.000
  3  0.000  0.001 -0.024  0.024  0.000  0.000  0.000  0.000  0.000
 
band  10 # energy   11.95513082 # occ.  0.00000000
 
ion      s     py     pz     px    dxy    dyz    dz2    dxz    dx2    tot
  1  0.000  0.138  0.075  0.139  0.000  0.000  0.000  0.000  0.000  0.353
  2  0.000  0.138  0.075  0.139  0.000  0.000  0.000  0.000  0.000  0.353
  3  0.000  0.001  0.001  0.001  0.000  0.000  0.000  0.000  0.000  0.003
tot  0.000  0.278  0.151  0.280  0.000  0.000  0.000  0.000  0.000  0.710
ion      s     py     pz     px    dxy    dyz    dz2    dxz    dx2
  1  0.000 -0.326  0.335 -0.009  0.000  0.000  0.000  0.000  0.000
  1  0.000  0.359  0.127 -0.487  0.000  0.000  0.000  0.000  0.000
  2  0.000  0.288 -0.346  0.058  0.000  0.000  0.000  0.000  0.000
  2  0.000 -0.390 -0.093  0.483  0.000  0.000  0.000  0.000  0.000
  3  0.000  0.022  0.007 -0.029  0.000  0.000  0.000  0.000  0.000
  3 -0.000  0.018 -0.020  0.002  0.000  0.000  0.000  0.000  0.000
 
band  11 # energy   18.48705714 # occ.  0.00000000
 
ion      s     py     pz     px    dxy    dyz    dz2    dxz    dx2    tot
  1  0.000  0.030  0.107  0.026  0.000  0.000  0.000  0.000  0.000  0.164
  2  0.000  0.030  0.107  0.026  0.000  0.000  0.000  0.000  0.000  0.164
  3  0.000  0.001  0.002  0.001  0.000  0.000  0.000  0.000  0.000  0.004
tot  0.000  0.061  0.217  0.053  0.000  0.000  0.000  0.000  0.000  0.331
ion      s     py     pz     px    dxy    dyz    dz2    dxz    dx2
  1 -0.000 -0.252  0.495 -0.243  0.000  0.000  0.000  0.000  0.000
  1 -0.000  0.076 -0.046 -0.031  0.000  0.000  0.000  0.000  0.000
  2 -0.000 -0.233  0.477 -0.244  0.000  0.000  0.000  0.000  0.000
  2 -0.000  0.122 -0.138  0.015  0.000  0.000  0.000  0.000  0.000
  3  0.000  0.013 -0.026  0.013  0.000  0.000  0.000  0.000  0.000
  3 -0.000 -0.005  0.005  0.000  0.000  0.000  0.000  0.000  0.000
 
band  12 # energy   18.48713256 # occ.  0.00000000
 
ion      s     py     pz     px    dxy    dyz    dz2    dxz    dx2    tot
  1  0.000  0.078  0.002  0.084  0.000  0.000  0.000  0.000  0.000  0.164
  2  0.000  0.079  0.002  0.084  0.000  0.000  0.000  0.000  0.000  0.164
  3  0.000  0.002  0.000  0.002  0.000  0.000  0.000  0.000  0.000  0.004
tot  0.000  0.158  0.003  0.170  0.000  0.000  0.000  0.000  0.000  0.331
ion      s     py     pz     px    dxy    dyz    dz2    dxz    dx2
  1 -0.003  0.339 -0.034 -0.309  0.000  0.000  0.000  0.000  0.000
  1  0.001  0.253  0.050 -0.314  0.000  0.000  0.000  0.000  0.000
  2 -0.003  0.383 -0.022 -0.360  0.000  0.000  0.000  0.000  0.000
  2  0.000  0.184  0.055 -0.251  0.000  0.000  0.000  0.000  0.000
  3  0.000 -0.019  0.002  0.018  0.000  0.000  0.000  0.000  0.000
  3 -0.000 -0.012 -0.003  0.015  0.000  0.000  0.000  0.000  0.000
 

 k-point    2 :    0.18750000 0.06250000 0.06250000     weight = 0.01171875

band   1 # energy  -42.98151796 # occ.  1.00000000
 
ion      s     py     pz     px    dxy    dyz    dz2    dxz    dx2    tot
  1  0.496  0.000  0.000  0.000  0.000  0.000  0.000  0.000  0.000  0.496
  2  0.496  0.000  0.000  0.000  0.000  0.000  0.000  0.000  0.000  0.496
  3  0.001  0.000  0.000  0.000  0.000  0.000  0.000  0.000  0.000  0.001
tot  0.993  0.000  0.000  0.000  0.000  0.000  0.000  0.000  0.000  0.993
ion      s     py     pz     px    dxy    dyz    dz2    dxz    dx2
  1 -0.086 -0.001  0.000 -0.001  0.000  0.000  0.000  0.000  0.000
  1 -0.745  0.000 -0.000  0.000  0.000  0.000  0.000  0.000  0.000
  2 -0.086 -0.001  0.000 -0.001  0.000  0.000  0.000  0.000  0.000
  2 -0.745  0.000 -0.000  0.000  0.000  0.000  0.000  0.000  0.000
  3 -0.006 -0.009  0.003 -0.009  0.000  0.000  0.000  0.000  0.000
  3 -0.049  0.001 -0.000  0.001  0.000  0.000  0.000  0.000  0.000
 
band   2 # energy  -42.68625306 # occ.  1.00000000
 
ion      s     py     pz     px    dxy    dyz    dz2    dxz    dx2    tot
  1  0.500  0.000  0.000  0.000  0.000  0.000  0.000  0.000  0.000  0.500
  2  0.500  0.000  0.000  0.000  0.000  0.000  0.000  0.000  0.000  0.500
  3  0.000  0.000  0.000  0.000  0.000  0.000  0.000  0.000  0.000  0.000
tot  1.000  0.000  0.000  0.000  0.000  0.000  0.000  0.000  0.000  1.000
ion      s     py     pz     px    dxy    dyz    dz2    dxz    dx2
  1 -0.699 -0.000  0.000 -0.000  0.000  0.000  0.000  0.000  0.000
  1  0.066 -0.001  0.000 -0.001  0.000  0.000  0.000  0.000  0.000
  2  0.699  0.000 -0.000  0.000  0.000  0.000  0.000  0.000  0.000
  2 -0.066  0.001 -0.000  0.001  0.000  0.000  0.000  0.000  0.000
  3 -0.000  0.001 -0.003  0.001  0.000  0.000  0.000  0.000  0.000
  3 -0.000 -0.000  0.000 -0.000  0.000  0.000  0.000  0.000  0.000
 
band   3 # energy  -15.46187891 # occ.  1.00000000
 
ion      s     py     pz     px    dxy    dyz    dz2    dxz    dx2    tot
  1  0.023  0.002  0.000  0.002  0.000  0.000  0.000  0.000  0.000  0.026
  2  0.023  0.002  0.000  0.002  0.000  0.000  0.000  0.000  0.000  0.026
  3  0.742  0.000  0.000  0.000  0.000  0.000  0.000  0.000  0.000  0.742
tot  0.787  0.003  0.001  0.003  0.000  0.000  0.000  0.000  0.000  0.795
ion      s     py     pz     px    dxy    dyz    dz2    dxz    dx2
  1  0.059  0.029 -0.010  0.029  0.000  0.000  0.000  0.000  0.000
  1  0.458 -0.001 -0.007 -0.001  0.000  0.000  0.000  0.000  0.000
  2  0.052  0.028 -0.008  0.028  0.000  0.000  0.000  0.000  0.000
  2  0.459 -0.006  0.009 -0.006  0.000  0.000  0.000  0.000  0.000
  3  0.123  0.007 -0.002  0.007  0.000  0.000  0.000  0.000  0.000
  3  1.014 -0.001  0.000 -0.001  0.000  0.000  0.000  0.000  0.000
 
band   4 # energy   -0.75873015 # occ.  1.00000000
 
ion      s     py     pz     px    dxy    dyz    dz2    dxz    dx2    tot
  1  0.020  0.003  0.014  0.003  0.000  0.000  0.000  0.000  0.000  0.040
  2  0.020  0.003  0.014  0.003  0.000  0.000  0.000  0.000  0.000  0.040
  3  0.008  0.273  0.065  0.273  0.000  0.000  0.000  0.000  0.000  0.618
tot  0.048  0.280  0.092  0.280  0.000  0.000  0.000  0.000  0.000  0.699
ion      s     py     pz     px    dxy    dyz    dz2    dxz    dx2
  1  0.011  0.039 -0.030  0.039  0.000  0.000  0.000  0.000  0.000
  1 -0.479  0.040 -0.110  0.040  0.000  0.000  0.000  0.000  0.000
  2 -0.125  0.028 -0.003  0.028  0.000  0.000  0.000  0.000  0.000
  2 -0.462 -0.049  0.114 -0.049  0.000  0.000  0.000  0.000  0.000
  3  0.008 -0.651  0.317 -0.651  0.000  0.000  0.000  0.000  0.000
  3  0.066  0.079 -0.039  0.079  0.000  0.000  0.000  0.000  0.000
 
band   5 # energy   -0.27209845 # occ.  1.00000000
 
ion      s     py     pz     px    dxy    dyz    dz2    dxz    dx2    tot
  1  0.001  0.007  0.011  0.007  0.000  0.000  0.000  0.000  0.000  0.025
  2  0.001  0.007  0.011  0.007  0.000  0.000  0.000  0.000  0.000  0.025
  3  0.000  0.036  0.613  0.036  0.000  0.000  0.000  0.000  0.000  0.684
tot  0.002  0.049  0.635  0.049  0.000  0.000  0.000  0.000  0.000  0.735
ion      s     py     pz     px    dxy    dyz    dz2    dxz    dx2
  1 -0.082  0.014  0.088  0.014  0.000  0.000  0.000  0.000  0.000
  1 -0.042 -0.080 -0.053 -0.080  0.000  0.000  0.000  0.000  0.000
  2  0.069  0.032  0.098  0.032  0.000  0.000  0.000  0.000  0.000
  2 -0.061  0.074  0.030  0.074  0.000  0.000  0.000  0.000  0.000
  3  0.001 -0.233 -0.965 -0.233  0.000  0.000  0.000  0.000  0.000
  3  0.007  0.028  0.117  0.028  0.000  0.000  0.000  0.000  0.000
 
band   6 # energy   -0.09916941 # occ.  1.00000000
 
ion      s     py     pz     px    dxy    dyz    dz2    dxz    dx2    tot
  1  0.000  0.008  0.000  0.008  0.000  0.000  0.000  0.000  0.000  0.017
  2  0.000  0.008  0.000  0.008  0.000  0.000  0.000  0.000  0.000  0.017
  3  0.000  0.353  0.000  0.353  0.000  0.000  0.000  0.000  0.000  0.705
tot  0.000  0.369  0.000  0.369  0.000  0.000  0.000  0.000  0.000  0.739
ion      s     py     pz     px    dxy    dyz    dz2    dxz    dx2
  1  0.000 -0.074 -0.000  0.074  0.000  0.000  0.000  0.000  0.000
  1 -0.000  0.051 -0.000 -0.051  0.000  0.000  0.000  0.000  0.000
  2  0.000 -0.089 -0.000  0.089  0.000  0.000  0.000  0.000  0.000
  2 -0.000  0.012 -0.000 -0.012  0.000  0.000  0.000  0.000  0.000
  3 -0.000  0.685  0.000 -0.685  0.000  0.000  0.000  0.000  0.000
  3 -0.000 -0.264 -0.000  0.264  0.000  0.000  0.000  0.000  0.000
 
band   7 # energy    5.84319918 # occ.  0.00000000
 
ion      s     py     pz     px    dxy    dyz    dz2    dxz    dx2    tot
  1  0.129  0.011  0.002  0.011  0.000  0.000  0.000  0.000  0.000  0.153
  2  0.129  0.011  0.002  0.011  0.000  0.000  0.000  0.000  0.000  0.153
  3  0.124  0.037  0.004  0.037  0.000  0.000  0.000  0.000  0.000  0.202
tot  0.381  0.059  0.008  0.059  0.000  0.000  0.000  0.000  0.000  0.508
ion      s     py     pz     px    dxy    dyz    dz2    dxz    dx2
  1  0.171  0.119 -0.039  0.119  0.000  0.000  0.000  0.000  0.000
  1  1.225 -0.001 -0.033 -0.001  0.000  0.000  0.000  0.000  0.000
  2  0.125  0.116 -0.030  0.116  0.000  0.000  0.000  0.000  0.000
  2  1.230 -0.027  0.042 -0.027  0.000  0.000  0.000  0.000  0.000
  3 -0.021 -0.200  0.066 -0.200  0.000  0.000  0.000  0.000  0.000
  3 -0.173  0.024 -0.008  0.024  0.000  0.000  0.000  0.000  0.000
 
band   8 # energy   11.89689630 # occ.  0.00000000
 
ion      s     py     pz     px    dxy    dyz    dz2    dxz    dx2    tot
  1  0.012  0.024  0.261  0.024  0.000  0.000  0.000  0.000  0.000  0.321
  2  0.012  0.024  0.261  0.024  0.000  0.000  0.000  0.000  0.000  0.321
  3  0.002  0.023  0.007  0.023  0.000  0.000  0.000  0.000  0.000  0.055
tot  0.026  0.071  0.530  0.071  0.000  0.000  0.000  0.000  0.000  0.697
ion      s     py     pz     px    dxy    dyz    dz2    dxz    dx2
  1 -0.333  0.074  0.047  0.074  0.000  0.000  0.000  0.000  0.000
  1 -0.183 -0.187  0.664 -0.187  0.000  0.000  0.000  0.000  0.000
  2  0.279  0.117 -0.116  0.117  0.000  0.000  0.000  0.000  0.000
  2 -0.259  0.164 -0.655  0.164  0.000  0.000  0.000  0.000  0.000
  3  0.001 -0.124  0.069 -0.124  0.000  0.000  0.000  0.000  0.000
  3  0.011  0.015 -0.008  0.015  0.000  0.000  0.000  0.000  0.000
 
band   9 # energy   12.10660883 # occ.  0.00000000
 
ion      s     py     pz     px    dxy    dyz    dz2    dxz    dx2    tot
  1  0.017  0.127  0.058  0.127  0.000  0.000  0.000  0.000  0.000  0.329
  2  0.017  0.127  0.058  0.127  0.000  0.000  0.000  0.000  0.000  0.329
  3  0.000  0.000  0.043  0.000  0.000  0.000  0.000  0.000  0.000  0.044
tot  0.034  0.255  0.159  0.255  0.000  0.000  0.000  0.000  0.000  0.702
ion      s     py     pz     px    dxy    dyz    dz2    dxz    dx2
  1  0.449  0.085  0.169  0.085  0.000  0.000  0.000  0.000  0.000
  1 -0.065  0.458  0.265  0.458  0.000  0.000  0.000  0.000  0.000
  2 -0.451 -0.034  0.096 -0.034  0.000  0.000  0.000  0.000  0.000
  2  0.051 -0.465 -0.300 -0.465  0.000  0.000  0.000  0.000  0.000
  3  0.000 -0.018 -0.168 -0.018  0.000  0.000  0.000  0.000  0.000
  3  0.000  0.002  0.022  0.002  0.000  0.000  0.000  0.000  0.000
 
band  10 # energy   12.36750172 # occ.  0.00000000
 
ion      s     py     pz     px    dxy    dyz    dz2    dxz    dx2    tot
  1  0.000  0.174  0.000  0.174  0.000  0.000  0.000  0.000  0.000  0.348
  2  0.000  0.174  0.000  0.174  0.000  0.000  0.000  0.000  0.000  0.348
  3  0.000  0.001  0.000  0.001  0.000  0.000  0.000  0.000  0.000  0.002
tot  0.000  0.349  0.000  0.349  0.000  0.000  0.000  0.000  0.000  0.697
ion      s     py     pz     px    dxy    dyz    dz2    dxz    dx2
  1  0.000 -0.220 -0.000  0.220  0.000  0.000  0.000  0.000  0.000
  1  0.000 -0.503  0.000  0.503  0.000  0.000  0.000  0.000  0.000
  2  0.000  0.141  0.000 -0.141  0.000  0.000  0.000  0.000  0.000
  2  0.000  0.530  0.000 -0.530  0.000  0.000  0.000  0.000  0.000
  3  0.000  0.026 -0.000 -0.026  0.000  0.000  0.000  0.000  0.000
  3  0.000 -0.009  0.000  0.009  0.000  0.000  0.000  0.000  0.000
 
band  11 # energy   16.48695069 # occ.  0.00000000
 
ion      s     py     pz     px    dxy    dyz    dz2    dxz    dx2    tot
  1  0.000  0.080  0.000  0.080  0.000  0.000  0.000  0.000  0.000  0.159
  2  0.000  0.080  0.000  0.080  0.000  0.000  0.000  0.000  0.000  0.159
  3  0.000  0.001  0.000  0.001  0.000  0.000  0.000  0.000  0.000  0.002
tot  0.000  0.160  0.000  0.160  0.000  0.000  0.000  0.000  0.000  0.320
ion      s     py     pz     px    dxy    dyz    dz2    dxz    dx2
  1 -0.000  0.357  0.000 -0.357  0.000  0.000  0.000  0.000  0.000
  1  0.000 -0.200  0.000  0.199  0.000  0.000  0.000  0.000  0.000
  2  0.000  0.400  0.000 -0.400  0.000  0.000  0.000  0.000  0.000
  2  0.000 -0.083 -0.000  0.083  0.000  0.000  0.000  0.000  0.000
  3 -0.000  0.016  0.000 -0.016  0.000  0.000  0.000  0.000  0.000
  3  0.000 -0.006 -0.000  0.006  0.000  0.000  0.000  0.000  0.000
 
band  12 # energy   18.21736850 # occ.  0.00000000
 
ion      s     py     pz     px    dxy    dyz    dz2    dxz    dx2    tot
  1  0.025  0.045  0.051  0.045  0.000  0.000  0.000  0.000  0.000  0.168
  2  0.025  0.046  0.051  0.046  0.000  0.000  0.000  0.000  0.000  0.167
  3  0.004  0.001  0.000  0.001  0.000  0.000  0.000  0.000  0.000  0.006
tot  0.055  0.092  0.102  0.092  0.000  0.000  0.000  0.000  0.000  0.341
ion      s     py     pz     px    dxy    dyz    dz2    dxz    dx2
  1  0.056 -0.314 -0.215 -0.314  0.000  0.000  0.000  0.000  0.000
  1  0.557  0.069  0.264  0.069  0.000  0.000  0.000  0.000  0.000
  2  0.078 -0.322 -0.273 -0.322  0.000  0.000  0.000  0.000  0.000
  2  0.554  0.008 -0.204  0.008  0.000  0.000  0.000  0.000  0.000
  3  0.001 -0.018 -0.003 -0.018  0.000  0.000  0.000  0.000  0.000
  3  0.006  0.002  0.000  0.002  0.000  0.000  0.000  0.000  0.000
 

 k-point    3 :    0.31250000 0.06250000 0.06250000     weight = 0.01171875

band   1 # energy  -42.93732256 # occ.  1.00000000
 
ion      s     py     pz     px    dxy    dyz    dz2    dxz    dx2    tot
  1  0.497  0.000  0.000  0.000  0.000  0.000  0.000  0.000  0.000  0.497
  2  0.497  0.000  0.000  0.000  0.000  0.000  0.000  0.000  0.000  0.497
  3  0.001  0.000  0.000  0.000  0.000  0.000  0.000  0.000  0.000  0.001
tot  0.994  0.000  0.000  0.000  0.000  0.000  0.000  0.000  0.000  0.994
ion      s     py     pz     px    dxy    dyz    dz2    dxz    dx2
  1  0.706  0.001 -0.000  0.001  0.000  0.000  0.000  0.000  0.000
  1  0.230 -0.002  0.001 -0.002  0.000  0.000  0.000  0.000  0.000
  2  0.706  0.001 -0.000  0.001  0.000  0.000  0.000  0.000  0.000
  2  0.231 -0.002  0.001 -0.002  0.000  0.000  0.000  0.000  0.000
  3  0.039  0.004 -0.002  0.004  0.000  0.000  0.000  0.000  0.000
  3  0.013 -0.013  0.007 -0.013  0.000  0.000  0.000  0.000  0.000
 
band   2 # energy  -42.72076592 # occ.  1.00000000
 
ion      s     py     pz     px    dxy    dyz    dz2    dxz    dx2    tot
  1  0.499  0.000  0.000  0.000  0.000  0.000  0.000  0.000  0.000  0.500
  2  0.499  0.000  0.000  0.000  0.000  0.000  0.000  0.000  0.000  0.500
  3  0.000  0.000  0.000  0.000  0.000  0.000  0.000  0.000  0.000  0.000
tot  0.999  0.000  0.000  0.000  0.000  0.000  0.000  0.000  0.000  0.999
ion      s     py     pz     px    dxy    dyz    dz2    dxz    dx2
  1  0.177  0.001 -0.001  0.001  0.000  0.000  0.000  0.000  0.000
  1 -0.685  0.000 -0.000  0.000  0.000  0.000  0.000  0.000  0.000
  2 -0.178 -0.001  0.001 -0.001  0.000  0.000  0.000  0.000  0.000
  2  0.685 -0.000  0.000 -0.000  0.000  0.000  0.000  0.000  0.000
  3  0.003 -0.001  0.002 -0.001  0.000  0.000  0.000  0.000  0.000
  3  0.001  0.004 -0.007  0.004  0.000  0.000  0.000  0.000  0.000
 
band   3 # energy  -15.38478107 # occ.  1.00000000
 
ion      s     py     pz     px    dxy    dyz    dz2    dxz    dx2    tot
  1  0.015  0.004  0.002  0.004  0.000  0.000  0.000  0.000  0.000  0.025
  2  0.015  0.004  0.002  0.004  0.000  0.000  0.000  0.000  0.000  0.025
  3  0.752  0.000  0.000  0.000  0.000  0.000  0.000  0.000  0.000  0.753
tot  0.783  0.008  0.004  0.008  0.000  0.000  0.000  0.000  0.000  0.803
ion      s     py     pz     px    dxy    dyz    dz2    dxz    dx2
  1  0.338  0.032 -0.030  0.032  0.000  0.000  0.000  0.000  0.000
  1  0.180 -0.028  0.008 -0.028  0.000  0.000  0.000  0.000  0.000
  2  0.304  0.013  0.005  0.013  0.000  0.000  0.000  0.000  0.000
  2  0.232 -0.041  0.031 -0.041  0.000  0.000  0.000  0.000  0.000
  3  0.864  0.005 -0.003  0.005  0.000  0.000  0.000  0.000  0.000
  3  0.555 -0.007  0.004 -0.007  0.000  0.000  0.000  0.000  0.000
 
band   4 # energy   -1.78497698 # occ.  1.00000000
 
ion      s     py     pz     px    dxy    dyz    dz2    dxz    dx2    tot
  1  0.037  0.009  0.020  0.009  0.000  0.000  0.000  0.000  0.000  0.074
  2  0.037  0.009  0.020  0.009  0.000  0.000  0.000  0.000  0.000  0.074
  3  0.008  0.195  0.123  0.195  0.000  0.000  0.000  0.000  0.000  0.521
tot  0.081  0.213  0.162  0.213  0.000  0.000  0.000  0.000  0.000  0.669
ion      s     py     pz     px    dxy    dyz    dz2    dxz    dx2
  1  0.372 -0.061  0.105 -0.061  0.000  0.000  0.000  0.000  0.000
  1  0.528 -0.064  0.082 -0.064  0.000  0.000  0.000  0.000  0.000
  2  0.634  0.084 -0.118  0.084  0.000  0.000  0.000  0.000  0.000
  2  0.123  0.030 -0.062  0.030  0.000  0.000  0.000  0.000  0.000
  3 -0.059  0.308 -0.245  0.308  0.000  0.000  0.000  0.000  0.000
  3 -0.038 -0.476  0.378 -0.476  0.000  0.000  0.000  0.000  0.000
 
band   5 # energy   -0.46160756 # occ.  1.00000000
 
ion      s     py     pz     px    dxy    dyz    dz2    dxz    dx2    tot
  1  0.002  0.009  0.017  0.009  0.000  0.000  0.000  0.000  0.000  0.036
  2  0.002  0.009  0.017  0.009  0.000  0.000  0.000  0.000  0.000  0.036
  3  0.000  0.079  0.509  0.079  0.000  0.000  0.000  0.000  0.000  0.667
tot  0.004  0.096  0.543  0.096  0.000  0.000  0.000  0.000  0.000  0.738
ion      s     py     pz     px    dxy    dyz    dz2    dxz    dx2
  1  0.132  0.053  0.027  0.053  0.000  0.000  0.000  0.000  0.000
  1 -0.047  0.074  0.124  0.074  0.000  0.000  0.000  0.000  0.000
  2  0.011 -0.089 -0.124 -0.089  0.000  0.000  0.000  0.000  0.000
  2  0.139 -0.018  0.025 -0.018  0.000  0.000  0.000  0.000  0.000
  3 -0.008  0.191  0.485  0.191  0.000  0.000  0.000  0.000  0.000
  3 -0.005 -0.293 -0.746 -0.293  0.000  0.000  0.000  0.000  0.000
 
band   6 # energy   -0.25826965 # occ.  1.00000000
 
ion      s     py     pz     px    dxy    dyz    dz2    dxz    dx2    tot
  1  0.000  0.013  0.000  0.013  0.000  0.000  0.000  0.000  0.000  0.027
  2  0.000  0.013  0.000  0.013  0.000  0.000  0.000  0.000  0.000  0.027
  3  0.000  0.345  0.000  0.345  0.000  0.000  0.000  0.000  0.000  0.690
tot  0.000  0.372  0.000  0.372  0.000  0.000  0.000  0.000  0.000  0.743
ion      s     py     pz     px    dxy    dyz    dz2    dxz    dx2
  1 -0.000  0.113  0.000 -0.113  0.000  0.000  0.000  0.000  0.000
  1  0.000  0.002 -0.000 -0.002  0.000  0.000  0.000  0.000  0.000
  2 -0.000  0.061 -0.000 -0.061  0.000  0.000  0.000  0.000  0.000
  2 -0.000  0.096  0.000 -0.096  0.000  0.000  0.000  0.000  0.000
  3 -0.000 -0.636 -0.000  0.636  0.000  0.000  0.000  0.000  0.000
  3  0.000 -0.357 -0.000  0.357  0.000  0.000  0.000  0.000  0.000
 
band   7 # energy    6.86665062 # occ.  0.00000000
 
ion      s     py     pz     px    dxy    dyz    dz2    dxz    dx2    tot
  1  0.095  0.023  0.007  0.023  0.000  0.000  0.000  0.000  0.000  0.147
  2  0.095  0.023  0.007  0.023  0.000  0.000  0.000  0.000  0.000  0.147
  3  0.096  0.063  0.022  0.063  0.000  0.000  0.000  0.000  0.000  0.243
tot  0.286  0.108  0.036  0.108  0.000  0.000  0.000  0.000  0.000  0.537
ion      s     py     pz     px    dxy    dyz    dz2    dxz    dx2
  1 -0.955 -0.124  0.087 -0.124  0.000  0.000  0.000  0.000  0.000
  1 -0.467  0.122 -0.040  0.122  0.000  0.000  0.000  0.000  0.000
  2 -0.819 -0.061  0.000 -0.061  0.000  0.000  0.000  0.000  0.000
  2 -0.678  0.163 -0.096  0.163  0.000  0.000  0.000  0.000  0.000
  3  0.117  0.138 -0.082  0.138  0.000  0.000  0.000  0.000  0.000
  3  0.076 -0.213  0.127 -0.213  0.000  0.000  0.000  0.000  0.000
 
band   8 # energy   11.49192390 # occ.  0.00000000
 
ion      s     py     pz     px    dxy    dyz    dz2    dxz    dx2    tot
  1  0.052  0.023  0.169  0.023  0.000  0.000  0.000  0.000  0.000  0.266
  2  0.052  0.023  0.169  0.023  0.000  0.000  0.000  0.000  0.000  0.266
  3  0.018  0.040  0.023  0.040  0.000  0.000  0.000  0.000  0.000  0.122
tot  0.123  0.086  0.361  0.086  0.000  0.000  0.000  0.000  0.000  0.655
ion      s     py     pz     px    dxy    dyz    dz2    dxz    dx2
  1 -0.767 -0.093  0.446 -0.093  0.000  0.000  0.000  0.000  0.000
  1  0.211 -0.170  0.286 -0.170  0.000  0.000  0.000  0.000  0.000
  2 -0.107  0.193 -0.438  0.193  0.000  0.000  0.000  0.000  0.000
  2 -0.788  0.019 -0.298  0.019  0.000  0.000  0.000  0.000  0.000
  3  0.027 -0.093  0.070 -0.093  0.000  0.000  0.000  0.000  0.000
  3  0.018  0.141 -0.107  0.141  0.000  0.000  0.000  0.000  0.000
 
band   9 # energy   12.33911582 # occ.  0.00000000
 
ion      s     py     pz     px    dxy    dyz    dz2    dxz    dx2    tot
  1  0.024  0.087  0.091  0.087  0.000  0.000  0.000  0.000  0.000  0.289
  2  0.024  0.087  0.091  0.087  0.000  0.000  0.000  0.000  0.000  0.289
  3  0.000  0.000  0.071  0.000  0.000  0.000  0.000  0.000  0.000  0.071
tot  0.047  0.174  0.253  0.174  0.000  0.000  0.000  0.000  0.000  0.649
ion      s     py     pz     px    dxy    dyz    dz2    dxz    dx2
  1 -0.282 -0.362 -0.397 -0.362  0.000  0.000  0.000  0.000  0.000
  1  0.455 -0.139  0.010 -0.139  0.000  0.000  0.000  0.000  0.000
  2  0.269  0.293  0.178  0.293  0.000  0.000  0.000  0.000  0.000
  2 -0.463  0.254  0.355  0.254  0.000  0.000  0.000  0.000  0.000
  3  0.003 -0.001  0.110 -0.001  0.000  0.000  0.000  0.000  0.000
  3  0.002  0.002 -0.184  0.002  0.000  0.000  0.000  0.000  0.000
 
band  10 # energy   12.68205705 # occ.  0.00000000
 
ion      s     py     pz     px    dxy    dyz    dz2    dxz    dx2    tot