unknown system
1.0
10.805799 0.000000 0.000000
0.000000 10.805799 0.000000
0.000000 0.000000 10.805799
Li
36
Direct configuration=     1
0.489145 0.415696 0.021779 Li
0.503896 0.986146 0.882335 Li
0.114240 0.787341 0.589373 Li
0.274554 0.019029 0.665553 Li
0.573055 0.376255 0.745264 Li
0.884374 0.937445 0.540646 Li
0.849337 0.713319 0.950845 Li
0.439144 0.267232 0.213878 Li
0.160748 0.252124 0.669714 Li
0.754724 0.446400 0.280511 Li
0.309480 0.880650 0.459043 Li
0.432559 0.631546 0.539594 Li
0.699928 0.467363 0.520756 Li
0.795677 0.244142 0.646142 Li
0.129544 0.624416 0.190611 Li
0.120069 0.632762 0.893623 Li
0.619529 0.125661 0.095167 Li
0.983636 0.423813 0.533899 Li
0.454604 0.608340 0.838921 Li
0.741620 0.328678 0.997099 Li
0.908643 0.224710 0.836016 Li
0.310421 0.145277 0.423723 Li
0.710991 0.689757 0.652454 Li
0.954517 0.990100 0.266920 Li
0.244365 0.400568 0.464027 Li
0.243971 0.388730 0.884508 Li
0.625618 0.881965 0.486396 Li
0.420115 0.758143 0.278934 Li
0.146871 0.127860 0.897050 Li
0.093785 0.897863 0.085920 Li
0.613595 0.626013 0.143623 Li
0.873376 0.967201 0.982713 Li
0.027834 0.403016 0.032616 Li
0.027082 0.375105 0.254671 Li
0.654075 0.849107 0.195585 Li
0.753159 0.962074 0.761549 Li
Direct configuration=     2
0.488885 0.414930 0.021299 Li
0.505662 0.985693 0.882250 Li
0.112556 0.787851 0.591974 Li
0.278529 0.017103 0.665918 Li
0.573331 0.378031 0.744073 Li
0.884369 0.937994 0.539965 Li
0.849216 0.714562 0.953156 Li
0.439774 0.269869 0.215083 Li
0.158233 0.249930 0.671372 Li
0.753656 0.445788 0.279967 Li
0.307237 0.879325 0.457956 Li
0.435604 0.632622 0.540486 Li
0.703060 0.466235 0.518444 Li
0.796109 0.243703 0.645823 Li
0.130099 0.626163 0.192753 Li
0.123114 0.633526 0.894211 Li
0.620296 0.126285 0.093863 Li
0.981176 0.424535 0.535405 Li
0.454917 0.608595 0.841168 Li
0.741787 0.326287 0.995501 Li
0.909511 0.223248 0.835582 Li
0.309932 0.148250 0.424377 Li
0.712449 0.689701 0.647854 Li
0.954082 0.991338 0.267790 Li
0.245078 0.398961 0.465783 Li
0.243349 0.389842 0.881994 Li
0.625479 0.883496 0.484978 Li
0.421792 0.755813 0.278476 Li
0.145952 0.127606 0.896758 Li
0.093669 0.895833 0.086935 Li
0.614487 0.627726 0.144889 Li
0.872876 0.967187 0.980684 Li
0.027497 0.400629 0.031175 Li
0.027451 0.374830 0.256615 Li
0.651692 0.851942 0.192712 Li
0.752940 0.961516 0.762516 Li
Direct configuration=     3
0.488647 0.414158 0.020808 Li
0.507291 0.984984 0.882662 Li
0.111012 0.788591 0.594666 Li
0.282488 0.015144 0.666441 Li
0.574011 0.379983 0.742826 Li
0.884562 0.938353 0.539196 Li
0.849131 0.715839 0.955204 Li
0.440424 0.272268 0.216459 Li
0.155578 0.247858 0.672862 Li
0.752448 0.444975 0.279385 Li
0.305167 0.877868 0.457046 Li
0.438496 0.633522 0.541366 Li
0.706220 0.465015 0.516228 Li
0.796313 0.243194 0.645361 Li
0.130450 0.628007 0.194405 Li
0.126198 0.634294 0.894985 Li
0.620837 0.126712 0.092600 Li
0.978835 0.424974 0.537006 Li
0.455179 0.608836 0.843258 Li
0.742158 0.323900 0.994114 Li
0.910447 0.221568 0.835416 Li
0.309401 0.151166 0.425065 Li
0.713967 0.689510 0.643268 Li
0.953532 0.992703 0.268690 Li
0.245785 0.397253 0.467359 Li
0.242690 0.391045 0.879613 Li
0.625205 0.884903 0.483528 Li
0.423279 0.753382 0.278088 Li
0.144996 0.127233 0.896692 Li
0.093581 0.893842 0.087845 Li
0.615349 0.629229 0.146152 Li
0.872279 0.967046 0.978756 Li
0.026932 0.398352 0.029429 Li
0.027561 0.374602 0.258762 Li
0.649534 0.854902 0.190033 Li
0.752641 0.960949 0.763485 Li
Direct configuration=     4
0.488435 0.413383 0.020310 Li
0.508779 0.984041 0.883556 Li
0.109625 0.789556 0.597426 Li
0.286345 0.013186 0.667102 Li
0.575071 0.382062 0.741554 Li
0.884926 0.938515 0.538344 Li
0.849064 0.717114 0.956956 Li
0.441081 0.274369 0.217961 Li
0.152832 0.245934 0.674173 Li
0.751094 0.443975 0.278747 Li
0.303282 0.876281 0.456318 Li
0.441213 0.634243 0.542241 Li
0.709359 0.463713 0.514121 Li
0.796290 0.242611 0.644779 Li
0.130592 0.629932 0.195527 Li
0.129272 0.635057 0.895923 Li
0.621149 0.126944 0.091407 Li
0.976635 0.425121 0.538691 Li
0.455405 0.609084 0.845154 Li
0.742744 0.321565 0.992952 Li
0.911442 0.219688 0.835502 Li
0.308839 0.153979 0.425782 Li
0.715519 0.689203 0.638717 Li
0.952889 0.994172 0.269600 Li
0.246447 0.395519 0.468732 Li
0.242006 0.392316 0.877403 Li
0.624795 0.886176 0.482054 Li
0.424552 0.750882 0.277766 Li
0.144008 0.126733 0.896851 Li
0.093531 0.891906 0.088630 Li
0.616197 0.630514 0.147377 Li
0.871605 0.966797 0.976963 Li
0.026162 0.396210 0.027443 Li
0.027434 0.374424 0.261069 Li
0.647639 0.857958 0.187555 Li
0.752256 0.960379 0.764435 Li
Direct configuration=     5
0.488256 0.412605 0.019807 Li
0.510131 0.982892 0.884896 Li
0.108404 0.790735 0.600231 Li
0.290017 0.011259 0.667880 Li
0.576471 0.384224 0.740285 Li
0.885430 0.938478 0.537410 Li
0.848997 0.718349 0.958384 Li
0.441732 0.276115 0.219547 Li
0.150038 0.244173 0.675301 Li
0.749592 0.442807 0.278035 Li
0.301596 0.874569 0.455774 Li
0.443737 0.634786 0.543121 Li
0.712427 0.462344 0.512136 Li
0.796043 0.241953 0.644100 Li
0.130530 0.631922 0.196098 Li
0.132286 0.635808 0.897000 Li
0.621230 0.126987 0.090313 Li
0.974595 0.424980 0.540443 Li
0.455610 0.609355 0.846821 Li
0.743553 0.319330 0.992025 Li
0.912487 0.217624 0.835814 Li
0.308255 0.156646 0.426525 Li
0.717083 0.688800 0.634216 Li
0.952178 0.995724 0.270498 Li
0.247030 0.393824 0.469884 Li
0.241312 0.393633 0.875395 Li
0.624250 0.887311 0.480561 Li
0.425591 0.748345 0.277502 Li
0.142990 0.126098 0.897228 Li
0.093525 0.890040 0.089273 Li
0.617049 0.631580 0.148532 Li
0.870868 0.966461 0.975336 Li
0.025213 0.394221 0.025286 Li
0.027095 0.374297 0.263489 Li
0.646041 0.861082 0.185278 Li
0.751779 0.959810 0.765342 Li
Direct configuration=     6
0.488115 0.411823 0.019300 Li
0.511355 0.981574 0.886632 Li
0.107352 0.792107 0.603052 Li
0.293430 0.009390 0.668752 Li
0.578165 0.386422 0.739043 Li
0.886038 0.938238 0.536396 Li
0.848915 0.719507 0.959470 Li
0.442364 0.277458 0.221178 Li
0.147238 0.242586 0.676244 Li
0.747941 0.441494 0.277234 Li
0.300115 0.872739 0.455413 Li
0.446057 0.635152 0.544015 Li
0.715382 0.460930 0.510285 Li
0.795578 0.241213 0.643354 Li
0.130272 0.633960 0.196117 Li
0.135196 0.636540 0.898185 Li
0.621084 0.126849 0.089343 Li
0.972734 0.424559 0.542251 Li
0.455811 0.609662 0.848235 Li
0.744595 0.317239 0.991346 Li
0.913569 0.215396 0.836325 Li
0.307661 0.159130 0.427293 Li
0.718643 0.688318 0.629774 Li
0.951424 0.997341 0.271366 Li
0.247503 0.392228 0.470799 Li
0.240626 0.394970 0.873613 Li
0.623572 0.888301 0.479056 Li
0.426380 0.745801 0.277283 Li
0.141947 0.125320 0.897815 Li
0.093569 0.888256 0.089758 Li
0.617920 0.632432 0.149589 Li
0.870083 0.966059 0.973904 Li
0.024119 0.392398 0.023031 Li
0.026571 0.374226 0.265976 Li
0.644767 0.864244 0.183197 Li
0.751209 0.959245 0.766184 Li
Direct configuration=     7
0.488014 0.411038 0.018792 Li
0.512461 0.980128 0.888706 Li
0.106469 0.793646 0.605857 Li
0.296514 0.007610 0.669698 Li
0.580095 0.388618 0.737847 Li
0.886715 0.937793 0.535299 Li
0.848805 0.720551 0.960207 Li
0.442968 0.278358 0.222822 Li
0.144468 0.241177 0.677004 Li
0.746140 0.440057 0.276329 Li
0.298841 0.870802 0.455231 Li
0.448165 0.635346 0.544932 Li
0.718184 0.459500 0.508577 Li
0.794900 0.240387 0.642568 Li
0.129830 0.636030 0.195601 Li
0.137964 0.637248 0.899448 Li
0.620718 0.126543 0.088523 Li
0.971068 0.423875 0.544102 Li
0.456019 0.610016 0.849373 Li
0.745876 0.315332 0.990920 Li
0.914673 0.213025 0.837005 Li
0.307067 0.161397 0.428085 Li
0.720187 0.687775 0.625399 Li
0.950651 0.999004 0.272186 Li
0.247840 0.390781 0.471468 Li
0.239969 0.396305 0.872076 Li
0.622766 0.889144 0.477544 Li
0.426905 0.743274 0.277094 Li
0.140885 0.124392 0.898600 Li
0.093668 0.886567 0.090074 Li
0.618824 0.633078 0.150522 Li
0.869258 0.965609 0.972693 Li
0.022913 0.390752 0.020750 Li
0.025890 0.374216 0.268481 Li
0.643841 0.867414 0.181303 Li
0.750544 0.958687 0.766940 Li
Direct configuration=     8
0.487955 0.410248 0.018283 Li
0.513459 0.978599 0.891050 Li
0.105750 0.795320 0.608611 Li
0.299207 0.005943 0.670696 Li
0.582203 0.390772 0.736711 Li
0.887420 0.937141 0.534116 Li
0.848655 0.721449 0.960595 Li
0.443534 0.278789 0.224453 Li
0.141760 0.239943 0.677586 Li
0.744192 0.438521 0.275308 Li
0.297773 0.868767 0.455222 Li
0.450059 0.635373 0.545878 Li
0.720798 0.458086 0.507026 Li
0.794019 0.239469 0.641770 Li
0.129219 0.638114 0.194585 Li
0.140554 0.637926 0.900756 Li
0.620139 0.126086 0.087870 Li
0.969609 0.422946 0.545983 Li
0.456243 0.610424 0.850222 Li
0.747396 0.313643 0.990750 Li
0.915783 0.210532 0.837822 Li
0.306482 0.163412 0.428902 Li
0.721707 0.687186 0.621098 Li
0.949883 0.000696 0.272943 Li
0.248023 0.389528 0.471885 Li
0.239365 0.397611 0.870798 Li
0.621837 0.889835 0.476030 Li
0.427160 0.740786 0.276920 Li
0.139812 0.123309 0.899569 Li
0.093821 0.884982 0.090208 Li
0.619773 0.633533 0.151313 Li
0.868402 0.965127 0.971723 Li
0.021631 0.389288 0.018516 Li
0.025077 0.374271 0.270958 Li
0.643277 0.870559 0.179580 Li
0.749783 0.958140 0.767592 Li
Direct configuration=     9
0.487942 0.409454 0.017776 Li
0.514360 0.977035 0.893597 Li
0.105187 0.797092 0.611281 Li
0.301457 0.004414 0.671729 Li
0.584424 0.392850 0.735648 Li
0.888118 0.936280 0.532842 Li
0.848462 0.722168 0.960647 Li
0.444057 0.278736 0.226048 Li
0.139141 0.238878 0.677996 Li
0.742099 0.436909 0.274160 Li
0.296906 0.866646 0.455377 Li
0.451741 0.635237 0.546860 Li
0.723192 0.456726 0.505642 Li
0.792941 0.238455 0.640988 Li
0.128455 0.640195 0.193119 Li
0.142934 0.638570 0.902076 Li
0.619357 0.125497 0.087402 Li
0.968371 0.421796 0.547883 Li
0.456489 0.610892 0.850773 Li
0.749156 0.312193 0.990837 Li
0.916884 0.207937 0.838745 Li
0.305918 0.165147 0.429745 Li
0.723198 0.686567 0.616878 Li
0.949144 0.002403 0.273621 Li
0.248038 0.388504 0.472049 Li
0.238836 0.398869 0.869789 Li
0.620792 0.890373 0.474516 Li
0.427140 0.738353 0.276745 Li
0.138735 0.122067 0.900707 Li
0.094027 0.883510 0.090152 Li
0.620778 0.633812 0.151947 Li
0.867520 0.964628 0.971013 Li
0.020305 0.388011 0.016400 Li
0.024155 0.374401 0.273368 Li
0.643089 0.873644 0.178009 Li
0.748930 0.957608 0.768123 Li
Direct configuration=     10
0.487977 0.408657 0.017272 Li
0.515168 0.975487 0.896279 Li
0.104770 0.798923 0.613835 Li
0.303223 0.003045 0.672783 Li
0.586695 0.394821 0.734663 Li
0.888773 0.935207 0.531473 Li
0.848222 0.722682 0.960385 Li
0.444533 0.278197 0.227595 Li
0.136631 0.237971 0.678245 Li
0.739866 0.435243 0.272878 Li
0.296232 0.864451 0.455687 Li
0.453213 0.634945 0.547884 Li
0.725337 0.455459 0.504436 Li
0.791674 0.237337 0.640245 Li
0.127555 0.642257 0.191259 Li
0.145075 0.639175 0.903372 Li
0.618384 0.124799 0.087129 Li
0.967363 0.420449 0.549792 Li
0.456760 0.611423 0.851023 Li
0.751145 0.310998 0.991174 Li
0.917958 0.205260 0.839743 Li
0.305381 0.166576 0.430617 Li
0.724659 0.685930 0.612748 Li
0.948457 0.004110 0.274207 Li
0.247879 0.387739 0.471962 Li
0.238409 0.400056 0.869053 Li
0.619639 0.890756 0.473002 Li
0.426849 0.735987 0.276554 Li
0.137664 0.120661 0.901998 Li
0.094281 0.882157 0.089899 Li
0.621846 0.633934 0.152414 Li
0.866612 0.964123 0.970577 Li
0.018967 0.386921 0.014470 Li
0.023143 0.374613 0.275673 Li
0.643281 0.876632 0.176568 Li
0.747986 0.957095 0.768520 Li
Direct configuration=     11
0.488060 0.407857 0.016773 Li
0.515890 0.974005 0.899033 Li
0.104489 0.800770 0.616243 Li
0.304481 0.001860 0.673844 Li
0.588955 0.396657 0.733759 Li
0.889353 0.933922 0.530001 Li
0.847939 0.722967 0.959838 Li
0.444962 0.277185 0.229086 Li
0.134244 0.237206 0.678343 Li
0.737499 0.433542 0.271457 Li
0.295742 0.862194 0.456140 Li
0.454482 0.634503 0.548952 Li
0.727206 0.454323 0.503419 Li
0.790226 0.236112 0.639562 Li
0.126535 0.644279 0.189067 Li
0.146950 0.639736 0.904611 Li
0.617230 0.124018 0.087056 Li
0.966592 0.418928 0.551702 Li
0.457054 0.612015 0.850976 Li
0.753352 0.310065 0.991748 Li
0.918993 0.202518 0.840784 Li
0.304882 0.167676 0.431521 Li
0.726092 0.685288 0.608712 Li
0.947842 0.005807 0.274689 Li
0.247545 0.387258 0.471632 Li
0.238108 0.401158 0.868593 Li
0.618387 0.890982 0.471490 Li
0.426292 0.733702 0.276336 Li
0.136610 0.119090 0.903425 Li
0.094576 0.880930 0.089442 Li
0.622982 0.633917 0.152708 Li
0.865679 0.963621 0.970428 Li
0.017643 0.386016 0.012790 Li
0.022059 0.374919 0.277840 Li
0.643854 0.879490 0.175235 Li
0.746958 0.956605 0.768773 Li
Direct configuration=     12
0.488195 0.407057 0.016279 Li
0.516527 0.972637 0.901803 Li
0.104334 0.802587 0.618474 Li
0.305218 0.000883 0.674899 Li
0.591143 0.398336 0.732936 Li
0.889833 0.932423 0.528422 Li
0.847617 0.723005 0.959042 Li
0.445347 0.275726 0.230521 Li
0.131993 0.236568 0.678305 Li
0.735003 0.431823 0.269898 Li
0.295425 0.859891 0.456723 Li
0.455556 0.633919 0.550066 Li
0.728774 0.453356 0.502597 Li
0.788603 0.234774 0.638954 Li
0.125411 0.646242 0.186603 Li
0.148537 0.640247 0.905760 Li
0.615908 0.123183 0.087183 Li
0.966064 0.417261 0.553607 Li
0.457365 0.612668 0.850640 Li
0.755755 0.309392 0.992544 Li
0.919973 0.199727 0.841841 Li
0.304427 0.168432 0.432463 Li
0.727501 0.684651 0.604778 Li
0.947317 0.007485 0.275061 Li
0.247044 0.387079 0.471068 Li
0.237955 0.402160 0.868406 Li
0.617044 0.891048 0.469980 Li
0.425481 0.731510 0.276079 Li
0.135582 0.117349 0.904972 Li
0.094899 0.879835 0.088780 Li
0.624188 0.633782 0.152828 Li
0.864720 0.963128 0.970574 Li
0.016359 0.385292 0.011414 Li
0.020918 0.375329 0.279842 Li
0.644803 0.882183 0.173992 Li
0.745854 0.956142 0.768875 Li
Direct configuration=     13
0.488383 0.406261 0.015791 Li
0.517081 0.971430 0.904538 Li
0.104295 0.804326 0.620501 Li
0.305437 0.000139 0.675937 Li
0.593207 0.399839 0.732193 Li
0.890193 0.930709 0.526729 Li
0.847268 0.722778 0.958039 Li
0.445691 0.273854 0.231903 Li
0.129885 0.236039 0.678142 Li
0.732389 0.430101 0.268200 Li
0.295267 0.857558 0.457422 Li
0.456442 0.633198 0.551226 Li
0.730023 0.452591 0.501975 Li
0.786810 0.233322 0.638434 Li
0.124198 0.648127 0.183928 Li
0.149817 0.640704 0.906790 Li
0.614429 0.122324 0.087505 Li
0.965779 0.415470 0.555502 Li
0.457686 0.613377 0.850028 Li
0.758331 0.308973 0.993540 Li
0.920885 0.196898 0.842885 Li
0.304020 0.168831 0.433449 Li
0.728890 0.684032 0.600954 Li
0.946893 0.009139 0.275316 Li
0.246388 0.387211 0.470283 Li
0.237970 0.403056 0.868488 Li
0.615621 0.890954 0.468472 Li
0.424433 0.729422 0.275776 Li
0.134593 0.115437 0.906620 Li
0.095239 0.878877 0.087910 Li
0.625464 0.633548 0.152778 Li
0.863731 0.962647 0.971020 Li
0.015137 0.384746 0.010391 Li
0.019732 0.375856 0.281653 Li
0.646118 0.884682 0.172823 Li
0.744682 0.955713 0.768821 Li
Direct configuration=     14
0.488627 0.405472 0.015309 Li
0.517549 0.970430 0.907192 Li
0.104366 0.805942 0.622295 Li
0.305154 0.999655 0.676946 Li
0.595098 0.401151 0.731528 Li
0.890417 0.928780 0.524922 Li
0.846903 0.722277 0.956870 Li
0.445998 0.271612 0.233240 Li
0.127930 0.235600 0.677871 Li
0.729671 0.428388 0.266366 Li
0.295257 0.855216 0.458223 Li
0.457151 0.632349 0.552430 Li
0.730940 0.452056 0.501553 Li
0.784852 0.231754 0.638008 Li
0.122908 0.649913 0.181100 Li
0.150781 0.641099 0.907672 Li
0.612804 0.121473 0.088014 Li
0.965737 0.413578 0.557382 Li
0.458005 0.614137 0.849155 Li
0.761050 0.308797 0.994706 Li
0.921716 0.194043 0.843895 Li
0.303668 0.168866 0.434485 Li
0.730264 0.683440 0.597255 Li
0.946581 0.010767 0.275455 Li
0.245595 0.387659 0.469294 Li
0.238172 0.403839 0.868830 Li
0.614126 0.890695 0.466967 Li
0.423165 0.727450 0.275422 Li
0.133652 0.113351 0.908354 Li
0.095579 0.878062 0.086834 Li
0.626804 0.633235 0.152565 Li
0.862710 0.962177 0.971770 Li
0.013997 0.384373 0.009756 Li
0.018511 0.376513 0.283253 Li
0.647786 0.886966 0.171715 Li
0.743457 0.955322 0.768612 Li
Direct configuration=     15
0.488930 0.404695 0.014835 Li
0.517931 0.969679 0.909723 Li
0.104538 0.807387 0.623830 Li
0.304398 0.999453 0.677911 Li
0.596775 0.402260 0.730942 Li
0.890499 0.926638 0.522998 Li
0.846538 0.721493 0.955576 Li
0.446274 0.269051 0.234543 Li
0.126136 0.235230 0.677507 Li
0.726872 0.426695 0.264403 Li
0.295382 0.852887 0.459112 Li
0.457695 0.631377 0.553673 Li
0.731518 0.451771 0.501330 Li
0.782734 0.230069 0.637678 Li
0.121552 0.651577 0.178171 Li
0.151424 0.641427 0.908382 Li
0.611045 0.120663 0.088695 Li
0.965931 0.411610 0.559242 Li
0.458311 0.614941 0.848043 Li
0.763880 0.308851 0.996010 Li
0.922455 0.191174 0.844850 Li
0.303373 0.168538 0.435578 Li
0.731630 0.682887 0.593702 Li
0.946384 0.012370 0.275479 Li
0.244690 0.388421 0.468119 Li
0.238573 0.404509 0.869421 Li
0.612570 0.890271 0.465465 Li
0.421701 0.725604 0.275015 Li
0.132772 0.111088 0.910154 Li
0.095901 0.877394 0.085556 Li
0.628204 0.632862 0.152203 Li
0.861651 0.961715 0.972820 Li
0.012956 0.384168 0.009536 Li
0.017264 0.377314 0.284624 Li
0.649789 0.889014 0.170660 Li
0.742194 0.954978 0.768251 Li
Direct configuration=     16
0.489295 0.403936 0.014369 Li
0.518220 0.969213 0.912092 Li
0.104805 0.808617 0.625084 Li
0.303207 0.999556 0.678819 Li
0.598205 0.403157 0.730434 Li
0.890436 0.924288 0.520961 Li
0.846189 0.720424 0.954195 Li
0.446521 0.266222 0.235821 Li
0.124513 0.234910 0.677064 Li
0.724018 0.425025 0.262315 Li
0.295631 0.850597 0.460074 Li
0.458085 0.630291 0.554948 Li
0.731758 0.451745 0.501297 Li
0.780463 0.228272 0.637441 Li
0.120139 0.653101 0.175190 Li
0.151748 0.641679 0.908899 Li
0.609162 0.119923 0.089535 Li
0.966350 0.409586 0.561077 Li
0.458590 0.615783 0.846712 Li
0.766784 0.309120 0.997415 Li
0.923092 0.188309 0.845733 Li
0.303137 0.167850 0.436736 Li
0.732992 0.682387 0.590320 Li
0.946303 0.013948 0.275397 Li
0.243700 0.389482 0.466780 Li
0.239181 0.405067 0.870246 Li
0.610963 0.889679 0.463969 Li
0.420066 0.723894 0.274553 Li
0.131964 0.108649 0.912001 Li
0.096185 0.876876 0.084084 Li
0.629655 0.632450 0.151705 Li
0.860553 0.961258 0.974166 Li
0.012034 0.384130 0.009739 Li
0.015998 0.378272 0.285753 Li
0.652105 0.890813 0.169658 Li
0.740912 0.954686 0.767742 Li
Direct configuration=     17
0.489724 0.403200 0.013911 Li
0.518413 0.969061 0.914265 Li
0.105159 0.809593 0.626037 Li
0.301625 0.999979 0.679654 Li
0.599368 0.403837 0.730006 Li
0.890235 0.921739 0.518816 Li
0.845875 0.719072 0.952764 Li
0.446741 0.263179 0.237084 Li
0.123071 0.234621 0.676560 Li
0.721141 0.423381 0.260108 Li
0.295992 0.848375 0.461097 Li
0.458336 0.629097 0.556247 Li
0.731668 0.451977 0.501444 Li
0.778043 0.226366 0.637291 Li
0.118676 0.654467 0.172202 Li
0.151762 0.641848 0.909203 Li
0.607169 0.119285 0.090513 Li
0.966979 0.407529 0.562875 Li
0.458830 0.616654 0.845187 Li
0.769724 0.309592 0.998879 Li
0.923619 0.185465 0.846533 Li
0.302959 0.166815 0.437966 Li
0.734360 0.681952 0.587134 Li
0.946333 0.015503 0.275220 Li
0.242653 0.390822 0.465302 Li
0.239998 0.405519 0.871287 Li
0.609316 0.888920 0.462484 Li
0.418285 0.722330 0.274039 Li
0.131238 0.106040 0.913873 Li
0.096410 0.876511 0.082428 Li
0.631144 0.632018 0.151093 Li
0.859411 0.960797 0.975799 Li
0.011250 0.384256 0.010363 Li
0.014717 0.379397 0.286629 Li
0.654706 0.892353 0.168714 Li
0.739632 0.954454 0.767096 Li
Direct configuration=     18
0.490220 0.402495 0.013463 Li
0.518506 0.969243 0.916214 Li
0.105593 0.810279 0.626674 Li
0.299702 0.000729 0.680401 Li
0.600252 0.404297 0.729660 Li
0.889906 0.919006 0.516572 Li
0.845616 0.717443 0.951313 Li
0.446934 0.259972 0.238341 Li
0.121820 0.234341 0.676011 Li
0.718279 0.421759 0.257788 Li
0.296457 0.846248 0.462166 Li
0.458463 0.627803 0.557557 Li
0.731263 0.452453 0.501756 Li
0.775486 0.224358 0.637212 Li
0.117167 0.655657 0.169249 Li
0.151482 0.641925 0.909282 Li
0.605079 0.118775 0.091612 Li
0.967799 0.405462 0.564624 Li
0.459018 0.617545 0.843494 Li
0.772662 0.310254 0.000362 Li
0.924027 0.182664 0.847240 Li
0.302838 0.165448 0.439273 Li
0.735741 0.681596 0.584172 Li
0.946466 0.017035 0.274962 Li
0.241582 0.392410 0.463711 Li
0.241020 0.405872 0.872521 Li
0.607642 0.887995 0.461016 Li
0.416388 0.720922 0.273475 Li
0.130603 0.103269 0.915748 Li
0.096556 0.876299 0.080605 Li
0.632661 0.631586 0.150387 Li
0.858225 0.960323 0.977703 Li
0.010625 0.384548 0.011388 Li
0.013424 0.380702 0.287248 Li
0.657561 0.893630 0.167835 Li
0.738377 0.954289 0.766325 Li
Direct configuration=     19
0.490784 0.401827 0.013023 Li
0.518497 0.969766 0.917918 Li
0.106097 0.810650 0.626986 Li
0.297492 0.001808 0.681045 Li
0.600858 0.404538 0.729400 Li
0.889466 0.916107 0.514237 Li
0.845431 0.715550 0.949867 Li
0.447095 0.256651 0.239598 Li
0.120770 0.234053 0.675433 Li
0.715470 0.420157 0.255362 Li
0.297019 0.844246 0.463269 Li
0.458483 0.626417 0.558867 Li
0.730565 0.453149 0.502213 Li
0.772801 0.222257 0.637188 Li
0.115615 0.656655 0.166373 Li
0.150929 0.641902 0.909124 Li
0.602909 0.118419 0.092809 Li
0.968784 0.403411 0.566308 Li
0.459145 0.618447 0.841661 Li
0.775559 0.311096 0.001821 Li
0.924309 0.179926 0.847848 Li
0.302772 0.163772 0.440661 Li
0.737143 0.681331 0.581463 Li
0.946690 0.018544 0.274643 Li
0.240518 0.394203 0.462037 Li
0.242236 0.406135 0.873923 Li
0.605954 0.886911 0.459575 Li
0.414404 0.719683 0.272867 Li
0.130067 0.100348 0.917600 Li
0.096600 0.876240 0.078635 Li
0.634190 0.631172 0.149612 Li
0.856995 0.959828 0.979860 Li
0.010180 0.385003 0.012781 Li
0.012120 0.382193 0.287609 Li
0.660633 0.894641 0.167037 Li
0.737173 0.954198 0.765443 Li
Direct configuration=     20
0.491418 0.401202 0.012595 Li
0.518386 0.970628 0.919361 Li
0.106659 0.810690 0.626971 Li
0.295048 0.003204 0.681573 Li
0.601194 0.404565 0.729231 Li
0.888936 0.913069 0.511821 Li
0.845340 0.713413 0.948447 Li
0.447216 0.253267 0.240862 Li
0.119929 0.233738 0.674842 Li
0.712755 0.418573 0.252840 Li
0.297672 0.842397 0.464394 Li
0.458412 0.624948 0.560159 Li
0.729602 0.454031 0.502796 Li
0.770002 0.220071 0.637196 Li
0.114023 0.657448 0.163612 Li
0.150129 0.641771 0.908725 Li
0.600681 0.118238 0.094082 Li
0.969908 0.401400 0.567909 Li
0.459202 0.619348 0.839722 Li
0.778378 0.312109 0.003210 Li
0.924460 0.177273 0.848357 Li
0.302758 0.161812 0.442133 Li
0.738573 0.681171 0.579039 Li
0.946992 0.020025 0.274286 Li
0.239491 0.396152 0.460310 Li
0.243628 0.406322 0.875462 Li
0.604268 0.885675 0.458169 Li
0.412365 0.718625 0.272224 Li
0.129632 0.097300 0.919404 Li
0.096521 0.876328 0.076543 Li
0.635718 0.630796 0.148794 Li
0.855722 0.959299 0.982245 Li
0.009939 0.385623 0.014498 Li
0.010806 0.383877 0.287717 Li
0.663877 0.895394 0.166333 Li
0.736048 0.954187 0.764467 Li
Direct configuration=     21
0.492122 0.400628 0.012178 Li
0.518176 0.971812 0.920535 Li
0.107265 0.810393 0.626636 Li
0.292423 0.004897 0.681975 Li
0.601280 0.404385 0.729156 Li
0.888335 0.909917 0.509334 Li
0.845363 0.711057 0.947069 Li
0.447288 0.249873 0.242136 Li
0.119304 0.233381 0.674252 Li
0.710169 0.417004 0.250232 Li
0.298412 0.840728 0.465528 Li
0.458269 0.623403 0.561419 Li
0.728406 0.455058 0.503480 Li
0.767106 0.217815 0.637208 Li
0.112392 0.658026 0.160998 Li
0.149114 0.641527 0.908082 Li
0.598414 0.118245 0.095407 Li
0.971139 0.399456 0.569408 Li
0.459185 0.620237 0.837709 Li
0.781087 0.313284 0.004485 Li
0.924475 0.174724 0.848770 Li
0.302791 0.159597 0.443689 Li
0.740036 0.681127 0.576937 Li
0.947357 0.021473 0.273917 Li
0.238531 0.398194 0.458565 Li
0.245173 0.406444 0.877105 Li
0.602598 0.884303 0.456809 Li
0.410302 0.717764 0.271555 Li
0.129295 0.094149 0.921133 Li
0.096300 0.876556 0.074358 Li
0.637228 0.630476 0.147957 Li
0.854411 0.958725 0.984831 Li
0.009923 0.386402 0.016485 Li
0.009482 0.385755 0.287582 Li
0.667243 0.895897 0.165742 Li
0.735030 0.954259 0.763415 Li
Direct configuration=     22
0.492894 0.400109 0.011775 Li
0.517871 0.973292 0.921435 Li
0.107899 0.809768 0.625994 Li
0.289670 0.006857 0.682243 Li
0.601141 0.404007 0.729181 Li
0.887688 0.906681 0.506786 Li
0.845517 0.708514 0.945745 Li
0.447294 0.246524 0.243420 Li
0.118899 0.232968 0.673676 Li
0.707741 0.415445 0.247549 Li
0.299238 0.839267 0.466659 Li
0.458072 0.621790 0.562627 Li
0.727014 0.456184 0.504243 Li
0.764134 0.215502 0.637197 Li
0.110723 0.658380 0.158557 Li
0.147919 0.641163 0.907200 Li
0.596130 0.118450 0.096764 Li
0.972443 0.397606 0.570782 Li
0.459094 0.621098 0.835662 Li
0.783658 0.314614 0.005605 Li
0.924350 0.172299 0.849090 Li
0.302869 0.157159 0.445327 Li
0.741533 0.681212 0.575187 Li
0.947768 0.022879 0.273564 Li
0.237662 0.400264 0.456833 Li
0.246847 0.406518 0.878816 Li
0.600958 0.882810 0.455505 Li
0.408242 0.717112 0.270871 Li
0.129051 0.090927 0.922761 Li
0.095917 0.876913 0.072113 Li
0.638704 0.630230 0.147128 Li
0.853067 0.958096 0.987583 Li
0.010155 0.387337 0.018682 Li
0.008150 0.387824 0.287220 Li
0.670677 0.896167 0.165283 Li
0.734148 0.954417 0.762305 Li
Direct configuration=     23
0.493733 0.399652 0.011387 Li
0.517479 0.975032 0.922062 Li
0.108543 0.808835 0.625065 Li
0.286841 0.009045 0.682376 Li
0.600809 0.403444 0.729311 Li
0.887014 0.903390 0.504187 Li
0.845817 0.705820 0.944484 Li
0.447218 0.243276 0.244714 Li
0.118719 0.232490 0.673127 Li
0.705497 0.413897 0.244802 Li
0.300146 0.838039 0.467777 Li
0.457840 0.620117 0.563765 Li
0.725466 0.457360 0.505062 Li
0.761109 0.213152 0.637128 Li
0.109018 0.658507 0.156309 Li
0.146580 0.640677 0.906084 Li
0.593849 0.118855 0.098131 Li
0.973784 0.395877 0.572011 Li
0.458930 0.621918 0.833620 Li
0.786068 0.316089 0.006531 Li
0.924084 0.170017 0.849328 Li
0.302986 0.154528 0.447042 Li
0.743062 0.681436 0.573817 Li
0.948211 0.024230 0.273257 Li
0.236907 0.402288 0.455149 Li
0.248617 0.406560 0.880557 Li
0.599360 0.881219 0.454269 Li
0.406214 0.716687 0.270185 Li
0.128886 0.087673 0.924266 Li
0.095357 0.877383 0.069846 Li
0.640130 0.630074 0.146331 Li
0.851702 0.957403 0.990467 Li
0.010651 0.388418 0.021024 Li
0.006810 0.390076 0.286652 Li
0.674119 0.896225 0.164975 Li
0.733430 0.954660 0.761157 Li
Direct configuration=     24
0.494634 0.399259 0.011015 Li
0.517007 0.976987 0.922421 Li
0.109177 0.807626 0.623879 Li
0.283983 0.011416 0.682379 Li
0.600317 0.402708 0.729550 Li
0.886334 0.900077 0.501550 Li
0.846277 0.703015 0.943290 Li
0.447037 0.240179 0.246014 Li
0.118762 0.231938 0.672614 Li
0.703451 0.412361 0.242004 Li
0.301137 0.837068 0.468869 Li
0.457591 0.618390 0.564814 Li
0.723801 0.458539 0.505915 Li
0.758056 0.210784 0.636968 Li
0.107278 0.658406 0.154265 Li
0.145135 0.640067 0.904744 Li
0.591590 0.119456 0.099486 Li
0.975127 0.394296 0.573071 Li
0.458700 0.622680 0.831625 Li
0.788301 0.317701 0.007230 Li
0.923678 0.167900 0.849495 Li
0.303140 0.151740 0.448824 Li
0.744619 0.681804 0.572847 Li
0.948669 0.025513 0.273029 Li
0.236281 0.404191 0.453545 Li
0.250454 0.406585 0.882288 Li
0.597815 0.879553 0.453109 Li
0.404241 0.716500 0.269509 Li
0.128783 0.084428 0.925627 Li
0.094605 0.877949 0.067598 Li
0.641489 0.630025 0.145588 Li
0.850325 0.956642 0.993444 Li
0.011423 0.389633 0.023447 Li
0.005464 0.392501 0.285905 Li
0.677503 0.896097 0.164837 Li
0.732903 0.954985 0.759989 Li
Direct configuration=     25
0.495590 0.398933 0.010662 Li
0.516466 0.979107 0.922516 Li
0.109787 0.806180 0.622469 Li
0.281138 0.013918 0.682262 Li
0.599702 0.401815 0.729900 Li
0.885665 0.896779 0.498886 Li
0.846908 0.700138 0.942163 Li
0.446729 0.237282 0.247318 Li
0.119027 0.231312 0.672144 Li
0.701612 0.410845 0.239172 Li
0.302209 0.836372 0.469924 Li
0.457345 0.616617 0.565756 Li
0.722061 0.459676 0.506784 Li
0.755002 0.208420 0.636683 Li
0.105509 0.658080 0.152436 Li
0.143624 0.639334 0.903195 Li
0.589373 0.120244 0.100810 Li
0.976438 0.392886 0.573942 Li
0.458413 0.623367 0.829718 Li
0.790349 0.319439 0.007676 Li
0.923130 0.165968 0.849604 Li
0.303326 0.148830 0.450662 Li
0.746192 0.682320 0.572290 Li
0.949132 0.026714 0.272908 Li
0.235796 0.405898 0.452054 Li
0.252326 0.406612 0.883971 Li
0.596332 0.877840 0.452035 Li
0.402347 0.716566 0.268853 Li
0.128721 0.081245 0.926826 Li
0.093653 0.878589 0.065413 Li
0.642765 0.630096 0.144918 Li
0.848949 0.955812 0.996473 Li
0.012475 0.390968 0.025885 Li
0.004113 0.395081 0.285011 Li
0.680763 0.895813 0.164889 Li
0.732590 0.955386 0.758818 Li
Direct configuration=     26
0.496595 0.398676 0.010329 Li
0.515866 0.981341 0.922356 Li
0.110355 0.804544 0.620869 Li
0.278344 0.016496 0.682044 Li
0.599002 0.400779 0.730364 Li
0.885021 0.893538 0.496209 Li
0.847716 0.697233 0.941102 Li
0.446269 0.234627 0.248621 Li
0.119507 0.230612 0.671723 Li
0.699976 0.409356 0.236322 Li
0.303361 0.835968 0.470931 Li
0.457115 0.614800 0.566572 Li
0.720283 0.460734 0.507655 Li
0.751980 0.206085 0.636237 Li
0.103719 0.657535 0.150825 Li
0.142082 0.638483 0.901455 Li
0.587221 0.121206 0.102082 Li
0.977685 0.391667 0.574604 Li
0.458081 0.623960 0.827941 Li
0.792204 0.321292 0.007850 Li
0.922442 0.164240 0.849670 Li
0.303543 0.145836 0.452542 Li
0.747767 0.682982 0.572150 Li
0.949588 0.027821 0.272923 Li
0.235459 0.407338 0.450708 Li
0.254206 0.406655 0.885572 Li
0.594919 0.876111 0.451057 Li
0.400549 0.716895 0.268227 Li
0.128670 0.078183 0.927847 Li
0.092493 0.879280 0.063341 Li
0.643943 0.630299 0.144338 Li
0.847588 0.954919 0.999509 Li
0.013800 0.392407 0.028278 Li
0.002759 0.397798 0.284004 Li
0.683828 0.895404 0.165148 Li
0.732514 0.955853 0.757661 Li
Direct configuration=     27
0.497638 0.398487 0.010019 Li
0.515217 0.983635 0.921952 Li
0.110870 0.802771 0.619117 Li
0.275636 0.019092 0.681748 Li
0.598253 0.399616 0.730940 Li
0.884415 0.890392 0.493528 Li
0.848706 0.694339 0.940105 Li
0.445633 0.232255 0.249920 Li
0.120191 0.229847 0.671353 Li
0.698529 0.407907 0.233472 Li
0.304591 0.835868 0.471879 Li
0.456917 0.612946 0.567248 Li
0.718504 0.461678 0.508517 Li
0.749021 0.203805 0.635596 Li
0.101915 0.656781 0.149432 Li
0.140548 0.637518 0.899545 Li
0.585157 0.122325 0.103283 Li
0.978841 0.390656 0.575042 Li
0.457721 0.624442 0.826332 Li
0.793865 0.323247 0.007739 Li
0.921611 0.162736 0.849710 Li
0.303790 0.142794 0.454445 Li
0.749323 0.683785 0.572425 Li
0.950029 0.028819 0.273099 Li
0.235272 0.408446 0.449539 Li
0.256072 0.406730 0.887059 Li
0.593583 0.874397 0.450182 Li
0.398864 0.717495 0.267638 Li
0.128602 0.075309 0.928674 Li
0.091123 0.879996 0.061429 Li
0.645008 0.630642 0.143858 Li
0.846255 0.953970 0.002505 Li
0.015383 0.393936 0.030570 Li
0.001403 0.400636 0.282921 Li