gethugepagesize()=2097152
hugetlb_default_page_size=2097152
_SC_PAGESIZE=4096
comex_page_size=2097152
comex_is_using_huge_pages=1
malloc_is_using_huge_pages=1
 argument  1 = mol.nw
                                         
                                         
 
 
              Northwest Computational Chemistry Package (NWChem) 6.3
              ------------------------------------------------------
 
 
                    Environmental Molecular Sciences Laboratory
                       Pacific Northwest National Laboratory
                                Richland, WA 99352
 
                              Copyright (c) 1994-2012
                       Pacific Northwest National Laboratory
                            Battelle Memorial Institute
 
             NWChem is an open-source computational chemistry package
                        distributed under the terms of the
                      Educational Community License (ECL) 2.0
             A copy of the license is included with this distribution
                              in the LICENSE.TXT file
 
                                  ACKNOWLEDGMENT
                                  --------------

            This software and its documentation were developed at the
            EMSL at Pacific Northwest National Laboratory, a multiprogram
            national laboratory, operated for the U.S. Department of Energy
            by Battelle under Contract Number DE-AC05-76RL01830. Support
            for this work was provided by the Department of Energy Office
            of Biological and Environmental Research, Office of Basic
            Energy Sciences, and the Office of Advanced Scientific Computing.


           Job information
           ---------------

    hostname        = nid05995
    program         = nwchem
    date            = Mon Sep 23 03:12:55 2013

    compiled        = Sat_Aug_31_14:18:53_2013
    source          = /usr/common/usg/nwchem/Build/nwchem-6.3-src.2013-05-28
    nwchem branch   = 6.3
    nwchem revision = 24277
    ga revision     = 10379
    input           = mol.nw
    prefix          = mol.
    data base       = ./mol.db
    status          = startup
    nproc           =       24
    time left       =     -1s



           Memory information
           ------------------

    heap     =   13107201 doubles =    100.0 Mbytes
    stack    =   13107201 doubles =    100.0 Mbytes
    global   =   26214400 doubles =    200.0 Mbytes (distinct from heap & stack)
    total    =   52428802 doubles =    400.0 Mbytes
    verify   = yes
    hardfail = no 


           Directory information
           ---------------------
 
  0 permanent = .
  0 scratch   = .
 
 
 
 
                                NWChem Input Module
                                -------------------
 
 

 Scaling coordinates for geometry "geometry" by  1.889725989
 (inverse scale =  0.529177249)

 C1  symmetry detected

          ------
          auto-z
          ------
 
 
                             Geometry "geometry" -> ""
                             -------------------------
 
 Output coordinates in angstroms (scale by  1.889725989 to convert to a.u.)
 
  No.       Tag          Charge          X              Y              Z
 ---- ---------------- ---------- -------------- -------------- --------------
    1 C                    6.0000    -0.14705659    -2.79788161    -0.00086591
    2 C                    6.0000     0.75889375    -1.73379045    -0.00172420
    3 C                    6.0000     0.35717974    -0.36958445    -0.00180511
    4 C                    6.0000    -1.05343349    -0.09228317    -0.00066346
    5 C                    6.0000    -1.93777057    -1.20241479    -0.00056171
    6 C                    6.0000    -1.50610001    -2.52850151    -0.00082561
    7 C                    6.0000     1.34704802     0.66948464    -0.00276168
    8 C                    6.0000    -1.58240640     1.24167062     0.00049872
    9 C                    6.0000    -0.59091998     2.28058677     0.00045705
   10 C                    6.0000     0.81854139     2.00533079    -0.00131716
   11 C                    6.0000     1.69933365     3.12085433    -0.00138259
   12 H                    1.0000     2.77094697     2.92929073    -0.00281699
   13 C                    6.0000     1.26626963     4.44762465     0.00051398
   14 C                    6.0000    -0.08757668     4.71188181     0.00244579
   15 C                    6.0000    -0.98782872     3.64540317     0.00230389
   16 H                    1.0000     1.82627271    -1.94719788    -0.00227738
   17 H                    1.0000    -3.00943548    -1.00973855    -0.00000815
   18 H                    1.0000    -2.23948776    -3.32691408    -0.00047749
   19 H                    1.0000     1.99282871     5.25022998     0.00054284
   20 H                    1.0000    -0.45892406     5.72885183     0.00407413
   21 H                    1.0000    -2.05276190     3.87074509     0.00382316
   22 O                    8.0000    -2.85484459     1.48870748     0.00172032
   23 O                    8.0000     2.61875921     0.42123302    -0.00460471
   24 C                    6.0000     0.28824646    -4.21407173     0.00010119
   25 O                    8.0000    -0.44164929    -5.19324009    -0.00730661
   26 O                    8.0000     1.62445164    -4.37420783     0.01242189
   27 H                    1.0000     1.74230380    -5.34106215     0.01281345
 
      Atomic Mass 
      ----------- 
 
      C                 12.000000
      H                  1.007825
      O                 15.994910
 

 Effective nuclear repulsion energy (a.u.)    1282.4290836202

            Nuclear Dipole moment (a.u.) 
            ----------------------------
        X                 Y               Z
 ---------------- ---------------- ----------------
    -0.0000000000     0.0000000000     0.0000000000
 


                                Z-matrix (autoz)
                                -------- 

 Units are Angstrom for bonds and degrees for angles
 
      Type          Name      I     J     K     L     M      Value
      ----------- --------  ----- ----- ----- ----- ----- ----------
    1 Stretch                  1     2                       1.39751
    2 Stretch                  1     6                       1.38548
    3 Stretch                  1    24                       1.48158
    4 Stretch                  2     3                       1.42212
    5 Stretch                  2    16                       1.08850
    6 Stretch                  3     4                       1.43761
    7 Stretch                  3     7                       1.43510
    8 Stretch                  4     5                       1.41931
    9 Stretch                  4     8                       1.43501
   10 Stretch                  5     6                       1.39458
   11 Stretch                  5    17                       1.08885
   12 Stretch                  6    18                       1.08412
   13 Stretch                  7    10                       1.43660
   14 Stretch                  7    23                       1.29572
   15 Stretch                  8     9                       1.43610
   16 Stretch                  8    22                       1.29620
   17 Stretch                  9    10                       1.43609
   18 Stretch                  9    15                       1.42136
   19 Stretch                 10    11                       1.42133
   20 Stretch                 11    12                       1.08860
   21 Stretch                 11    13                       1.39566
   22 Stretch                 13    14                       1.37940
   23 Stretch                 13    19                       1.08262
   24 Stretch                 14    15                       1.39565
   25 Stretch                 14    20                       1.08265
   26 Stretch                 15    21                       1.08851
   27 Stretch                 24    25                       1.22130
   28 Stretch                 24    26                       1.34582
   29 Stretch                 26    27                       0.97401
   30 Bend                     1     2     3               123.18147
   31 Bend                     1     2    16               119.10415
   32 Bend                     1     6     5               119.24266
   33 Bend                     1     6    18               121.35781
   34 Bend                     1    24    25               126.21102
   35 Bend                     1    24    26               113.91944
   36 Bend                     2     1     6               119.19909
   37 Bend                     2     1    24               122.50329
   38 Bend                     2     3     4               117.52947
   39 Bend                     2     3     7               119.98114
   40 Bend                     3     2    16               117.71437
   41 Bend                     3     4     5               117.41951
   42 Bend                     3     4     8               122.75209
   43 Bend                     3     7    10               114.80361
   44 Bend                     3     7    23               122.56506
   45 Bend                     4     3     7               122.48938
   46 Bend                     4     5     6               123.42776
   47 Bend                     4     5    17               118.34862
   48 Bend                     4     8     9               114.70760
   49 Bend                     4     8    22               122.61757
   50 Bend                     5     4     8               119.82840
   51 Bend                     5     6    18               119.39952
   52 Bend                     6     1    24               118.29762
   53 Bend                     6     5    17               118.22362
   54 Bend                     7    10     9               122.63580
   55 Bend                     7    10    11               120.12070
   56 Bend                     8     9    10               122.61150
   57 Bend                     8     9    15               120.12293
   58 Bend                     9     8    22               122.67483
   59 Bend                     9    10    11               117.24350
   60 Bend                     9    15    14               123.61588
   61 Bend                     9    15    21               118.16293
   62 Bend                    10     7    23               122.63133
   63 Bend                    10     9    15               117.26557
   64 Bend                    10    11    12               118.15856
   65 Bend                    10    11    13               123.62921
   66 Bend                    11    13    14               119.12168
   67 Bend                    11    13    19               119.77006
   68 Bend                    12    11    13               118.21223
   69 Bend                    13    14    15               119.12415
   70 Bend                    13    14    20               121.10446
   71 Bend                    14    13    19               121.10826
   72 Bend                    14    15    21               118.22119
   73 Bend                    15    14    20               119.77138
   74 Bend                    24    26    27               103.78322
   75 Bend                    25    24    26               119.86946
   76 Torsion                  1     2     3     4           0.01310
   77 Torsion                  1     2     3     7        -179.99770
   78 Torsion                  1     6     5     4           0.01624
   79 Torsion                  1     6     5    17        -179.96860
   80 Torsion                  1    24    26    27         179.91321
   81 Torsion                  2     1     6     5          -0.05087
   82 Torsion                  2     1     6    18         179.98115
   83 Torsion                  2     1    24    25        -179.52399
   84 Torsion                  2     1    24    26           0.57513
   85 Torsion                  2     3     4     5          -0.04637
   86 Torsion                  2     3     4     8         179.94670
   87 Torsion                  2     3     7    10        -179.93715
   88 Torsion                  2     3     7    23           0.05404
   89 Torsion                  3     2     1     6           0.03687
   90 Torsion                  3     2     1    24        -179.95896
   91 Torsion                  3     4     5     6           0.03343
   92 Torsion                  3     4     5    17        -179.98175
   93 Torsion                  3     4     8     9          -0.00107
   94 Torsion                  3     4     8    22        -179.98984
   95 Torsion                  3     7    10     9          -0.02153
   96 Torsion                  3     7    10    11         179.96778
   97 Torsion                  4     3     2    16        -179.98159
   98 Torsion                  4     3     7    10           0.05149
   99 Torsion                  4     3     7    23        -179.95731
  100 Torsion                  4     5     6    18         179.98485
  101 Torsion                  4     8     9    10           0.03113
  102 Torsion                  4     8     9    15        -179.96481
  103 Torsion                  5     4     3     7         179.96472
  104 Torsion                  5     4     8     9         179.99184
  105 Torsion                  5     4     8    22           0.00307
  106 Torsion                  5     6     1    24         179.94513
  107 Torsion                  6     1     2    16        -179.96851
  108 Torsion                  6     1    24    25           0.48014
  109 Torsion                  6     1    24    26        -179.42074
  110 Torsion                  6     5     4     8        -179.95986
  111 Torsion                  7     3     2    16           0.00761
  112 Torsion                  7     3     4     8          -0.04221
  113 Torsion                  7    10     9     8          -0.02023
  114 Torsion                  7    10     9    15         179.97581
  115 Torsion                  7    10    11    12           0.01608
  116 Torsion                  7    10    11    13        -179.97287
  117 Torsion                  8     4     5    17           0.02496
  118 Torsion                  8     9    10    11         179.99016
  119 Torsion                  8     9    15    14         179.99738
  120 Torsion                  8     9    15    21           0.00573
  121 Torsion                  9    10     7    23         179.98728
  122 Torsion                  9    10    11    12        -179.99404
  123 Torsion                  9    10    11    13           0.01700
  124 Torsion                  9    15    14    13           0.00958
  125 Torsion                  9    15    14    20        -179.98958
  126 Torsion                 10     9     8    22        -179.98011
  127 Torsion                 10     9    15    14           0.00123
  128 Torsion                 10     9    15    21        -179.99041
  129 Torsion                 10    11    13    14          -0.00648
  130 Torsion                 10    11    13    19         179.98782
  131 Torsion                 11    10     7    23          -0.02341
  132 Torsion                 11    10     9    15          -0.01379
  133 Torsion                 11    13    14    15          -0.00695
  134 Torsion                 11    13    14    20         179.99219
  135 Torsion                 12    11    13    14        -179.99543
  136 Torsion                 12    11    13    19          -0.00113
  137 Torsion                 13    14    15    21        -179.99878
  138 Torsion                 15     9     8    22           0.02395
  139 Torsion                 15    14    13    19         179.99883
  140 Torsion                 16     2     1    24           0.03566
  141 Torsion                 17     5     6    18           0.00000
  142 Torsion                 18     6     1    24          -0.02284
  143 Torsion                 19    13    14    20          -0.00203
  144 Torsion                 20    14    15    21           0.00206
  145 Torsion                 25    24    26    27           0.00544
 
 
            XYZ format geometry
            -------------------
    27
 geometry
 C                    -0.14705659    -2.79788161    -0.00086591
 C                     0.75889375    -1.73379045    -0.00172420
 C                     0.35717974    -0.36958445    -0.00180511
 C                    -1.05343349    -0.09228317    -0.00066346
 C                    -1.93777057    -1.20241479    -0.00056171
 C                    -1.50610001    -2.52850151    -0.00082561
 C                     1.34704802     0.66948464    -0.00276168
 C                    -1.58240640     1.24167062     0.00049872
 C                    -0.59091998     2.28058677     0.00045705
 C                     0.81854139     2.00533079    -0.00131716
 C                     1.69933365     3.12085433    -0.00138259
 H                     2.77094697     2.92929073    -0.00281699
 C                     1.26626963     4.44762465     0.00051398
 C                    -0.08757668     4.71188181     0.00244579
 C                    -0.98782872     3.64540317     0.00230389
 H                     1.82627271    -1.94719788    -0.00227738
 H                    -3.00943548    -1.00973855    -0.00000815
 H                    -2.23948776    -3.32691408    -0.00047749
 H                     1.99282871     5.25022998     0.00054284
 H                    -0.45892406     5.72885183     0.00407413
 H                    -2.05276190     3.87074509     0.00382316
 O                    -2.85484459     1.48870748     0.00172032
 O                     2.61875921     0.42123302    -0.00460471
 C                     0.28824646    -4.21407173     0.00010119
 O                    -0.44164929    -5.19324009    -0.00730661
 O                     1.62445164    -4.37420783     0.01242189
 H                     1.74230380    -5.34106215     0.01281345
 
 ==============================================================================
                                internuclear distances
 ------------------------------------------------------------------------------
       center one      |      center two      | atomic units |  angstroms
 ------------------------------------------------------------------------------
    2 C                |   1 C                |     2.64091  |     1.39751
    3 C                |   2 C                |     2.68742  |     1.42212
    4 C                |   3 C                |     2.71669  |     1.43761
    5 C                |   4 C                |     2.68211  |     1.41931
    6 C                |   1 C                |     2.61818  |     1.38548
    6 C                |   5 C                |     2.63537  |     1.39458
    7 C                |   3 C                |     2.71194  |     1.43510
    8 C                |   4 C                |     2.71177  |     1.43501
    9 C                |   8 C                |     2.71384  |     1.43610
   10 C                |   7 C                |     2.71477  |     1.43660
   10 C                |   9 C                |     2.71381  |     1.43609
   11 C                |  10 C                |     2.68593  |     1.42133
   12 H                |  11 C                |     2.05716  |     1.08860
   13 C                |  11 C                |     2.63742  |     1.39566
   14 C                |  13 C                |     2.60668  |     1.37940
   15 C                |   9 C                |     2.68598  |     1.42136
   15 C                |  14 C                |     2.63739  |     1.39565
   16 H                |   2 C                |     2.05697  |     1.08850
   17 H                |   5 C                |     2.05762  |     1.08885
   18 H                |   6 C                |     2.04869  |     1.08412
   19 H                |  13 C                |     2.04585  |     1.08262
   20 H                |  14 C                |     2.04591  |     1.08265
   21 H                |  15 C                |     2.05699  |     1.08851
   22 O                |   8 C                |     2.44946  |     1.29620
   23 O                |   7 C                |     2.44855  |     1.29572
   24 C                |   1 C                |     2.79978  |     1.48158
   25 O                |  24 C                |     2.30792  |     1.22130
   26 O                |  24 C                |     2.54324  |     1.34582
   27 H                |  26 O                |     1.84061  |     0.97401
 ------------------------------------------------------------------------------
                         number of included internuclear distances:         29
 ==============================================================================



 ==============================================================================
                                 internuclear angles
 ------------------------------------------------------------------------------
        center 1       |       center 2       |       center 3       |  degrees
 ------------------------------------------------------------------------------
    2 C                |   1 C                |   6 C                |   119.20
    2 C                |   1 C                |  24 C                |   122.50
    6 C                |   1 C                |  24 C                |   118.30
    1 C                |   2 C                |   3 C                |   123.18
    1 C                |   2 C                |  16 H                |   119.10
    3 C                |   2 C                |  16 H                |   117.71
    2 C                |   3 C                |   4 C                |   117.53
    2 C                |   3 C                |   7 C                |   119.98
    4 C                |   3 C                |   7 C                |   122.49
    3 C                |   4 C                |   5 C                |   117.42
    3 C                |   4 C                |   8 C                |   122.75
    5 C                |   4 C                |   8 C                |   119.83
    4 C                |   5 C                |   6 C                |   123.43
    4 C                |   5 C                |  17 H                |   118.35
    6 C                |   5 C                |  17 H                |   118.22
    1 C                |   6 C                |   5 C                |   119.24
    1 C                |   6 C                |  18 H                |   121.36
    5 C                |   6 C                |  18 H                |   119.40
    3 C                |   7 C                |  10 C                |   114.80
    3 C                |   7 C                |  23 O                |   122.57
   10 C                |   7 C                |  23 O                |   122.63
    4 C                |   8 C                |   9 C                |   114.71
    4 C                |   8 C                |  22 O                |   122.62
    9 C                |   8 C                |  22 O                |   122.67
    8 C                |   9 C                |  10 C                |   122.61
    8 C                |   9 C                |  15 C                |   120.12
   10 C                |   9 C                |  15 C                |   117.27
    7 C                |  10 C                |   9 C                |   122.64
    7 C                |  10 C                |  11 C                |   120.12
    9 C                |  10 C                |  11 C                |   117.24
   10 C                |  11 C                |  12 H                |   118.16
   10 C                |  11 C                |  13 C                |   123.63
   12 H                |  11 C                |  13 C                |   118.21
   11 C                |  13 C                |  14 C                |   119.12
   11 C                |  13 C                |  19 H                |   119.77
   14 C                |  13 C                |  19 H                |   121.11
   13 C                |  14 C                |  15 C                |   119.12
   13 C                |  14 C                |  20 H                |   121.10
   15 C                |  14 C                |  20 H                |   119.77
    9 C                |  15 C                |  14 C                |   123.62
    9 C                |  15 C                |  21 H                |   118.16
   14 C                |  15 C                |  21 H                |   118.22
    1 C                |  24 C                |  25 O                |   126.21
    1 C                |  24 C                |  26 O                |   113.92
   25 O                |  24 C                |  26 O                |   119.87
   24 C                |  26 O                |  27 H                |   103.78
 ------------------------------------------------------------------------------
                            number of included internuclear angles:         46
 ==============================================================================



                               H8C15O4 dft optimize
                               --------------------
  library name resolved from: environment
  library file name is: </usr/common/usg/nwchem/6.3/data/libraries/>
  
                      Basis "ao basis" -> "" (cartesian)
                      -----
  H (Hydrogen)
  ------------
            Exponent  Coefficients 
       -------------- ---------------------------------------------------------
  1 S  1.87311370E+01  0.033495
  1 S  2.82539370E+00  0.234727
  1 S  6.40121700E-01  0.813757
 
  2 S  1.61277800E-01  1.000000
 
  C (Carbon)
  ----------
            Exponent  Coefficients 
       -------------- ---------------------------------------------------------
  1 S  3.04752490E+03  0.001835
  1 S  4.57369510E+02  0.014037
  1 S  1.03948690E+02  0.068843
  1 S  2.92101550E+01  0.232184
  1 S  9.28666300E+00  0.467941
  1 S  3.16392700E+00  0.362312
 
  2 S  7.86827240E+00 -0.119332
  2 S  1.88128850E+00 -0.160854
  2 S  5.44249300E-01  1.143456
 
  3 P  7.86827240E+00  0.068999
  3 P  1.88128850E+00  0.316424
  3 P  5.44249300E-01  0.744308
 
  4 S  1.68714400E-01  1.000000
 
  5 P  1.68714400E-01  1.000000
 
  6 S  4.38000000E-02  1.000000
 
  7 P  4.38000000E-02  1.000000
 
  8 D  8.00000000E-01  1.000000
 
  O (Oxygen)
  ----------
            Exponent  Coefficients 
       -------------- ---------------------------------------------------------
  1 S  5.48467170E+03  0.001831
  1 S  8.25234950E+02  0.013950
  1 S  1.88046960E+02  0.068445
  1 S  5.29645000E+01  0.232714
  1 S  1.68975700E+01  0.470193
  1 S  5.79963530E+00  0.358521
 
  2 S  1.55396160E+01 -0.110778
  2 S  3.59993360E+00 -0.148026
  2 S  1.01376180E+00  1.130767
 
  3 P  1.55396160E+01  0.070874
  3 P  3.59993360E+00  0.339753
  3 P  1.01376180E+00  0.727159
 
  4 S  2.70005800E-01  1.000000
 
  5 P  2.70005800E-01  1.000000
 
  6 S  8.45000000E-02  1.000000
 
  7 P  8.45000000E-02  1.000000
 
  8 D  8.00000000E-01  1.000000
 


 Summary of "ao basis" -> "" (cartesian)
 ------------------------------------------------------------------------------
       Tag                 Description            Shells   Functions and Types
 ---------------- ------------------------------  ------  ---------------------
 H                          6-31+G*                  2        2   2s
 C                          6-31+G*                  8       19   4s3p1d
 O                          6-31+G*                  8       19   4s3p1d


 
 
                           NWChem Geometry Optimization
                           ----------------------------
 
 
 
 
                               H8C15O4 dft optimize
 
 
 maximum gradient threshold         (gmax) =   0.000450
 rms gradient threshold             (grms) =   0.000300
 maximum cartesian step threshold   (xmax) =   0.001800
 rms cartesian step threshold       (xrms) =   0.001200
 fixed trust radius                (trust) =   0.300000
 maximum step size to saddle      (sadstp) =   0.100000
 energy precision                  (eprec) =   5.0D-06
 maximum number of steps          (nptopt) =   20
 initial hessian option           (inhess) =    0
 line search option               (linopt) =    1
 hessian update option            (modupd) =    1
 saddle point option              (modsad) =    0
 initial eigen-mode to follow     (moddir) =    0
 initial variable to follow       (vardir) =    0
 follow first negative mode     (firstneg) =    T
 apply conjugacy                    (opcg) =    F
 source of zmatrix                         =   autoz   


          -------------------
          Energy Minimization
          -------------------

 
 Names of Z-matrix variables 
    1              2              3              4              5         
    6              7              8              9             10         
   11             12             13             14             15         
   16             17             18             19             20         
   21             22             23             24             25         
   26             27             28             29             30         
   31             32             33             34             35         
   36             37             38             39             40         
   41             42             43             44             45         
   46             47             48             49             50         
   51             52             53             54             55         
   56             57             58             59             60         
   61             62             63             64             65         
   66             67             68             69             70         
   71             72             73             74             75         
   76             77             78             79             80         
   81             82             83             84             85         
   86             87             88             89             90         
   91             92             93             94             95         
   96             97             98             99            100         
  101            102            103            104            105         
  106            107            108            109            110         
  111            112            113            114            115         
  116            117            118            119            120         
  121            122            123            124            125         
  126            127            128            129            130         
  131            132            133            134            135         
  136            137            138            139            140         
  141            142            143            144            145         
 
 Variables with the same non-blank name are constrained to be equal
 
 
 Using diagonal initial Hessian 
 Scaling for Hessian diagonals: bonds = 1.00  angles = 0.25  torsions = 0.10

          --------
          Step   0
          --------
 
 
                         Geometry "geometry" -> "geometry"
                         ---------------------------------
 
 Output coordinates in angstroms (scale by  1.889725989 to convert to a.u.)
 
  No.       Tag          Charge          X              Y              Z
 ---- ---------------- ---------- -------------- -------------- --------------
    1 C                    6.0000    -0.14705659    -2.79788161    -0.00086591
    2 C                    6.0000     0.75889375    -1.73379045    -0.00172420
    3 C                    6.0000     0.35717974    -0.36958445    -0.00180511
    4 C                    6.0000    -1.05343349    -0.09228317    -0.00066346
    5 C                    6.0000    -1.93777057    -1.20241479    -0.00056171
    6 C                    6.0000    -1.50610001    -2.52850151    -0.00082561
    7 C                    6.0000     1.34704802     0.66948464    -0.00276168
    8 C                    6.0000    -1.58240640     1.24167062     0.00049872
    9 C                    6.0000    -0.59091998     2.28058677     0.00045705
   10 C                    6.0000     0.81854139     2.00533079    -0.00131716
   11 C                    6.0000     1.69933365     3.12085433    -0.00138259
   12 H                    1.0000     2.77094697     2.92929073    -0.00281699
   13 C                    6.0000     1.26626963     4.44762465     0.00051398
   14 C                    6.0000    -0.08757668     4.71188181     0.00244579
   15 C                    6.0000    -0.98782872     3.64540317     0.00230389
   16 H                    1.0000     1.82627271    -1.94719788    -0.00227738
   17 H                    1.0000    -3.00943548    -1.00973855    -0.00000815
   18 H                    1.0000    -2.23948776    -3.32691408    -0.00047749
   19 H                    1.0000     1.99282871     5.25022998     0.00054284
   20 H                    1.0000    -0.45892406     5.72885183     0.00407413
   21 H                    1.0000    -2.05276190     3.87074509     0.00382316
   22 O                    8.0000    -2.85484459     1.48870748     0.00172032
   23 O                    8.0000     2.61875921     0.42123302    -0.00460471
   24 C                    6.0000     0.28824646    -4.21407173     0.00010119
   25 O                    8.0000    -0.44164929    -5.19324009    -0.00730661
   26 O                    8.0000     1.62445164    -4.37420783     0.01242189
   27 H                    1.0000     1.74230380    -5.34106215     0.01281345
 
      Atomic Mass 
      ----------- 
 
      C                 12.000000
      H                  1.007825
      O                 15.994910
 

 Effective nuclear repulsion energy (a.u.)    1282.4290836202

            Nuclear Dipole moment (a.u.) 
            ----------------------------
        X                 Y               Z
 ---------------- ---------------- ----------------
    -0.0000000000     0.0000000000     0.0000000000
 
 
                                 NWChem DFT Module
                                 -----------------
 
 
                               H8C15O4 dft optimize
 
 
  Caching 1-el integrals 
 
            General Information
            -------------------
          SCF calculation type: DFT
          Wavefunction type:  closed shell.
          No. of atoms     :    27
          No. of electrons :   130
           Alpha electrons :    65
            Beta electrons :    65
          Charge           :     0
          Spin multiplicity:     1
          Use of symmetry is: off; symmetry adaption is: off
          Maximum number of iterations: 300
          AO basis - number of functions:   377
                     number of shells:   168
          Convergence on energy requested: 1.00D-06
          Convergence on density requested: 1.00D-05
          Convergence on gradient requested: 5.00D-04
 
              XC Information
              --------------
                         B3LYP Method XC Potential
                     Hartree-Fock (Exact) Exchange  0.200          
                        Slater Exchange Functional  0.800 local    
                    Becke 1988 Exchange Functional  0.720 non-local
              Lee-Yang-Parr Correlation Functional  0.810          
                  VWN I RPA Correlation Functional  0.190 local    
 
             Grid Information
             ----------------
          Grid used for XC integration:  medium    
          Radial quadrature: Mura-Knowles        
          Angular quadrature: Lebedev. 
          Tag              B.-S. Rad. Rad. Pts. Rad. Cut. Ang. Pts.
          ---              ---------- --------- --------- ---------
          C                   0.70       49          21.0       434
          H                   0.35       45          23.0       434
          O                   0.60       49          23.0       434
          Grid pruning is: on 
          Number of quadrature shells:  1291
          Spatial weights used:  Erf1
 
          Convergence Information
          -----------------------
          Convergence aids based upon iterative change in 
          total energy or number of iterations. 
          Levelshifting, if invoked, occurs when the 
          HOMO/LUMO gap drops below (HL_TOL): 1.00D-02
          DIIS, if invoked, will attempt to extrapolate 
          using up to (NFOCK): 10 stored Fock matrices.

                    Damping( 0%)  Levelshifting(0.5)       DIIS
                  --------------- ------------------- ---------------
          dE  on:    start            ASAP                start   
          dE off:    2 iters        300 iters           300 iters 

 
      Screening Tolerance Information
      -------------------------------
          Density screening/tol_rho: 1.00D-10
          AO Gaussian exp screening on grid/accAOfunc:  14
          CD Gaussian exp screening on grid/accCDfunc:  20
          XC Gaussian exp screening on grid/accXCfunc:  20
          Schwarz screening/accCoul: 1.00D-08

 
 WARNING : Found    13 linear dependencies 
 S eigenvalue threshold:     1.00000E-05
 Smallest S eigenvalue :     8.60753E-08
 Largest  S eigenvalue :     8.01060E-06
 

 !! The overlap matrix has  13 vectors deemed linearly dependent with
    eigenvalues:
 8.61D-08 8.83D-08 2.46D-07 3.49D-07 4.93D-07 6.63D-07 1.89D-06 2.03D-06
 2.77D-06 3.18D-06 4.54D-06 6.12D-06 8.01D-06
 
 
      Superposition of Atomic Density Guess
      -------------------------------------
 
 Sum of atomic energies:        -867.96520148
 
      Non-variational initial energy
      ------------------------------

 Total energy =    -880.054442
 1-e energy   =   -3726.885867
 2-e energy   =    1564.402341
 HOMO         =      -0.299006
 LUMO         =      -0.163482
 
   Time after variat. SCF:     13.6
   Time prior to 1st pass:     13.6

 Grid_pts file          = ./mol.gridpts.00
 Record size in doubles =  12289        No. of grid_pts per rec  =   3070
 Max. records in memory =     10        Max. recs in file   =  42218779

 Grid integrated density:     130.061572926182
 Requested integration accuracy:   0.10E-05

           Memory utilization after 1st SCF pass: 
           Heap Space remaining (MW):        6.65             6651184
          Stack Space remaining (MW):       13.10            13104310

   convergence    iter        energy       DeltaE   RMS-Dens  Diis-err    time
 ---------------- ----- ----------------- --------- --------- ---------  ------
 d= 0,ls=0.0,diis     1   -874.6162772189 -2.16D+03  2.10D+02  4.12D+01    27.3
 Grid integrated density:     129.999016157796
 Requested integration accuracy:   0.10E-05
 d= 0,ls=0.0,diis     2   -865.0399466722  9.58D+00  4.45D+01  5.06D+01    44.9
 Grid integrated density:     129.999106344321
 Requested integration accuracy:   0.10E-05
 d= 0,ls=0.0,diis     3   -869.5308543706 -4.49D+00  5.31D+01  4.03D+01    62.5
 Grid integrated density:     129.999438856797
 Requested integration accuracy:   0.10E-05
 d= 0,ls=0.0,diis     4   -874.6397082851 -5.11D+00  5.20D+00  7.61D+00    80.2
 Grid integrated density:     129.999433431057
 Requested integration accuracy:   0.10E-05
 d= 0,ls=0.0,diis     5   -871.0370510198  3.60D+00  3.36D+00  2.66D+01    97.8
 Grid integrated density:     129.999429763993
 Requested integration accuracy:   0.10E-05
 d= 0,ls=0.0,diis     6   -875.2598350216 -4.22D+00  1.90D+00  5.72D+00   115.4
 Grid integrated density:     129.999424379348
 Requested integration accuracy:   0.10E-05
 d= 0,ls=0.5,diis     7   -874.9456630031  3.14D-01  1.12D+00  6.27D+00   133.1
 Grid integrated density:     129.999422106264
 Requested integration accuracy:   0.10E-05
 d= 0,ls=0.5,diis     8   -875.2596306747 -3.14D-01  1.84D+00  4.25D+00   150.8
 Grid integrated density:     129.999418377543
 Requested integration accuracy:   0.10E-05
 d= 0,ls=0.5,diis     9   -875.5043011667 -2.45D-01  1.63D+00  3.05D+00   168.4
 Grid integrated density:     129.999414513646
 Requested integration accuracy:   0.10E-05
 d= 0,ls=0.5,diis    10   -875.7152737432 -2.11D-01  3.07D+00  1.93D+00   186.1
 Grid integrated density:     129.999415557429
 Requested integration accuracy:   0.10E-05
 d= 0,ls=0.5,diis    11   -875.9227571853 -2.07D-01  1.88D+02  1.06D+00   203.8
 d= 0,ls=0.5,diis    12   -877.1463394945 -1.22D+00  6.85D-01  1.47D+00   218.8
 d= 0,ls=0.5,diis    13   -877.2036292236 -5.73D-02  1.57D-01  1.02D+00   233.0
  Resetting Diis
 d= 0,ls=0.5,diis    14   -877.2420678256 -3.84D-02  4.04D-02  7.03D-01   246.5
 d= 0,ls=0.5,diis    15   -877.2988036558 -5.67D-02  8.74D-03  3.38D-01   260.3
 d= 0,ls=0.5,diis    16   -877.3350797497 -3.63D-02  5.18D-03  2.32D-01   274.2
 d= 0,ls=0.5,diis    17   -877.3511913314 -1.61D-02  1.70D-03  5.01D-02   288.0
 d= 0,ls=0.5,diis    18   -877.3558716412 -4.68D-03  1.07D-03  1.45D-02   301.9
 d= 0,ls=0.5,diis    19   -877.3574590498 -1.59D-03  6.85D-04  2.70D-03   315.8
 d= 0,ls=0.5,diis    20   -877.3579107273 -4.52D-04  3.98D-04  4.16D-04   329.7
 d= 0,ls=0.5,diis    21   -877.3580354737 -1.25D-04  2.85D-04  9.60D-05   343.5
 d= 0,ls=0.5,diis    22   -877.3580858475 -5.04D-05  1.86D-04  4.39D-05   357.4
 d= 0,ls=0.5,diis    23   -877.3581116490 -2.58D-05  1.22D-04  2.71D-05   371.3
 d= 0,ls=0.5,diis    24   -877.3581255946 -1.39D-05  7.34D-05  2.30D-05   385.1
 d= 0,ls=0.5,diis    25   -877.3581341414 -8.55D-06  4.40D-05  1.55D-05   399.0
 d= 0,ls=0.5,diis    26   -877.3581392662 -5.12D-06  2.65D-05  1.02D-05   412.9
 d= 0,ls=0.5,diis    27   -877.3581422933 -3.03D-06  1.54D-05  6.58D-06   426.8
 d= 0,ls=0.5,diis    28   -877.3581440537 -1.76D-06  9.28D-06  4.74D-06   440.7
 d= 0,ls=0.5,diis    29   -877.3581451533 -1.10D-06  5.40D-06  3.16D-06   454.6
 d= 0,ls=0.5,diis    30   -877.3581457965 -6.43D-07  3.68D-06  2.24D-06   468.5


         Total DFT energy =     -877.358146199855
      One electron energy =    -3738.194794094213
           Coulomb energy =     1696.951900955180
    Exchange-Corr. energy =     -118.544336681010
 Nuclear repulsion energy =     1282.429083620187

 Numeric. integr. density =      129.999898255238

     Total iterative time =    468.6s


 
                       DFT Final Molecular Orbital Analysis
                       ------------------------------------
 
 Vector   19  Occ=2.000000D+00  E=-1.023065D+01
              MO Center=  8.8D-01,  3.9D+00,  4.1D-04, r^2= 1.4D+00
   Bfn.  Coefficient  Atom+Function         Bfn.  Coefficient  Atom+Function  
  ----- ------------  ---------------      ----- ------------  ---------------
   191      0.625704  11 C  s               212     -0.504865  13 C  s         
   231      0.491601  14 C  s               250     -0.313627  15 C  s         
 
 Vector   20  Occ=2.000000D+00  E=-1.139039D+00
              MO Center=  9.1D-01, -4.6D+00,  5.6D-03, r^2= 1.0D+00
   Bfn.  Coefficient  Atom+Function         Bfn.  Coefficient  Atom+Function  
  ----- ------------  ---------------      ----- ------------  ---------------
   362      0.370584  26 O  s               358      0.361191  26 O  s         
   320      0.228808  24 C  s               339      0.207958  25 O  s         
    10     -0.203359   1 C  s               343      0.199681  25 O  s         
   357     -0.165252  26 O  s                86      0.157659   5 C  s         
 
 Vector   21  Occ=2.000000D+00  E=-1.038812D+00
              MO Center=  2.7D-01, -4.8D+00, -3.9D-04, r^2= 1.2D+00
   Bfn.  Coefficient  Atom+Function         Bfn.  Coefficient  Atom+Function  
  ----- ------------  ---------------      ----- ------------  ---------------
   343      0.404146  25 O  s               339      0.368060  25 O  s         
   362     -0.317086  26 O  s               358     -0.274594  26 O  s         
   321     -0.198727  24 C  px              338     -0.172918  25 O  s         
 
 Vector   22  Occ=2.000000D+00  E=-1.032670D+00
              MO Center= -8.8D-01,  1.1D+00, -4.3D-04, r^2= 5.4D+00
   Bfn.  Coefficient  Atom+Function         Bfn.  Coefficient  Atom+Function  
  ----- ------------  ---------------      ----- ------------  ---------------
   286      0.382735  22 O  s               282      0.325354  22 O  s         
   305      0.259736  23 O  s               301      0.226430  23 O  s         
   135      0.188765   8 C  s               105     -0.158489   6 C  s         
   281     -0.152915  22 O  s         
 
 Vector   23  Occ=2.000000D+00  E=-1.028564D+00
              MO Center=  6.4D-01,  8.0D-01, -2.2D-03, r^2= 5.6D+00
   Bfn.  Coefficient  Atom+Function         Bfn.  Coefficient  Atom+Function  
  ----- ------------  ---------------      ----- ------------  ---------------
   305      0.408985  23 O  s               301      0.332702  23 O  s         
   286     -0.298140  22 O  s               282     -0.237591  22 O  s         
   116      0.182851   7 C  s               300     -0.157220  23 O  s         
 
 Vector   24  Occ=2.000000D+00  E=-9.099490D-01
              MO Center= -2.7D-01, -5.6D-02, -8.1D-04, r^2= 5.6D+00
   Bfn.  Coefficient  Atom+Function         Bfn.  Coefficient  Atom+Function  
  ----- ------------  ---------------      ----- ------------  ---------------
    40      0.168110   3 C  s                59      0.167424   4 C  s         
 
 Vector   25  Occ=2.000000D+00  E=-8.939472D-01
              MO Center=  5.5D-02,  1.6D+00,  5.7D-06, r^2= 8.3D+00
   Bfn.  Coefficient  Atom+Function         Bfn.  Coefficient  Atom+Function  
  ----- ------------  ---------------      ----- ------------  ---------------
   154      0.155541   9 C  s               173      0.155260  10 C  s         
 
 Vector   26  Occ=2.000000D+00  E=-8.438105D-01
              MO Center= -9.3D-02,  5.6D-01, -2.1D-04, r^2= 9.6D+00
   Bfn.  Coefficient  Atom+Function         Bfn.  Coefficient  Atom+Function  
  ----- ------------  ---------------      ----- ------------  ---------------
     2      0.186335   1 C  s         
 
 Vector   27  Occ=2.000000D+00  E=-8.005530D-01
              MO Center= -4.1D-01, -3.6D-01, -4.4D-04, r^2= 7.4D+00
   Bfn.  Coefficient  Atom+Function         Bfn.  Coefficient  Atom+Function  
  ----- ------------  ---------------      ----- ------------  ---------------
    78      0.218271   5 C  s                59      0.182995   4 C  s         
    82      0.182239   5 C  s                63      0.171418   4 C  s         
    21     -0.151091   2 C  s         
 
 Vector   28  Occ=2.000000D+00  E=-7.918564D-01
              MO Center= -5.6D-03,  1.3D+00, -1.9D-04, r^2= 8.1D+00
   Bfn.  Coefficient  Atom+Function         Bfn.  Coefficient  Atom+Function  
  ----- ------------  ---------------      ----- ------------  ---------------
   154      0.215568   9 C  s               158      0.195968   9 C  s         
    40     -0.187393   3 C  s               213     -0.179319  13 C  s         
    44     -0.171775   3 C  s         
 
 Vector   29  Occ=2.000000D+00  E=-7.859394D-01
              MO Center=  1.7D-01,  1.9D+00, -1.4D-04, r^2= 7.5D+00
   Bfn.  Coefficient  Atom+Function         Bfn.  Coefficient  Atom+Function  
  ----- ------------  ---------------      ----- ------------  ---------------
   192      0.203231  11 C  s               251     -0.195690  15 C  s         
   173      0.182017  10 C  s               196      0.165309  11 C  s         
   177      0.163443  10 C  s               255     -0.160650  15 C  s         
   232     -0.151036  14 C  s         
 
 Vector   30  Occ=2.000000D+00  E=-7.304719D-01
              MO Center= -2.9D-01,  6.3D-02,  3.9D-04, r^2= 9.6D+00
   Bfn.  Coefficient  Atom+Function         Bfn.  Coefficient  Atom+Function  
  ----- ------------  ---------------      ----- ------------  ---------------
   135      0.174715   8 C  s                63      0.159716   4 C  s         
 
 Vector   31  Occ=2.000000D+00  E=-7.012608D-01
              MO Center=  4.5D-01,  2.2D-01,  6.0D-05, r^2= 1.1D+01
   Bfn.  Coefficient  Atom+Function         Bfn.  Coefficient  Atom+Function  
  ----- ------------  ---------------      ----- ------------  ---------------
    21      0.187602   2 C  s                42     -0.171999   3 C  py        
    25      0.166462   2 C  s               116     -0.165008   7 C  s         
   232     -0.155417  14 C  s         
 
 Vector   32  Occ=2.000000D+00  E=-6.767785D-01
              MO Center= -1.8D-01,  1.1D-01,  1.4D-03, r^2= 1.3D+01
   Bfn.  Coefficient  Atom+Function         Bfn.  Coefficient  Atom+Function  
  ----- ------------  ---------------      ----- ------------  ---------------
    97      0.162648   6 C  s               213      0.153492  13 C  s         
 
 Vector   33  Occ=2.000000D+00  E=-6.398811D-01
              MO Center=  3.9D-01, -3.7D-01,  2.3D-03, r^2= 1.4D+01
   Bfn.  Coefficient  Atom+Function         Bfn.  Coefficient  Atom+Function  
  ----- ------------  ---------------      ----- ------------  ---------------
   359      0.180994  26 O  px              360     -0.169473  26 O  py        
   118      0.153835   7 C  py              324     -0.151137  24 C  s         
 
 Vector   34  Occ=2.000000D+00  E=-6.305864D-01
              MO Center= -1.4D-01,  3.9D-01,  2.3D-04, r^2= 1.1D+01
   Bfn.  Coefficient  Atom+Function         Bfn.  Coefficient  Atom+Function  
  ----- ------------  ---------------      ----- ------------  ---------------
    78      0.158295   5 C  s                25      0.156334   2 C  s         
 
 Vector   35  Occ=2.000000D+00  E=-5.980609D-01
              MO Center= -6.3D-02,  1.3D+00, -3.2D-04, r^2= 7.6D+00
   Bfn.  Coefficient  Atom+Function         Bfn.  Coefficient  Atom+Function  
  ----- ------------  ---------------      ----- ------------  ---------------
   155     -0.174648   9 C  px              139      0.166159   8 C  s         
   174      0.164002  10 C  px               41      0.150422   3 C  px        
 
 Vector   36  Occ=2.000000D+00  E=-5.726621D-01
              MO Center= -2.6D-02,  9.2D-01, -4.4D-04, r^2= 1.0D+01
   Bfn.  Coefficient  Atom+Function         Bfn.  Coefficient  Atom+Function  
  ----- ------------  ---------------      ----- ------------  ---------------
   175     -0.185752  10 C  py              120      0.183211   7 C  s         
    61     -0.157529   4 C  py              139     -0.158120   8 C  s         
   101     -0.152142   6 C  s               118      0.150489   7 C  py        
 
 Vector   37  Occ=2.000000D+00  E=-5.717434D-01
              MO Center=  7.5D-02, -7.1D-01,  2.0D-03, r^2= 1.3D+01
   Bfn.  Coefficient  Atom+Function         Bfn.  Coefficient  Atom+Function  
  ----- ------------  ---------------      ----- ------------  ---------------
   359      0.224498  26 O  px              321     -0.188173  24 C  px        
   120      0.177169   7 C  s               139     -0.158280   8 C  s         
 
 Vector   38  Occ=2.000000D+00  E=-5.283328D-01
              MO Center=  1.4D-02, -1.4D-01,  4.8D-04, r^2= 1.6D+01
   Bfn.  Coefficient  Atom+Function         Bfn.  Coefficient  Atom+Function  
  ----- ------------  ---------------      ----- ------------  ---------------
     4      0.219192   1 C  py              234     -0.200017  14 C  py        
   321      0.193652  24 C  px              137     -0.160169   8 C  py        
   359     -0.157772  26 O  px              120      0.156206   7 C  s         
   324     -0.151806  24 C  s         
 
 Vector   39  Occ=2.000000D+00  E=-5.189586D-01
              MO Center=  3.7D-02, -1.8D+00,  1.8D-04, r^2= 1.2D+01
   Bfn.  Coefficient  Atom+Function         Bfn.  Coefficient  Atom+Function  
  ----- ------------  ---------------      ----- ------------  ---------------
   343      0.276394  25 O  s                10     -0.220324   1 C  s         
   240     -0.200096  14 C  s               360      0.173768  26 O  py        
   340     -0.172124  25 O  px              305      0.163436  23 O  s         
   286      0.162183  22 O  s               221     -0.160870  13 C  s         
    41     -0.154262   3 C  px               98     -0.153375   6 C  px        
 
 Vector   40  Occ=2.000000D+00  E=-5.058082D-01
              MO Center=  2.9D-01, -2.8D-01,  1.1D-03, r^2= 1.8D+01
   Bfn.  Coefficient  Atom+Function         Bfn.  Coefficient  Atom+Function  
  ----- ------------  ---------------      ----- ------------  ---------------
   343      0.224599  25 O  s               360      0.209284  26 O  py        
   214     -0.189159  13 C  px              174      0.178936  10 C  px        
   340     -0.175727  25 O  px              155     -0.171421   9 C  px        
   362      0.165980  26 O  s               233      0.161891  14 C  px        
   221      0.154554  13 C  s         
 
 Vector   41  Occ=2.000000D+00  E=-5.038195D-01
              MO Center= -7.9D-02,  8.8D-01, -1.2D-04, r^2= 1.3D+01
   Bfn.  Coefficient  Atom+Function         Bfn.  Coefficient  Atom+Function  
  ----- ------------  ---------------      ----- ------------  ---------------
   215     -0.198008  13 C  py               99      0.194518   6 C  py        
    10     -0.171768   1 C  s               137      0.156547   8 C  py        
   240     -0.155865  14 C  s         
 
 Vector   42  Occ=2.000000D+00  E=-4.934921D-01
              MO Center= -3.4D-03, -1.5D-01,  1.3D-05, r^2= 1.5D+01
   Bfn.  Coefficient  Atom+Function         Bfn.  Coefficient  Atom+Function  
  ----- ------------  ---------------      ----- ------------  ---------------
    98      0.201075   6 C  px               41      0.174117   3 C  px        
     3     -0.167103   1 C  px               60     -0.167740   4 C  px        
   118     -0.167628   7 C  py              234      0.166807  14 C  py        
   360      0.165121  26 O  py        
 
 Vector   43  Occ=2.000000D+00  E=-4.788522D-01
              MO Center=  4.7D-01, -4.0D+00,  2.2D-03, r^2= 3.1D+00
   Bfn.  Coefficient  Atom+Function         Bfn.  Coefficient  Atom+Function  
  ----- ------------  ---------------      ----- ------------  ---------------
   323      0.345974  24 C  pz              361      0.343039  26 O  pz        
   342      0.266429  25 O  pz              365      0.213345  26 O  pz        
     5      0.153423   1 C  pz        
 
 Vector   44  Occ=2.000000D+00  E=-4.640198D-01
              MO Center= -8.3D-02,  7.3D-02,  1.2D-04, r^2= 1.3D+01
   Bfn.  Coefficient  Atom+Function         Bfn.  Coefficient  Atom+Function  
  ----- ------------  ---------------      ----- ------------  ---------------
    79      0.204485   5 C  px              253      0.193083  15 C  py        
   156     -0.175152   9 C  py              194      0.164500  11 C  py        
   341      0.158526  25 O  py               22      0.153636   2 C  px        
     6     -0.150266   1 C  s                10     -0.150663   1 C  s         
 
 Vector   45  Occ=2.000000D+00  E=-4.582650D-01
              MO Center= -8.8D-02,  6.4D-01, -4.7D-04, r^2= 6.5D+00
   Bfn.  Coefficient  Atom+Function         Bfn.  Coefficient  Atom+Function  
  ----- ------------  ---------------      ----- ------------  ---------------
   138      0.214713   8 C  pz              119      0.207317   7 C  pz        
    62      0.174929   4 C  pz              157      0.173492   9 C  pz        
   176      0.171330  10 C  pz               43      0.169402   3 C  pz        
   285      0.153450  22 O  pz        
 
 Vector   46  Occ=2.000000D+00  E=-4.548845D-01
              MO Center= -2.0D-01, -5.1D-01, -1.3D-03, r^2= 8.2D+00
   Bfn.  Coefficient  Atom+Function         Bfn.  Coefficient  Atom+Function  
  ----- ------------  ---------------      ----- ------------  ---------------
    22      0.253553   2 C  px               79      0.234537   5 C  px        
    42      0.220729   3 C  py               23     -0.192810   2 C  py        
    63      0.179019   4 C  s               269      0.168450  16 H  s         
   271     -0.151031  17 H  s         
 
 Vector   47  Occ=2.000000D+00  E=-4.518899D-01
              MO Center=  1.9D-01,  2.6D+00,  1.2D-04, r^2= 6.9D+00
   Bfn.  Coefficient  Atom+Function         Bfn.  Coefficient  Atom+Function  
  ----- ------------  ---------------      ----- ------------  ---------------
   193      0.303471  11 C  px              252      0.292148  15 C  px        
   279     -0.183981  21 H  s               210      0.174840  12 H  s         
   175     -0.169463  10 C  py              158      0.166924   9 C  s         
 
 Vector   48  Occ=2.000000D+00  E=-4.477864D-01
              MO Center= -3.9D-01,  1.3D+00, -6.1D-04, r^2= 8.7D+00
   Bfn.  Coefficient  Atom+Function         Bfn.  Coefficient  Atom+Function  
  ----- ------------  ---------------      ----- ------------  ---------------
   283      0.327351  22 O  px              302      0.287106  23 O  px        
   136     -0.253295   8 C  px              286     -0.238412  22 O  s         
   305      0.215031  23 O  s               117     -0.212724   7 C  px        
 
 Vector   49  Occ=2.000000D+00  E=-4.407758D-01
              MO Center=  5.6D-01, -2.0D-01, -1.1D-03, r^2= 1.2D+01
   Bfn.  Coefficient  Atom+Function         Bfn.  Coefficient  Atom+Function  
  ----- ------------  ---------------      ----- ------------  ---------------
   302      0.292100  23 O  px              117     -0.211929   7 C  px        
    10      0.205616   1 C  s                80      0.198393   5 C  py        
   259     -0.197478  15 C  s               305      0.185787  23 O  s         
   105     -0.174644   6 C  s                99     -0.154381   6 C  py        
   341     -0.153693  25 O  py        
 
 Vector   50  Occ=2.000000D+00  E=-4.354552D-01
              MO Center= -4.1D-01, -9.0D-01,  1.5D-03, r^2= 1.4D+01
   Bfn.  Coefficient  Atom+Function         Bfn.  Coefficient  Atom+Function  
  ----- ------------  ---------------      ----- ------------  ---------------
   283      0.218426  22 O  px              360     -0.196518  26 O  py        
    61     -0.183602   4 C  py              341     -0.172177  25 O  py        
   362     -0.161285  26 O  s               136     -0.153670   8 C  px        
 
 Vector   51  Occ=2.000000D+00  E=-4.154307D-01
              MO Center=  1.7D-02, -1.2D+00,  8.1D-04, r^2= 1.7D+01
   Bfn.  Coefficient  Atom+Function         Bfn.  Coefficient  Atom+Function  
  ----- ------------  ---------------      ----- ------------  ---------------
   322      0.224786  24 C  py              341     -0.200152  25 O  py        
   360     -0.199090  26 O  py              240      0.197358  14 C  s         
    99      0.190632   6 C  py                4     -0.189317   1 C  py        
   234     -0.163580  14 C  py              215      0.161773  13 C  py        
    80     -0.158099   5 C  py              340     -0.155864  25 O  px        
 
 Vector   52  Occ=2.000000D+00  E=-4.063229D-01
              MO Center= -1.1D-01,  9.4D-01, -1.3D-03, r^2= 5.6D+00
   Bfn.  Coefficient  Atom+Function         Bfn.  Coefficient  Atom+Function  
  ----- ------------  ---------------      ----- ------------  ---------------
   285     -0.287673  22 O  pz              304      0.286923  23 O  pz        
   119      0.272765   7 C  pz              138     -0.269789   8 C  pz        
   289     -0.170272  22 O  pz              308      0.169532  23 O  pz        
 
 Vector   53  Occ=2.000000D+00  E=-4.009951D-01
              MO Center= -5.1D-02,  7.2D-01,  2.4D-04, r^2= 1.0D+01
   Bfn.  Coefficient  Atom+Function         Bfn.  Coefficient  Atom+Function  
  ----- ------------  ---------------      ----- ------------  ---------------
   235     -0.163452  14 C  pz              216     -0.162410  13 C  pz        
   100      0.161579   6 C  pz                5      0.158376   1 C  pz        
   157     -0.156422   9 C  pz              254     -0.156660  15 C  pz        
    24      0.154167   2 C  pz               81      0.154678   5 C  pz        
   195     -0.153298  11 C  pz               43      0.151702   3 C  pz        
 
 Vector   54  Occ=2.000000D+00  E=-3.905412D-01
              MO Center= -1.4D-01,  1.3D+00, -7.7D-06, r^2= 1.2D+01
   Bfn.  Coefficient  Atom+Function         Bfn.  Coefficient  Atom+Function  
  ----- ------------  ---------------      ----- ------------  ---------------
   221     -0.191325  13 C  s               137      0.187533   8 C  py        
   253      0.165380  15 C  py              194     -0.162707  11 C  py        
   215      0.157424  13 C  py              234     -0.156250  14 C  py        
 
 Vector   55  Occ=2.000000D+00  E=-3.850130D-01
              MO Center= -1.6D-01,  5.2D-01, -3.8D-04, r^2= 1.2D+01
   Bfn.  Coefficient  Atom+Function         Bfn.  Coefficient  Atom+Function  
  ----- ------------  ---------------      ----- ------------  ---------------
    22     -0.189931   2 C  px                3      0.185232   1 C  px        
    98     -0.176185   6 C  px               60     -0.162886   4 C  px        
   118     -0.157355   7 C  py               79      0.156343   5 C  px        
 
 Vector   56  Occ=2.000000D+00  E=-3.716548D-01
              MO Center=  6.7D-02,  1.9D+00,  1.6D-04, r^2= 8.7D+00
   Bfn.  Coefficient  Atom+Function         Bfn.  Coefficient  Atom+Function  
  ----- ------------  ---------------      ----- ------------  ---------------
   174     -0.213100  10 C  px              155      0.198643   9 C  px        
   233      0.190753  14 C  px              193      0.189266  11 C  px        
   214     -0.187290  13 C  px              252     -0.183755  15 C  px        
   302     -0.176256  23 O  px              283      0.169023  22 O  px        
 
 Vector   57  Occ=2.000000D+00  E=-3.696447D-01
              MO Center=  5.6D-02,  7.5D-01,  1.5D-04, r^2= 1.3D+01
   Bfn.  Coefficient  Atom+Function         Bfn.  Coefficient  Atom+Function  
  ----- ------------  ---------------      ----- ------------  ---------------
   304     -0.199866  23 O  pz              216      0.195767  13 C  pz        
   235      0.196321  14 C  pz              285     -0.196480  22 O  pz        
     5      0.190782   1 C  pz              100      0.183221   6 C  pz        
   361     -0.181522  26 O  pz        
 
 Vector   58  Occ=2.000000D+00  E=-3.445437D-01
              MO Center=  5.2D-01, -4.4D+00,  2.2D-03, r^2= 4.1D+00
   Bfn.  Coefficient  Atom+Function         Bfn.  Coefficient  Atom+Function  
  ----- ------------  ---------------      ----- ------------  ---------------
   361     -0.452014  26 O  pz              342      0.436378  25 O  pz        
   365     -0.316788  26 O  pz              346      0.279403  25 O  pz        
 
 Vector   59  Occ=2.000000D+00  E=-3.073860D-01
              MO Center= -9.0D-02, -4.8D+00, -3.8D-03, r^2= 2.3D+00
   Bfn.  Coefficient  Atom+Function         Bfn.  Coefficient  Atom+Function  
  ----- ------------  ---------------      ----- ------------  ---------------
   340      0.479774  25 O  px              341     -0.335979  25 O  py        
   344      0.312883  25 O  px              359      0.244250  26 O  px        
   345     -0.213341  25 O  py              363      0.178263  26 O  px        
     6      0.166609   1 C  s                 4     -0.153356   1 C  py        
 
 Vector   60  Occ=2.000000D+00  E=-2.974556D-01
              MO Center= -4.4D-01, -2.0D-01, -1.2D-03, r^2= 8.2D+00
   Bfn.  Coefficient  Atom+Function         Bfn.  Coefficient  Atom+Function  
  ----- ------------  ---------------      ----- ------------  ---------------
   285      0.305152  22 O  pz              304      0.265359  23 O  pz        
    62     -0.243787   4 C  pz                5      0.227668   1 C  pz        
   289      0.202647  22 O  pz               43     -0.188651   3 C  pz        
   308      0.175962  23 O  pz               66     -0.171134   4 C  pz        
   100      0.156093   6 C  pz        
 
 Vector   61  Occ=2.000000D+00  E=-2.911369D-01
              MO Center= -4.9D-02,  8.5D-01, -5.5D-04, r^2= 9.5D+00
   Bfn.  Coefficient  Atom+Function         Bfn.  Coefficient  Atom+Function  
  ----- ------------  ---------------      ----- ------------  ---------------
   157      0.251597   9 C  pz              216     -0.225966  13 C  pz        
    81     -0.219689   5 C  pz               24      0.196996   2 C  pz        
    62     -0.193945   4 C  pz                5      0.187402   1 C  pz        
   161      0.170361   9 C  pz              304     -0.157346  23 O  pz        
   176      0.150004  10 C  pz        
 
 Vector   62  Occ=2.000000D+00  E=-2.893334D-01
              MO Center= -1.9D-01,  4.4D-01, -5.1D-04, r^2= 8.8D+00
   Bfn.  Coefficient  Atom+Function         Bfn.  Coefficient  Atom+Function  
  ----- ------------  ---------------      ----- ------------  ---------------
    43      0.252924   3 C  pz              100     -0.238465   6 C  pz        
   176     -0.231288  10 C  pz               24      0.221626   2 C  pz        
    81     -0.208843   5 C  pz              235      0.208383  14 C  pz        
    47      0.167034   3 C  pz              104     -0.156889   6 C  pz        
   180     -0.153970  10 C  pz        
 
 Vector   63  Occ=2.000000D+00  E=-2.865781D-01
              MO Center= -7.8D-01,  1.1D+00, -6.9D-04, r^2= 7.2D+00
   Bfn.  Coefficient  Atom+Function         Bfn.  Coefficient  Atom+Function  
  ----- ------------  ---------------      ----- ------------  ---------------
   284      0.482243  22 O  py              303      0.364094  23 O  py        
   328     -0.325848  24 C  s                67      0.323355   4 C  s         
   288      0.312196  22 O  py              200     -0.310233  11 C  s         
   259     -0.309508  15 C  s               307      0.235432  23 O  py        
    12     -0.229259   1 C  py              240      0.216526  14 C  s         
 
 Vector   64  Occ=2.000000D+00  E=-2.820709D-01
              MO Center=  2.2D-01,  2.5D+00, -3.6D-05, r^2= 6.7D+00
   Bfn.  Coefficient  Atom+Function         Bfn.  Coefficient  Atom+Function  
  ----- ------------  ---------------      ----- ------------  ---------------
   195      0.295938  11 C  pz              254     -0.296808  15 C  pz        
   304     -0.200088  23 O  pz              258     -0.188130  15 C  pz        
   199      0.186639  11 C  pz              285      0.179842  22 O  pz        
   157     -0.158913   9 C  pz              216      0.154715  13 C  pz        
 
 Vector   65  Occ=2.000000D+00  E=-2.807837D-01
              MO Center=  5.3D-01,  8.0D-01, -2.1D-03, r^2= 7.2D+00
   Bfn.  Coefficient  Atom+Function         Bfn.  Coefficient  Atom+Function  
  ----- ------------  ---------------      ----- ------------  ---------------
   303      0.465691  23 O  py              284     -0.346401  22 O  py        
   307      0.302457  23 O  py               10     -0.254515   1 C  s         
   105      0.251461   6 C  s               288     -0.225003  22 O  py        
    44      0.214900   3 C  s               177     -0.214925  10 C  s         
   240     -0.209261  14 C  s               126      0.185183   7 C  py        
 
 Vector   66  Occ=0.000000D+00  E=-1.468872D-01
              MO Center= -2.6D-01,  7.3D-01, -8.0D-04, r^2= 8.0D+00
   Bfn.  Coefficient  Atom+Function         Bfn.  Coefficient  Atom+Function  
  ----- ------------  ---------------      ----- ------------  ---------------
   285      0.280941  22 O  pz               51      0.263360   3 C  pz        
   304     -0.263642  23 O  pz               70     -0.251236   4 C  pz        
   138     -0.233361   8 C  pz              184      0.214179  10 C  pz        
   119      0.212770   7 C  pz              289      0.212859  22 O  pz        
   165     -0.208761   9 C  pz              308     -0.199504  23 O  pz        
 
 Vector   67  Occ=0.000000D+00  E=-9.626063D-02
              MO Center=  2.3D-01, -1.7D-01, -1.0D-03, r^2= 1.1D+01
   Bfn.  Coefficient  Atom+Function         Bfn.  Coefficient  Atom+Function  
  ----- ------------  ---------------      ----- ------------  ---------------
    28     -0.292666   2 C  pz               24     -0.284370   2 C  pz        
    13      0.280608   1 C  pz               32     -0.260143   2 C  pz        
   119      0.221196   7 C  pz              203     -0.216334  11 C  pz        
    85     -0.200589   5 C  pz              199     -0.193381  11 C  pz        
    81     -0.189811   5 C  pz              123      0.190727   7 C  pz        
 
 Vector   68  Occ=0.000000D+00  E=-6.789205D-02
              MO Center= -3.3D-01,  8.5D-02, -3.6D-04, r^2= 1.3D+01
   Bfn.  Coefficient  Atom+Function         Bfn.  Coefficient  Atom+Function  
  ----- ------------  ---------------      ----- ------------  ---------------
   165      0.390795   9 C  pz               13     -0.343375   1 C  pz        
   108      0.339443   6 C  pz              184     -0.285139  10 C  pz        
    51      0.281365   3 C  pz              104      0.281601   6 C  pz        
    70     -0.279685   4 C  pz              100      0.258157   6 C  pz        
   262     -0.256129  15 C  pz              220      0.242384  13 C  pz        
 
 Vector   69  Occ=0.000000D+00  E=-4.095421D-02
              MO Center=  7.6D-02,  1.2D+00, -3.2D-04, r^2= 1.0D+01
   Bfn.  Coefficient  Atom+Function         Bfn.  Coefficient  Atom+Function  
  ----- ------------  ---------------      ----- ------------  ---------------
   184      0.421997  10 C  pz               51     -0.391761   3 C  pz        
    32      0.382198   2 C  pz              203     -0.383332  11 C  pz        
   262     -0.339067  15 C  pz              243      0.333774  14 C  pz        
   258     -0.272720  15 C  pz               28      0.269892   2 C  pz        
   199     -0.266664  11 C  pz               47     -0.264348   3 C  pz        
 
 Vector   70  Occ=0.000000D+00  E=-8.700943D-03
              MO Center= -2.8D-01, -1.3D-01,  1.1D-03, r^2= 1.6D+01
   Bfn.  Coefficient  Atom+Function         Bfn.  Coefficient  Atom+Function  
  ----- ------------  ---------------      ----- ------------  ---------------
    89      0.699786   5 C  pz               70     -0.632154   4 C  pz        
   108     -0.584491   6 C  pz              224      0.559733  13 C  pz        
    13      0.479670   1 C  pz              165      0.437458   9 C  pz        
   243     -0.399490  14 C  pz              323      0.333620  24 C  pz        
   327      0.333117  24 C  pz               51      0.305826   3 C  pz        
 
 Vector   71  Occ=0.000000D+00  E=-6.429193D-03
              MO Center=  9.4D-01, -2.9D+00,  5.4D-03, r^2= 2.4D+01
   Bfn.  Coefficient  Atom+Function         Bfn.  Coefficient  Atom+Function  
  ----- ------------  ---------------      ----- ------------  ---------------
    67      3.223749   4 C  s               124      2.565847   7 C  s         
   259     -2.525814  15 C  s               105     -2.231442   6 C  s         
   143      2.156374   8 C  s                10      2.008834   1 C  s         
   126     -1.748771   7 C  py              145      1.653608   8 C  py        
   163      1.627520   9 C  px              183      1.626247  10 C  py        
 
 Vector   72  Occ=0.000000D+00  E=-1.677433D-03
              MO Center=  8.6D-01,  3.2D+00,  3.9D-03, r^2= 3.0D+01
   Bfn.  Coefficient  Atom+Function         Bfn.  Coefficient  Atom+Function  
  ----- ------------  ---------------      ----- ------------  ---------------
    10      3.133188   1 C  s               328      2.778279  24 C  s         
    48     -2.752731   3 C  s                67     -2.720975   4 C  s         
   183     -2.520295  10 C  py              164     -2.388752   9 C  py        
    86     -2.102319   5 C  s               143     -2.015041   8 C  s         
    88      1.989946   5 C  py               12      1.840673   1 C  py        
 
 Vector   73  Occ=0.000000D+00  E= 1.199457D-02
              MO Center= -6.1D-01, -4.3D-01,  7.2D-04, r^2= 2.5D+01
   Bfn.  Coefficient  Atom+Function         Bfn.  Coefficient  Atom+Function  
  ----- ------------  ---------------      ----- ------------  ---------------
   328      4.243020  24 C  s               240     -3.412315  14 C  s         
   162      2.697268   9 C  s               181      2.359775  10 C  s         
    86     -2.236029   5 C  s               202      1.992913  11 C  py        
   330      1.801482  24 C  py              183     -1.741235  10 C  py        
   105     -1.710669   6 C  s                69     -1.659994   4 C  py        
 
 Vector   74  Occ=0.000000D+00  E= 2.173185D-02
              MO Center=  3.4D-01,  3.5D+00,  9.7D-04, r^2= 2.2D+01
   Bfn.  Coefficient  Atom+Function         Bfn.  Coefficient  Atom+Function  
  ----- ------------  ---------------      ----- ------------  ---------------
   221      6.114987  13 C  s               240     -5.794483  14 C  s         
   241     -3.199676  14 C  px              222     -3.072385  13 C  px        
    86     -2.735680   5 C  s               259     -2.410566  15 C  s         
   145     -2.085019   8 C  py              200      1.898974  11 C  s         
    10      1.686661   1 C  s               261     -1.611979  15 C  py        
 
 Vector   75  Occ=0.000000D+00  E= 2.462431D-02
              MO Center= -1.4D+00,  9.9D-02,  2.0D-03, r^2= 2.7D+01
   Bfn.  Coefficient  Atom+Function         Bfn.  Coefficient  Atom+Function  
  ----- ------------  ---------------      ----- ------------  ---------------
   221      5.295017  13 C  s               126      4.130788   7 C  py        
   259     -3.281261  15 C  s                48      3.168541   3 C  s         
    10     -3.065093   1 C  s               328     -2.992844  24 C  s         
    12     -2.763776   1 C  py              181     -2.686033  10 C  s         
    86      2.358221   5 C  s               106      2.302569   6 C  px        
 
 Vector   76  Occ=0.000000D+00  E= 2.853258D-02
              MO Center= -7.7D-02,  8.7D-01, -8.8D-04, r^2= 8.8D+00
   Bfn.  Coefficient  Atom+Function         Bfn.  Coefficient  Atom+Function  
  ----- ------------  ---------------      ----- ------------  ---------------
   146      0.829458   8 C  pz              127      0.660453   7 C  pz        
   165     -0.561030   9 C  pz               70     -0.472498   4 C  pz        
   262      0.461249  15 C  pz               13     -0.383763   1 C  pz        
    32      0.384207   2 C  pz              123      0.383219   7 C  pz        
    89      0.358781   5 C  pz              184     -0.342477  10 C  pz        
 
 Vector   77  Occ=0.000000D+00  E= 3.953069D-02
              MO Center= -1.0D-01, -2.3D-01,  4.4D-02, r^2= 1.8D+01
   Bfn.  Coefficient  Atom+Function         Bfn.  Coefficient  Atom+Function  
  ----- ------------  ---------------      ----- ------------  ---------------
    13      1.000127   1 C  pz              331     -0.837757  24 C  pz        
   108     -0.796003   6 C  pz              146     -0.736107   8 C  pz        
    32     -0.555959   2 C  pz              127     -0.535779   7 C  pz        
   243     -0.528640  14 C  pz              123      0.270657   7 C  pz        
   119      0.239696   7 C  pz               70      0.232575   4 C  pz        
 
 Vector   78  Occ=0.000000D+00  E= 3.977026D-02
              MO Center= -4.5D-01,  1.3D+00, -4.3D-02, r^2= 2.8D+01
   Bfn.  Coefficient  Atom+Function         Bfn.  Coefficient  Atom+Function  
  ----- ------------  ---------------      ----- ------------  ---------------
   240      6.023564  14 C  s                67      5.350846   4 C  s         
   200     -5.343091  11 C  s               259     -5.204372  15 C  s         
   328     -4.867457  24 C  s               163      4.344059   9 C  px        
   162     -3.887013   9 C  s               145      3.765713   8 C  py        
   105     -3.018669   6 C  s                10      2.528838   1 C  s         
 
 Vector   79  Occ=0.000000D+00  E= 4.485860D-02
              MO Center=  1.4D+00,  7.8D-01, -1.2D-02, r^2= 2.3D+01
   Bfn.  Coefficient  Atom+Function         Bfn.  Coefficient  Atom+Function  
  ----- ------------  ---------------      ----- ------------  ---------------
   240      6.348839  14 C  s               221     -4.582394  13 C  s         
   222      3.206924  13 C  px              202     -2.600324  11 C  py        
   125     -2.521887   7 C  px              241      2.483756  14 C  px        
   259      2.482168  15 C  s               328     -2.480014  24 C  s         
    86      2.424682   5 C  s                69      2.335285   4 C  py        
 
 Vector   80  Occ=0.000000D+00  E= 4.937414D-02
              MO Center=  1.9D-01,  1.0D+00,  8.6D-03, r^2= 2.6D+01
   Bfn.  Coefficient  Atom+Function         Bfn.  Coefficient  Atom+Function  
  ----- ------------  ---------------      ----- ------------  ---------------
    13      1.828306   1 C  pz              331     -1.281081  24 C  pz        
    32     -1.015541   2 C  pz              108     -0.863772   6 C  pz        
   224      0.744830  13 C  pz              146      0.732551   8 C  pz        
   127      0.711592   7 C  pz              165     -0.624911   9 C  pz        
   262      0.531846  15 C  pz              184     -0.325417  10 C  pz        
 
 Vector   81  Occ=0.000000D+00  E= 5.340645D-02
              MO Center= -4.6D-01, -1.4D+00,  4.1D-03, r^2= 3.1D+01
   Bfn.  Coefficient  Atom+Function         Bfn.  Coefficient  Atom+Function  
  ----- ------------  ---------------      ----- ------------  ---------------
   221      6.472926  13 C  s               259     -5.016636  15 C  s         
   328     -3.441092  24 C  s               241     -2.772155  14 C  px        
    67      2.348054   4 C  s                68     -2.310727   4 C  px        
   162     -2.266519   9 C  s                11      2.125080   1 C  px        
   330     -2.038278  24 C  py              222     -2.020785  13 C  px        
 
 Vector   82  Occ=0.000000D+00  E= 5.545754D-02
              MO Center=  8.4D-02, -5.4D-01, -5.4D-02, r^2= 1.9D+01
   Bfn.  Coefficient  Atom+Function         Bfn.  Coefficient  Atom+Function  
  ----- ------------  ---------------      ----- ------------  ---------------
   243      1.249942  14 C  pz              184     -1.127382  10 C  pz        
    13      1.017265   1 C  pz              224     -1.014184  13 C  pz        
   331     -0.954823  24 C  pz              203      0.924801  11 C  pz        
   262     -0.915769  15 C  pz              165      0.843675   9 C  pz        
    70     -0.776993   4 C  pz               32     -0.582464   2 C  pz        
 
 Vector   83  Occ=0.000000D+00  E= 5.598832D-02
              MO Center= -3.6D-01,  8.5D-01,  5.3D-02, r^2= 2.5D+01
   Bfn.  Coefficient  Atom+Function         Bfn.  Coefficient  Atom+Function  
  ----- ------------  ---------------      ----- ------------  ---------------
    10      6.800474   1 C  s                86     -6.316905   5 C  s         
   221      5.075958  13 C  s                12      3.939808   1 C  py        
   105     -3.796447   6 C  s                11     -3.632561   1 C  px        
   261     -3.323019  15 C  py              200      3.148360  11 C  s         
   241     -3.162168  14 C  px              240     -3.101761  14 C  s         
 
 Vector   84  Occ=0.000000D+00  E= 6.462591D-02
              MO Center= -2.0D-01,  1.0D+00, -2.2D-03, r^2= 2.2D+01
   Bfn.  Coefficient  Atom+Function         Bfn.  Coefficient  Atom+Function  
  ----- ------------  ---------------      ----- ------------  ---------------
    70     -4.324370   4 C  pz              184      4.268548  10 C  pz        
   165     -4.176637   9 C  pz               51      4.080739   3 C  pz        
   146      3.928354   8 C  pz              127     -3.727612   7 C  pz        
    89      1.386176   5 C  pz              203     -1.321884  11 C  pz        
    32     -1.229823   2 C  pz              262      1.193981  15 C  pz        
 
[...]
              MO Center=  1.7D-01,  8.7D-01,  3.0D-03, r^2= 1.8D+01
   Bfn.  Coefficient  Atom+Function         Bfn.  Coefficient  Atom+Function  
  ----- ------------  ---------------      ----- ------------  ---------------
   125      7.660321   7 C  px              202      7.671322  11 C  py        
   143      7.274809   8 C  s               240     -7.088735  14 C  s         
    50     -6.675235   3 C  py              124      6.168761   7 C  s         
   144      5.852410   8 C  px              126      5.753704   7 C  py        
   200     -5.117628  11 C  s               164      5.003728   9 C  py        
 
 Vector  143  Occ=0.000000D+00  E= 4.511667D-01
              MO Center= -1.6D-01,  1.0D-01,  2.3D-03, r^2= 2.3D+01
   Bfn.  Coefficient  Atom+Function         Bfn.  Coefficient  Atom+Function  
  ----- ------------  ---------------      ----- ------------  ---------------
   143     46.087535   8 C  s               124     42.111280   7 C  s         
    10    -40.994354   1 C  s               221    -37.955045  13 C  s         
    67     33.004428   4 C  s               240    -30.516312  14 C  s         
   183     26.753137  10 C  py              261     26.392646  15 C  py        
    88    -23.568347   5 C  py               48     23.267161   3 C  s         
 
 Vector  144  Occ=0.000000D+00  E= 4.549718D-01
              MO Center=  4.0D-01,  5.0D-01,  1.1D-03, r^2= 1.6D+01
   Bfn.  Coefficient  Atom+Function         Bfn.  Coefficient  Atom+Function  
  ----- ------------  ---------------      ----- ------------  ---------------
   240     18.650437  14 C  s               164    -16.368226   9 C  py        
   124    -15.991324   7 C  s               143    -14.152223   8 C  s         
    67    -11.075010   4 C  s               202    -10.752896  11 C  py        
   259      9.599130  15 C  s                88      9.151896   5 C  py        
    48     -9.053830   3 C  s                10      7.959055   1 C  s         
 
 Vector  145  Occ=0.000000D+00  E= 4.591820D-01
              MO Center=  1.3D-01,  1.7D-01, -5.3D-05, r^2= 2.1D+01
   Bfn.  Coefficient  Atom+Function         Bfn.  Coefficient  Atom+Function  
  ----- ------------  ---------------      ----- ------------  ---------------
    10     23.842582   1 C  s               143    -21.841072   8 C  s         
   126    -21.691331   7 C  py              240     20.008707  14 C  s         
   124    -19.069918   7 C  s               202    -16.369054  11 C  py        
    50     14.076429   3 C  py              200     13.751356  11 C  s         
   261    -13.495487  15 C  py              221     12.246722  13 C  s         
 
 Vector  146  Occ=0.000000D+00  E= 4.645981D-01
              MO Center= -6.9D-01, -2.1D-01,  1.3D-03, r^2= 1.8D+01
   Bfn.  Coefficient  Atom+Function         Bfn.  Coefficient  Atom+Function  
  ----- ------------  ---------------      ----- ------------  ---------------
   105     20.710592   6 C  s               259     20.381429  15 C  s         
   164    -19.627459   9 C  py               67    -18.057142   4 C  s         
   124    -17.992702   7 C  s               221    -16.339406  13 C  s         
    86     15.864950   5 C  s               241     14.189013  14 C  px        
   143    -13.775244   8 C  s                88     13.111091   5 C  py        
 
 Vector  147  Occ=0.000000D+00  E= 4.723917D-01
              MO Center= -1.3D-01,  3.4D-01, -5.9D-03, r^2= 2.0D+01
   Bfn.  Coefficient  Atom+Function         Bfn.  Coefficient  Atom+Function  
  ----- ------------  ---------------      ----- ------------  ---------------
   221     19.520446  13 C  s               145    -16.476293   8 C  py        
   143    -15.571687   8 C  s                10     15.014313   1 C  s         
    50     13.881928   3 C  py              261    -13.641677  15 C  py        
    69     11.732523   4 C  py              124    -11.515400   7 C  s         
   200      9.948677  11 C  s               181     -9.092422  10 C  s         
 
 Vector  148  Occ=0.000000D+00  E= 4.802253D-01
              MO Center= -6.3D-01, -6.0D-01, -1.2D-03, r^2= 2.0D+01
   Bfn.  Coefficient  Atom+Function         Bfn.  Coefficient  Atom+Function  
  ----- ------------  ---------------      ----- ------------  ---------------
   126     23.697332   7 C  py               50    -21.408037   3 C  py        
   145    -21.029680   8 C  py              183    -20.345238  10 C  py        
   328     19.526747  24 C  s                86    -16.935025   5 C  s         
    31     15.555577   2 C  py               67    -15.218251   4 C  s         
   259     12.937952  15 C  s               240    -12.289275  14 C  s         
 
 Vector  149  Occ=0.000000D+00  E= 4.845958D-01
              MO Center= -1.0D-01, -2.5D-01,  2.0D-03, r^2= 1.9D+01
   Bfn.  Coefficient  Atom+Function         Bfn.  Coefficient  Atom+Function  
  ----- ------------  ---------------      ----- ------------  ---------------
   105     12.123810   6 C  s                86     11.278188   5 C  s         
   124     -7.800589   7 C  s                88      7.550716   5 C  py        
   202     -7.468855  11 C  py              259      7.239772  15 C  s         
    10     -7.091057   1 C  s               143     -6.895809   8 C  s         
   164     -6.548744   9 C  py               67     -6.482992   4 C  s         
 
 Vector  150  Occ=0.000000D+00  E= 5.034080D-01
              MO Center=  2.2D-01, -8.2D-01,  1.3D-03, r^2= 1.8D+01
   Bfn.  Coefficient  Atom+Function         Bfn.  Coefficient  Atom+Function  
  ----- ------------  ---------------      ----- ------------  ---------------
   221     17.130779  13 C  s                10     15.020458   1 C  s         
   261    -14.292264  15 C  py               86    -11.227385   5 C  s         
    69     10.117219   4 C  py              145     -9.765832   8 C  py        
   164      9.421273   9 C  py              241     -8.505024  14 C  px        
   162     -7.938858   9 C  s               105     -7.077884   6 C  s         
 

   alpha - beta orbital overlaps 
   ----------------------------- 


   alpha      1      2      3      4      5      6      7      8      9     10
    beta      1      2      3      4      5      6      7      8      9     10
 overlap   1.000  1.000  1.000  1.000  1.000  1.000  1.000  1.000  0.999  0.999


   alpha     11     12     13     14     15     16     17     18     19     20
    beta     11     12     14     13     15     16     17     18     19     20
 overlap   1.000  1.000  1.000  1.000  0.968  0.968  0.995  0.992  0.990  1.000


   alpha     21     22     23     24     25     26     27     28     29     30
    beta     21     22     23     24     25     26     27     28     29     30
 overlap   1.000  0.999  0.999  0.999  1.000  1.000  0.998  0.997  0.998  0.996


   alpha     31     32     33     34     35     36     37     38     39     40
    beta     31     32     33     34     35     36     37     38     39     40
 overlap   0.989  0.991  0.999  1.000  0.999  0.995  0.995  1.000  0.999  0.997


   alpha     41     42     43     44     45     46     47     48     49     50
    beta     41     42     43     44     45     46     48     47     49     50
 overlap   1.000  0.997  0.998  1.000  1.000  0.998  0.995  0.967  0.930  0.950


   alpha     51     52     53     54     55     56     57     58     59     60
    beta     51     53     52     54     55     56     57     58     59     63
 overlap   0.996  0.992  0.997  0.997  0.997  0.931  0.999  0.928  1.000  0.817


   alpha     61     62     63     64     65     66     67     68     69     70
    beta     60     61     62     64     65     66     67     68     69     70
 overlap   0.976  0.864  0.817  0.999  0.999  0.982  0.984  0.989  1.000  1.000


   alpha     71     72     73     74     75     76     77     78     79     80
    beta     71     72     73     75     74     76     77     78     79     80
 overlap   0.992  1.000  1.000  0.989  1.000  0.998  1.000  1.000  0.997  1.000


   alpha     81     82     83     84     85     86     87     88     89     90
    beta     81     82     85     83     84     86     87     89     88     90
 overlap   1.000  0.996  0.861  0.999  0.999  0.889  0.807  0.773  1.000  1.000


   alpha     91     92     93     94     95     96     97     98     99    100
    beta     91     92     93     95     94     97     96     98     99    100
 overlap   1.000  0.990  0.982  0.978  0.996  0.960  0.965  0.998  1.000  0.999


   alpha    101    102    103    104    105    106    107    108    109    110
    beta    101    102    103    104    105    106    107    108    109    110
 overlap   1.000  0.999  0.999  1.000  1.000  0.999  0.995  0.999  0.996  0.978


   alpha    111    112    113    114    115    116    117    118    119    120
    beta    111    112    113    115    114    116    117    118    120    119
 overlap   0.974  0.997  0.997  0.977  0.983  0.996  0.992  0.975  0.968  0.988


   alpha    121    122    123    124    125    126    127    128    129    130
    beta    121    122    124    123    125    126    127    128    129    130
 overlap   0.996  0.996  0.792  0.998  0.925  0.850  0.997  0.999  1.000  0.998


   alpha    131    132    133    134    135    136    137    138    139    140
    beta    131    132    133    134    135    136    137    139    138    141
 overlap   0.998  0.998  0.998  0.998  0.995  0.988  0.987  0.998  0.998  0.997


   alpha    141    142    143    144    145    146    147    148    149    150
    beta    140    142    143    144    145    146    147    148    149    150
 overlap   0.993  0.994  1.000  0.997  0.999  0.996  0.999  0.996  0.996  0.964


   alpha    151    152    153    154    155    156    157    158    159    160
    beta    151    152    153    154    155    156    157    158    159    160
 overlap   0.964  0.999  0.999  0.993  0.990  0.996  0.999  0.999  1.000  1.000


   alpha    161    162    163    164    165    166    167    168    169    170
    beta    161    162    163    164    165    166    167    168    169    171
 overlap   1.000  1.000  1.000  1.000  1.000  1.000  1.000  1.000  0.990  0.990


   alpha    171    172    173    174    175    176    177    178    179    180
    beta    170    172    174    173    175    176    177    178    179    180
 overlap   0.999  0.999  0.818  0.820  0.998  1.000  0.995  0.999  0.996  0.997


   alpha    181    182    183    184    185    186    187    188    189    190
    beta    181    182    183    184    185    186    187    188    189    190
 overlap   1.000  1.000  0.997  0.999  0.973  0.984  0.991  1.000  0.997  1.000


   alpha    191    192    193    194    195    196    197    198    199    200
    beta    191    192    193    194    195    196    197    198    199    200
 overlap   1.000  0.999  1.000  1.000  1.000  1.000  1.000  0.999  0.999  0.999


   alpha    201    202    203    204    205    206    207    208    209    210
    beta    201    202    203    204    205    206    207    208    209    210
 overlap   1.000  0.999  0.998  0.997  0.997  0.998  0.999  1.000  1.000  1.000


   alpha    211    212    213    214    215    216    217    218    219    220
    beta    211    212    213    214    215    216    217    218    220    219
 overlap   1.000  0.999  0.994  0.995  0.999  0.999  0.999  0.999  0.996  1.000


   alpha    221    222    223    224    225    226    227    228    229    230
    beta    221    222    223    224    225    226    228    227    230    229
 overlap   0.995  0.999  0.998  0.983  0.982  0.999  0.991  0.997  0.989  0.998


   alpha    231    232    233    234    235    236    237    238    239    240
    beta    231    232    233    234    235    236    238    237    239    240
 overlap   0.999  0.993  0.998  0.999  0.877  0.876  0.996  0.995  0.999  1.000


   alpha    241    242    243    244    245    246    247    248    249    250
    beta    241    242    243    244    245    246    247    248    249    250
 overlap   1.000  1.000  0.955  0.944  0.984  1.000  0.997  1.000  0.995  0.992


   alpha    251    252    253    254    255    256    257    258    259    260
    beta    251    252    253    254    255    256    257    258    259    260
 overlap   1.000  0.993  1.000  0.999  0.999  1.000  1.000  0.999  1.000  1.000


   alpha    261    262    263    264    265    266    267    268    269    270
    beta    261    262    263    264    265    266    267    268    269    270
 overlap   0.999  1.000  0.960  0.959  0.996  0.996  0.999  1.000  1.000  0.998


   alpha    271    272    273    274    275    276    277    278    279    280
    beta    271    272    273    274    275    276    277    278    279    280
 overlap   0.998  0.999  0.999  1.000  0.999  1.000  1.000  0.998  0.999  1.000


   alpha    281    282    283    284    285    286    287    288    289    290
    beta    281    282    283    284    285    286    287    288    289    290
 overlap   0.994  0.992  0.992  0.993  0.997  0.940  0.940  0.997  1.000  0.999


   alpha    291    292    293    294    295    296    297    298    299    300
    beta    291    292    293    294    295    296    297    298    299    300
 overlap   0.999  0.999  0.999  1.000  0.999  1.000  0.999  0.999  1.000  1.000


   alpha    301    302    303    304    305    306    307    308    309    310
    beta    301    302    304    303    305    306    307    308    309    310
 overlap   0.928  0.823  0.869  0.999  0.968  1.000  1.000  1.000  0.999  1.000


   alpha    311    312    313    314    315    316    317    318    319    320
    beta    311    312    313    314    315    316    318    317    319    320
 overlap   0.999  1.000  1.000  1.000  1.000  1.000  0.736  0.853  0.873  1.000


   alpha    321    322    323    324    325    326    327    328    329    330
    beta    321    322    323    324    325    326    327    328    329    330
 overlap   1.000  1.000  1.000  0.999  1.000  0.998  0.998  0.999  1.000  1.000


   alpha    331    332    333    334    335    336    337    338    339    340
    beta    331    332    333    334    335    336    337    338    339    340
 overlap   1.000  1.000  1.000  1.000  1.000  1.000  0.995  0.995  1.000  1.000


   alpha    341    342    343    344    345    346    347    348    349    350
    beta    341    342    343    344    345    346    347    348    349    350
 overlap   1.000  1.000  1.000  1.000  1.000  1.000  1.000  0.999  0.996  0.997


   alpha    351    352    353    354    355    356    357    358    359    360
    beta    351    352    353    354    355    356    357    358    359    360
 overlap   1.000  1.000  0.999  0.999  1.000  1.000  1.000  1.000  1.000  1.000


   alpha    361    362    363    364
    beta    361    362    363    364
 overlap   1.000  1.000  1.000  1.000

     --------------------------
     Expectation value of S2:  
     --------------------------
      <S2> =      0.7587 (Exact =     0.7500)
 

 center of mass
 --------------
 x =  -0.01220553 y =  -0.04502338 z =   0.00025262

 moments of inertia (a.u.)
 ------------------
        8131.142802453908         -28.062095331474          -0.194616575228
         -28.062095331474        1922.458996658997          -0.108205068979
          -0.194616575228          -0.108205068979       10053.585558593952
 
     Multipole analysis of the density
     ---------------------------------
 
     L   x y z        total         alpha         beta         nuclear
     -   - - -        -----         -----         ----         -------
     0   0 0 0     -1.000000    -66.000000    -65.000000    130.000000
 
     1   1 0 0      0.722379      1.204924      0.436832     -0.919376
     1   0 1 0      0.018583     -0.502106      0.466890      0.053799
     1   0 0 1      0.004577     -0.018405     -0.018779      0.041762
 
     2   2 0 0   -102.253177   -571.279919   -558.234265   1027.261007
     2   1 1 0     -3.124935    -12.679228    -13.808308     23.362601
     2   1 0 1     -0.003873     -0.049467     -0.055252      0.100846
     2   0 2 0   -107.433894  -2208.630421  -2193.333744   4294.530271
     2   0 1 1     -0.054144     -0.030206     -0.028473      0.004536
     2   0 0 2    -85.320349    -43.570764    -41.753784      0.004200
 

 Task  times  cpu:     1363.1s     wall:     1366.1s
 
 
                                NWChem Input Module
                                -------------------
 
 
 Summary of allocated global arrays
-----------------------------------
  No active global arrays



                         GA Statistics for process    0
                         ------------------------------

       create   destroy   get      put      acc     scatter   gather  read&inc
calls: 3.01e+04 3.14e+04 9.18e+06 2.46e+05 5.64e+06 2189        0     1.08e+04 
number of processes/call 1.12e+00 1.68e+00 1.22e+00 1.81e+00 0.00e+00
bytes total:             4.41e+10 2.43e+09 3.25e+10 8.19e+07 0.00e+00 8.61e+04
bytes remote:            4.00e+10 1.67e+09 3.04e+10 -3.03e+07 0.00e+00 0.00e+00
Max memory consumed for GA by this process: 34793928 bytes
 
MA_summarize_allocated_blocks: starting scan ...
heap block 'gridpts', handle 100, address 0x10002c51598:
	type of elements:		double precision
	number of elements:		6291456
	address of client space:	0x10002c515f0
	index for client space:		137418281819
	total number of bytes:		50331744
MA_summarize_allocated_blocks: scan completed: 1 heap block, 0 stack blocks
MA usage statistics:

	allocation statistics:
					      heap	     stack
					      ----	     -----
	current number of blocks	         1	         0
	maximum number of blocks	        25	        52
	current total bytes		  50331744	         0
	maximum total bytes		  52336416	  95055256
	maximum total K-bytes		     52337	     95056
	maximum total M-bytes		        53	        96
 
 
                                     CITATION
                                     --------
                Please cite the following reference when publishing
                           results obtained with NWChem:
 
                 M. Valiev, E.J. Bylaska, N. Govind, K. Kowalski,
              T.P. Straatsma, H.J.J. van Dam, D. Wang, J. Nieplocha,
                        E. Apra, T.L. Windus, W.A. de Jong
                 "NWChem: a comprehensive and scalable open-source
                  solution for large scale molecular simulations"
                      Comput. Phys. Commun. 181, 1477 (2010)
                           doi:10.1016/j.cpc.2010.04.018
 
                              AUTHORS & CONTRIBUTORS
                              ----------------------
          E. Apra, E. J. Bylaska, W. A. de Jong, N. Govind, K. Kowalski,
       T. P. Straatsma, M. Valiev, H. J. J. van Dam, D. Wang, T. L. Windus,
        J. Hammond, J. Autschbach, K. Bhaskaran-Nair, J. Brabec, K. Lopata,
     F. Aquino, S. Hirata, M. T. Hackler, J. Mullin, P. Nichols, R. Peverati,
    J. Pittner, Y. Zhao, P.-D. Fan, R. J. Harrison, M. Dupuis, D. Silverstein,
    D. M. A. Smith, J. Nieplocha, V. Tipparaju, M. Krishnan, B. E. Van Kuiken,
        A. Vazquez-Mayagoitia, L. Jensen, M. Swart, Q. Wu, T. Van Voorhis,
     A. A. Auer, M. Nooijen, L. D. Crosby, E. Brown, G. Cisneros, G. I. Fann,
     H. Fruchtl, J. Garza, K. Hirao, R. Kendall, J. A. Nichols, K. Tsemekhman,
      K. Wolinski, J. Anchell, D. Bernholdt, P. Borowski, T. Clark, D. Clerc,
      H. Dachsel, M. Deegan, K. Dyall, D. Elwood, E. Glendening, M. Gutowski,
      A. Hess, J. Jaffe, B. Johnson, J. Ju, R. Kobayashi, R. Kutteh, Z. Lin,
   R. Littlefield, X. Long, B. Meng, T. Nakajima, S. Niu, L. Pollack, M. Rosing,
   K. Glaesemann, G. Sandrone, M. Stave, H. Taylor, G. Thomas, J. H. van Lenthe,
                                A. Wong, Z. Zhang.

 Total times  cpu:    21104.3s     wall:    21170.2s
Application 20801942 resources: utime ~506855s, stime ~1000s, Rss ~15336, inblocks ~15409501, outblocks ~2989369
