You are running Q-Chem version: 5.4.2

#
# job setting
#
local host:  nid00749
current dir: /global/homes/s/svijay/projects/tests/debug_fireworks/test_spinpol_scfprint
input file:  mol.qin
output file: 
nprocs     : 0
nthreads   : 32
#
# qchem installation setting
#
QC:          /global/common/cori_cle7/software/qchem/5.4.2
QCAUX:       /global/common/cori_cle7/software/qchem/5.4.2/qcaux
QCPROG:      /global/common/cori_cle7/software/qchem/5.4.2/exe/qcprog.exe_s
QCPROG_S:    /global/common/cori_cle7/software/qchem/5.4.2/exe/qcprog.exe_s
PARALLEL:    -DSERIAL
QCMPI:       slurm
#
# qchem directory setting
#
qcrun:       qchem5012
QCSCRATCH:   /global/cscratch1/sd/svijay
QCLOCALSCR:  /tmp
QCTMPDIR:    /tmp
QCFILEPREF:  /tmp/qchem5012
QCSAVEDIR:   
workdirs:    /tmp/qchem5012
workdir0:    /tmp/qchem5012
partmpdirs =  
#
# parallel setting
#
QCRSH:           ssh
QCMPI:           slurm
QCMPIRUN:        srun
QCMACHINEFILE:   /tmp/qchem5012/hostfile

#
# env setting
#
exported envs:   QC QCAUX QCSCRATCH QCRUNNAME QCFILEPREF QCPROG QCPROG_S GUIFILE

Running Job 1 of 1 mol.qin
qchem mol.qin_5012.0 /tmp/qchem5012/ 0
/global/common/cori_cle7/software/qchem/5.4.2/exe/qcprog.exe_s mol.qin_5012.0 /tmp/qchem5012/
                  Welcome to Q-Chem
     A Quantum Leap Into The Future Of Chemistry


 Q-Chem 5.4, Q-Chem, Inc., Pleasanton, CA (2021)

 License issued to: National Energy Research Scientific Computing Center

 E. Epifanovsky,  A. T. B. Gilbert,  Xintian Feng,  Joonho Lee,  Yuezhi Mao,  
 N. Mardirossian,  P. Pokhilko,  A. White,  M. Wormit,  M. P. Coons,  
 A. L. Dempwolff,  Zhengting Gan,  D. Hait,  P. R. Horn,  L. D. Jacobson,  
 I. Kaliman,  J. Kussmann,  A. W. Lange,  Ka Un Lao,  D. S. Levine,  Jie Liu,  
 S. C. McKenzie,  A. F. Morrison,  K. Nanda,  F. Plasser,  D. R. Rehn,  
 M. L. Vidal,  Zhi-Qiang You,  Ying Zhu,  B. Alam,  B. Albrecht,  
 A. Aldossary,  E. Alguire,  J. H. Andersen,  D. Barton,  K. Begam,  A. Behn,  
 Y. A. Bernard,  E. J. Berquist,  H. Burton,  A. Carreras,  K. Carter-Fenk,  
 Romit Chakraborty,  A. D. Chien,  K. D. Closser,  V. Cofer-Shabica,  
 S. Dasgupta,  Jia Deng,  M. de Wergifosse,  M. Diedenhofen,  Hainam Do,  
 S. Ehlert,  Po-Tung Fang,  S. Fatehi,  Qingguo Feng,  T. Friedhoff,  
 J. Gayvert,  Qinghui Ge,  G. Gidofalvi,  M. Goldey,  J. Gomes,  
 C. Gonzalez-Espinoza,  S. Gulania,  A. Gunina,  M. W. D. Hanson-Heine,  
 P. H. P. Harbach,  A. W. Hauser,  M. F. Herbst,  M. Hernandez Vera,  
 M. Hodecker,  Z. C. Holden,  S. Houck,  Xunkun Huang,  Kerwin Hui,  
 B. C. Huynh,  M. Ivanov,  Hyunjun Ji,  Hanjie Jiang,  B. Kaduk,  S. Kaehler,  
 K. Khistyaev,  Jaehoon Kim,  P. Klunzinger,  Z. Koczor-Benda,  
 Joong Hoon Koh,  D. Kosenkov,  L. Koulias,  T. Kowalczyk,  C. M. Krauter,  
 K. Kue,  A. Kunitsa,  T. Kus,  A. Landau,  K. V. Lawler,  D. Lefrancois,  
 S. Lehtola,  Rain Li,  Yi-Pei Li,  Jiashu Liang,  M. Liebenthal,  
 Hung-Hsuan Lin,  You-Sheng Lin,  Fenglai Liu,  Kuan-Yu Liu,  
 M. Loipersberger,  A. Luenser,  A. Manjanath,  P. Manohar,  E. Mansoor,  
 S. F. Manzer,  Shan-Ping Mao,  A. V. Marenich,  T. Markovich,  S. Mason,  
 S. A. Maurer,  P. F. McLaughlin,  M. F. S. J. Menger,  J.-M. Mewes,  
 S. A. Mewes,  P. Morgante,  J. W. Mullinax,  K. J. Oosterbaan,  G. Paran,  
 Alexander C. Paul,  Suranjan K. Paul,  F. Pavosevic,  Zheng Pei,  S. Prager,  
 E. I. Proynov,  E. Ramos,  B. Rana,  A. E. Rask,  A. Rettig,  R. M. Richard,  
 F. Rob,  E. Rossomme,  T. Scheele,  M. Scheurer,  M. Schneider,  
 N. Sergueev,  S. M. Sharada,  W. Skomorowski,  D. W. Small,  C. J. Stein,  
 Yu-Chuan Su,  E. J. Sundstrom,  Zhen Tao,  J. Thirman,  T. Tsuchimochi,  
 N. M. Tubman,  S. P. Veccham,  O. Vydrov,  J. Wenzel,  J. Witte,  A. Yamada,  
 Kun Yao,  S. Yeganeh,  S. R. Yost,  A. Zech,  Igor Ying Zhang,  Xing Zhang,  
 Yu Zhang,  D. Zuev,  A. Aspuru-Guzik,  A. T. Bell,  N. A. Besley,  
 K. B. Bravaya,  B. R. Brooks,  D. Casanova,  Jeng-Da Chai,  S. Coriani,  
 C. J. Cramer,  A. E. DePrince, III,  R. A. DiStasio Jr.,  A. Dreuw,  
 B. D. Dunietz,  T. R. Furlani,  W. A. Goddard III,  S. Grimme,  
 S. Hammes-Schiffer,  T. Head-Gordon,  W. J. Hehre,  Chao-Ping Hsu,  
 T.-C. Jagau,  Yousung Jung,  A. Klamt,  Jing Kong,  D. S. Lambrecht,  
 WanZhen Liang,  N. J. Mayhall,  C. W. McCurdy,  J. B. Neaton,  T. Neudecker,  
 C. Ochsenfeld,  J. A. Parkhill,  R. Peverati,  V. A. Rassolov,  Yihan Shao,  
 L. V. Slipchenko,  R. P. Steele,  J. E. Subotnik,  A. J. W. Thom,  
 A. Tkatchenko,  D. G. Truhlar,  T. Van Voorhis,  T. A. Wesolowski,  
 K. B. Whaley,  H. L. Woodcock III,  P. M. Zimmerman,  S. Faraji,  
 P. M. W. Gill,  M. Head-Gordon,  J. M. Herbert,  A. I. Krylov

 Additional authors since Version 5.4.0: 
 Chandrima Chakravarty,  L. Cunha,  R. Kang,  Yongbin Kim,  S. Kotaru,  
 Shaozhi Li,  Xiangyuan Li,  F. Matz,  A. Molle,  V. Parravicini,  
 Haisheng Ren,  Hengyuan Shen,  Yingli Su,  Hung-Yi Tsai,  C. Utku,  
 Fang Wang,  Jeff Yang,  F. Zeller

 Contributors to earlier versions of Q-Chem not listed above: 
 R. D. Adamson,  B. Austin,  R. Baer,  J. Baker,  G. J. O. Beran,  
 K. Brandhorst,  S. T. Brown,  E. F. C. Byrd,  Arup K. Chakraborty,  
 G. K. L. Chan,  Chun-Min Chang,  Yunqing Chen,  C.-L. Cheng,  
 Siu Hung Chien,  D. M. Chipman,  D. L. Crittenden,  H. Dachsel,  
 R. J. Doerksen,  A. D. Dutoi,  R. G. Edgar,  J. Fosso-Tande,  
 L. Fusti-Molnar,  D. Ghosh,  A. Ghysels,  A. Golubeva-Zadorozhnaya,  
 J. Gonthier,  M. S. Gordon,  S. R. Gwaltney,  G. Hawkins,  J. E. Herr,  
 A. Heyden,  S. Hirata,  E. G. Hohenstein,  G. Kedziora,  F. J. Keil,  
 C. Kelley,  Jihan Kim,  R. A. King,  R. Z. Khaliullin,  P. P. Korambath,  
 W. Kurlancheek,  A. Laurent,  A. M. Lee,  M. S. Lee,  S. V. Levchenko,  
 Ching Yeh Lin,  D. Liotard,  E. Livshits,  R. C. Lochan,  I. Lotan,  
 L. A. Martinez-Martinez,  P. E. Maslen,  N. Nair,  D. P. O'Neill,  
 D. Neuhauser,  E. Neuscamman,  C. M. Oana,  R. Olivares-Amaya,  R. Olson,  
 T. M. Perrine,  B. Peters,  P. A. Pieniazek,  A. Prociuk,  Y. M. Rhee,  
 J. Ritchie,  M. A. Rohrdanz,  E. Rosta,  N. J. Russ,  H. F. Schaefer III,  
 M. W. Schmidt,  N. E. Schultz,  S. Sharma,  N. Shenvi,  C. D. Sherrill,  
 A. C. Simmonett,  A. Sodt,  T. Stein,  D. Stuck,  K. S. Thanthiriwatte,  
 V. Vanovschi,  L. Vogt,  Tao Wang,  A. Warshel,  M. A. Watson,  
 C. F. Williams,  Q. Wu,  X. Xu,  Jun Yang,  W. Zhang,  Yan Zhao

   Please cite Q-Chem as follows:
  "Software for the frontiers of quantum chemistry:
   An overview of developments in the Q-Chem 5 package"
   J. Chem. Phys. 155, 084801 (2021)
   https://doi.org/10.1063/5.0055522 (open access)

 Q-Chem 5.4.2 for Intel X86 EM64T Linux

 Parts of Q-Chem use Armadillo 9.900.5 (Nocturnal Misbehaviour).
 http://arma.sourceforge.net/

 Q-Chem begins on Mon Jun 27 10:09:58 2022  

 Host: cori12
0

     Scratch files written to /tmp/qchem5012//
 Dec1321 |scratch|qcdevops|jenkins|workspace|build_RNUM 7470   
 Processing $rem in /global/common/cori_cle7/software/qchem/5.4.2/config/preferences:
 Processing $rem in /global/homes/s/svijay/.qchemrc:

 Checking the input file for inconsistencies... 	...done.

--------------------------------------------------------------
User input:
--------------------------------------------------------------
$molecule
0 1
C     -3.0257400000      0.8322300000      0.4369300000
O      0.3988900000      0.2083500000      1.3029100000
C      1.1082700000      0.4118000000      0.3267100000
O      0.6799100000      1.0260800000     -0.7689800000
O     -3.8564800000      1.2259300000     -0.3364900000
O     -1.7700900000      1.3385200000      0.4118000000
H     -0.2657300000      1.2791400000     -0.6624100000
C      2.5398700000      0.0048100000      0.2393000000
C     -3.2513200000     -0.2123200000      1.4925200000
H     -1.1401600000      0.8666400000      1.0219600000
H      2.8292400000     -0.5436600000      1.1384700000
H      3.1640500000      0.9013100000      0.1246200000
H      2.6957600000     -0.6092500000     -0.6570700000
H     -2.5382200000     -1.0404800000      1.3692100000
H     -4.2753400000     -0.5879600000      1.4251000000
H     -3.0789000000      0.2183200000      2.4893800000
$end

$rem
job_type = sp
basis = def2-msvp
max_scf_cycles = 100
gen_scfman = true
xc_grid = 3
thresh = 14
s2thresh = 16
scf_algorithm = diis
resp_charges = true
symmetry = false
sym_ignore = true
method = b3lyp
geom_opt_max_cycles = 200
scf_final_print = 3
unrestricted = true
$end
--------------------------------------------------------------
 ----------------------------------------------------------------
             Standard Nuclear Orientation (Angstroms)
    I     Atom           X                Y                Z
 ----------------------------------------------------------------
    1      C      -3.0257400000     0.8322300000     0.4369300000
    2      O       0.3988900000     0.2083500000     1.3029100000
    3      C       1.1082700000     0.4118000000     0.3267100000
    4      O       0.6799100000     1.0260800000    -0.7689800000
    5      O      -3.8564800000     1.2259300000    -0.3364900000
    6      O      -1.7700900000     1.3385200000     0.4118000000
    7      H      -0.2657300000     1.2791400000    -0.6624100000
    8      C       2.5398700000     0.0048100000     0.2393000000
    9      C      -3.2513200000    -0.2123200000     1.4925200000
   10      H      -1.1401600000     0.8666400000     1.0219600000
   11      H       2.8292400000    -0.5436600000     1.1384700000
   12      H       3.1640500000     0.9013100000     0.1246200000
   13      H       2.6957600000    -0.6092500000    -0.6570700000
   14      H      -2.5382200000    -1.0404800000     1.3692100000
   15      H      -4.2753400000    -0.5879600000     1.4251000000
   16      H      -3.0789000000     0.2183200000     2.4893800000
 ----------------------------------------------------------------
 Nuclear Repulsion Energy =         376.81262650 hartrees
 There are       32 alpha and       32 beta electrons
 Requested basis set is def2-mSVP
 There are 72 shells and 136 basis functions

 Total QAlloc Memory Limit  96000 MB
 Mega-Array Size       188 MB
 MEM_STATIC part       192 MB
 A cutoff of  1.0D-16 yielded   2283 shell pairs
 There are      8521 function pairs (      9564 Cartesian)
 Smallest overlap matrix eigenvalue = 6.66E-03

 Scale SEOQF with 1.000000e-01/1.000000e+00/1.000000e-01

 Standard Electronic Orientation quadrupole field applied
 Nucleus-field energy     =     0.0000000409 hartrees
 Guess from superposition of atomic densities
 Warning:  Energy on first SCF cycle will be non-variational
 SAD guess density has 64.000000 electrons

 -----------------------------------------------------------------------
  General SCF calculation program by
  Eric Jon Sundstrom, Paul Horn, Yuezhi Mao, Dmitri Zuev, Alec White,
  David Stuck, Shaama M.S., Shane Yost, Joonho Lee, David Small,
  Daniel Levine, Susi Lehtola, Hugh Burton, Evgeny Epifanovsky,
  Bang C. Huynh
 -----------------------------------------------------------------------
 Exchange:     0.2000 Hartree-Fock + 0.0800 Slater + 0.7200 B88
 Correlation:  0.1900 VWN1RPA + 0.8100 LYP
 Using SG-3 standard quadrature grid
 using 32 threads for integral computing
 -------------------------------------------------------
 OpenMP Integral computing Module                
 Release: version 1.0, May 2013, Q-Chem Inc. Pittsburgh 
 -------------------------------------------------------
 A unrestricted SCF calculation will be
 performed using DIIS
 SCF converges when DIIS error is below 1.0e-05
 ---------------------------------------
  Cycle       Energy         DIIS error
 ---------------------------------------
    1    -459.3936386678      3.39e-02  
    2    -457.9093341135      5.67e-03  
    3    -457.5946559021      8.92e-03  
    4    -458.1162380638      1.98e-03  
    5    -458.1443884914      3.56e-04  
    6    -458.1449772943      1.82e-04  
    7    -458.1452333269      2.39e-05  
    8    -458.1452370318      8.74e-06  Convergence criterion met
 ---------------------------------------
 Alpha HF Exchange    Energy =  -5.65135298923171
 Beta HF Exchange     Energy =  -5.65135298923171
 DFT Correlation      Energy =  -2.84427661520507
 DFT Exchange         Energy = -44.96709618479031
 Nuclear Attraction   Energy =   0.00000000000000
 One-Electron (alpha) Energy = -686.48195148801858
 One-Electron (beta)  Energy = -686.48195148801847
 Total Coulomb        Energy = 597.12011818608948
 Final Alpha MO Eigenvalues
            1           2           3           4           5           6
    1 -19.1956474 -19.1735853 -19.1558438 -19.1176386 -10.3410491 -10.3106163
            7           8           9          10          11          12
    1 -10.2056055 -10.1935004  -1.1281087  -1.0907136  -1.0349678  -1.0100024
           13          14          15          16          17          18
    1  -0.7768863  -0.7507849  -0.6360481  -0.6107875  -0.5260400  -0.5041009
           19          20          21          22          23          24
    1  -0.4933600  -0.4887299  -0.4666489  -0.4578019  -0.4288272  -0.4160819
           25          26          27          28          29          30
    1  -0.4073694  -0.4018646  -0.3886920  -0.3707676  -0.3385086  -0.3142048
           31          32          33          34          35          36
    1  -0.3024766  -0.2654489  -0.0104190   0.0166291   0.1030271   0.1188251
           37          38          39          40          41          42
    1   0.1275989   0.1481528   0.1665663   0.1689868   0.1786383   0.1897281
           43          44          45          46          47          48
    1   0.2032970   0.2234303   0.2672273   0.3140151   0.3493746   0.3669419
           49          50          51          52          53          54
    1   0.4407946   0.4588763   0.4739399   0.4945371   0.5040017   0.5128122
           55          56          57          58          59          60
    1   0.5174459   0.5272047   0.5392352   0.5474282   0.6089717   0.6611890
           61          62          63          64          65          66
    1   0.7195866   0.7259455   0.7936587   0.8597131   0.8678894   0.8838394
           67          68          69          70          71          72
    1   0.8948818   0.9238639   0.9362342   0.9483574   0.9527558   0.9596172
           73          74          75          76          77          78
    1   0.9841519   1.0218447   1.0602321   1.0848514   1.0926637   1.1043311
           79          80          81          82          83          84
    1   1.1418667   1.1658123   1.2120794   1.2717202   1.3513032   1.3634011
           85          86          87          88          89          90
    1   1.3769607   1.3882397   1.4410167   1.4829536   1.6249889   1.6696972
           91          92          93          94          95          96
    1   1.6924993   1.7022745   1.7085154   1.7526599   1.7709424   1.7859411
           97          98          99         100         101         102
    1   1.8011375   1.8145409   1.8535732   1.8619099   1.9019494   1.9465814
          103         104         105         106         107         108
    1   1.9492469   1.9649382   1.9790079   2.0254745   2.0423939   2.0559269
          109         110         111         112         113         114
    1   2.1609072   2.1655506   2.1792537   2.1972911   2.2973954   2.3362047
          115         116         117         118         119         120
    1   2.4308490   2.4487551   2.4712541   2.5572464   2.6184733   2.6486599
          121         122         123         124         125         126
    1   2.6828274   2.7001630   2.7971101   2.8413513   2.9067474   2.9357801
          127         128         129         130         131         132
    1   3.0590844   3.1019995  13.3449562  13.3728796  13.7688210  13.7905801
          133         134         135         136
    1  25.1506617  25.2296038  25.3035659  25.3427558
 Final Beta MO Eigenvalues
            1           2           3           4           5           6
    1 -19.1956474 -19.1735853 -19.1558438 -19.1176386 -10.3410491 -10.3106163
            7           8           9          10          11          12
    1 -10.2056055 -10.1935004  -1.1281087  -1.0907136  -1.0349678  -1.0100024
           13          14          15          16          17          18
    1  -0.7768863  -0.7507849  -0.6360481  -0.6107875  -0.5260400  -0.5041009
           19          20          21          22          23          24
    1  -0.4933600  -0.4887299  -0.4666489  -0.4578019  -0.4288272  -0.4160819
           25          26          27          28          29          30
    1  -0.4073694  -0.4018646  -0.3886920  -0.3707676  -0.3385086  -0.3142048
           31          32          33          34          35          36
    1  -0.3024766  -0.2654489  -0.0104190   0.0166291   0.1030271   0.1188251
           37          38          39          40          41          42
    1   0.1275989   0.1481528   0.1665663   0.1689868   0.1786383   0.1897281
           43          44          45          46          47          48
    1   0.2032970   0.2234303   0.2672273   0.3140151   0.3493746   0.3669419
           49          50          51          52          53          54
    1   0.4407946   0.4588763   0.4739399   0.4945371   0.5040017   0.5128122
           55          56          57          58          59          60
    1   0.5174459   0.5272047   0.5392352   0.5474282   0.6089717   0.6611890
           61          62          63          64          65          66
    1   0.7195866   0.7259455   0.7936587   0.8597131   0.8678894   0.8838394
           67          68          69          70          71          72
    1   0.8948818   0.9238639   0.9362342   0.9483574   0.9527558   0.9596172
           73          74          75          76          77          78
    1   0.9841519   1.0218447   1.0602321   1.0848514   1.0926637   1.1043311
           79          80          81          82          83          84
    1   1.1418667   1.1658123   1.2120794   1.2717202   1.3513032   1.3634011
           85          86          87          88          89          90
    1   1.3769607   1.3882397   1.4410167   1.4829536   1.6249889   1.6696972
           91          92          93          94          95          96
    1   1.6924993   1.7022745   1.7085154   1.7526599   1.7709424   1.7859411
           97          98          99         100         101         102
    1   1.8011375   1.8145409   1.8535732   1.8619099   1.9019494   1.9465814
          103         104         105         106         107         108
    1   1.9492469   1.9649382   1.9790079   2.0254745   2.0423939   2.0559269
          109         110         111         112         113         114
    1   2.1609072   2.1655506   2.1792537   2.1972911   2.2973954   2.3362047
          115         116         117         118         119         120
    1   2.4308490   2.4487551   2.4712541   2.5572464   2.6184733   2.6486599
          121         122         123         124         125         126
    1   2.6828274   2.7001630   2.7971101   2.8413513   2.9067474   2.9357801
          127         128         129         130         131         132
    1   3.0590844   3.1019995  13.3449562  13.3728796  13.7688210  13.7905801
          133         134         135         136
    1  25.1506617  25.2296038  25.3035659  25.3427558
 Final Alpha MO Coefficients
            1           2           3           4           5           6
    1   0.0000061   0.0000181  -0.0000016   0.0000693   0.0000464  -0.6450898
    2  -0.0000276  -0.0001731   0.0000056  -0.0002109   0.0000145  -0.4148981
    3   0.0000813   0.0005528   0.0000116  -0.0011917   0.0000249  -0.0537189
    4   0.0008813   0.0089911   0.0000635  -0.0089911   0.0002194   0.0179577
    5   0.0001016   0.0013382   0.0000300   0.0005083   0.0000733  -0.0003073
    6   0.0001217   0.0006907   0.0000591  -0.0003167   0.0000281  -0.0017406
    7   0.0000176  -0.0002095   0.0000114   0.0005609  -0.0000244   0.0016995
    8   0.0012375   0.0080034   0.0006910   0.0079045   0.0004553  -0.0015481
    9   0.0005709   0.0029001   0.0004240  -0.0041714   0.0004418  -0.0082490
   10  -0.0001306   0.0002547  -0.0003855   0.0077639  -0.0001066   0.0081904
   11   0.0000972   0.0000301   0.0000731  -0.0006694   0.0000391  -0.0002576
   12  -0.0000299  -0.0005687  -0.0000008  -0.0000591  -0.0000193   0.0013062
   13  -0.0000473   0.0000542  -0.0000248   0.0001824  -0.0000315   0.0004311
   14   0.0000425   0.0002962  -0.0000367   0.0009135  -0.0000051  -0.0016023
   15   0.0000457   0.0001208   0.0000006   0.0003246   0.0000291  -0.0015164
   16   0.0003747   0.0005794  -0.6357160   0.0000541  -0.0001205   0.0000001
   17   0.0002010   0.0003210  -0.4237105   0.0000479  -0.0001304   0.0000028
   18   0.0000805   0.0002299  -0.0513629  -0.0000247   0.0018034   0.0000353
   19   0.0003354   0.0003478   0.0293854  -0.0001190  -0.0078698  -0.0005712
   20   0.0003091  -0.0002734  -0.0010216   0.0000617  -0.0009873   0.0001162
   21  -0.0000812   0.0001199  -0.0004584  -0.0000450  -0.0001549  -0.0000878
   22  -0.0000391   0.0000237   0.0017657  -0.0000073   0.0010606   0.0000284
   23  -0.0019273   0.0019189   0.0033260  -0.0004138  -0.0017352  -0.0005476
   24   0.0013330  -0.0005039   0.0014223   0.0001553  -0.0017113   0.0002147
   25  -0.0016585  -0.0005471  -0.0055855   0.0001232   0.0052079   0.0001044
   26   0.0001773   0.0002277   0.0001159  -0.0000568  -0.0004448  -0.0000919
   27  -0.0002284   0.0000217  -0.0001650  -0.0000194   0.0008457  -0.0000418
   28   0.0004521   0.0002093   0.0003237  -0.0000368  -0.0014970  -0.0000477
   29   0.0001065  -0.0002387  -0.0004646   0.0000430   0.0021718   0.0000489
   30  -0.0003758  -0.0001110   0.0001109   0.0000093  -0.0006863   0.0000402
   31  -0.0000046  -0.0000094   0.0000501   0.0000010   0.6451099   0.0000440
   32   0.0001233   0.0000451  -0.0001145  -0.0000052   0.4148236   0.0000292
   33  -0.0008027  -0.0001379  -0.0013112   0.0000265   0.0539605   0.0000952
   34  -0.0073203  -0.0013492  -0.0082596   0.0001469  -0.0181134  -0.0009292
   35   0.0006827   0.0000962   0.0006576  -0.0000043  -0.0023382   0.0001273
   36  -0.0006979   0.0000762   0.0001289  -0.0000485   0.0006218  -0.0001419
   37   0.0011079  -0.0001883  -0.0007750   0.0000443   0.0002775   0.0000953
   38   0.0054750   0.0008049   0.0082043  -0.0002998  -0.0123585  -0.0013961
   39  -0.0049037   0.0002492   0.0014252   0.0000027   0.0033160   0.0001410
   40   0.0073415  -0.0011035  -0.0091643   0.0003435   0.0012331   0.0009801
   41   0.0002677  -0.0000194   0.0004458   0.0000145  -0.0003294   0.0000597
   42   0.0000432   0.0001401  -0.0000235  -0.0000317  -0.0017408  -0.0000230
   43   0.0002140  -0.0001608   0.0004790   0.0000292   0.0017578   0.0000615
   44   0.0002062   0.0000876  -0.0008414  -0.0000173  -0.0010790  -0.0000328
   45  -0.0005123  -0.0000232  -0.0000536  -0.0000024   0.0008465  -0.0000416
   46  -0.6356688  -0.0003688  -0.0003606   0.0000221  -0.0000474   0.0000017
   47  -0.4237881  -0.0003006  -0.0002975   0.0000276  -0.0001444  -0.0000195
   48  -0.0512479   0.0001780   0.0000712  -0.0000550   0.0019171   0.0001284
   49   0.0286017  -0.0003958  -0.0002767   0.0001487  -0.0049502  -0.0004477
   50   0.0006797  -0.0000182   0.0002984  -0.0000121  -0.0003987  -0.0000518
   51   0.0004851   0.0000238  -0.0001118   0.0000057   0.0003476   0.0000306
   52  -0.0015862  -0.0000127   0.0000373  -0.0000035  -0.0005155  -0.0000641
   53  -0.0009204   0.0001706  -0.0025537   0.0000233   0.0001128   0.0008168
   54  -0.0022225  -0.0001543   0.0002361  -0.0000148   0.0020178  -0.0003344
   55   0.0057060   0.0001487   0.0013130  -0.0000036  -0.0046570   0.0002032
   56  -0.0003814   0.0000139   0.0002480  -0.0000133   0.0008154   0.0000096
   57  -0.0005712  -0.0000685  -0.0001553   0.0000033   0.0021065  -0.0000316
   58   0.0002921   0.0000762   0.0004364  -0.0000145  -0.0016731   0.0000605
   59   0.0001984   0.0000890  -0.0003234  -0.0000104  -0.0011943   0.0000289
   60   0.0002803  -0.0000828  -0.0001591   0.0000185   0.0001259  -0.0000620
   61  -0.0000254  -0.0003796  -0.0000582  -0.6357133   0.0000000   0.0001454
   62  -0.0000056  -0.0001635  -0.0000251  -0.4237211  -0.0000005   0.0001197
   63  -0.0000434  -0.0002186  -0.0000697  -0.0512915   0.0000042  -0.0015271
   64   0.0001093   0.0000161   0.0001479   0.0291227  -0.0000166   0.0074077
   65   0.0000383   0.0000046   0.0000239  -0.0015898   0.0000086   0.0009049
   66   0.0000297   0.0001969   0.0000087   0.0007324   0.0000170  -0.0006965
   67  -0.0000281  -0.0001982  -0.0000196  -0.0014575  -0.0000006   0.0011264
   68  -0.0002824  -0.0020229  -0.0000987   0.0047167  -0.0000985   0.0047854
   69  -0.0001708  -0.0011002  -0.0001132  -0.0020629  -0.0001195  -0.0001757
   70   0.0001107   0.0003050   0.0001770   0.0042191   0.0000158   0.0022203
   71   0.0000123   0.0000699   0.0000039  -0.0002274  -0.0000085  -0.0008428
   72  -0.0000138  -0.0002531  -0.0000261  -0.0001379  -0.0000130  -0.0009152
   73   0.0000181   0.0001574   0.0000161   0.0000547   0.0000019   0.0001525
   74  -0.0000195  -0.0002928   0.0000228   0.0004275  -0.0000071   0.0019996
   75  -0.0000343  -0.0003857  -0.0000027   0.0001937  -0.0000102   0.0010466
   76  -0.0003859   0.6356704   0.0005575  -0.0003544  -0.0000001   0.0000345
   77  -0.0002003   0.4237822   0.0004502  -0.0003286   0.0000052   0.0001608
   78  -0.0002272   0.0512853  -0.0003097   0.0002390   0.0000049  -0.0019134
   79  -0.0000354  -0.0287291   0.0006207  -0.0004043  -0.0000132   0.0049620
   80  -0.0002268  -0.0006793  -0.0001134  -0.0001877  -0.0000935  -0.0003436
   81  -0.0000211  -0.0011695  -0.0000066  -0.0001924   0.0000325  -0.0003902
   82   0.0001268   0.0007944  -0.0000268   0.0001231  -0.0000182   0.0000840
   83   0.0017285   0.0036956   0.0011880  -0.0005347   0.0004785  -0.0050683
   84   0.0000690   0.0035991  -0.0002225   0.0012512  -0.0000840  -0.0003782
   85  -0.0003646  -0.0020565   0.0003904  -0.0015582   0.0001940  -0.0009939
   86  -0.0001493  -0.0003184  -0.0001842  -0.0001086  -0.0000155   0.0018387
   87  -0.0000267   0.0002717  -0.0000944   0.0003719  -0.0000408  -0.0000362
   88   0.0000402   0.0004183  -0.0000182  -0.0001184   0.0000859  -0.0014964
   89  -0.0000746  -0.0003047   0.0001241   0.0002712   0.0000019   0.0000435
   90   0.0000665  -0.0006334   0.0000633   0.0003569  -0.0000677   0.0019185
   91  -0.0014657   0.0000280  -0.0003192  -0.0000638   0.0004837   0.0002065
   92  -0.0023516   0.0001558  -0.0005222  -0.0000350  -0.0010757   0.0014059
   93   0.0000503   0.0000038   0.0000260  -0.0000012   0.0000714  -0.0000188
   94  -0.0002143  -0.0000165  -0.0001106   0.0000055   0.0007681   0.0000094
   95   0.0008227   0.0000916   0.0003548  -0.0000386  -0.0021149  -0.0001834
   96  -0.0029939  -0.0002448  -0.0028386   0.0002035   0.0113649   0.0013749
   97  -0.0002576  -0.0000290  -0.0001496  -0.0000009   0.0009840  -0.0000645
   98   0.0001618   0.0000071  -0.0000005   0.0000084  -0.0002490   0.0000428
   99  -0.0001484  -0.0000007   0.0001290   0.0000008  -0.0001024  -0.0000074
  100   0.0010308   0.0001695   0.0009617  -0.0001196  -0.0070833  -0.0006530
  101   0.0005351  -0.0002275  -0.0017038   0.0000205   0.0018357   0.0001189
  102  -0.0022306   0.0004005   0.0031368  -0.0001182   0.0006653  -0.0001708
  103  -0.0002161   0.0000215   0.0001240  -0.0000067   0.0006942  -0.0000247
  104   0.0000630   0.0000087   0.0000842   0.0000000  -0.0000251   0.0000067
  105  -0.0002616   0.0000052  -0.0000159  -0.0000019   0.0007370  -0.0000231
  106   0.0004097  -0.0000336  -0.0005925   0.0000124   0.0000938   0.0000243
  107   0.0000423  -0.0000059   0.0002533   0.0000070  -0.0010822   0.0000322
  108  -0.0000033  -0.0000324  -0.0000025   0.0000197  -0.0000206  -0.0000893
  109   0.0000144   0.0001356   0.0000103  -0.0000830   0.0000175  -0.0007193
  110  -0.0000737  -0.0003218  -0.0000573   0.0001921  -0.0001765   0.0017869
  111   0.0002486   0.0002078   0.0000935  -0.0020241   0.0007151  -0.0100520
  112  -0.0000152  -0.0001114  -0.0001082  -0.0001231   0.0000304   0.0000818
  113  -0.0000245  -0.0002559  -0.0000489   0.0000935   0.0000219   0.0006815
  114   0.0000129   0.0002197  -0.0000126  -0.0001499   0.0000060  -0.0007298
  115  -0.0002715  -0.0028683   0.0003361  -0.0032281  -0.0000780  -0.0003946
  116   0.0001481  -0.0006345   0.0005531  -0.0007429  -0.0000892  -0.0045321
  117  -0.0002043  -0.0004458  -0.0001142  -0.0004897  -0.0002354   0.0049805
  118  -0.0000178  -0.0002514  -0.0000317  -0.0003672   0.0000093   0.0003330
  119  -0.0000148   0.0000398  -0.0000101  -0.0002865  -0.0000093  -0.0012763
  120   0.0000078   0.0000394   0.0000219   0.0002664  -0.0000057   0.0003306
  121   0.0000470   0.0004254   0.0000113   0.0004028   0.0000117  -0.0003305
  122   0.0000124   0.0001996  -0.0000312  -0.0000951   0.0000287  -0.0005979
  123  -0.0002671   0.0010443  -0.0004458   0.0005764   0.0000348   0.0006552
  124  -0.0005035   0.0048154  -0.0008579  -0.0013471  -0.0012915  -0.0010863
  125   0.0003578   0.0000300   0.0000031  -0.0000115  -0.0007589  -0.0000481
  126   0.0001702  -0.0002872  -0.0014858   0.0000621   0.0013266   0.0000469
  127  -0.0000103   0.0000090   0.0000687  -0.0000056  -0.0008577  -0.0000470
  128   0.0000270   0.0000457   0.0003526   0.0000239   0.0019087   0.0001039
  129   0.0000047   0.0000168   0.0001105  -0.0000127  -0.0008428  -0.0000610
  130  -0.0002083   0.0000539   0.0003894  -0.0000328   0.0018338  -0.0000262
  131  -0.0000076   0.0002177  -0.0001711   0.0000396   0.0000782   0.0007886
  132   0.0001210  -0.0000284   0.0004753   0.0004897  -0.0003458  -0.0018763
  133  -0.0000436  -0.0002627  -0.0000105  -0.0000354  -0.0000419   0.0007183
  134   0.0000199  -0.0007401   0.0004826  -0.0012762  -0.0001325  -0.0010643
  135  -0.0000136   0.0002355  -0.0000651   0.0000068  -0.0000293   0.0007804
  136   0.0000648  -0.0001381  -0.0000305   0.0004292   0.0000982  -0.0019331
            7           8           9          10          11          12
    1  -0.0000135   0.0003562   0.0121002  -0.0844527   0.0061921  -0.0389595
    2  -0.0000256  -0.0004514   0.0141601  -0.0984884   0.0071725  -0.0453210
    3   0.0000523   0.0019773  -0.0328686   0.2279158  -0.0168294   0.1084456
    4   0.0001740  -0.0124153  -0.0147885   0.0994984  -0.0101034   0.0581850
    5   0.0000428   0.0000629  -0.0111337   0.0246800   0.0137705  -0.2054647
    6   0.0000100  -0.0003430  -0.0085357   0.0600387  -0.0050038   0.0311574
    7   0.0000065   0.0004126   0.0048545  -0.0562199   0.0110203  -0.1180695
    8  -0.0002139   0.0029822  -0.0028359   0.0004152  -0.0030467  -0.0204426
    9  -0.0000806   0.0055352  -0.0013819  -0.0045040  -0.0012487  -0.0095264
   10   0.0000738  -0.0049293   0.0009172   0.0047132   0.0004790   0.0007610
   11   0.0000104   0.0002937  -0.0010834   0.0024206   0.0013266  -0.0197264
   12  -0.0000009  -0.0012130   0.0004986  -0.0056410   0.0011070  -0.0108446
   13   0.0000007   0.0004247   0.0014659  -0.0061121  -0.0006786   0.0116963
   14   0.0000050  -0.0005254  -0.0014495   0.0124603  -0.0019011   0.0211910
   15   0.0000017  -0.0008512  -0.0028306   0.0158930  -0.0003456  -0.0021230
   16  -0.0000035   0.0000001   0.0755994   0.0101292  -0.1194390  -0.0135061
   17   0.0000675   0.0000033   0.0907045   0.0121996  -0.1435766  -0.0162762
   18  -0.0002799   0.0000547  -0.2031602  -0.0276977   0.3267033   0.0375378
   19  -0.0002431  -0.0007472  -0.2394225  -0.0349078   0.3755148   0.0428157
   20  -0.0001439   0.0001712  -0.0441917  -0.0124898   0.0718867   0.0168406
   21  -0.0000187  -0.0000398  -0.0231068  -0.0019952   0.0194328   0.0004462
   22   0.0001394  -0.0000101   0.0846845   0.0134318  -0.0962852  -0.0133829
   23  -0.0007891  -0.0011352  -0.0073916  -0.0102760   0.0093491   0.0076269
   24   0.0004525   0.0001306  -0.0114641   0.0003992   0.0062225  -0.0005009
   25  -0.0004416   0.0004910   0.0316557   0.0072304  -0.0214346  -0.0048252
   26  -0.0000630  -0.0001047  -0.0015756  -0.0014545   0.0006135   0.0011031
   27  -0.0002730   0.0000092   0.0035534   0.0004028  -0.0005589  -0.0000379
   28   0.0002518  -0.0001265  -0.0059174  -0.0019746   0.0013706   0.0011681
   29   0.0001210   0.0001178   0.0063010   0.0020273  -0.0056362  -0.0016746
   30  -0.0000307   0.0000700  -0.0012904   0.0006909   0.0028407  -0.0003409
   31  -0.0003638  -0.0000094   0.0841898   0.0166398  -0.0308537  -0.0097276
   32   0.0005319  -0.0000538   0.0982082   0.0194651  -0.0357453  -0.0114107
   33  -0.0022753   0.0002059  -0.2263155  -0.0451615   0.0851257   0.0273847
   34   0.0124526   0.0004143  -0.0992056  -0.0251979   0.0434489   0.0158887
   35  -0.0006885  -0.0000066   0.0882840   0.0148751  -0.0641444  -0.0095744
   36   0.0001653  -0.0000440  -0.0321369  -0.0089801  -0.0750549  -0.0042252
   37   0.0001301   0.0001362   0.0097635   0.0094374   0.2178403   0.0165064
   38   0.0079426  -0.0015966  -0.0102224  -0.0148912   0.0046689   0.0091738
   39  -0.0028319   0.0000672   0.0033899   0.0009919  -0.0103283  -0.0019129
   40   0.0007486   0.0008918  -0.0000226   0.0094500   0.0201985  -0.0021496
   41   0.0006318   0.0000115   0.0030232   0.0009784   0.0100093   0.0007241
   42  -0.0001616  -0.0000802   0.0145941   0.0031162   0.0060144  -0.0006988
   43   0.0008364   0.0001189  -0.0144173  -0.0027719   0.0034105   0.0015903
   44   0.0001558  -0.0000622   0.0032273  -0.0007519  -0.0319471  -0.0025729
   45  -0.0010528   0.0000034  -0.0033621  -0.0001372   0.0091970   0.0006172
   46  -0.0000090  -0.0000005   0.1110132   0.0244974   0.0957436   0.0005041
   47   0.0001414   0.0000081   0.1335118   0.0294204   0.1154864   0.0006431
   48  -0.0006316  -0.0000272  -0.2977111  -0.0652982  -0.2629558  -0.0020340
   49   0.0006357   0.0000873  -0.3819466  -0.0906314  -0.3290453   0.0029726
   50  -0.0003374  -0.0000126   0.0281775   0.0018706   0.0281766   0.0060075
   51   0.0001783  -0.0000107   0.0330848   0.0084655   0.0114188  -0.0033447
   52  -0.0001836   0.0000181  -0.0960161  -0.0208517  -0.0464678   0.0032815
   53   0.0008373   0.0001302   0.0207664   0.0099189   0.0218814  -0.0008017
   54  -0.0004335   0.0000869   0.0124786  -0.0002278  -0.0034481  -0.0002174
   55   0.0004606  -0.0002300  -0.0433264  -0.0064870  -0.0076585   0.0008403
   56  -0.0000711  -0.0000097   0.0057500   0.0014517   0.0050578  -0.0000883
   57  -0.0000477   0.0000371   0.0076082   0.0013891  -0.0004758  -0.0005950
   58  -0.0000229  -0.0000456  -0.0033223  -0.0002004   0.0056354   0.0005674
   59  -0.0001539   0.0000072   0.0005056  -0.0003000   0.0011739   0.0007010
   60   0.0002222   0.0000139  -0.0068875  -0.0015591  -0.0081330  -0.0004560
   61   0.0000003   0.0000019   0.0077258  -0.0736568   0.0113802  -0.1187156
   62  -0.0000040  -0.0000468   0.0092921  -0.0885120   0.0136841  -0.1428827
   63   0.0000242   0.0001255  -0.0209721   0.1998928  -0.0311282   0.3265150
   64  -0.0000975   0.0008802  -0.0230172   0.2239818  -0.0347530   0.3588399
   65  -0.0000147   0.0001385  -0.0088594   0.0747109  -0.0094428   0.0861484
   66  -0.0000081  -0.0000359   0.0027106  -0.0276790   0.0045020  -0.0492494
   67   0.0000045   0.0000934  -0.0065100   0.0609199  -0.0087643   0.0892576
   68   0.0000570  -0.0005761  -0.0025707   0.0246840  -0.0010816   0.0149577
   69   0.0000522  -0.0010742   0.0009178  -0.0059222   0.0014649  -0.0091046
   70  -0.0000500   0.0009575  -0.0023413   0.0165107  -0.0022059   0.0160718
   71   0.0000055  -0.0002475   0.0003951  -0.0037383   0.0004758  -0.0044212
   72   0.0000061  -0.0000386   0.0000779  -0.0010532   0.0002926  -0.0025310
   73  -0.0000097   0.0002280   0.0000451   0.0001417  -0.0002492   0.0023582
   74   0.0000052   0.0000084  -0.0009714   0.0075131  -0.0006218   0.0053378
   75   0.0000140  -0.0002991  -0.0006329   0.0043965  -0.0000692   0.0003266
   76   0.0000009   0.0000047   0.0252284  -0.1144724  -0.0025748   0.0916487
   77  -0.0000118  -0.0000864   0.0301958  -0.1374911  -0.0031977   0.1102629
   78   0.0000660   0.0003231  -0.0663770   0.3050136   0.0081941  -0.2488337
   79  -0.0002883   0.0002098  -0.0865959   0.4072237   0.0044515  -0.3269754
   80  -0.0000374  -0.0003733   0.0018357  -0.0569846   0.0044330  -0.0054584
   81   0.0000359  -0.0000877   0.0147944  -0.0645077  -0.0035695   0.0530134
   82  -0.0000141  -0.0000676  -0.0072539   0.0323390   0.0068428  -0.0452630
   83   0.0000685   0.0013355  -0.0059991  -0.0190332  -0.0009683  -0.0203966
   84  -0.0001141  -0.0004075   0.0068616  -0.0328218  -0.0015123   0.0254226
   85   0.0000668   0.0009094  -0.0010835   0.0217220   0.0036209  -0.0269773
   86  -0.0000714   0.0000361   0.0006059   0.0024818  -0.0006376   0.0040907
   87  -0.0000118   0.0002622   0.0013517  -0.0069402  -0.0004086   0.0074456
   88  -0.0000585  -0.0000714   0.0014298  -0.0050728   0.0000079  -0.0011792
   89   0.0000584  -0.0000947  -0.0002830   0.0055107   0.0011268  -0.0036706
   90   0.0000210   0.0000388  -0.0025294   0.0079774  -0.0008966   0.0006765
   91  -0.0000151   0.0000936  -0.0811435  -0.0088735  -0.0735223  -0.0100668
   92   0.0016811  -0.0003690  -0.0003960   0.0181702   0.0026009  -0.0111521
   93   0.6447487   0.0001797   0.0117410   0.0028115  -0.0032664  -0.0020616
   94   0.4153853   0.0001437   0.0146471   0.0035674  -0.0041930  -0.0025827
   95   0.0547844  -0.0001748  -0.0313638  -0.0086775   0.0100435   0.0063127
   96  -0.0454486   0.0011448  -0.0204588   0.0053668   0.0012865  -0.0024177
   97  -0.0004278  -0.0000286   0.0263055   0.0054358  -0.0079454  -0.0035873
   98   0.0002093   0.0000053  -0.0082613  -0.0017768  -0.0028704   0.0006497
   99  -0.0001199  -0.0000029   0.0001323   0.0003022   0.0122858   0.0010741
  100   0.0035818  -0.0005135   0.0009197  -0.0046622   0.0036900   0.0029165
  101  -0.0012391   0.0003085  -0.0031697   0.0009157  -0.0050571  -0.0011762
  102   0.0000093  -0.0002366   0.0052527  -0.0002712   0.0088159   0.0007598
  103  -0.0000881  -0.0000236   0.0033409   0.0005897   0.0002354  -0.0002356
  104  -0.0000211  -0.0000041  -0.0000125   0.0000256   0.0005221   0.0000376
  105  -0.0000570  -0.0000174   0.0033882   0.0005839  -0.0005151  -0.0002984
  106   0.0000695   0.0000243   0.0001844   0.0000706  -0.0031663  -0.0003049
  107   0.0000644   0.0000127  -0.0049811  -0.0008834   0.0019798   0.0005666
  108   0.0001874  -0.6447547   0.0019170  -0.0132789   0.0006463  -0.0031122
  109   0.0000950  -0.4153987   0.0023700  -0.0162355   0.0007536  -0.0042162
  110   0.0001569  -0.0546987  -0.0049875   0.0334049  -0.0011261   0.0108513
  111  -0.0003652   0.0446649  -0.0040924   0.0303591  -0.0050715  -0.0033616
  112   0.0000475  -0.0003448  -0.0014460   0.0066894   0.0004276  -0.0112722
  113   0.0000186  -0.0003166  -0.0029371   0.0203678  -0.0011806   0.0045934
  114   0.0000070   0.0001876   0.0027901  -0.0196720   0.0014402  -0.0096323
  115  -0.0002877   0.0011585  -0.0012591   0.0120955   0.0028454  -0.0140576
  116  -0.0001796   0.0026532  -0.0024704   0.0055411   0.0008460  -0.0066119
  117   0.0000429  -0.0022815   0.0005617  -0.0008908   0.0012082   0.0023776
  118   0.0000037  -0.0001001  -0.0002996   0.0016339   0.0000347  -0.0014854
  119   0.0000060   0.0000732   0.0008932  -0.0059448   0.0004530  -0.0025122
  120  -0.0000063   0.0000244  -0.0002146   0.0014605  -0.0001484   0.0015858
  121  -0.0000008   0.0000748   0.0002639  -0.0016187  -0.0001453   0.0016480
  122   0.0000090   0.0000178   0.0003959  -0.0026488   0.0001236  -0.0010858
  123  -0.0002600   0.0003593  -0.0261969   0.0779819   0.0153459  -0.0794324
  124   0.0008987  -0.0034130  -0.0062363  -0.0169207   0.0104064   0.0058768
  125  -0.0006220  -0.0000473  -0.0053740  -0.0015296   0.0049885   0.0015634
  126   0.0072115   0.0001878  -0.0003713   0.0005362  -0.0041702  -0.0006786
  127  -0.0005655  -0.0000475  -0.0053442  -0.0017086   0.0007141   0.0012232
  128   0.0076022  -0.0000222   0.0041287   0.0013331  -0.0013561  -0.0006912
  129  -0.0005731  -0.0000486  -0.0054086  -0.0017616   0.0004040   0.0012015
  130   0.0075371   0.0000109   0.0036843   0.0007426  -0.0013571  -0.0006191
  131   0.0000198   0.0005297  -0.0006466   0.0060232  -0.0005675   0.0004907
  132   0.0001054  -0.0074447  -0.0019715  -0.0041463   0.0026588  -0.0016434
  133   0.0000190   0.0006379  -0.0007007   0.0059902  -0.0003525   0.0053376
  134  -0.0002110  -0.0068165  -0.0010500   0.0042308   0.0021622  -0.0072005
  135   0.0000550   0.0005077  -0.0008591   0.0058938  -0.0001384   0.0007910
  136   0.0000443  -0.0075073   0.0005321  -0.0042261  -0.0001577  -0.0022111
           13          14          15          16          17          18
    1   0.0073637  -0.0454597  -0.0314855   0.0566260  -0.0395592   0.0519639
    2   0.0087247  -0.0543632  -0.0375230   0.0674777  -0.0472010   0.0615501
    3  -0.0210514   0.1329094   0.0949117  -0.1723019   0.1235944  -0.1600606
    4  -0.0114058   0.0711725   0.0659942  -0.1222473   0.0707248  -0.1250522
    5  -0.0181916   0.0013883   0.1104408  -0.1743179   0.0055920   0.1102958
    6   0.0043876  -0.1333687   0.0500662  -0.0728369  -0.0604490   0.1883388
    7  -0.0141822   0.1480662   0.0038579  -0.0004604   0.0709577  -0.1316431
    8  -0.0023071   0.0065135   0.0158879  -0.0345478  -0.0195614  -0.0021465
    9   0.0039713  -0.0312612  -0.0118546   0.0216201  -0.0532097   0.0717617
   10  -0.0054165   0.0355555   0.0231753  -0.0358217   0.0482127  -0.0665292
   11  -0.0019379   0.0034158   0.0088090  -0.0137205  -0.0025031   0.0055564
   12   0.0004260  -0.0097077   0.0010232   0.0002169   0.0025267  -0.0033894
   13   0.0007381   0.0039452  -0.0049184   0.0063406  -0.0002409  -0.0011145
   14   0.0013067  -0.0069206  -0.0045156   0.0103371   0.0033942  -0.0038517
   15  -0.0000122  -0.0092187   0.0024987  -0.0013637   0.0016491  -0.0018043
   16  -0.0302757  -0.0028661   0.0160729   0.0109483  -0.0553599  -0.0385941
   17  -0.0366144  -0.0035000   0.0194499   0.0134300  -0.0666429  -0.0465752
   18   0.0852617   0.0085028  -0.0448141  -0.0333441   0.1528533   0.1081268
   19   0.1037695   0.0088894  -0.0610067  -0.0372192   0.2605175   0.1818563
   20  -0.0386000   0.0009893   0.0395469  -0.0849645  -0.2506319  -0.1055530
   21   0.0163630  -0.0006814   0.0093304   0.0329789  -0.0071074  -0.0336169
   22  -0.0097219  -0.0018163  -0.0539667  -0.0053300   0.1883734   0.1473496
   23  -0.0246596  -0.0012045   0.0243399  -0.0474246  -0.1485985  -0.0589725
   24   0.0055608  -0.0017657   0.0072660   0.0224322  -0.0079363  -0.0243912
   25   0.0053834   0.0012967  -0.0365548  -0.0109044   0.1188396   0.0936039
   26  -0.0007742   0.0004616   0.0032370  -0.0019576  -0.0033895  -0.0006182
   27  -0.0014662   0.0001335  -0.0020565  -0.0029515   0.0022559   0.0033919
   28   0.0009062   0.0002522   0.0059653   0.0011974  -0.0059639  -0.0047193
   29   0.0043726   0.0000225  -0.0041655   0.0036279   0.0157197   0.0073175
   30  -0.0023039  -0.0002725  -0.0019625  -0.0008631  -0.0054668  -0.0034760
   31   0.0566113   0.0023284  -0.0592307  -0.0258598   0.0574805   0.0315540
   32   0.0676512   0.0027495  -0.0703379  -0.0309343   0.0680412   0.0373847
   33  -0.1681378  -0.0065629   0.1822371   0.0793066  -0.1820319  -0.1002242
   34  -0.0980485   0.0003395   0.1302993   0.0523691  -0.0922508  -0.0455287
   35  -0.1920598  -0.0180823  -0.0390891  -0.0044739  -0.0349956   0.0197066
   36   0.0344091   0.0045519   0.0680932   0.0652393   0.0816075   0.0314762
   37   0.0580397   0.0014559  -0.1314865  -0.1398209  -0.1714137  -0.0911205
   38  -0.0485116  -0.0012408   0.0415794  -0.0106945  -0.0580204  -0.0067061
   39   0.0076862  -0.0003079  -0.0016412   0.0108168   0.0112741  -0.0032874
   40   0.0162437   0.0004357  -0.0279889  -0.0124540   0.0087036   0.0097879
   41   0.0051876   0.0005968   0.0030578  -0.0008698   0.0011677   0.0026602
   42  -0.0013486  -0.0007454  -0.0088375  -0.0028928  -0.0028085  -0.0025179
   43   0.0070107   0.0014931   0.0135072   0.0028361   0.0045551   0.0057488
   44  -0.0010715  -0.0000945   0.0017532   0.0023702  -0.0020906  -0.0027590
   45  -0.0072252  -0.0009155  -0.0073571  -0.0014450  -0.0006040  -0.0024563
   46  -0.0218852  -0.0036091   0.0132122   0.0195084  -0.0177198  -0.0148548
   47  -0.0263422  -0.0043476   0.0158687   0.0235090  -0.0214147  -0.0180125
   48   0.0595134   0.0098430  -0.0334905  -0.0515346   0.0513515   0.0433004
   49   0.0973733   0.0174521  -0.0692913  -0.1043807   0.0852643   0.0685382
   50  -0.1250208  -0.0010936   0.2722965   0.1730957   0.1366198   0.1174854
   51   0.0513855  -0.0004132  -0.1568232  -0.1077184  -0.0410449  -0.0170928
   52  -0.0275480   0.0007978   0.1585440   0.1277074  -0.0154581  -0.0480265
   53  -0.0582892  -0.0022085   0.1385407   0.0951314   0.0844728   0.0806102
   54   0.0256374   0.0009748  -0.0812922  -0.0586986  -0.0169605  -0.0078305
   55  -0.0163130  -0.0014557   0.0832225   0.0713127  -0.0303218  -0.0407409
   56   0.0004672   0.0000275   0.0038884   0.0029617   0.0010175  -0.0003804
   57   0.0042970   0.0000628  -0.0096687  -0.0057880   0.0013040   0.0012969
   58  -0.0045137  -0.0002014   0.0149027   0.0105522  -0.0013379  -0.0019945
   59  -0.0081548  -0.0000256   0.0098511   0.0039845   0.0045706   0.0060554
   60   0.0059310   0.0001354  -0.0142145  -0.0088387  -0.0039484  -0.0035508
   61  -0.0054038   0.0295669   0.0180922  -0.0346714   0.0142047  -0.0225001
   62  -0.0065582   0.0359072   0.0218902  -0.0418887   0.0174064  -0.0276627
   63   0.0155121  -0.0847129  -0.0516384   0.0983918  -0.0418923   0.0669869
   64   0.0162870  -0.0931546  -0.0629543   0.1273562  -0.0497702   0.0831522
   65   0.0001177  -0.0225065   0.0360251  -0.0749734   0.0099076   0.0257816
   66  -0.0006511  -0.0211739   0.0143715  -0.0191197  -0.0368707   0.1181966
   67   0.0003073   0.0142660   0.0036226  -0.0127345   0.0457832  -0.1025736
   68  -0.0021825   0.0001636   0.0257810  -0.0499434   0.0186068   0.0047213
   69   0.0000280  -0.0120620   0.0071780  -0.0096237  -0.0165853   0.0674734
   70  -0.0011710   0.0140173   0.0048873  -0.0126379   0.0275758  -0.0640855
   71   0.0001213  -0.0017330  -0.0003931   0.0012300  -0.0023121   0.0054253
   72   0.0001283  -0.0033676   0.0007263  -0.0004374  -0.0022769   0.0083936
   73  -0.0000576   0.0024150  -0.0007681   0.0011805   0.0016062  -0.0048723
   74  -0.0003632   0.0009466   0.0029738  -0.0054555   0.0031646  -0.0033623
   75  -0.0001967  -0.0024507   0.0031047  -0.0051605  -0.0000424   0.0049128
   76   0.0021680   0.0287383   0.0044015  -0.0158846   0.0276577  -0.0186572
   77   0.0026772   0.0346670   0.0049641  -0.0188668   0.0332430  -0.0232122
   78  -0.0066042  -0.0794599  -0.0074064   0.0386344  -0.0754599   0.0603267
   79  -0.0092922  -0.1216648  -0.0301528   0.0886563  -0.1419051   0.0635717
   80   0.0300741  -0.0461239  -0.2147249   0.3572945  -0.0502325  -0.1118796
   81   0.0030152  -0.0245292  -0.0009737  -0.0147166  -0.1003170   0.1160682
   82  -0.0020705   0.0159831  -0.0361749   0.1357025   0.1035901  -0.1218953
   83   0.0172116  -0.0317496  -0.1188332   0.1952910  -0.0605948  -0.0696081
   84   0.0014336  -0.0127102   0.0020596  -0.0141989  -0.0601702   0.0790939
   85  -0.0038707   0.0062383  -0.0160851   0.0797499   0.0547990  -0.0763065
   86  -0.0017769   0.0064848   0.0100684  -0.0181781   0.0056025   0.0002979
   87   0.0003036  -0.0009801   0.0031382  -0.0096218  -0.0055075   0.0091087
   88   0.0001084  -0.0015814  -0.0028495   0.0068066  -0.0015137   0.0001867
   89  -0.0000256  -0.0052701  -0.0043774   0.0135644  -0.0024813   0.0001229
   90   0.0005494  -0.0015663   0.0003303  -0.0043997  -0.0035243   0.0038608
   91   0.0760014  -0.0030379  -0.1692032  -0.0921097  -0.0722626  -0.0487807
   92   0.0146087  -0.0076274  -0.0652985  -0.0267532  -0.0477796  -0.0046507
   93   0.1223417   0.0115292   0.0567639   0.0173468  -0.0147647  -0.0021863
   94   0.1460157   0.0137291   0.0673709   0.0207403  -0.0174352  -0.0025207
   95  -0.3355955  -0.0313152  -0.1517334  -0.0479786   0.0380583   0.0060645
   96  -0.3491641  -0.0375370  -0.2273104  -0.0505769   0.0647377  -0.0046895
   97   0.0549327   0.0024289  -0.0969406  -0.0423951   0.1493731   0.0566608
   98  -0.0215825  -0.0011295   0.0387437   0.0277657  -0.0053840   0.0092649
   99   0.0073052   0.0002808  -0.0228627  -0.0321811  -0.0992698  -0.0662626
  100  -0.0029089   0.0008670  -0.0141188  -0.0159335   0.0440282   0.0185293
  101   0.0013130   0.0004224   0.0068718   0.0097165   0.0177814   0.0161888
  102  -0.0002148  -0.0005739  -0.0072717  -0.0140083  -0.0685236  -0.0493242
  103   0.0005147  -0.0001092  -0.0054987  -0.0025331   0.0050341   0.0021813
  104   0.0000139  -0.0000029   0.0009011   0.0008995   0.0015942   0.0013107
  105   0.0004579  -0.0001250  -0.0063889  -0.0032572   0.0043793   0.0015422
  106  -0.0004411  -0.0000080   0.0008542   0.0016580   0.0035118   0.0016602
  107  -0.0003565   0.0001817   0.0076415   0.0026453  -0.0092367  -0.0039474
  108   0.0089662  -0.1303387   0.0166493  -0.0191187   0.0229830  -0.0271643
  109   0.0107071  -0.1553557   0.0195257  -0.0221828   0.0274278  -0.0330368
  110  -0.0244269   0.3550266  -0.0430411   0.0475368  -0.0602961   0.0750720
  111  -0.0249417   0.3883053  -0.0722307   0.0921153  -0.1205092   0.1175718
  112  -0.0027135   0.0160011   0.0156270  -0.0252052   0.0464463  -0.0128734
  113  -0.0043513   0.0299433   0.0252170  -0.0433447   0.1038245  -0.1851319
  114   0.0031190  -0.0254699  -0.0173251   0.0341920  -0.0996556   0.2148060
  115  -0.0017097   0.0079925  -0.0010374   0.0092837   0.0339943   0.0002298
  116   0.0002620   0.0003290  -0.0022340   0.0025171   0.0392993  -0.0704115
  117  -0.0007896   0.0034955   0.0023437  -0.0023084  -0.0248476   0.0869343
  118  -0.0002505   0.0002268   0.0015730  -0.0023282   0.0019475  -0.0035385
  119   0.0002150   0.0010244  -0.0028177   0.0047016  -0.0081171   0.0154636
  120   0.0000248  -0.0005434   0.0005862  -0.0012345   0.0023649  -0.0038328
  121   0.0002792  -0.0002534  -0.0019353   0.0031339  -0.0031282   0.0031103
  122   0.0002136   0.0004783  -0.0022552   0.0037250  -0.0047921   0.0058403
  123   0.0142359  -0.0234277  -0.0905365   0.1800069   0.0546738  -0.0678478
  124   0.0113094  -0.0061681  -0.0401324   0.0707018   0.0674330   0.0190313
  125  -0.0993713  -0.0101226  -0.0882869  -0.0429629  -0.0003792  -0.0196272
  126  -0.0000495  -0.0002307  -0.0349884  -0.0195071   0.0285060   0.0112454
  127  -0.1061145  -0.0105316  -0.0704001  -0.0188900   0.0674059   0.0287526
  128  -0.0081907  -0.0016420  -0.0247709  -0.0072669   0.0369058   0.0174307
  129  -0.1058376  -0.0104217  -0.0682173  -0.0175678   0.0749055   0.0344508
  130  -0.0071380  -0.0011516  -0.0244445  -0.0083386   0.0425352   0.0215788
  131  -0.0074423   0.1165590  -0.0211539   0.0274946  -0.0476012   0.0951588
  132   0.0011567   0.0105355  -0.0120488   0.0154399  -0.0175467   0.0595517
  133  -0.0066033   0.1104574  -0.0266397   0.0364621  -0.0660025   0.0701838
  134  -0.0004165   0.0105608  -0.0155868   0.0300907  -0.0246431   0.0406585
  135  -0.0077315   0.1167212  -0.0191324   0.0256975  -0.0509392   0.1025934
  136   0.0000870   0.0102697  -0.0087590   0.0149457  -0.0307689   0.0599367
           19          20          21          22          23          24
    1  -0.0013135  -0.0021371  -0.0011527  -0.0216245  -0.0024897  -0.0228096
    2  -0.0016577  -0.0026793  -0.0012842  -0.0246731  -0.0028011  -0.0259992
    3   0.0038795   0.0077412   0.0023677   0.0679979   0.0084525   0.0710893
    4   0.0194983   0.0099089   0.0044875   0.0362817  -0.0061474   0.0219822
    5   0.0306212  -0.0105563   0.0930831  -0.2005284  -0.0196128  -0.1122304
    6   0.0251364   0.0190603  -0.1943080   0.0173177   0.0269807   0.0929541
    7  -0.0517710   0.0147122  -0.2044080  -0.1034711  -0.0404104  -0.1390202
    8   0.0294723  -0.0067031   0.0435124   0.0161003  -0.0022834   0.0324435
    9   0.0083890   0.0062615  -0.0933292  -0.0200178  -0.0057814  -0.0200367
   10  -0.0116535   0.0123847  -0.0885381   0.0295996   0.0058894   0.0326565
   11   0.0027743   0.0006790  -0.0009697   0.0067456   0.0001593  -0.0147029
   12  -0.0018294  -0.0000771  -0.0010998  -0.0001273   0.0002584  -0.0041945
   13  -0.0006004  -0.0001330   0.0001721  -0.0013817  -0.0004484   0.0105358
   14  -0.0032751  -0.0001530  -0.0019180  -0.0098687   0.0006011   0.0073566
   15  -0.0005057  -0.0003125   0.0009218  -0.0037985  -0.0003436  -0.0034259
   16   0.0212727  -0.0007358  -0.0032586  -0.0133956  -0.0077777  -0.0014679
   17   0.0254308  -0.0009069  -0.0038785  -0.0161998  -0.0093135  -0.0016745
   18  -0.0572345   0.0021906   0.0086383   0.0380258   0.0200231   0.0025467
   19  -0.1123053   0.0039422   0.0144913   0.0617468   0.0388494   0.0036312
   20  -0.0789784   0.0600961  -0.0126838  -0.0321131  -0.0728763  -0.0970776
   21   0.1053389   0.2109019   0.0008898  -0.0194251  -0.0269031  -0.0183171
   22  -0.2052508   0.0872634   0.0418074   0.0616275   0.1141385   0.0791839
   23  -0.0522613   0.0362446  -0.0121372  -0.0183220  -0.0383519  -0.0691355
   24   0.0657605   0.1237246  -0.0021457  -0.0091015  -0.0194782  -0.0084970
   25  -0.1261908   0.0507919   0.0237818   0.0370124   0.0715675   0.0448876
   26   0.0016547   0.0092761   0.0005525  -0.0009233  -0.0017346  -0.0022498
   27  -0.0094835  -0.0130474   0.0002015   0.0015136   0.0008695   0.0015199
   28   0.0141442  -0.0103536  -0.0026514  -0.0017032  -0.0028851  -0.0030759
   29   0.0022815  -0.0008525   0.0015273   0.0024657   0.0042288   0.0036803
   30  -0.0062913  -0.0017171   0.0009035  -0.0014511  -0.0003866   0.0010235
   31  -0.0011554   0.0013567  -0.0018055   0.0053906   0.0110881  -0.0125061
   32  -0.0014998   0.0016295  -0.0022967   0.0063141   0.0128514  -0.0157294
   33   0.0056202  -0.0043255   0.0056981  -0.0169892  -0.0345918   0.0424890
   34  -0.0517672  -0.0041608   0.0096951  -0.0167605  -0.0237541   0.0327716
   35  -0.3222365   0.0757219   0.0590490   0.0323192  -0.0149357   0.1216989
   36   0.1129402   0.2912564   0.0175997  -0.0034317   0.0436290  -0.0146283
   37  -0.0522445   0.1209861  -0.0063761  -0.0442938  -0.0886814  -0.0714934
   38  -0.0982802   0.0412224   0.0010404  -0.0070336  -0.0276828  -0.0065828
   39   0.0322148   0.1343303   0.0053575  -0.0058762   0.0051880  -0.0129304
   40  -0.0149289   0.0563847   0.0117186   0.0118618   0.0089566   0.0217421
   41  -0.0050467  -0.0029315   0.0003281   0.0011401  -0.0074729  -0.0044910
   42  -0.0003153  -0.0007644   0.0002153   0.0004245  -0.0097081   0.0042660
   43  -0.0049591  -0.0011221  -0.0009077   0.0015060   0.0034734  -0.0112098
   44   0.0032662  -0.0019433   0.0000069  -0.0022507   0.0205084   0.0066038
   45   0.0054188  -0.0028834   0.0001935  -0.0006880  -0.0059713   0.0050130
   46   0.0349657   0.0003209   0.0026026   0.0023115  -0.0077287   0.0227226
   47   0.0420967   0.0003744   0.0031653   0.0026903  -0.0094299   0.0276076
   48  -0.0958594  -0.0007623  -0.0072418  -0.0048877   0.0237939  -0.0655510
   49  -0.1754723  -0.0013275  -0.0166237  -0.0225592   0.0464226  -0.1140367
   50  -0.1218927   0.0744305   0.0158525   0.0356440   0.0672525  -0.1428536
   51  -0.0941276   0.2357032   0.0197637  -0.0162504  -0.0638249  -0.0111478
   52   0.2800356   0.1127435   0.0009743  -0.0091972   0.1034400   0.1029025
   53  -0.0882848   0.0468298   0.0134867   0.0355675   0.0443585  -0.0927450
   54  -0.0578195   0.1535282   0.0102653  -0.0145358  -0.0379733  -0.0125782
   55   0.1801410   0.0729024   0.0002304  -0.0041400   0.0602294   0.0775565
   56   0.0076092  -0.0046139  -0.0004881  -0.0004224   0.0030861  -0.0008986
   57  -0.0064088   0.0126887   0.0010920  -0.0003756  -0.0015327  -0.0016421
   58   0.0143735   0.0121722  -0.0001343  -0.0003942   0.0051443  -0.0001250
   59  -0.0165976   0.0030206   0.0015693   0.0018851  -0.0003061  -0.0063050
   60  -0.0005069   0.0046376   0.0009755  -0.0015243  -0.0045830   0.0058003
   61   0.0054880   0.0025669   0.0013071   0.0524867   0.0084418   0.0348664
   62   0.0065576   0.0030597   0.0015871   0.0632515   0.0101637   0.0421054
   63  -0.0149689  -0.0068373  -0.0037842  -0.1468046  -0.0234561  -0.0971247
   64  -0.0257383  -0.0136330  -0.0049115  -0.2491391  -0.0403503  -0.1630794
   65   0.0417904   0.0022213   0.0695629   0.1582602   0.0511584   0.2632820
   66   0.0035942   0.0073907  -0.1350253  -0.1271656  -0.0142513  -0.0523788
   67  -0.0086718   0.0176979  -0.1328407   0.2036890   0.0344712   0.1753903
   68   0.0202683   0.0027786   0.0381343   0.0978568   0.0333229   0.1656250
   69   0.0006109   0.0041964  -0.0735846  -0.0751769  -0.0072616  -0.0276102
   70  -0.0041460   0.0082599  -0.0723661   0.1215225   0.0200712   0.1057822
   71  -0.0006459   0.0006484  -0.0099197  -0.0057992  -0.0009611  -0.0050338
   72   0.0003076   0.0000705  -0.0036599  -0.0099024  -0.0006934  -0.0028104
   73  -0.0017999   0.0009511  -0.0128441   0.0032535  -0.0003504   0.0002147
   74   0.0007495   0.0008373  -0.0043381   0.0113669   0.0026766   0.0127758
   75   0.0017999   0.0003311   0.0000265   0.0027622   0.0018974   0.0083981
   76   0.0018529  -0.0009606   0.0043927  -0.0252873  -0.0001440   0.0150041
   77   0.0022961  -0.0012205   0.0053786  -0.0307714  -0.0003616   0.0182262
   78  -0.0047107   0.0032824  -0.0127587   0.0719350   0.0021778  -0.0433622
   79  -0.0158186   0.0028570  -0.0217102   0.1204198  -0.0060046  -0.0889182
   80  -0.0464705  -0.0099429   0.0421452   0.0836623  -0.0036957   0.0810761
   81   0.0111233   0.0308032  -0.1748532   0.1702990   0.0095620  -0.0114770
   82  -0.0866418   0.0106440  -0.1736747  -0.1566261   0.0069085  -0.0424391
   83  -0.0005625  -0.0036947   0.0305326   0.0539437  -0.0108489   0.0513401
   84   0.0068274   0.0268589  -0.1171930   0.1220648   0.0100366  -0.0015859
   85  -0.0598146   0.0078656  -0.1165566  -0.1122938  -0.0010390  -0.0484744
   86   0.0005193   0.0006168   0.0039285  -0.0046299  -0.0003254  -0.0032278
   87   0.0048643   0.0002873   0.0039581   0.0121228   0.0007320   0.0021751
   88  -0.0029952   0.0009917  -0.0085272  -0.0018011  -0.0000337  -0.0024133
   89  -0.0011919  -0.0002741   0.0066114   0.0048943   0.0014221   0.0029535
   90   0.0016560   0.0024346  -0.0105216   0.0090814   0.0008001   0.0036244
   91   0.0298853  -0.0010839   0.0066300  -0.0000395  -0.0406586   0.0756204
   92  -0.0220395  -0.0029817   0.0143998   0.0379949  -0.0339622   0.0313768
   93  -0.0187126  -0.0003895   0.0016505   0.0011576  -0.0023258  -0.0034203
   94  -0.0230531  -0.0005069   0.0021475   0.0015335  -0.0027759  -0.0038870
   95   0.0494161   0.0011734  -0.0051842  -0.0041483   0.0058674   0.0096527
   96   0.1149839  -0.0000233   0.0012926   0.0030163   0.0170171   0.0480359
   97   0.2386063   0.0861230  -0.0326093  -0.0161335   0.0283446  -0.1307965
   98  -0.0563552   0.2362229   0.0504300   0.0132387  -0.1836773   0.0659522
   99  -0.0537490   0.0999029   0.0058414  -0.0691985   0.3938510  -0.0098020
  100   0.1029889   0.0390055  -0.0180785  -0.0151809   0.0079762  -0.0688491
  101  -0.0333578   0.1041268   0.0301365   0.0102495  -0.0886093   0.0338876
  102  -0.0076628   0.0437617   0.0001710  -0.0425660   0.1930191  -0.0044928
  103   0.0063257   0.0008071  -0.0006045   0.0001625  -0.0077307  -0.0021229
  104   0.0016661  -0.0059432  -0.0005197   0.0028481  -0.0183587   0.0012254
  105   0.0051376  -0.0082736  -0.0027921  -0.0007653   0.0089342  -0.0054274
  106   0.0011788  -0.0032382  -0.0002281   0.0001267   0.0092592   0.0003283
  107  -0.0093838  -0.0064718   0.0008403   0.0001889   0.0003454   0.0042494
  108  -0.0043317  -0.0004944  -0.0006652  -0.0045411   0.0000479   0.0032188
  109  -0.0053252  -0.0006502  -0.0008357  -0.0062783  -0.0001998   0.0034201
  110   0.0122943   0.0018270   0.0019485   0.0197528   0.0016592  -0.0073210
  111   0.0196298   0.0026237  -0.0001579  -0.0074761  -0.0140025  -0.0457847
  112  -0.0047043  -0.0146200   0.0907075  -0.2718809  -0.0272298   0.2271903
  113  -0.0399681   0.0177835  -0.2248968  -0.0264546  -0.0354195   0.0393796
  114   0.0167034   0.0100222  -0.1822401  -0.0822489   0.0017218   0.1696756
  115  -0.0180946  -0.0095483   0.0414597  -0.1906626  -0.0169769   0.0973050
  116  -0.0237187  -0.0002150  -0.1048268  -0.0396362  -0.0221962   0.0105912
  117   0.0042412   0.0059956  -0.0857416  -0.0361624   0.0048505   0.0966755
  118  -0.0010530   0.0009351  -0.0094128   0.0051055  -0.0002895  -0.0098665
  119   0.0015432   0.0001263  -0.0038018  -0.0051055   0.0003166   0.0059694
  120  -0.0005437   0.0001720  -0.0047935  -0.0027609  -0.0012073   0.0093910
  121   0.0001487   0.0006276  -0.0070818   0.0045882   0.0004841   0.0028195
  122   0.0014114  -0.0003577   0.0056804   0.0063734   0.0013235  -0.0077206
  123  -0.0367401  -0.0055066   0.0005958  -0.0399298   0.0098965   0.0353536
  124  -0.0260018   0.0033158  -0.0054956  -0.0111225   0.0275163   0.0356226
  125   0.0524601  -0.0070761  -0.0196047  -0.0413302   0.2711443  -0.0447026
  126   0.0061880  -0.0040886  -0.0090312  -0.0183732   0.1908181  -0.0414854
  127   0.0808928   0.1333922   0.0101606   0.0028537  -0.1077700  -0.0099888
  128   0.0459298   0.0821893   0.0044682   0.0027310  -0.0721430  -0.0143410
  129   0.0883158  -0.1149628  -0.0255480   0.0259045  -0.1329767  -0.0290333
  130   0.0475069  -0.0718583  -0.0155569   0.0157704  -0.0900974  -0.0297807
  131   0.0203203  -0.0130414   0.1474437  -0.0791793   0.0069628   0.0623811
  132   0.0104490  -0.0187873   0.1001755  -0.0436006   0.0088574   0.0535414
  133   0.0149575   0.0046936   0.0029272   0.1609191   0.0231196  -0.1552848
  134  -0.0027013  -0.0023287   0.0015162   0.0533036   0.0117360  -0.1194588
  135   0.0051593   0.0085013  -0.1395653  -0.0674816  -0.0094452   0.1303570
  136   0.0034809   0.0063967  -0.0917702  -0.0373803  -0.0052488   0.0916096
           25          26          27          28          29          30
    1   0.0025185   0.0064089   0.0005404  -0.0043562   0.0003185   0.0024787
    2   0.0030154   0.0064312   0.0003694  -0.0051362   0.0005050   0.0031596
    3  -0.0087385  -0.0182464  -0.0002489   0.0154753  -0.0019550  -0.0082058
    4  -0.0085102   0.0239160   0.0100925  -0.0401552  -0.0010652  -0.0114714
    5   0.0129703   0.1173799  -0.0535246   0.0834418  -0.0023732   0.0236729
    6  -0.0071564  -0.0832260   0.1005675   0.1869231   0.0079207  -0.0858754
    7   0.0135620   0.0872236   0.1569320  -0.1038097   0.0038039  -0.1150743
    8   0.0033664  -0.0053780  -0.0373280   0.0077832  -0.0015655   0.0090021
    9   0.0019016  -0.0032372   0.0855622   0.0009593  -0.0025399  -0.0596688
   10  -0.0090345  -0.0387911   0.0731347   0.0395403   0.0062076  -0.0338204
   11   0.0016579   0.0083024  -0.0000166  -0.0031972  -0.0005073   0.0212049
   12   0.0004715  -0.0003687  -0.0015126   0.0043463  -0.0000521   0.0125652
   13  -0.0001309   0.0003241  -0.0154803  -0.0074684  -0.0010825   0.0163326
   14  -0.0026027  -0.0117706   0.0047830   0.0093917  -0.0009557   0.0215079
   15   0.0016622   0.0044248  -0.0133298   0.0094874   0.0008081  -0.0019703
   16  -0.0018210  -0.0166929  -0.0060264   0.0099722   0.0002355  -0.0036257
   17  -0.0022083  -0.0201554  -0.0073938   0.0122668   0.0002649  -0.0047962
   18   0.0051015   0.0455133   0.0173802  -0.0307339  -0.0003754   0.0136728
   19   0.0079185   0.0797723   0.0257845  -0.0428296  -0.0043258   0.0091844
   20  -0.0703077  -0.1317239  -0.0526723  -0.0633764  -0.1240967   0.1508476
   21  -0.1867726  -0.0185037  -0.0436839   0.0549388  -0.3903375  -0.1277730
   22  -0.0606989   0.2194318   0.0788852  -0.0428655  -0.1745325   0.1138881
   23  -0.0467961  -0.0823639  -0.0300047  -0.0462047  -0.0953104   0.1148329
   24  -0.1206021  -0.0088064  -0.0275284   0.0379481  -0.2903958  -0.0904610
   25  -0.0398796   0.1305321   0.0492244  -0.0320182  -0.1290094   0.0866454
   26  -0.0057247  -0.0010040  -0.0010208  -0.0011370  -0.0114328  -0.0005000
   27   0.0095804   0.0019413   0.0026953  -0.0022328   0.0151937   0.0061771
   28   0.0074637  -0.0070583  -0.0016793   0.0000570   0.0129923  -0.0043830
   29   0.0021492   0.0060625   0.0012790   0.0009821   0.0011955  -0.0050153
   30   0.0017540  -0.0008226  -0.0006806   0.0015251   0.0011864   0.0022256
   31  -0.0003630  -0.0092954  -0.0049011  -0.0091670  -0.0000218   0.0024553
   32  -0.0005296  -0.0123751  -0.0064603  -0.0111425  -0.0000324   0.0028396
   33   0.0012200   0.0337302   0.0181128   0.0296631   0.0000890  -0.0076996
   34   0.0025705   0.0197940   0.0118784   0.0400779   0.0008498   0.0039878
   35  -0.0299980   0.1648896   0.0537471   0.0528802  -0.0270694  -0.0274824
   36  -0.1364701   0.0375032  -0.0100015  -0.0146848  -0.0854793  -0.0041125
   37  -0.0736881  -0.1402885  -0.0655579   0.0199951  -0.0360221  -0.0178261
   38  -0.0329243   0.0018352   0.0014538   0.0069962  -0.0157167   0.0301449
   39  -0.0970315  -0.0042984  -0.0167325   0.0096078  -0.0367224  -0.0242622
   40  -0.0380152   0.0487783   0.0157380  -0.0182269  -0.0096042   0.0245251
   41   0.0173835  -0.0119133  -0.0030659  -0.0040663   0.0117859   0.0001477
   42  -0.0027653   0.0038763   0.0012169   0.0062326  -0.0282635  -0.0090068
   43  -0.0011932  -0.0136166  -0.0067229  -0.0099233  -0.0254024   0.0072220
   44   0.0098320   0.0134937   0.0075909   0.0001098  -0.0076885   0.0097039
   45   0.0124436   0.0022892   0.0026223   0.0057317  -0.0098209  -0.0072602
   46   0.0023610   0.0335584   0.0144526   0.0041932  -0.0001208  -0.0014253
   47   0.0028354   0.0407468   0.0175374   0.0054094  -0.0001306  -0.0014650
   48  -0.0064735  -0.0964207  -0.0419132  -0.0163110   0.0002111   0.0008574
   49  -0.0127836  -0.1631295  -0.0651658  -0.0026329   0.0014428   0.0452646
   50  -0.0913367  -0.2128963  -0.1402109  -0.1126280   0.1321265  -0.0907694
   51  -0.2479884   0.0034045  -0.0271011   0.0393219   0.4095211  -0.0216456
   52  -0.0904120   0.2474875   0.1110714   0.0005037   0.1749804   0.1303650
   53  -0.0625531  -0.1375153  -0.0947135  -0.1021588   0.1039996  -0.0738555
   54  -0.1724072  -0.0066525  -0.0190116   0.0335782   0.3196545  -0.0096000
   55  -0.0625461   0.1812673   0.0829885  -0.0025229   0.1369477   0.0976515
   56   0.0077786  -0.0014414  -0.0004700  -0.0016298  -0.0099342   0.0003393
   57  -0.0117736  -0.0014007  -0.0020354   0.0009158   0.0125474  -0.0007643
   58  -0.0098210   0.0043274   0.0007524  -0.0028736   0.0104504   0.0025796
   59  -0.0020240  -0.0111709  -0.0067404  -0.0035307   0.0007363  -0.0061890
   60  -0.0011761   0.0086659   0.0041006   0.0059442   0.0004437   0.0015277
   61  -0.0034052  -0.0213714  -0.0033440   0.0068903   0.0000026   0.0005300
   62  -0.0040744  -0.0258909  -0.0040954   0.0086320   0.0000726   0.0006568
   63   0.0090395   0.0601880   0.0098712  -0.0219234  -0.0006812  -0.0013748
   64   0.0183601   0.0981660   0.0124830  -0.0122238   0.0030629  -0.0014818
   65  -0.0280045  -0.1564945  -0.0985645   0.1533086  -0.0060783   0.1129487
   66   0.0068539   0.0384621   0.1477160   0.0846102   0.0099997  -0.3125551
   67  -0.0194095  -0.1589632   0.1175209   0.0569397   0.0129377  -0.2219208
   68  -0.0189530  -0.1008762  -0.0619975   0.1058892  -0.0029234   0.0805446
   69   0.0032966   0.0229707   0.0897041   0.0567266   0.0075883  -0.2210587
   70  -0.0096005  -0.0968455   0.0708747   0.0375711   0.0092143  -0.1609026
   71   0.0005344   0.0024654   0.0092906   0.0019015   0.0005804  -0.0138996
   72   0.0002258   0.0024276   0.0032402   0.0059749   0.0001941  -0.0061493
   73   0.0002698  -0.0020255   0.0106992  -0.0017619   0.0008271  -0.0169710
   74  -0.0013499  -0.0096562   0.0026485   0.0075797   0.0004090  -0.0046434
   75  -0.0008440  -0.0045512  -0.0019255   0.0098897   0.0001740  -0.0020213
   76  -0.0003654   0.0036034  -0.0051132   0.0349088  -0.0000120  -0.0049377
   77  -0.0003951   0.0044082  -0.0062642   0.0420099   0.0000736  -0.0060810
   78   0.0007204  -0.0090927   0.0156427  -0.0964194  -0.0007967   0.0143099
   79   0.0032327  -0.0283065   0.0156650  -0.1813324   0.0050488   0.0334632
   80  -0.0057226  -0.0673278  -0.0700949  -0.1215397   0.0029095  -0.0788236
   81  -0.0273028  -0.0640498   0.2609557  -0.2888063  -0.0163388   0.2143992
   82  -0.0222319  -0.1413100   0.1422172   0.2990416  -0.0076854   0.3287144
   83  -0.0046372  -0.0264893  -0.0442491  -0.1000634   0.0034946  -0.0696881
   84  -0.0272060  -0.0458261   0.1856046  -0.2039770  -0.0128654   0.1783386
   85  -0.0169138  -0.1029445   0.0950336   0.1955029  -0.0072755   0.2558111
   86  -0.0004027   0.0050066  -0.0018181   0.0007058  -0.0005800   0.0030241
   87   0.0004335   0.0046835  -0.0001352  -0.0153679  -0.0008632  -0.0056811
   88  -0.0011653  -0.0048374   0.0067610   0.0007497  -0.0013402   0.0151173
   89  -0.0009782  -0.0065614  -0.0085889   0.0003588  -0.0003697  -0.0014772
   90  -0.0018289  -0.0025593   0.0114686  -0.0050604  -0.0012126   0.0072087
   91   0.0075088   0.1128352   0.0550735   0.0268439  -0.0003599   0.0116260
   92   0.0045493   0.0479391   0.0084401  -0.0700636   0.0012062  -0.0504697
   93  -0.0000501  -0.0062001  -0.0032247  -0.0049154   0.0000304   0.0041952
   94  -0.0000351  -0.0073229  -0.0039249  -0.0058279   0.0000605   0.0047747
   95   0.0001119   0.0189032   0.0105489   0.0143618  -0.0004072  -0.0092008
   96   0.0039904   0.0638808   0.0257126   0.0364201   0.0026388  -0.0607274
   97   0.0861999  -0.1702931  -0.0573437  -0.0834503   0.0046122   0.0542353
   98   0.3237827   0.0081549   0.0468649   0.0216964   0.0147763   0.0075641
   99   0.1432030  -0.0268282  -0.0123169  -0.0128580   0.0052025  -0.0385002
  100   0.0495804  -0.0892790  -0.0274425  -0.0403784  -0.0085724   0.0427493
  101   0.1884224   0.0015256   0.0199096   0.0062719  -0.0205593  -0.0075591
  102   0.0827538  -0.0169306  -0.0057980   0.0055669  -0.0210401  -0.0214565
  103   0.0139988  -0.0057534   0.0001152  -0.0012139   0.0027498   0.0027473
  104  -0.0118988   0.0030283   0.0008547   0.0019483  -0.0028882   0.0016676
  105  -0.0140993  -0.0033522  -0.0032987  -0.0021501  -0.0027414   0.0000502
  106   0.0016194   0.0014422   0.0002259  -0.0013118   0.0000880  -0.0021066
  107   0.0003739   0.0044203   0.0018653   0.0021727  -0.0000236  -0.0007187
  108   0.0000639  -0.0021020  -0.0010165   0.0081336   0.0009744   0.0031157
  109   0.0001042  -0.0024490  -0.0012012   0.0093975   0.0011283   0.0036965
  110  -0.0000687   0.0075600   0.0035592  -0.0225064  -0.0016925  -0.0087318
  111  -0.0008825   0.0197896   0.0088106  -0.0828399  -0.0233275  -0.0307616
  112  -0.0538975  -0.1321553   0.1118893  -0.2052325  -0.0130604  -0.0147046
  113   0.0291639   0.1268209  -0.1826866  -0.1730916   0.0020598  -0.0068790
  114   0.0121235  -0.0036942  -0.2161871   0.0520124   0.0032741   0.0465962
  115  -0.0260416  -0.0585430   0.0581209  -0.0829484   0.0013059   0.0095903
  116   0.0255456   0.0792646  -0.1005054  -0.1021421   0.0128630  -0.0298296
  117   0.0053738  -0.0006037  -0.1225830   0.0507774   0.0064545   0.0137753
  118   0.0032011   0.0106194  -0.0113575   0.0071751   0.0003973   0.0031695
  119  -0.0000107  -0.0010604  -0.0066465   0.0025748  -0.0000241   0.0024766
  120   0.0007306   0.0029918  -0.0155661  -0.0101078  -0.0000979   0.0048737
  121   0.0005616  -0.0005175  -0.0037320  -0.0001850   0.0001142   0.0015556
  122   0.0010771   0.0023489  -0.0030480   0.0092978   0.0001899   0.0018192
  123  -0.0028102  -0.0461393  -0.0317802   0.1212299   0.0018052   0.0001526
  124  -0.0045965   0.0122630   0.0156936   0.0767506  -0.0091048   0.0027470
  125  -0.0144601  -0.0368558  -0.0276436  -0.0259732  -0.0012821  -0.0202078
  126  -0.0102690  -0.0371328  -0.0281859  -0.0374002   0.0051025  -0.0089680
  127   0.2002294  -0.0532022   0.0084685  -0.0128855   0.0156154   0.0252840
  128   0.1387573  -0.0501805   0.0022721  -0.0165008   0.0516801   0.0282029
  129  -0.1920355   0.0004995  -0.0139334  -0.0023267  -0.0145134   0.0195287
  130  -0.1340831  -0.0147472  -0.0194344  -0.0060472  -0.0558358   0.0143477
  131  -0.0383123  -0.1189172   0.1635453  -0.0142548  -0.0075397  -0.0186519
  132  -0.0136093  -0.0785159   0.1260390  -0.0086679   0.0191603  -0.0598736
  133   0.0251410   0.0560655  -0.0174175   0.1603486   0.0060632   0.0058469
  134   0.0227111   0.0500842  -0.0138890   0.1377493   0.0165030   0.0143583
  135   0.0090038   0.0191188  -0.1712605  -0.0476671  -0.0001112   0.0300127
  136   0.0048960   0.0097514  -0.1278483  -0.0393812  -0.0059832   0.0662853
           31          32          33          34          35          36
    1  -0.0040377  -0.0107117   0.0008640   0.0012236   0.0087401  -0.0049225
    2  -0.0054256  -0.0138552   0.0013706   0.0014804   0.0080046  -0.0086397
    3   0.0157723   0.0421074  -0.0039838  -0.0053945   0.0230909   0.0604614
    4   0.0205114   0.0144173  -0.0282190   0.0112780  -0.3036703  -0.1389634
    5   0.0365526   0.0061258  -0.0143102   0.1432063  -0.0701104   0.0125110
    6  -0.0569353  -0.0456126   0.0202354  -0.3989845  -0.0335326  -0.0310283
    7  -0.0028799   0.0534333   0.0197819  -0.3631648   0.0322418   0.0236540
    8   0.0106778   0.1074356   0.0022746   0.1251414  -0.0284000   0.0813552
    9   0.0012317   0.0873935   0.0186810  -0.3399441  -0.0167309  -0.0173395
   10  -0.0355961  -0.0471847   0.0062293  -0.2990890   0.0951808   0.0125188
   11   0.0142630  -0.0125080   0.0011815  -0.0111060   0.0032977  -0.0001394
   12   0.0000400  -0.0245621   0.0006668  -0.0049625  -0.0059143  -0.0014233
   13   0.0116796   0.0234381   0.0018641  -0.0251358  -0.0005787  -0.0009436
   14   0.0019863  -0.0078168  -0.0001230  -0.0001173  -0.0015497   0.0063051
   15  -0.0124536  -0.0348117  -0.0007305  -0.0093496   0.0037736   0.0024710
   16   0.0050632   0.0015053   0.0002094  -0.0016663  -0.0273977  -0.0056293
   17   0.0068636   0.0017492   0.0002628  -0.0020357  -0.0316053  -0.0064891
   18  -0.0215775  -0.0033779  -0.0004954   0.0041494   0.0595321   0.0136612
   19   0.0055897  -0.0156293  -0.0043445   0.0269877   0.3532324   0.0462139
   20  -0.3878034   0.0942197  -0.1019045  -0.0269895  -0.0620484  -0.0739399
   21   0.2123322  -0.0546440  -0.3237528  -0.0198466   0.0162984  -0.0030933
   22  -0.2397657   0.0403043  -0.1435490  -0.0154951  -0.0276280   0.0036356
   23  -0.2717654   0.0625146  -0.1125300  -0.0028688   0.0015637  -0.0754767
   24   0.1582597  -0.0366419  -0.3409417  -0.0176681   0.0545810   0.0128202
   25  -0.1826372   0.0329849  -0.1488895  -0.0156530  -0.1293128   0.0058543
   26  -0.0013546  -0.0014573   0.0088306   0.0005394   0.0004144  -0.0028298
   27  -0.0095155   0.0021353  -0.0052645   0.0001659  -0.0050347  -0.0016195
   28   0.0118047  -0.0029065  -0.0039496   0.0011482   0.0093987   0.0027471
   29   0.0079007  -0.0014912   0.0028434  -0.0020953  -0.0073406   0.0082667
   30  -0.0077459   0.0022504   0.0037530  -0.0008944   0.0008796  -0.0067079
   31  -0.0092918   0.0019484   0.0001057   0.0002697   0.0133194  -0.0012075
   32  -0.0113570   0.0025358  -0.0000575   0.0001864   0.0135897   0.0020972
   33   0.0321745  -0.0083160   0.0019285   0.0015835   0.0277586  -0.0557544
   34   0.0249859  -0.0029271  -0.0119601   0.0025078  -0.6526894   0.2928757
   35   0.0653395  -0.0158632   0.1611082   0.0053577   0.0106540  -0.0196399
   36  -0.0340162  -0.0035627   0.5124880   0.0229177  -0.0049858   0.0356088
   37   0.0008227   0.0032360   0.2246174   0.0159118  -0.0022614  -0.0629893
   38  -0.0053616  -0.0035672   0.1227318   0.0361707  -0.0653710   0.0696316
   39   0.0324221  -0.0089533   0.4259417   0.0382932   0.0576106   0.0627189
   40  -0.0743498   0.0199561   0.1956932  -0.0260950  -0.0546008  -0.0931162
   41  -0.0029465   0.0017590   0.0180114  -0.0004810  -0.0048230   0.0045030
   42   0.0195211  -0.0052199  -0.0090036  -0.0005550   0.0001791   0.0036125
   43  -0.0277570   0.0071372  -0.0053090  -0.0035775  -0.0078558  -0.0035283
   44  -0.0141097   0.0020956   0.0055137   0.0028740   0.0025482  -0.0039603
   45   0.0191857  -0.0046854   0.0088186   0.0018198   0.0070526  -0.0014007
   46   0.0051664  -0.0010341   0.0003843  -0.0066045  -0.0305341   0.0232167
   47   0.0059118  -0.0011334   0.0004649  -0.0078235  -0.0356526   0.0271321
   48  -0.0121664   0.0023662  -0.0010589   0.0159848   0.0687791  -0.0527420
   49  -0.0702862   0.0111007  -0.0028334   0.0766752   0.4126296  -0.3218755
   50   0.0082727   0.0283452  -0.0691038  -0.0515558  -0.0990747   0.0061179
   51   0.0765194  -0.0183673  -0.2241326  -0.0033805   0.0138393   0.0021206
   52  -0.1802306   0.0215541  -0.0968962   0.0036967   0.0351405  -0.0261603
   53   0.0017501   0.0252543  -0.0689339  -0.0788541  -0.1690100   0.0370788
   54   0.0609252  -0.0139533  -0.2403524   0.0083882   0.0048168   0.0132981
   55  -0.1331249   0.0176047  -0.1031240  -0.0018500   0.1020968  -0.0798341
   56  -0.0042169   0.0006081   0.0117191   0.0004227  -0.0018384   0.0000153
   57   0.0013338   0.0001130   0.0058531   0.0005876  -0.0068415   0.0034569
   58  -0.0053411   0.0008497   0.0073731   0.0004945   0.0055395  -0.0042424
   59   0.0053620  -0.0005513   0.0095029  -0.0010459  -0.0015107   0.0010260
   60   0.0012351  -0.0012641   0.0135402   0.0013053   0.0027347   0.0003607
   61   0.0001225   0.0007458  -0.0001109  -0.0001467  -0.0106757  -0.0097675
   62  -0.0000025   0.0010471  -0.0000159  -0.0002184  -0.0118996  -0.0110873
   63   0.0007432  -0.0031687  -0.0009466   0.0008127   0.0188359   0.0196997
   64  -0.0098087  -0.0010037   0.0073135  -0.0004381   0.1696764   0.1451727
   65   0.0639195   0.3696874   0.0086505  -0.1034012   0.0441250   0.0047094
   66  -0.0744269   0.3711182  -0.0152228   0.2813387  -0.0047626  -0.0107214
   67  -0.1853859  -0.2533075  -0.0156093   0.2543616  -0.0030190   0.0292084
   68   0.0459616   0.2601127   0.0077848  -0.1078691   0.0925420   0.0302487
   69  -0.0558797   0.2573331  -0.0172047   0.2929705  -0.0205586  -0.0268332
   70  -0.1321471  -0.1755966  -0.0110496   0.2628177   0.0217312   0.0612521
   71  -0.0043746   0.0049678  -0.0000296  -0.0029263  -0.0038830  -0.0038145
   72  -0.0006066   0.0128930  -0.0002932  -0.0012084  -0.0043539  -0.0029251
   73  -0.0095271  -0.0104790   0.0005364  -0.0056147   0.0018184   0.0021979
   74  -0.0038190   0.0028583   0.0002758  -0.0006822   0.0055159   0.0047371
   75   0.0000831   0.0152613   0.0000421  -0.0015709   0.0014453  -0.0000783
   76   0.0056457   0.0149981  -0.0003734  -0.0044527  -0.0402480  -0.0103499
   77   0.0063934   0.0177617  -0.0002730  -0.0057370  -0.0475487  -0.0116574
   78  -0.0100495  -0.0393707  -0.0007326   0.0162517   0.0981219   0.0180470
   79  -0.0744578  -0.1350174   0.0099076   0.0120140   0.4754050   0.1831304
   80  -0.0834277   0.1860710   0.0039225  -0.0445585   0.0535064   0.0066690
   81   0.2450308   0.0636972   0.0014831   0.1568843  -0.0836158  -0.0406068
   82   0.0334532   0.0129862  -0.0013331   0.1354819   0.0257168   0.0912085
   83  -0.0627227   0.1593145  -0.0024975  -0.0499166   0.0826009   0.0499023
   84   0.1967481   0.0520523  -0.0151148   0.1725991  -0.1304535  -0.0599723
   85   0.0266217   0.0142095  -0.0045668   0.1354505   0.0424427   0.1164738
   86   0.0028006  -0.0048094  -0.0015753   0.0136330  -0.0013724   0.0044320
   87   0.0057619  -0.0033216  -0.0005122   0.0046214  -0.0040246  -0.0036012
   88   0.0039039   0.0020901  -0.0006745   0.0044370  -0.0039161  -0.0020450
   89  -0.0034438   0.0052112  -0.0015842   0.0144420   0.0050974  -0.0043667
   90   0.0093693   0.0019888  -0.0004866  -0.0090573  -0.0000653   0.0037825
[...]
   62  -0.0000011  -0.0000006  -0.0000010  -0.0000005  -0.0000452  -0.0065143
   63  -0.0000049  -0.0000027  -0.0000044  -0.0000022  -0.0001944  -0.0113458
   64   0.0000020   0.0000010   0.0000019   0.0000012  -0.0013962  -0.0349197
   65  -0.0000203  -0.0000132  -0.0000067  -0.0000069   0.0004935  -0.0061952
   66   0.0000043  -0.0000091  -0.0000063  -0.0000158  -0.0008325   0.0083410
   67   0.0000087   0.0000012  -0.0000112  -0.0000083  -0.0015456  -0.0077703
   68  -0.0000032  -0.0000043   0.0000047  -0.0000005  -0.0045353  -0.0443038
   69   0.0000026  -0.0000064  -0.0000024  -0.0000104   0.0076970   0.0520037
   70   0.0000091   0.0000039  -0.0000048  -0.0000026  -0.0072362  -0.0548908
   71   0.0000010   0.0000013   0.0000038   0.0000025   0.0001654   0.0132812
   72   0.0000008   0.0000021  -0.0000000   0.0000021   0.0000657   0.0145786
   73  -0.0000036  -0.0000016   0.0000000  -0.0000002   0.0003039  -0.0010364
   74   0.0000006   0.0000015   0.0000000   0.0000015  -0.0001979  -0.0152682
   75   0.0000037   0.0000028   0.0000027   0.0000029   0.0000142  -0.0001391
   76   0.0000041   0.0000045   0.0000018   0.0000043  -0.0000332  -0.0273943
   77  -0.0000047  -0.0000071  -0.0000024  -0.0000068   0.0000570  -0.0314999
   78  -0.0000202  -0.0000344  -0.0000085  -0.0000326   0.0000859  -0.0427605
   79   0.0000026  -0.0001106   0.0000093  -0.0000995  -0.0077412  -0.0735085
   80  -0.0000258  -0.0000566  -0.0000230  -0.0000586   0.0001698   0.0103510
   81   0.0000009   0.0000082   0.0000782   0.0000357  -0.0006832   0.0297139
   82  -0.0000928  -0.0000074  -0.0000673   0.0000079  -0.0003446  -0.0123832
   83   0.0000176  -0.0007277  -0.0000216  -0.0006270   0.0128699   0.0584952
   84   0.0000169   0.0000888  -0.0000194   0.0002596   0.0340675   0.0931773
   85   0.0000128   0.0000542   0.0000029   0.0001468  -0.0148121  -0.0398130
   86   0.0000006   0.0000042  -0.0000357   0.0000123  -0.0020440  -0.0183303
   87  -0.0000136  -0.0000028  -0.0000144  -0.0000109   0.0025090   0.0153179
   88  -0.0000036   0.0000148   0.0000036   0.0000100   0.0013468   0.0127313
   89   0.0000409   0.0000064   0.0000311   0.0000090   0.0006797   0.0032743
   90   0.0000139  -0.0000163  -0.0000128  -0.0000071   0.0028705   0.0057935
   91  -0.0002158  -0.0045033  -0.0002676  -0.0049670   0.0000277  -0.0010916
   92  -0.0031143  -0.0303747  -0.0033725  -0.0320636  -0.0010249  -0.0115855
   93  -0.3017577  -0.9236760  -0.3027759  -0.9245836  -0.0000008   0.0000057
   94  -0.3672462  -0.9285361  -0.3683212  -0.9293972   0.0000010  -0.0000078
   95  -0.4465213  -0.8108605  -0.4472137  -0.8112545   0.0000042  -0.0000427
   96  -0.3989600  -0.6359240  -0.3991926  -0.6358580  -0.0000044  -0.0003213
   97  -0.1957285  -0.1201198  -0.0477514  -0.0216311  -0.0000060   0.0000861
   98  -0.2840994  -0.1936041   0.1936749   0.1247620  -0.0000010  -0.0000283
   99   0.0364845   0.0257870   0.2838881   0.1906911   0.0000007  -0.0000276
  100  -0.1663818  -0.0432646  -0.0402728   0.0199889   0.0000536   0.0016626
  101  -0.2420043  -0.1355227   0.1649112   0.0684455   0.0000063   0.0002592
  102   0.0307274   0.0178512   0.2411557   0.1237928  -0.0000190  -0.0003949
  103  -0.0465558  -0.0494964   0.0062818   0.0096158   0.0000037  -0.0000174
  104   0.0088617   0.0108954  -0.0470995  -0.0551494  -0.0000081   0.0000207
  105   0.0291538   0.0373097  -0.0304381  -0.0334524  -0.0000009   0.0000216
  106   0.0064663   0.0083786   0.0100258   0.0108247   0.0000123  -0.0000234
  107   0.0202891   0.0201432   0.0145527   0.0112825  -0.0000006  -0.0000247
  108  -0.0000002   0.0000005   0.0000009   0.0000012  -0.2996178  -0.9213406
  109   0.0000004  -0.0000005  -0.0000011  -0.0000015  -0.3646067  -0.9251943
  110   0.0000018  -0.0000028  -0.0000059  -0.0000073  -0.4423817  -0.8040312
  111   0.0000027  -0.0000023   0.0000084  -0.0000061  -0.3946824  -0.6284462
  112   0.0000061  -0.0000008  -0.0000157  -0.0000103  -0.2235356  -0.1532607
  113  -0.0000016  -0.0000061   0.0000234   0.0000050   0.2568996   0.1642712
  114  -0.0000040   0.0000007  -0.0000086  -0.0000005   0.0393904   0.0314511
  115   0.0000013  -0.0000362   0.0000415  -0.0000711  -0.1901923  -0.1103564
  116   0.0000052  -0.0000042   0.0000118   0.0000079   0.2180219   0.0782894
  117   0.0000006   0.0000083  -0.0000088   0.0000271   0.0339605   0.0422701
  118  -0.0000011   0.0000012   0.0000005   0.0000021   0.0484689   0.0569519
  119  -0.0000009  -0.0000005   0.0000015   0.0000007  -0.0092051  -0.0064566
  120   0.0000018  -0.0000013  -0.0000034  -0.0000049   0.0268776   0.0311825
  121   0.0000008   0.0000004   0.0000034   0.0000011   0.0085737   0.0124499
  122   0.0000018   0.0000011   0.0000051   0.0000033   0.0046085   0.0059339
  123   0.0000899  -0.0001145   0.0000898  -0.0000954  -0.0039416  -0.0497113
  124  -0.0000270  -0.0049390  -0.0000030  -0.0045801  -0.0522174  -0.1125544
  125  -0.0561754  -0.1864579  -0.0552869  -0.1854503   0.0000083  -0.0000145
  126  -0.1863334  -0.3483637  -0.1853418  -0.3475736  -0.0000003  -0.0002117
  127  -0.1046975  -0.4640128  -0.0620796  -0.1929645   0.0000012  -0.0000115
  128  -0.4640128  -0.4681346  -0.1929848  -0.3540023  -0.0000005  -0.0000233
  129  -0.0620796  -0.1929848  -0.1042499  -0.4638319  -0.0000079   0.0000426
  130  -0.1929645  -0.3540023  -0.4638319  -0.4679332  -0.0000031  -0.0000757
  131   0.0000012  -0.0000005  -0.0000079  -0.0000031  -0.0950544  -0.4580230
  132  -0.0000115  -0.0000233   0.0000426  -0.0000757  -0.4580230  -0.4613856
  133  -0.0000028   0.0000023   0.0000063   0.0000072  -0.0559487  -0.1846529
  134  -0.0000003   0.0000025   0.0000047   0.0000052  -0.1847155  -0.3436135
  135   0.0000001  -0.0000025  -0.0000032  -0.0000044  -0.0606361  -0.1901913
  136   0.0000057   0.0000005   0.0000085   0.0000010  -0.1902049  -0.3500284
          133         134         135         136
    1  -0.0003570  -0.1196823  -0.0003282  -0.1169760
    2  -0.0008575  -0.1338758  -0.0008165  -0.1310265
    3  -0.0213725  -0.1791042  -0.0208473  -0.1755811
    4  -0.1077462  -0.2756591  -0.1068563  -0.2747628
    5   0.0273539   0.0726272   0.0022785   0.0047970
    6   0.0342299   0.0977385   0.0155546   0.0580712
    7  -0.0250418  -0.0745933  -0.0472518  -0.1304438
    8   0.1233379   0.1282946   0.0125439   0.0241812
    9   0.1683438   0.2539707   0.0923632   0.1979874
   10  -0.1288347  -0.2222145  -0.2268573  -0.3081803
   11  -0.0315165  -0.0286397  -0.0010204  -0.0095264
   12   0.0283048   0.0609061   0.0261075   0.0588484
   13   0.0065448  -0.0048968  -0.0405495  -0.0401336
   14   0.0234682   0.0165356   0.0029586   0.0049413
   15   0.0071960   0.0163909   0.0039711   0.0134506
   16   0.0000077   0.0000037  -0.0000066  -0.0005230
   17  -0.0000100  -0.0000105   0.0000095  -0.0007222
   18  -0.0000501  -0.0000496   0.0000479  -0.0015994
   19  -0.0000147  -0.0002188  -0.0000746  -0.0054196
   20   0.0001189   0.0001144  -0.0001189   0.0019816
   21   0.0000063  -0.0000023   0.0000177  -0.0000421
   22  -0.0000085  -0.0000018   0.0000134  -0.0006302
   23  -0.0000691   0.0011459   0.0011386   0.0144301
   24  -0.0000580   0.0001528   0.0000198  -0.0007249
   25   0.0000308  -0.0000030  -0.0004237  -0.0037582
   26   0.0000415  -0.0000091  -0.0000075   0.0001857
   27  -0.0000096  -0.0000049   0.0000062  -0.0000071
   28  -0.0000027   0.0000392  -0.0000015   0.0010965
   29  -0.0000226  -0.0000076   0.0000340   0.0013236
   30   0.0000110  -0.0000616  -0.0000259  -0.0022787
   31  -0.0000031  -0.0000017   0.0000028  -0.0000080
   32   0.0000037   0.0000020  -0.0000036   0.0000040
   33   0.0000145   0.0000069  -0.0000124  -0.0000404
   34   0.0000182  -0.0001151  -0.0000440  -0.0015796
   35  -0.0000085  -0.0000016   0.0000089   0.0001317
   36   0.0000260   0.0000114  -0.0000041   0.0000109
   37   0.0000239   0.0000160  -0.0000193  -0.0000453
   38  -0.0000483   0.0008429   0.0004592   0.0062791
   39   0.0000132   0.0001405   0.0000106   0.0000456
   40  -0.0000010  -0.0001724  -0.0002235  -0.0029171
   41   0.0000122   0.0000078  -0.0000142  -0.0000049
   42  -0.0000012  -0.0000044   0.0000145  -0.0000061
   43   0.0000428   0.0000313  -0.0000388   0.0000563
   44  -0.0000068   0.0000014   0.0000046   0.0001237
   45  -0.0000220  -0.0000196   0.0000224  -0.0001219
   46   0.0000054   0.0000028  -0.0000025  -0.0000005
   47  -0.0000067  -0.0000035   0.0000035  -0.0000006
   48  -0.0000302  -0.0000154   0.0000163  -0.0000029
   49   0.0000046  -0.0000028  -0.0000009  -0.0000794
   50   0.0000891   0.0000528  -0.0000800   0.0000213
   51  -0.0000411  -0.0000270   0.0000228  -0.0000131
   52  -0.0000176  -0.0000096   0.0000117   0.0000009
   53  -0.0000194   0.0000430   0.0000037   0.0004234
   54   0.0000001   0.0000103   0.0000041   0.0000720
   55   0.0000005  -0.0000225   0.0000028  -0.0003677
   56  -0.0000121  -0.0000067   0.0000036  -0.0000009
   57   0.0000052   0.0000042  -0.0000008   0.0000041
   58  -0.0000080  -0.0000050   0.0000051   0.0000024
   59  -0.0000039  -0.0000035   0.0000009   0.0000217
   60   0.0000193   0.0000104  -0.0000098  -0.0000163
   61  -0.0000699  -0.0395086   0.0000372  -0.0060322
   62   0.0000924  -0.0449986  -0.0000364  -0.0072510
   63   0.0000408  -0.0576634  -0.0001548  -0.0124028
   64  -0.0110374  -0.0863772  -0.0015788  -0.0366565
   65   0.0000924   0.0023299  -0.0004696  -0.0048925
   66  -0.0000269   0.0291085   0.0016229   0.0049274
   67  -0.0000202  -0.0301434   0.0008130  -0.0119972
   68   0.0057942  -0.0227291  -0.0035171  -0.0370408
   69   0.0350708   0.0769154   0.0051834   0.0337136
   70  -0.0351782  -0.0921048  -0.0108688  -0.0745364
   71  -0.0013981   0.0094137  -0.0000371   0.0072137
   72   0.0062543   0.0296546   0.0000299   0.0123680
   73  -0.0015745  -0.0115114  -0.0003565  -0.0128375
   74   0.0013375  -0.0153829  -0.0001534  -0.0169797
   75   0.0030036   0.0057329  -0.0002470  -0.0031195
   76   0.0000665  -0.0024955  -0.0000368  -0.0254568
   77  -0.0000901  -0.0031404   0.0000602  -0.0293451
   78  -0.0003880  -0.0059863   0.0001304  -0.0400815
   79  -0.0005464  -0.0233007  -0.0071476  -0.0698430
   80   0.0005895   0.0057162  -0.0002073   0.0159702
   81   0.0007298   0.0041960   0.0004631   0.0140588
   82  -0.0005967  -0.0021098   0.0006923  -0.0237859
   83   0.0047989   0.0564673   0.0187699   0.0729783
   84   0.0035299   0.0377462   0.0168187   0.0567224
   85  -0.0017963  -0.0170115  -0.0274874  -0.0669531
   86   0.0002896  -0.0109854  -0.0013099  -0.0149861
   87  -0.0002116   0.0029070   0.0023360   0.0153179
   88   0.0000247   0.0065737  -0.0016487  -0.0004164
   89  -0.0003734   0.0040773   0.0026926   0.0145898
   90  -0.0001845  -0.0057077  -0.0002909  -0.0089471
   91   0.0000875   0.0000254  -0.0000559  -0.0001553
   92   0.0001847  -0.0010978  -0.0003215  -0.0048810
   93   0.0000026   0.0000020  -0.0000021   0.0000018
   94  -0.0000033  -0.0000025   0.0000027  -0.0000027
   95  -0.0000153  -0.0000116   0.0000131  -0.0000134
   96  -0.0000005  -0.0000012   0.0000007  -0.0000321
   97   0.0000296   0.0000222  -0.0000257   0.0000302
   98  -0.0000094  -0.0000063   0.0000077  -0.0000059
   99  -0.0000042  -0.0000034   0.0000022  -0.0000091
  100   0.0000038   0.0000141  -0.0000040   0.0002174
  101   0.0000029   0.0000014  -0.0000003  -0.0000117
  102  -0.0000038  -0.0000035   0.0000009  -0.0000837
  103  -0.0000049  -0.0000020   0.0000012   0.0000046
  104  -0.0000017  -0.0000007   0.0000013   0.0000029
  105   0.0000059   0.0000036  -0.0000035   0.0000040
  106  -0.0000007  -0.0000017   0.0000006  -0.0000052
  107  -0.0000032  -0.0000015   0.0000014  -0.0000044
  108  -0.3093320  -0.9299467  -0.3000363  -0.9217087
  109  -0.3748282  -0.9333609  -0.3650396  -0.9255517
  110  -0.4483599  -0.8078716  -0.4426252  -0.8043066
  111  -0.3951218  -0.6249178  -0.3946436  -0.6281765
  112   0.3203947   0.2096889  -0.0549285  -0.0409948
  113   0.1169955   0.0713375  -0.1355214  -0.0968530
  114   0.0217107   0.0199090  -0.3099670  -0.2008881
  115   0.2670480   0.1207808  -0.0467672  -0.0384646
  116   0.0977886   0.0203181  -0.1154768  -0.0855851
  117   0.0178664   0.0347136  -0.2629523  -0.1040684
  118  -0.0280588  -0.0383183  -0.0070260  -0.0108096
  119  -0.0018614   0.0033595  -0.0361630  -0.0394144
  120   0.0250967   0.0322868  -0.0396223  -0.0477069
  121  -0.0059717  -0.0088065  -0.0153505  -0.0180911
  122  -0.0340361  -0.0446204   0.0071459   0.0110881
  123  -0.0001302  -0.0035788  -0.0022062  -0.0392922
  124  -0.0042028  -0.0366883  -0.0417990  -0.0999332
  125   0.0000051   0.0000026  -0.0000032  -0.0000053
  126   0.0000058   0.0000043  -0.0000052  -0.0000225
  127  -0.0000028  -0.0000003   0.0000001   0.0000057
  128   0.0000023   0.0000025  -0.0000025   0.0000005
  129   0.0000063   0.0000047  -0.0000032   0.0000085
  130   0.0000072   0.0000052  -0.0000044   0.0000010
  131  -0.0559487  -0.1847155  -0.0606361  -0.1902049
  132  -0.1846529  -0.3436135  -0.1901913  -0.3500284
  133  -0.0866285  -0.4522767  -0.0565193  -0.1852880
  134  -0.4522767  -0.4502766  -0.1853562  -0.3440613
  135  -0.0565193  -0.1853562  -0.0946823  -0.4576806
  136  -0.1852880  -0.3440613  -0.4576806  -0.4601959
 SCF time:   CPU 95.39s  wall 14.00s 
<S^2> =          0.000000000
 SCF   energy in the final basis set =     -458.1452370318
 Total energy in the final basis set =     -458.1452370318
 
 --------------------------------------------------------------
 
                    Orbital Energies (a.u.)
 --------------------------------------------------------------
 
 Alpha MOs
 -- Occupied --
-19.1956 -19.1736 -19.1558 -19.1176 -10.3410 -10.3106 -10.2056 -10.1935
 -1.1281  -1.0907  -1.0350  -1.0100  -0.7769  -0.7508  -0.6360  -0.6108
 -0.5260  -0.5041  -0.4934  -0.4887  -0.4666  -0.4578  -0.4288  -0.4161
 -0.4074  -0.4019  -0.3887  -0.3708  -0.3385  -0.3142  -0.3025  -0.2654
 -- Virtual --
 -0.0104   0.0166   0.1030   0.1188   0.1276   0.1482   0.1666   0.1690
  0.1786   0.1897   0.2033   0.2234   0.2672   0.3140   0.3494   0.3669
  0.4408   0.4589   0.4739   0.4945   0.5040   0.5128   0.5174   0.5272
  0.5392   0.5474   0.6090   0.6612   0.7196   0.7259   0.7937   0.8597
  0.8679   0.8838   0.8949   0.9239   0.9362   0.9484   0.9528   0.9596
  0.9842   1.0218   1.0602   1.0849   1.0927   1.1043   1.1419   1.1658
  1.2121   1.2717   1.3513   1.3634   1.3770   1.3882   1.4410   1.4830
  1.6250   1.6697   1.6925   1.7023   1.7085   1.7527   1.7709   1.7859
  1.8011   1.8145   1.8536   1.8619   1.9019   1.9466   1.9492   1.9649
  1.9790   2.0255   2.0424   2.0559   2.1609   2.1656   2.1793   2.1973
  2.2974   2.3362   2.4308   2.4488   2.4713   2.5572   2.6185   2.6487
  2.6828   2.7002   2.7971   2.8414   2.9067   2.9358   3.0591   3.1020
 13.3450  13.3729  13.7688  13.7906  25.1507  25.2296  25.3036  25.3428
 
 Beta MOs
 -- Occupied --
-19.1956 -19.1736 -19.1558 -19.1176 -10.3410 -10.3106 -10.2056 -10.1935
 -1.1281  -1.0907  -1.0350  -1.0100  -0.7769  -0.7508  -0.6360  -0.6108
 -0.5260  -0.5041  -0.4934  -0.4887  -0.4666  -0.4578  -0.4288  -0.4161
 -0.4074  -0.4019  -0.3887  -0.3708  -0.3385  -0.3142  -0.3025  -0.2654
 -- Virtual --
 -0.0104   0.0166   0.1030   0.1188   0.1276   0.1482   0.1666   0.1690
  0.1786   0.1897   0.2033   0.2234   0.2672   0.3140   0.3494   0.3669
  0.4408   0.4589   0.4739   0.4945   0.5040   0.5128   0.5174   0.5272
  0.5392   0.5474   0.6090   0.6612   0.7196   0.7259   0.7937   0.8597
  0.8679   0.8838   0.8949   0.9239   0.9362   0.9484   0.9528   0.9596
  0.9842   1.0218   1.0602   1.0849   1.0927   1.1043   1.1419   1.1658
  1.2121   1.2717   1.3513   1.3634   1.3770   1.3882   1.4410   1.4830
  1.6250   1.6697   1.6925   1.7023   1.7085   1.7527   1.7709   1.7859
  1.8011   1.8145   1.8536   1.8619   1.9019   1.9466   1.9492   1.9649
  1.9790   2.0255   2.0424   2.0559   2.1609   2.1656   2.1793   2.1973
  2.2974   2.3362   2.4308   2.4488   2.4713   2.5572   2.6185   2.6487
  2.6828   2.7002   2.7971   2.8414   2.9067   2.9358   3.0591   3.1020
 13.3450  13.3729  13.7688  13.7906  25.1507  25.2296  25.3036  25.3428
 --------------------------------------------------------------
 
          Ground-State Mulliken Net Atomic Charges

     Atom                 Charge (a.u.)    Spin (a.u.)
  --------------------------------------------------------
      1 C                     0.442095       0.000000
      2 O                    -0.403081      -0.000000
      3 C                     0.461024       0.000000
      4 O                    -0.515071      -0.000000
      5 O                    -0.311431       0.000000
      6 O                    -0.578388      -0.000000
      7 H                     0.438486       0.000000
      8 C                    -0.627773      -0.000000
      9 C                    -0.690363      -0.000000
     10 H                     0.443643      -0.000000
     11 H                     0.224706      -0.000000
     12 H                     0.228607      -0.000000
     13 H                     0.226565       0.000000
     14 H                     0.213543       0.000000
     15 H                     0.229992       0.000000
     16 H                     0.217446       0.000000
  --------------------------------------------------------
  Sum of atomic charges =    -0.000000
  Sum of spin   charges =    -0.000000

  Building new vdw surfaces
         Merz-Kollman RESP Net Atomic Charges

     Atom                 Charge (a.u.)
  ----------------------------------------
      1 C                     0.754900
      2 O                    -0.494071
      3 C                     0.754900
      4 O                    -0.494071
      5 O                    -0.477574
      6 O                    -0.607375
      7 H                     0.383206
      8 C                    -0.715178
      9 C                    -0.715178
     10 H                     0.383206
     11 H                     0.204539
     12 H                     0.204539
     13 H                     0.204539
     14 H                     0.204539
     15 H                     0.204539
     16 H                     0.204539
  ----------------------------------------
  Sum of atomic charges =     0.000000

  Related Dipole Moment =     4.1185 (X  3.1715 Y -2.1059 Z  1.5714)

 -----------------------------------------------------------------
                    Cartesian Multipole Moments
 -----------------------------------------------------------------
    Charge (ESU x 10^10)
                 0.0000
    Dipole Moment (Debye)
         X       3.3881      Y      -1.9062      Z       1.4111
       Tot       4.1357
    Quadrupole Moments (Debye-Ang)
        XX     -52.2007     XY       7.1338     YY     -49.2857
        XZ      -6.6005     YZ       2.0843     ZZ     -47.5313
    Octopole Moments (Debye-Ang^2)
       XXX     182.8690    XXY     -53.5485    XYY      50.6712
       YYY     -80.7289    XXZ       7.2241    XYZ      -3.5546
       YYZ     -18.5307    XZZ      31.6406    YZZ     -24.9126
       ZZZ     -60.0936
    Hexadecapole Moments (Debye-Ang^3)
      XXXX   -1909.1005   XXXY     236.1384   XXYY    -358.1470
      XYYY     131.0807   YYYY    -235.7741   XXXZ      16.6102
      XXYZ      21.4628   XYYZ      31.6470   YYYZ       8.6855
      XXZZ    -311.8488   XYZZ      30.7297   YYZZ     -79.9299
      XZZZ      93.9502   YZZZ      12.1546   ZZZZ    -254.3498
 -----------------------------------------------------------------
 Total job time:  15.11s(wall), 121.72s(cpu) 
 Mon Jun 27 10:10:13 2022

        *************************************************************
        *                                                           *
        *  Thank you very much for using Q-Chem.  Have a nice day.  *
        *                                                           *
        *************************************************************


remove work dirs /tmp/qchem5012.0 -- /tmp/qchem5012.-1
rm -rf /tmp/qchem5012
