mpirun --host mc0601 -np 16 /global/project/projectdirs/jcesr/qchem/qc43/x64_qc432/dist/exe/qcprog.matgen.exe .ferrocenium_1pos.inp.26855.qcin.1 /dev/shm/eg_qchem/qchem26855/
Process 6 of 16 is on mc0601 - thread support 0
Process 4 of 16 is on mc0601 - thread support 0
Process 5 of 16 is on mc0601 - thread support 0
Process 2 of 16 is on mc0601 - thread support 0
Process 3 of 16 is on mc0601 - thread support 0
Process 15 of 16 is on mc0601 - thread support 0
Process 1 of 16 is on mc0601 - thread support 0
Process 0 of 16 is on mc0601 - thread support 0
initial socket setup ...start
initial socket setup ...done 
now start server 0 ... 
                  Welcome to Q-Chem
     A Quantum Leap Into The Future Of Chemistry


 Q-Chem 4.3, Q-Chem, Inc., Pleasanton, CA (2015)

 Y. Shao,  Z. Gan,  E. Epifanovsky,  A. T. B. Gilbert,  M. Wormit,  
 J. Kussmann,  A. W. Lange,  A. Behn,  J. Deng,  X. Feng,  D. Ghosh,  
 M. Goldey,  P. R. Horn,  L. D. Jacobson,  I. Kaliman,  R. Z. Khaliullin,  
 T. Kus,  A. Landau,  J. Liu,  E. I. Proynov,  Y. M. Rhee,  R. M. Richard,  
 M. A. Rohrdanz,  R. P. Steele,  E. J. Sundstrom,  H. L. Woodcock III,  
 P. M. Zimmerman,  D. Zuev,  B. Albrecht,  E. Alguire,  B. Austin,  
 S. A. Baeppler,  G. J. O. Beran,  Y. A. Bernard,  E. Berquist,  
 K. Brandhorst,  K. B. Bravaya,  S. T. Brown,  D. Casanova,  C.-M. Chang,  
 Y. Chen,  S. H. Chien,  K. D. Closser,  D. L. Crittenden,  M. Diedenhofen,  
 R. A. DiStasio Jr.,  H. Do,  A. D. Dutoi,  R. G. Edgar,  P.-T. Fang,  
 S. Fatehi,  Q. Feng,  L. Fusti-Molnar,  A. Ghysels,  
 A. Golubeva-Zadorozhnaya,  J. Gomes,  A. Gunina,  M. W. D. Hanson-Heine,  
 P. H. P. Harbach,  A. W. Hauser,  E. G. Hohenstein,  Z. C. Holden,  K. Hui,  
 T.-C. Jagau,  H. Ji,  B. Kaduk,  K. Khistyaev,  Jaehoon Kim,  Jihan Kim,  
 R. A. King,  P. Klunzinger,  D. Kosenkov,  T. Kowalczyk,  C. M. Krauter,  
 K. U. Lao,  A. Laurent,  K. V. Lawler,  S. Lehtola,  S. V. Levchenko,  
 C. Y. Lin,  Y.-S. Lin,  F. Liu,  E. Livshits,  R. C. Lochan,  A. Luenser,  
 P. Manohar,  S. F. Manzer,  S.-P. Mao,  N. Mardirossian,  A. V. Marenich,  
 L. A. Martinez-Martinez,  S. A. Maurer,  N. J. Mayhall,  K. Nanda,  
 C. M. Oana,  R. Olivares-Amaya,  D. P. O'Neill,  J. A. Parkhill,  
 T. M. Perrine,  R. Peverati,  P. A. Pieniazek,  F. Plasser,  A. Prociuk,  
 D. R. Rehn,  E. Rosta,  N. J. Russ,  N. Sergueev,  S. M. Sharada,  
 S. Sharma,  D. W. Small,  A. Sodt,  T. Stauch,  T. Stein,  D. Stuck,  
 Y.-C. Su,  A. J. W. Thom,  T. Tsuchimochi,  L. Vogt,  O. Vydrov,  T. Wang,  
 M. A. Watson,  J. Wenzel,  A. White,  C. F. Williams,  V. Vanovschi,  
 S. Yeganeh,  S. R. Yost,  Z.-Q. You,  I. Y. Zhang,  X. Zhang,  Y. Zhao,  
 B. R. Brooks,  G. K. L. Chan,  D. M. Chipman,  C. J. Cramer,  
 W. A. Goddard III,  M. S. Gordon,  W. J. Hehre,  A. Klamt,  
 H. F. Schaefer III,  M. W. Schmidt,  C. D. Sherrill,  D. G. Truhlar,  
 A. Warshel,  X. Xu,  A. Aspuru-Guzik,  R. Baer,  A. T. Bell,  N. A. Besley,  
 J.-D. Chai,  A. Dreuw,  B. D. Dunietz,  T. R. Furlani,  S. R. Gwaltney,  
 C.-P. Hsu,  Y. Jung,  J. Kong,  D. S. Lambrecht,  W. Liang,  C. Ochsenfeld,  
 V. A. Rassolov,  L. V. Slipchenko,  J. E. Subotnik,  T. Van Voorhis,  
 J. M. Herbert,  A. I. Krylov,  P. M. W. Gill,  M. Head-Gordon

 Contributors to earlier versions of Q-Chem not listed above: 
 R. D. Adamson,  J. Baker,  E. F. C. Byrd,  A. K. Chakraborty,  C.-L. Cheng,  
 H. Dachsel,  R. J. Doerksen,  G. Hawkins,  A. Heyden,  S. Hirata,  
 G. Kedziora,  F. J. Keil,  C. Kelley,  P. P. Korambath,  W. Kurlancheek,  
 A. M. Lee,  M. S. Lee,  D. Liotard,  I. Lotan,  P. E. Maslen,  N. Nair,  
 D. Neuhauser,  R. Olson,  B. Peters,  J. Ritchie,  N. E. Schultz,  
 N. Shenvi,  A. C. Simmonett,  K. S. Thanthiriwatte,  Q. Wu,  W. Zhang

 Please cite Q-Chem as follows:
 Y. Shao et al., Mol. Phys. 113, 184-215 (2015)
 DOI: 10.1080/00268976.2014.952696

 Q-Chem 4.3.0 for Intel X86 EM64T Linux

 Parts of Q-Chem use Armadillo 5.200.1 (Boston Tea Smuggler).
 http://arma.sourceforge.net/

 Q-Chem begins on Sun Dec 20 13:31:31 2015  

Host: mc0601
0

     Scratch files written to /dev/shm/eg_qchem/qchem26855.0//
 Parallel job on  16  processors

Checking the input file for inconsistencies... 	...done.

--------------------------------------------------------------
User input:
--------------------------------------------------------------
$comment
<SCF Fix Strategy>{
    "current_method_id": 0, 
    "methods": [
        "increase_iter", 
        "diis_gdm", 
        "gwh", 
        "rca", 
        "gdm", 
        "core+gdm", 
        "fon"
    ], 
    "version": 2.0
}</SCF Fix Strategy>
$end


$molecule
 1  2
 C          -1.78782000        0.89862000       -0.83911000
 H          -1.89926000        1.67998000       -1.56871000
 C          -1.78783000       -0.52035000       -1.11393000
 H          -1.89926000       -0.97280000       -2.08249000
 C          -1.78782000       -1.22022000        0.15067000
 H          -1.89925000       -2.28120000        0.28167000
 C          -1.78780000       -0.23378000        1.20707000
 H          -1.89922000       -0.43706000        2.25661000
 C          -1.78782000        1.07573000        0.59534000
 H          -1.89923000        2.01108000        1.11299000
 C           1.78783000        1.07578000        0.59526000
 H           1.89933000        2.01116000        1.11283000
 C           1.78784000       -0.23370000        1.20705000
 H           1.89934000       -0.43688000        2.25659000
 C           1.78781000       -1.22021000        0.15074000
 H           1.89930000       -2.28118000        0.28180000
 C           1.78780000       -0.52044000       -1.11392000
 H           1.89925000       -0.97296000       -2.08245000
 C           1.78779000        0.89857000       -0.83918000
 H           1.89926000        1.67986000       -1.56884000
 Fe         -0.00000000        0.00000000        0.00000000
$end


$rem
         jobtype = opt
        exchange = b3lyp
           basis = gen
           dft_d = empirical_grimme3
    dft_d3_3body = True
             ecp = gen
  max_scf_cycles = 200
      mem_static = 100
       mem_total = 1600
   scf_algorithm = diis
       scf_guess = sad
$end


$basis
 C
 6-31+g*
 ****
 Fe
 srsc
 ****
 H
 6-31+g*
 ****
$end


$ecp
 Fe
 srsc
 ****
$end


--------------------------------------------------------------
  Adding D3 Dispersion Correction
 ----------------------------------------------------------------
             Standard Nuclear Orientation (Angstroms)
    I     Atom           X                Y                Z
 ----------------------------------------------------------------
    1      C       1.7878203377     0.9586193024     0.7698541990
    2      H       1.8992593633     1.7921476162     1.4392347910
    3      C       1.7878306067    -0.4359421292     1.1495913536
    4      H       1.8992598662    -0.8150002234     2.1491585611
    5      C       1.7878220526    -1.2280518214    -0.0593724228
    6      H       1.8992525694    -2.2958416248    -0.1109900645
    7      C       1.7878026773    -0.3230287508    -1.1863054622
    8      H       1.8992237372    -0.6039105626    -2.2177908676
    9      C       1.7878216174     1.0284041209    -0.6738025586
   10      H       1.8992317557     1.9226035276    -1.2596767220
   11      C      -1.7878283827     1.0284583667    -0.6737297503
   12      H      -1.8993282445     1.9226935501    -1.2595265725
   13      C      -1.7878373227    -0.3229490569    -1.1862947216
   14      H      -1.8993362629    -0.6037312446    -2.2177877770
   15      C      -1.7878079473    -1.2280486360    -0.0594462188
   16      H      -1.8992974305    -2.2958330339    -0.1111246410
   17      C      -1.7877993933    -0.4360341976     1.1495848386
   18      H      -1.8992501337    -0.8151644297     2.1491271405
   19      C      -1.7877896624     0.9585730812     0.7699244828
   20      H      -1.8992606368     1.7920359598     1.4393699192
   21      Fe      0.0000014583    -0.0000000465    -0.0000006233
 ----------------------------------------------------------------
 Molecular Point Group                 C1    NOp =  1
 Largest Abelian Subgroup              C1    NOp =  1
 Nuclear Repulsion Energy =   714.5898619091 hartrees
 There are       43 alpha and       42 beta electrons

 Q-Chem warning in module /project/projectdirs/jcesr/qchem/qc43/cnl_qc432/compile/mendle/qc_src_4.3.2/forms1/BasisType.C, line 1419:

 Setting pure/cartesian flag to 2111 for general basis


 Requested basis set is non-standard
 There are 84 shells and 236 basis functions

 Total QAlloc Memory Limit   1600 MB
 Mega-Array Size        98 MB
 MEM_STATIC part       100 MB
 tim1(1): 
  4.999999999999893E-003
 tim1(2): 
  0.000000000000000E+000
 A cutoff of  1.0D-11 yielded   3305 shell pairs
 There are     27306 function pairs (     30350 Cartesian)
 
 -------------------------------------------------------
 OpenMP Integral Computing Module                       
 Release: version 1.0, May 2013, Q-Chem Inc. Pittsburgh 
 -------------------------------------------------------
 Integral Job Info:
 Integral job number is                      11
 Integral operator is                         1
 short-range coefficients                     0
 long-range coefficients              100000000
 Omega coefficients                           0
 if combine SR and LR in K                    0
 Integral screening is                        0
 Integral computing path is                   2
 max size of driver memory is            800000
 size of driver memory is                593474
 size of scratch memory is             29522520
 max col of scratch BK array               1296
 max len of scratch array in speh3          155
 max len of scratch index in speh4           18
 max int batch size is                      520
 min int batch size is                       52
 fixed nKL is                                45
 max L of basis functions is                  2
 order of int derivative is                   0
 number of shells is                         84
 number of basis is                         249
 number of cartesian basis is               249
 number of contracted shell pairs          3305
 number of primitive shell pairs           9792
 maxK2 (contraction) of shell pair           36
 max number of K2 of shell pair               1
 max number of CS2 of shell pair            360
 max number of PS2 of shell pair           1320
 mem total for path MDJ                   66552
 -------------------------------------------------------
 Requested basis set is non-standard
 Compound shells will be simplified
 There are 114 shells and 236 basis functions
 tim1(1): 
  3.999000000000086E-003
 tim1(2): 
  0.000000000000000E+000
 A cutoff of  1.0D-11 yielded   6230 shell pairs
 There are     27216 function pairs (     30260 Cartesian)
 Smallest overlap matrix eigenvalue = 1.35E-05

 Scale SEOQF with 1.000000e-01/1.000000e-01/1.000000e-01

 Standard Electronic Orientation quadrupole field applied
 Nucleus-field energy     =     0.0000000056 hartrees
 Guess MOs from core Hamiltonian diagonalization
 An unrestricted hybrid HF-DFT SCF calculation will be
 performed using Pulay DIIS extrapolation
 Exchange:     0.2000 Hartree-Fock + 0.0800 Slater + 0.7200 B88
 Correlation:  0.1900 VWN1RPA + 0.8100 LYP
 Using SG-1 standard quadrature grid
 SCF converges when DIIS error is below 1.0E-08
 ---------------------------------------
  Cycle       Energy         DIIS Error
 ---------------------------------------
    1    -352.7449459193      1.09E-01
 Inaccurate integrated density:
   Number of electrons =    85
   Numerical integral  =    84.706536443826
   Relative error      =    -0.3452512426 %
    2    -291.6154569786      8.00E-02
    3    -437.6502205116      1.07E-01
    4    -451.7905079722      9.81E-02
    5    -483.0861246934      6.65E-02
    6    -495.7527114180      4.71E-02
    7    -498.9896920802      3.89E-02
    8    -498.1642699367      3.68E-02
    9    -506.3981716587      2.19E-02
   10    -504.9763821055      3.15E-02
   11    -509.8795853533      1.10E-02
   12    -506.3493622337      3.17E-02
   13    -508.7370404256      2.25E-02
   14    -508.6651264576      2.30E-02
   15    -508.6609318729      2.30E-02
   16    -508.7030191649      2.28E-02
   17    -508.7818558834      2.24E-02
   18    -510.6401389718      4.98E-03
   19    -510.7745731664      1.10E-03
   20    -510.7825808906      5.98E-04
   21    -510.7859921425      2.70E-04
   22    -510.7867462828      8.41E-05
   23    -510.7870131718      3.99E-05
   24    -510.7871734837      1.50E-05
   25    -510.7872319749      2.00E-05
   26    -510.7872709251      1.82E-05
   27    -510.7872857400      1.06E-05
   28    -510.7872988447      3.09E-06
   29    -510.7873023623      2.91E-06
   30    -510.7873052383      2.31E-06
   31    -510.7873065363      1.56E-06
   32    -510.7873072688      1.88E-06
   33    -510.7873078698      1.89E-06
   34    -510.7873083565      1.63E-06
   35    -510.7873081518      1.67E-06
   36    -510.7873076161      1.80E-06
   37    -510.7873070914      1.80E-06
   38    -510.7873025239      2.41E-06
   39    -510.7872969417      1.79E-06
   40    -510.7872913350      2.18E-06
   41    -510.7872913596      2.23E-06
   42    -510.7872910251      8.05E-07
   43    -510.7872907026      3.86E-07
   44    -510.7872906825      6.21E-07
   45    -510.7872906881      2.20E-07
   46    -510.7872906907      1.05E-07
   47    -510.7872906935      7.14E-08
   48    -510.7872906930      4.81E-08
   49    -510.7872906936      1.33E-08
   50    -510.7872906946      1.56E-08
   51    -510.7872906949      5.94E-09 Convergence criterion met
 ---------------------------------------
 <S^2> = 0.8303
 SCF time:  CPU 63.16 s  wall 59.89 s
 SCF   energy in the final basis set = -510.7872906949
 Total energy in the final basis set = -510.7872906949
 
 --------------------------------------------------------------
 
                    Orbital Energies (a.u.)
 --------------------------------------------------------------
 
 Alpha MOs
 -- Occupied --
-10.377 -10.377 -10.376 -10.376 -10.376 -10.376 -10.376 -10.376
-10.375 -10.375  -3.815  -2.446  -2.446  -2.438  -1.060  -1.048
 -0.886  -0.886  -0.885  -0.885  -0.721  -0.720  -0.716  -0.715
 -0.706  -0.696  -0.588  -0.588  -0.587  -0.575  -0.575  -0.557
 -0.556  -0.552  -0.552  -0.536  -0.486  -0.465  -0.464  -0.464
 -0.454  -0.421  -0.421
 -- Virtual --
 -0.253  -0.253  -0.139  -0.135  -0.126  -0.121  -0.120  -0.103
 -0.103  -0.101  -0.084  -0.084  -0.083  -0.071  -0.071  -0.049
 -0.048  -0.047  -0.047  -0.030  -0.024  -0.024  -0.022  -0.021
 -0.001  -0.001   0.011   0.011   0.018   0.018   0.027   0.027
  0.029   0.029   0.036   0.039   0.039   0.039   0.044   0.044
  0.061   0.062   0.068   0.068   0.097   0.098   0.098   0.099
  0.101   0.105   0.106   0.109   0.110   0.125   0.129   0.129
  0.138   0.150   0.151   0.155   0.155   0.159   0.219   0.219
  0.227   0.227   0.229   0.230   0.230   0.257   0.257   0.266
  0.266   0.267   0.267   0.269   0.276   0.316   0.373   0.374
  0.529   0.529   0.554   0.554   0.571   0.596   0.618   0.618
  0.627   0.627   0.650   0.656   0.657   0.662   0.662   0.679
  0.679   0.701   0.701   0.722   0.737   0.741   0.757   0.758
  0.824   0.828   0.828   0.843   0.844   0.850   0.850   0.860
  0.869   0.916   0.928   0.928   0.929   0.964   0.964   1.025
  1.038   1.039   1.047   1.048   1.083   1.083   1.106   1.176
  1.176   1.244   1.244   1.333   1.333   1.412   1.413   1.416
  1.416   1.453   1.453   1.540   1.630   1.635   1.637   1.637
  1.732   1.788   1.788   1.840   1.840   1.846   1.847   1.851
  1.851   1.916   1.916   1.937   1.944   1.944   1.991   1.991
  2.010   2.060   2.060   2.113   2.114   2.178   2.179   2.270
  2.270   2.376   2.376   2.451   2.451   2.483   2.484   2.501
  2.502   2.556   2.556   2.594   2.594   2.738   2.739   2.746
  2.747   2.761   2.774   3.042   3.286  39.706  39.706  40.209
 55.939
 
 Beta MOs
 -- Occupied --
-10.377 -10.377 -10.377 -10.377 -10.377 -10.377 -10.376 -10.376
-10.376 -10.376  -3.743  -2.392  -2.354  -2.354  -1.061  -1.049
 -0.888  -0.888  -0.887  -0.887  -0.721  -0.721  -0.717  -0.717
 -0.706  -0.697  -0.590  -0.584  -0.584  -0.576  -0.576  -0.556
 -0.555  -0.553  -0.553  -0.543  -0.444  -0.444  -0.432  -0.430
 -0.426  -0.426
 -- Virtual --
 -0.263  -0.212  -0.212  -0.137  -0.126  -0.126  -0.126  -0.110
 -0.103  -0.103  -0.101  -0.084  -0.084  -0.080  -0.071  -0.071
 -0.048  -0.048  -0.048  -0.047  -0.029  -0.024  -0.024  -0.022
 -0.022  -0.001  -0.001   0.011   0.011   0.018   0.018   0.028
  0.028   0.029   0.029   0.038   0.039   0.039   0.040   0.044
  0.044   0.061   0.061   0.067   0.067   0.097   0.097   0.098
  0.099   0.101   0.105   0.105   0.109   0.109   0.125   0.129
  0.129   0.138   0.150   0.152   0.156   0.157   0.160   0.218
  0.221   0.226   0.226   0.229   0.229   0.233   0.260   0.261
  0.265   0.265   0.267   0.269   0.269   0.275   0.320   0.372
  0.372   0.528   0.529   0.552   0.552   0.570   0.595   0.617
  0.617   0.628   0.628   0.650   0.654   0.654   0.661   0.661
  0.677   0.677   0.700   0.700   0.722   0.741   0.741   0.758
  0.758   0.824   0.828   0.828   0.843   0.843   0.851   0.851
  0.874   0.907   0.915   0.931   0.939   0.939   0.965   0.965
  1.024   1.038   1.039   1.046   1.047   1.083   1.083   1.107
  1.172   1.173   1.242   1.243   1.330   1.330   1.412   1.412
  1.414   1.414   1.453   1.453   1.537   1.628   1.637   1.638
  1.641   1.734   1.787   1.788   1.845   1.845   1.846   1.848
  1.851   1.851   1.916   1.916   1.941   1.958   1.958   1.987
  1.987   2.013   2.058   2.058   2.110   2.111   2.177   2.178
  2.266   2.266   2.389   2.389   2.450   2.450   2.481   2.481
  2.499   2.499   2.565   2.566   2.596   2.596   2.738   2.738
  2.746   2.747   2.760   2.774   3.059   3.322  39.810  39.810
 40.228  55.939
 --------------------------------------------------------------
 
          Ground-State Mulliken Net Atomic Charges

     Atom                 Charge (a.u.)    Spin (a.u.)
  --------------------------------------------------------
      1 C                    -0.039095      -0.057576
      2 H                     0.242975       0.002402
      3 C                    -0.037829      -0.048726
      4 H                     0.243433       0.002316
      5 C                    -0.034511      -0.041385
      6 H                     0.243791       0.002248
      7 C                    -0.036456      -0.045601
      8 H                     0.243542       0.002287
      9 C                    -0.039181      -0.055623
     10 H                     0.243165       0.002382
     11 C                    -0.039179      -0.055624
     12 H                     0.243166       0.002382
     13 C                    -0.036472      -0.045602
     14 H                     0.243540       0.002287
     15 C                    -0.034512      -0.041381
     16 H                     0.243791       0.002248
     17 C                    -0.037814      -0.048736
     18 H                     0.243433       0.002317
     19 C                    -0.039106      -0.057568
     20 H                     0.242972       0.002402
     21 Fe                   -1.059654       1.474550
  --------------------------------------------------------
  Sum of atomic charges =     1.000000
  Sum of spin   charges =     1.000000

 -----------------------------------------------------------------
                    Cartesian Multipole Moments
 -----------------------------------------------------------------
    Charge (ESU x 10^10)
                 4.8032
    Dipole Moment (Debye)
         X      -0.0001      Y      -0.0471      Z      -0.0118
       Tot       0.0485
    Quadrupole Moments (Debye-Ang)
        XX     -56.2840     XY      -0.0000     YY     -57.1252
        XZ       0.0003     YZ       0.0005     ZZ     -57.1200
    Octopole Moments (Debye-Ang^2)
       XXX      -0.0022    XXY      -0.0284    XYY      -0.0006
       YYY      -0.1041    XXZ      -0.0098    XYZ       0.0005
       YYZ      -0.0113    XZZ      -0.0005    YZZ      -0.0357
       ZZZ      -0.0254
    Hexadecapole Moments (Debye-Ang^3)
      XXXX   -1197.8787   XXXY      -0.0002   XXYY    -208.9590
      XYYY      -0.0002   YYYY    -339.8698   XXXZ       0.0044
      XXYZ      -0.0060   XYYZ       0.0004   YYYZ       0.0016
      XXZZ    -208.9529   XYZZ      -0.0002   YYZZ    -113.7041
      XZZZ      -0.0001   YZZZ       0.0050   ZZZZ    -339.8446
 -----------------------------------------------------------------
 Calculating analytic gradient of the SCF energy
  Adding D3 Dispersion Correction
 Gradient of SCF Energy
            1           2           3           4           5           6
    1   0.0006380   0.0057737  -0.0035333   0.0059924  -0.0071345   0.0061929
    2   0.0206256  -0.0045694  -0.0066901   0.0023789  -0.0269985   0.0060536
    3   0.0147111  -0.0037450   0.0255396  -0.0055405  -0.0009019   0.0003548
            7           8           9          10          11          12
    1  -0.0051720   0.0060771  -0.0003031   0.0056960   0.0002807  -0.0056746
    2  -0.0043695   0.0018507   0.0224444  -0.0048943   0.0224907  -0.0049108
    3  -0.0260941   0.0057520  -0.0122298   0.0034306  -0.0122134   0.0034171
           13          14          15          16          17          18
    1   0.0051437  -0.0060542   0.0071143  -0.0061711   0.0035063  -0.0059700
    2  -0.0043493   0.0018514  -0.0269087   0.0060626  -0.0066596   0.0023972
    3  -0.0260287   0.0057574  -0.0008854   0.0003640   0.0256465  -0.0055150
           19          20          21
    1  -0.0006616  -0.0057509   0.0000101
    2   0.0207301  -0.0045408  -0.0119940
    3   0.0147797  -0.0037149  -0.0028839
 Max gradient component =       2.700E-02
 RMS gradient           =       1.119E-02
 Gradient time:  CPU 5.48 s  wall 5.60 s
 Geometry Optimization Parameters
   NAtoms,    NIC,     NZ,  NCons,   NDum,   NFix, NCnnct, MaxDiis
       21     507       0       0       0       0       0       0


** GEOMETRY OPTIMIZATION IN DELOCALIZED INTERNAL COORDINATES **
   Searching for a Minimum

   Optimization Cycle:   1

                       Coordinates (Angstroms)
     ATOM                X               Y               Z
      1  C         1.7878203377    0.9586193024    0.7698541990
      2  H         1.8992593633    1.7921476162    1.4392347910
      3  C         1.7878306067   -0.4359421292    1.1495913536
      4  H         1.8992598662   -0.8150002234    2.1491585611
      5  C         1.7878220526   -1.2280518214   -0.0593724228
      6  H         1.8992525694   -2.2958416248   -0.1109900645
      7  C         1.7878026773   -0.3230287508   -1.1863054622
      8  H         1.8992237372   -0.6039105626   -2.2177908676
      9  C         1.7878216174    1.0284041209   -0.6738025586
     10  H         1.8992317557    1.9226035276   -1.2596767220
     11  C        -1.7878283827    1.0284583667   -0.6737297503
     12  H        -1.8993282445    1.9226935501   -1.2595265725
     13  C        -1.7878373227   -0.3229490569   -1.1862947216
     14  H        -1.8993362629   -0.6037312446   -2.2177877770
     15  C        -1.7878079473   -1.2280486360   -0.0594462188
     16  H        -1.8992974305   -2.2958330339   -0.1111246410
     17  C        -1.7877993933   -0.4360341976    1.1495848386
     18  H        -1.8992501337   -0.8151644297    2.1491271405
     19  C        -1.7877896624    0.9585730812    0.7699244828
     20  H        -1.8992606368    1.7920359598    1.4393699192
     21  Fe        0.0000014583   -0.0000000465   -0.0000006233
   Point Group: c1    Number of degrees of freedom:    57


   Energy is   -510.787290695


 Attempting to Generate Delocalized Internal Coordinates

 57 Hessian modes will be used to form the next step
  Hessian Eigenvalues:
     0.009439    0.009440    0.014651    0.014651    0.016911    0.018448
     0.019116    0.019117    0.019433    0.019433    0.019902    0.020198
     0.020198    0.020818    0.020819    0.020915    0.020915    0.027976
     0.027976    0.028003    0.028004    0.031544    0.031544    0.031672
     0.031672    0.036756    0.037204    0.037920    0.070115    0.070116
     0.079881    0.079882    0.089163    0.089163    0.097621    0.097621
     0.117006    0.182221    0.182221    0.188777    0.188778    0.194918
     0.223001    0.223005    0.233900    0.233903    0.288529    0.366256
     0.366260    0.366263    0.366265    0.366266    0.366269    0.366270
     0.366271    0.366272    0.366276

 Minimum Search - Taking Simple RFO Step
 Searching for Lamda that Minimizes Along All modes
 Value Taken    Lamda =  -0.01268657
 Calculated Step too Large.  Step scaled by  0.804367
 Step Taken.  Stepsize is  0.300000

                             Maximum     Tolerance    Cnvgd?
         Gradient           0.033353      0.000300      NO
         Displacement       0.233717      0.001200      NO
         Energy change     *********      0.000001      NO


 New Cartesian Coordinates Obtained by Inverse Iteration

 Displacement from previous Coordinates is:  0.309429
  Adding D3 Dispersion Correction
 ----------------------------------------------------------------
             Standard Nuclear Orientation (Angstroms)
    I     Atom           X                Y                Z
 ----------------------------------------------------------------
    1      C       1.7663222597     0.9503212108     0.7635872143
    2      H       1.8441410066     1.7903131986     1.4391320694
    3      C       1.7730262778    -0.4322327306     1.1384357066
    4      H       1.8526386713    -0.8163912218     2.1455651019
    5      C       1.7788089921    -1.2151103419    -0.0587601354
    6      H       1.8599801768    -2.2916749265    -0.1111942047
    7      C       1.7756603712    -0.3204353321    -1.1744363517
    8      H       1.8560193790    -0.6055740818    -2.2139315993
    9      C       1.7680897470     1.0191918304    -0.6682884833
   10      H       1.8468518981     1.9200419173    -1.2602931384
   11      C      -1.7680181169     1.0192186963    -0.6682049079
   12      H      -1.8469381524     1.9202479524    -1.2599379488
   13      C      -1.7757225126    -0.3203444129    -1.1745292565
   14      H      -1.8564434052    -0.6052542621    -2.2140287960
   15      C      -1.7788103366    -1.2152119100    -0.0589929399
   16      H      -1.8602906498    -2.2917430243    -0.1115051173
   17      C      -1.7728989958    -0.4324936597     1.1382666799
   18      H      -1.8525782374    -0.8167726800     2.1453450407
   19      C      -1.7661416937     0.9500922073     0.7636059554
   20      H      -1.8439351568     1.7899696511     1.4392637426
   21      Fe      0.0000291026     0.0038416867     0.0008982521
 ----------------------------------------------------------------
 Molecular Point Group                 C1    NOp =  1
 Largest Abelian Subgroup              C1    NOp =  1
 Nuclear Repulsion Energy =   720.6088696963 hartrees
 There are       43 alpha and       42 beta electrons
 Applying Cartesian multipole field
    Component          Value
    ---------          -----
     (2,0,0)        1.00000E-11
     (0,2,0)        2.00000E-11
     (0,0,2)       -3.00000E-11
 Nucleus-field energy     =     0.0000000054 hartrees
 Requested basis set is non-standard
 There are 84 shells and 236 basis functions
 tim1(1): 
  2.000000000009550E-003
 tim1(2): 
  0.000000000000000E+000
 A cutoff of  1.0D-11 yielded   3309 shell pairs
 There are     27322 function pairs (     30366 Cartesian)
 Requested basis set is non-standard
 Compound shells will be simplified
 There are 114 shells and 236 basis functions
 tim1(1): 
  4.999000000012188E-003
 tim1(2): 
  0.000000000000000E+000
 A cutoff of  1.0D-11 yielded   6242 shell pairs
 There are     27236 function pairs (     30280 Cartesian)
 Smallest overlap matrix eigenvalue = 1.24E-05
 Guess MOs from SCF MO coefficient file
 Reading MOs from coefficient file
 Reading MOs from coefficient file
 An unrestricted hybrid HF-DFT SCF calculation will be
 performed using Pulay DIIS extrapolation
 Exchange:     0.2000 Hartree-Fock + 0.0800 Slater + 0.7200 B88
 Correlation:  0.1900 VWN1RPA + 0.8100 LYP
 Using SG-1 standard quadrature grid
 SCF converges when DIIS error is below 1.0E-08
Geometry optimization detected.  Setting ReadMinima to 0
Setting SaveMinima to 0
 ---------------------------------------
  Cycle       Energy         DIIS Error
 ---------------------------------------
    1    -510.8347828319      8.90E-04
    2    -510.7946966327      2.71E-04
    3    -510.7891821589      1.21E-03
    4    -510.7949812274      1.41E-04
    5    -510.7950934169      1.70E-05
    6    -510.7950960525      1.04E-05
    7    -510.7950973364      6.76E-06
    8    -510.7950983106      3.95E-06
    9    -510.7950987787      2.13E-06
   10    -510.7950991940      1.50E-06
   11    -510.7950995249      1.43E-07
   12    -510.7950995287      3.86E-08
   13    -510.7950995283      2.85E-08
   14    -510.7950995285      2.38E-08
   15    -510.7950995292      2.36E-08
   16    -510.7950995290      2.39E-08
   17    -510.7950995297      2.35E-08
   18    -510.7950995268      2.09E-08
   19    -510.7950995258      1.87E-08
   20    -510.7950995246      1.43E-08
   21    -510.7950995228      1.07E-08
   22    -510.7950995226      6.83E-09 Convergence criterion met
 ---------------------------------------
 <S^2> = 0.8162
 SCF time:  CPU 26.00 s  wall 24.55 s
 SCF   energy in the final basis set = -510.7950995226
 Total energy in the final basis set = -510.7950995226
 
 --------------------------------------------------------------
 
                    Orbital Energies (a.u.)
 --------------------------------------------------------------
 
 Alpha MOs
 -- Occupied --
-10.375 -10.375 -10.375 -10.375 -10.375 -10.375 -10.374 -10.374
-10.374 -10.374  -3.816  -2.447  -2.447  -2.439  -1.070  -1.057
 -0.890  -0.890  -0.889  -0.888  -0.722  -0.721  -0.716  -0.716
 -0.709  -0.698  -0.594  -0.588  -0.588  -0.576  -0.576  -0.558
 -0.558  -0.554  -0.554  -0.542  -0.488  -0.468  -0.468  -0.466
 -0.456  -0.424  -0.424
 -- Virtual --
 -0.250  -0.250  -0.135  -0.131  -0.127  -0.116  -0.116  -0.104
 -0.104  -0.101  -0.085  -0.085  -0.084  -0.071  -0.071  -0.050
 -0.049  -0.046  -0.046  -0.030  -0.026  -0.025  -0.022  -0.021
 -0.001  -0.001   0.011   0.011   0.017   0.017   0.028   0.028
  0.032   0.032   0.038   0.039   0.039   0.039   0.043   0.043
  0.061   0.061   0.067   0.068   0.093   0.096   0.097   0.097
  0.101   0.108   0.108   0.110   0.111   0.129   0.131   0.131
  0.138   0.152   0.154   0.154   0.154   0.162   0.218   0.222
  0.226   0.227   0.227   0.229   0.229   0.264   0.264   0.270
  0.271   0.272   0.272   0.279   0.286   0.323   0.369   0.369
  0.534   0.535   0.553   0.553   0.574   0.597   0.620   0.621
  0.628   0.628   0.658   0.662   0.663   0.663   0.663   0.683
  0.684   0.705   0.705   0.727   0.732   0.747   0.757   0.758
  0.820   0.823   0.823   0.843   0.843   0.847   0.847   0.859
  0.872   0.905   0.922   0.945   0.945   0.975   0.975   1.029
  1.045   1.046   1.059   1.060   1.073   1.073   1.125   1.177
  1.178   1.235   1.236   1.324   1.324   1.407   1.408   1.409
  1.411   1.466   1.466   1.524   1.625   1.631   1.640   1.644
  1.716   1.810   1.811   1.843   1.843   1.851   1.851   1.863
  1.864   1.928   1.928   1.951   1.951   1.964   2.006   2.006
  2.030   2.087   2.087   2.127   2.127   2.196   2.202   2.290
  2.290   2.406   2.406   2.450   2.450   2.476   2.480   2.504
  2.506   2.560   2.560   2.625   2.625   2.758   2.761   2.765
  2.768   2.772   2.786   3.049   3.302  39.709  39.709  40.220
 55.949
 
 Beta MOs
 -- Occupied --
-10.376 -10.376 -10.375 -10.375 -10.375 -10.375 -10.375 -10.375
-10.374 -10.374  -3.746  -2.396  -2.357  -2.357  -1.071  -1.058
 -0.891  -0.891  -0.890  -0.890  -0.722  -0.721  -0.717  -0.717
 -0.708  -0.699  -0.596  -0.585  -0.585  -0.576  -0.576  -0.558
 -0.557  -0.554  -0.554  -0.548  -0.449  -0.449  -0.435  -0.432
 -0.429  -0.429
 -- Virtual --
 -0.264  -0.212  -0.211  -0.133  -0.127  -0.122  -0.120  -0.107
 -0.104  -0.104  -0.101  -0.085  -0.084  -0.081  -0.071  -0.071
 -0.050  -0.047  -0.047  -0.047  -0.029  -0.026  -0.025  -0.022
 -0.022  -0.001  -0.001   0.011   0.011   0.017   0.017   0.030
  0.030   0.032   0.032   0.039   0.039   0.040   0.042   0.043
  0.043   0.060   0.061   0.067   0.067   0.093   0.097   0.097
  0.097   0.101   0.108   0.108   0.110   0.110   0.128   0.131
  0.131   0.138   0.153   0.155   0.156   0.156   0.164   0.220
  0.221   0.227   0.227   0.228   0.228   0.230   0.267   0.268
  0.269   0.270   0.272   0.274   0.279   0.285   0.327   0.367
  0.368   0.533   0.535   0.551   0.551   0.573   0.596   0.619
  0.620   0.629   0.629   0.658   0.660   0.661   0.663   0.663
  0.682   0.682   0.704   0.704   0.726   0.737   0.746   0.757
  0.758   0.820   0.823   0.823   0.842   0.842   0.848   0.848
  0.877   0.905   0.906   0.924   0.956   0.956   0.976   0.976
  1.028   1.045   1.046   1.059   1.059   1.072   1.072   1.126
  1.174   1.175   1.233   1.235   1.322   1.322   1.406   1.406
  1.409   1.410   1.465   1.465   1.522   1.630   1.631   1.638
  1.645   1.718   1.809   1.810   1.848   1.848   1.851   1.851
  1.862   1.865   1.928   1.928   1.965   1.965   1.968   2.004
  2.004   2.032   2.085   2.085   2.124   2.125   2.197   2.200
  2.287   2.287   2.417   2.417   2.449   2.449   2.474   2.477
  2.502   2.503   2.571   2.571   2.628   2.628   2.758   2.760
  2.765   2.768   2.772   2.786   3.065   3.338  39.813  39.813
 40.237  55.950
 --------------------------------------------------------------
 
          Ground-State Mulliken Net Atomic Charges

     Atom                 Charge (a.u.)    Spin (a.u.)
  --------------------------------------------------------
      1 C                    -0.031156      -0.053366
      2 H                     0.243549       0.002141
      3 C                    -0.030271      -0.044457
      4 H                     0.244105       0.002049
      5 C                    -0.025233      -0.036684
      6 H                     0.244512       0.001969
      7 C                    -0.028697      -0.041213
      8 H                     0.244247       0.002015
      9 C                    -0.031155      -0.051536
     10 H                     0.243766       0.002123
     11 C                    -0.031110      -0.051524
     12 H                     0.243768       0.002123
     13 C                    -0.028831      -0.041230
     14 H                     0.244239       0.002015
     15 C                    -0.025320      -0.036670
     16 H                     0.244514       0.001968
     17 C                    -0.030210      -0.044478
     18 H                     0.244100       0.002050
     19 C                    -0.031086      -0.053357
     20 H                     0.243538       0.002140
     21 Fe                   -1.147268       1.433924
  --------------------------------------------------------
  Sum of atomic charges =     1.000000
  Sum of spin   charges =     1.000000

 -----------------------------------------------------------------
                    Cartesian Multipole Moments
 -----------------------------------------------------------------
    Charge (ESU x 10^10)
                 4.8032
    Dipole Moment (Debye)
         X      -0.0003      Y      -0.0741      Z      -0.0189
       Tot       0.0765
    Quadrupole Moments (Debye-Ang)
        XX     -57.2355     XY       0.0016     YY     -57.1094
        XZ       0.0019     YZ       0.0016     ZZ     -57.1027
    Octopole Moments (Debye-Ang^2)
       XXX      -0.0115    XXY      -0.4849    XYY      -0.0040
       YYY      -0.3082    XXZ      -0.1373    XYZ       0.0010
       YYZ      -0.0277    XZZ      -0.0014    YZZ      -0.1084
       ZZZ      -0.0752
    Hexadecapole Moments (Debye-Ang^3)
      XXXX   -1177.2885   XXXY      -0.0065   XXYY    -208.8986
      XYYY      -0.0113   YYYY    -335.5088   XXXZ      -0.0029
      XXYZ      -0.0158   XYYZ      -0.0030   YYYZ      -0.0040
      XXZZ    -208.9045   XYZZ      -0.0031   YYZZ    -112.0919
      XZZZ      -0.0101   YZZZ       0.0087   ZZZZ    -335.4898
 -----------------------------------------------------------------
 Calculating analytic gradient of the SCF energy
  Adding D3 Dispersion Correction
 Gradient of SCF Energy
            1           2           3           4           5           6
    1   0.0002213   0.0047890  -0.0033364   0.0048913  -0.0064986   0.0051134
    2   0.0066353  -0.0010668  -0.0010128   0.0006138  -0.0079732   0.0014761
    3   0.0040918  -0.0008929   0.0080449  -0.0013325  -0.0001183   0.0000836
            7           8           9          10          11          12
    1  -0.0047929   0.0049674  -0.0005172   0.0046603   0.0005146  -0.0046513
    2  -0.0003937   0.0005222   0.0072398  -0.0010976   0.0072695  -0.0010950
    3  -0.0080237   0.0013738  -0.0030105   0.0008223  -0.0029767   0.0008179
           13          14          15          16          17          18
    1   0.0047745  -0.0049649   0.0064866  -0.0051101   0.0033247  -0.0048797
    2  -0.0003785   0.0005311  -0.0079250   0.0014921  -0.0009723   0.0006307
    3  -0.0079833   0.0013941  -0.0000789   0.0000985   0.0080919  -0.0013135
           19          20          21
    1  -0.0002236  -0.0047729   0.0000046
    2   0.0066846  -0.0010480  -0.0101325
    3   0.0041115  -0.0008764  -0.0023237
 Max gradient component =       1.013E-02
 RMS gradient           =       4.277E-03
 Gradient time:  CPU 5.45 s  wall 5.36 s
 Geometry Optimization Parameters
   NAtoms,    NIC,     NZ,  NCons,   NDum,   NFix, NCnnct, MaxDiis
       21     507       0       0       0       0       0       0

 Cartesian Hessian Update
 Hessian Updated using BFGS Update


** GEOMETRY OPTIMIZATION IN DELOCALIZED INTERNAL COORDINATES **
   Searching for a Minimum

   Optimization Cycle:   2

                       Coordinates (Angstroms)
     ATOM                X               Y               Z
      1  C         1.7663222597    0.9503212108    0.7635872143
      2  H         1.8441410066    1.7903131986    1.4391320694
      3  C         1.7730262778   -0.4322327306    1.1384357066
      4  H         1.8526386713   -0.8163912218    2.1455651019
      5  C         1.7788089921   -1.2151103419   -0.0587601354
      6  H         1.8599801768   -2.2916749265   -0.1111942047
      7  C         1.7756603712   -0.3204353321   -1.1744363517
      8  H         1.8560193790   -0.6055740818   -2.2139315993
      9  C         1.7680897470    1.0191918304   -0.6682884833
     10  H         1.8468518981    1.9200419173   -1.2602931384
     11  C        -1.7680181169    1.0192186963   -0.6682049079
     12  H        -1.8469381524    1.9202479524   -1.2599379488
     13  C        -1.7757225126   -0.3203444129   -1.1745292565
     14  H        -1.8564434052   -0.6052542621   -2.2140287960
     15  C        -1.7788103366   -1.2152119100   -0.0589929399
     16  H        -1.8602906498   -2.2917430243   -0.1115051173
     17  C        -1.7728989958   -0.4324936597    1.1382666799
     18  H        -1.8525782374   -0.8167726800    2.1453450407
     19  C        -1.7661416937    0.9500922073    0.7636059554
     20  H        -1.8439351568    1.7899696511    1.4392637426
     21  Fe        0.0000291026    0.0038416867    0.0008982521
   Point Group: c1    Number of degrees of freedom:    57


   Energy is   -510.795099523

 Hessian Updated using BFGS Update

 57 Hessian modes will be used to form the next step
  Hessian Eigenvalues:
     0.009432    0.009440    0.014651    0.014651    0.016911    0.018448
     0.019116    0.019117    0.019433    0.019433    0.019901    0.020045
     0.020198    0.020818    0.020819    0.020915    0.020915    0.023434
     0.027976    0.027976    0.028004    0.028006    0.031544    0.031544
     0.031672    0.031708    0.037204    0.037920    0.070115    0.070116
     0.077161    0.079881    0.089163    0.089163    0.097621    0.097621
     0.110268    0.182221    0.182221    0.188690    0.188785    0.194919
     0.223001    0.223005    0.233900    0.233903    0.317756    0.366257
     0.366261    0.366264    0.366265    0.366267    0.366269    0.366270
     0.366272    0.366275    0.389630

 Minimum Search - Taking Simple RFO Step
 Searching for Lamda that Minimizes Along All modes
 Value Taken    Lamda =  -0.00780437
 Calculated Step too Large.  Step scaled by  0.625145
 Step Taken.  Stepsize is  0.300000

                             Maximum     Tolerance    Cnvgd?
         Gradient           0.012385      0.000300      NO
         Displacement       0.225783      0.001200      NO
         Energy change     -0.007809      0.000001      NO


 New Cartesian Coordinates Obtained by Inverse Iteration

 Displacement from previous Coordinates is:  0.318660
  Adding D3 Dispersion Correction
 ----------------------------------------------------------------
             Standard Nuclear Orientation (Angstroms)
    I     Atom           X                Y                Z
 ----------------------------------------------------------------
    1      C       1.7445248454     0.9470680701     0.7612830775
    2      H       1.7835460854     1.7895841655     1.4395920454
    3      C       1.7597200598    -0.4309282822     1.1337167240
    4      H       1.8035129411    -0.8175831469     2.1439095884
    5      C       1.7726732746    -1.2094947916    -0.0585025568
    6      H       1.8198097034    -2.2897819845    -0.1112685063
    7      C       1.7657613206    -0.3196167698    -1.1693741515
    8      H       1.8114037740    -0.6070225951    -2.2121238980
    9      C       1.7485276652     1.0154952660    -0.6663746859
   10      H       1.7901616109     1.9188775335    -1.2611800559
   11      C      -1.7484269730     1.0155137514    -0.6662672746
   12      H      -1.7902290361     1.9191817696    -1.2606488787
   13      C      -1.7658741535    -0.3194887038    -1.1695786621
   14      H      -1.8120621588    -0.6065527695    -2.2123692350
   15      C      -1.7727206839    -1.2096732642    -0.0589168282
   16      H      -1.8203377531    -2.2899226533    -0.1118355365
   17      C      -1.7595261600    -0.4313620539     1.1334254486
   18      H      -1.8033635287    -0.8182146336     2.1435377068
   19      C      -1.7442341448     0.9466920050     0.7613110723
   20      H      -1.7831147519     1.7890387688     1.4398045425
   21      Fe      0.0000386883     0.0081900855     0.0018569476
 ----------------------------------------------------------------
 Molecular Point Group                 C1    NOp =  1
 Largest Abelian Subgroup              C1    NOp =  1
 Nuclear Repulsion Energy =   724.7916095882 hartrees
 There are       43 alpha and       42 beta electrons
 Applying Cartesian multipole field
    Component          Value
    ---------          -----
     (2,0,0)        1.00000E-11
     (0,2,0)        2.00000E-11
     (0,0,2)       -3.00000E-11
 Nucleus-field energy     =     0.0000000053 hartrees
 Requested basis set is non-standard
 There are 84 shells and 236 basis functions
 tim1(1): 
  1.998999999997864E-003
 tim1(2): 
  0.000000000000000E+000
 A cutoff of  1.0D-11 yielded   3345 shell pairs
 There are     27646 function pairs (     30800 Cartesian)
 Requested basis set is non-standard
 Compound shells will be simplified
 There are 114 shells and 236 basis functions
 tim1(1): 
  4.998999999997977E-003
 tim1(2): 
  0.000000000000000E+000
 A cutoff of  1.0D-11 yielded   6290 shell pairs
 There are     27556 function pairs (     30710 Cartesian)
 Smallest overlap matrix eigenvalue = 1.19E-05
 Guess MOs from SCF MO coefficient file
 Reading MOs from coefficient file
 Reading MOs from coefficient file
 An unrestricted hybrid HF-DFT SCF calculation will be
 performed using Pulay DIIS extrapolation
 Exchange:     0.2000 Hartree-Fock + 0.0800 Slater + 0.7200 B88
 Correlation:  0.1900 VWN1RPA + 0.8100 LYP
 Using SG-1 standard quadrature grid
 SCF converges when DIIS error is below 1.0E-08
Geometry optimization detected.  Setting ReadMinima to 0
Setting SaveMinima to 0
 ---------------------------------------
  Cycle       Energy         DIIS Error
 ---------------------------------------
    1    -510.8186389276      5.85E-04
    2    -510.7986066601      2.39E-04
    3    -510.7935411415      1.15E-03
    4    -510.7988642603      5.15E-05
    5    -510.7988808100      1.65E-05
    6    -510.7988828627      6.50E-06
    7    -510.7988835656      3.86E-06
    8    -510.7988839192      2.00E-06
    9    -510.7988841103      1.29E-06
   10    -510.7988842560      1.02E-06
   11    -510.7988844078      1.50E-07
   12    -510.7988844121      5.15E-08
   13    -510.7988844125      4.67E-08
   14    -510.7988844125      4.39E-08
   15    -510.7988844115      4.41E-08
   16    -510.7988844112      4.45E-08
   17    -510.7988844052      4.22E-08
   18    -510.7988843993      4.12E-08
   19    -510.7988843929      3.83E-08
   20    -510.7988843926      5.88E-08
   21    -510.7988843928      4.04E-08
   22    -510.7988843930      3.56E-08
   23    -510.7988843931      3.45E-08
   24    -510.7988843929      3.43E-08
   25    -510.7988843925      3.42E-08
   26    -510.7988843922      3.45E-08
   27    -510.7988843924      3.45E-08
   28    -510.7988843897      3.43E-08
   29    -510.7988843913      6.96E-08
   30    -510.7988843903      3.34E-08
   31    -510.7988843909      3.24E-08
   32    -510.7988843905      3.24E-08
   33    -510.7988843904      3.25E-08
   34    -510.7988843891      3.26E-08
   35    -510.7988843860      3.09E-08
   36    -510.7988843856      3.21E-08
   37    -510.7988843859      2.98E-08
   38    -510.7988843858      2.96E-08
   39    -510.7988843869      2.94E-08
   40    -510.7988843878      2.92E-08
   41    -510.7988843879      2.93E-08
   42    -510.7988843869      3.16E-08
   43    -510.7988843882      2.93E-08
   44    -510.7988843900      2.93E-08
   45    -510.7988843899      3.20E-08
   46    -510.7988843879      2.94E-08
   47    -510.7988843878      2.95E-08
   48    -510.7988843875      2.95E-08
   49    -510.7988843883      3.01E-08
   50    -510.7988843861      2.95E-08
   51    -510.7988843845      3.05E-08
   52    -510.7988843852      2.97E-08
   53    -510.7988843879      2.85E-08
   54    -510.7988843843      2.85E-08
   55    -510.7988843863      2.85E-08
   56    -510.7988843871      2.89E-08
   57    -510.7988843847      2.87E-08
   58    -510.7988843859      3.99E-08
   59    -510.7988843851      2.87E-08
   60    -510.7988843850      2.80E-08
   61    -510.7988843841      2.80E-08
   62    -510.7988843842      2.80E-08
   63    -510.7988843847      2.82E-08
   64    -510.7988843855      2.81E-08
   65    -510.7988843861      2.84E-08
   66    -510.7988843860      2.83E-08
   67    -510.7988843861      2.83E-08
   68    -510.7988843859      3.28E-08
   69    -510.7988843839      2.83E-08
   70    -510.7988843834      2.85E-08
   71    -510.7988843834      2.78E-08
   72    -510.7988843825      2.69E-08
   73    -510.7988843806      2.74E-08
   74    -510.7988843792      2.91E-08
   75    -510.7988843793      2.53E-08
   76    -510.7988843810      2.58E-08
   77    -510.7988843805      2.55E-08
   78    -510.7988843795      2.51E-08
   79    -510.7988843803      2.52E-08
   80    -510.7988843798      2.55E-08
   81    -510.7988843800      2.54E-08
   82    -510.7988843797      2.52E-08
   83    -510.7988843791      2.55E-08
   84    -510.7988843808      2.57E-08
   85    -510.7988843777      2.51E-08
   86    -510.7988843780      2.51E-08
   87    -510.7988843805      2.60E-08
   88    -510.7988843809      2.60E-08
   89    -510.7988843817      2.68E-08
   90    -510.7988843823      2.58E-08
   91    -510.7988843811      2.55E-08
   92    -510.7988843806      2.56E-08
   93    -510.7988843810      2.56E-08
   94    -510.7988843796      2.46E-08
   95    -510.7988843753      2.30E-08
   96    -510.7988843741      5.07E-08
   97    -510.7988843747      2.21E-08
   98    -510.7988843753      2.06E-08
   99    -510.7988843756      2.06E-08
  100    -510.7988843765      2.03E-08
  101    -510.7988843764      2.03E-08
  102    -510.7988843759      2.03E-08
  103    -510.7988843757      2.03E-08
  104    -510.7988843764      2.03E-08
  105    -510.7988843746      2.05E-08
  106    -510.7988843736      2.05E-08
  107    -510.7988843755      2.02E-08
  108    -510.7988843770      2.02E-08
  109    -510.7988843765      2.02E-08
  110    -510.7988843762      2.07E-08
  111    -510.7988843759      2.07E-08
  112    -510.7988843745      2.18E-08
  113    -510.7988843753      2.05E-08
  114    -510.7988843794      2.00E-08
  115    -510.7988843778      2.01E-08
  116    -510.7988843785      2.02E-08
  117    -510.7988843793      2.08E-08
  118    -510.7988843788      2.01E-08
  119    -510.7988843795      2.61E-08
  120    -510.7988843792      2.11E-08
  121    -510.7988843756      1.93E-08
  122    -510.7988843762      1.93E-08
  123    -510.7988843755      1.93E-08
  124    -510.7988843763      1.94E-08
  125    -510.7988843761      1.94E-08
  126    -510.7988843745      1.94E-08
  127    -510.7988843733      1.94E-08
  128    -510.7988843741      1.95E-08
  129    -510.7988843758      1.95E-08
  130    -510.7988843745      1.95E-08
  131    -510.7988843746      2.08E-08
  132    -510.7988843781      1.96E-08
  133    -510.7988843775      1.97E-08
  134    -510.7988843771      1.93E-08
  135    -510.7988843763      1.95E-08
  136    -510.7988843723      2.04E-08
  137    -510.7988843761      1.91E-08
  138    -510.7988843757      1.90E-08
  139    -510.7988843752      1.89E-08
  140    -510.7988843737      1.85E-08
  141    -510.7988843764      1.83E-08
  142    -510.7988843752      1.87E-08
  143    -510.7988843747      1.88E-08
  144    -510.7988843766      1.81E-08
  145    -510.7988843757      1.82E-08
  146    -510.7988843768      1.82E-08
  147    -510.7988843757      1.84E-08
  148    -510.7988843757      1.90E-08
  149    -510.7988843760      1.83E-08
  150    -510.7988843740      1.92E-08
  151    -510.7988843731      1.83E-08
  152    -510.7988843727      1.80E-08
  153    -510.7988843713      1.68E-08
  154    -510.7988843702      1.63E-08
  155    -510.7988843682      1.49E-08
  156    -510.7988843668      1.19E-08
  157    -510.7988843654      1.13E-08
  158    -510.7988843640      3.64E-09 Convergence criterion met
 ---------------------------------------
 <S^2> = 0.8072
 SCF time:  CPU 166.16 s  wall 155.10 s
 SCF   energy in the final basis set = -510.7988843640
 Total energy in the final basis set = -510.7988843640
 
 --------------------------------------------------------------
 
                    Orbital Energies (a.u.)
 --------------------------------------------------------------
 
 Alpha MOs
 -- Occupied --
-10.375 -10.375 -10.375 -10.375 -10.374 -10.374 -10.374 -10.374
-10.373 -10.373  -3.817  -2.448  -2.448  -2.440  -1.075  -1.061
 -0.893  -0.893  -0.891  -0.891  -0.723  -0.723  -0.717  -0.716
 -0.711  -0.700  -0.598  -0.588  -0.588  -0.577  -0.576  -0.560
 -0.559  -0.555  -0.555  -0.545  -0.489  -0.471  -0.471  -0.467
 -0.458  -0.427  -0.427
 -- Virtual --
 -0.248  -0.247  -0.133  -0.130  -0.128  -0.114  -0.114  -0.105
 -0.105  -0.100  -0.086  -0.086  -0.085  -0.070  -0.070  -0.051
 -0.049  -0.046  -0.046  -0.028  -0.027  -0.027  -0.021  -0.021
 -0.002  -0.002   0.011   0.011   0.016   0.016   0.029   0.029
  0.033   0.033   0.039   0.039   0.040   0.040   0.043   0.043
  0.060   0.060   0.067   0.068   0.088   0.095   0.098   0.098
  0.100   0.109   0.109   0.111   0.112   0.131   0.132   0.133
  0.139   0.153   0.154   0.154   0.156   0.165   0.217   0.223
  0.225   0.225   0.226   0.226   0.226   0.270   0.270   0.272
  0.273   0.275   0.275   0.283   0.289   0.330   0.367   0.367
  0.537   0.539   0.553   0.553   0.574   0.593   0.619   0.620
  0.630   0.630   0.663   0.663   0.665   0.667   0.669   0.684
  0.686   0.708   0.708   0.728   0.731   0.749   0.762   0.762
  0.816   0.822   0.822   0.842   0.843   0.848   0.848   0.857
  0.874   0.900   0.918   0.956   0.956   0.980   0.980   1.031
  1.050   1.052   1.060   1.060   1.069   1.071   1.143   1.179
  1.181   1.225   1.225   1.315   1.315   1.399   1.400   1.401
  1.406   1.478   1.478   1.510   1.607   1.618   1.645   1.649
  1.706   1.818   1.820   1.842   1.842   1.851   1.852   1.868
  1.869   1.934   1.934   1.954   1.954   1.984   2.017   2.018
  2.047   2.104   2.104   2.133   2.134   2.204   2.215   2.298
  2.298   2.420   2.421   2.445   2.446   2.467   2.472   2.504
  2.508   2.560   2.560   2.642   2.642   2.767   2.772   2.773
  2.776   2.778   2.791   3.061   3.316  39.711  39.711  40.233
 55.958
 
 Beta MOs
 -- Occupied --
-10.376 -10.376 -10.375 -10.375 -10.375 -10.375 -10.374 -10.374
-10.374 -10.374  -3.748  -2.399  -2.359  -2.359  -1.076  -1.063
 -0.894  -0.894  -0.893  -0.892  -0.724  -0.722  -0.718  -0.717
 -0.710  -0.700  -0.600  -0.585  -0.585  -0.577  -0.577  -0.559
 -0.558  -0.556  -0.555  -0.551  -0.453  -0.453  -0.437  -0.433
 -0.431  -0.431
 -- Virtual --
 -0.265  -0.211  -0.211  -0.131  -0.128  -0.120  -0.118  -0.106
 -0.105  -0.105  -0.101  -0.086  -0.085  -0.082  -0.070  -0.070
 -0.051  -0.047  -0.047  -0.047  -0.027  -0.027  -0.026  -0.022
 -0.021  -0.002  -0.002   0.011   0.011   0.016   0.016   0.030
  0.030   0.033   0.033   0.038   0.039   0.040   0.043   0.043
  0.043   0.059   0.060   0.067   0.067   0.088   0.096   0.097
  0.098   0.100   0.109   0.109   0.111   0.111   0.131   0.132
  0.132   0.139   0.155   0.156   0.156   0.157   0.166   0.218
  0.223   0.224   0.225   0.226   0.226   0.230   0.271   0.272
  0.274   0.274   0.274   0.277   0.282   0.289   0.333   0.366
  0.366   0.536   0.540   0.552   0.552   0.573   0.593   0.618
  0.619   0.631   0.631   0.663   0.663   0.665   0.665   0.667
  0.683   0.684   0.707   0.707   0.728   0.736   0.748   0.762
  0.762   0.816   0.822   0.822   0.842   0.843   0.848   0.848
  0.878   0.899   0.903   0.920   0.966   0.966   0.981   0.982
  1.030   1.051   1.052   1.060   1.060   1.068   1.070   1.144
  1.176   1.178   1.223   1.225   1.312   1.313   1.398   1.399
  1.401   1.405   1.478   1.479   1.509   1.612   1.617   1.643
  1.649   1.708   1.817   1.819   1.846   1.846   1.851   1.851
  1.866   1.870   1.935   1.935   1.967   1.967   1.988   2.016
  2.017   2.049   2.103   2.103   2.130   2.131   2.205   2.213
  2.295   2.295   2.431   2.431   2.444   2.445   2.465   2.469
  2.502   2.505   2.571   2.571   2.644   2.644   2.766   2.772
  2.772   2.775   2.778   2.790   3.076   3.351  39.814  39.814
 40.247  55.960
 --------------------------------------------------------------
 
          Ground-State Mulliken Net Atomic Charges

     Atom                 Charge (a.u.)    Spin (a.u.)
  --------------------------------------------------------
      1 C                    -0.024657      -0.050449
      2 H                     0.243840       0.001958
      3 C                    -0.022882      -0.041485
      4 H                     0.244499       0.001855
      5 C                    -0.017316      -0.033343
      6 H                     0.244953       0.001754
      7 C                    -0.021258      -0.038286
      8 H                     0.244666       0.001813
      9 C                    -0.024349      -0.048836
     10 H                     0.244062       0.001942
     11 C                    -0.024285      -0.048828
     12 H                     0.244062       0.001941
     13 C                    -0.021463      -0.038301
     14 H                     0.244659       0.001814
     15 C                    -0.017463      -0.033329
     16 H                     0.244957       0.001753
     17 C                    -0.022793      -0.041518
     18 H                     0.244490       0.001855
     19 C                    -0.024510      -0.050430
     20 H                     0.243827       0.001957
     21 Fe                   -1.223039       1.406162
  --------------------------------------------------------
  Sum of atomic charges =     1.000000
  Sum of spin   charges =     1.000000

 -----------------------------------------------------------------
                    Cartesian Multipole Moments
 -----------------------------------------------------------------
    Charge (ESU x 10^10)
                 4.8032
    Dipole Moment (Debye)
         X      -0.0003      Y      -0.1076      Z      -0.0273
       Tot       0.1110
    Quadrupole Moments (Debye-Ang)
        XX     -58.3859     XY       0.0031     YY     -57.0504
        XZ       0.0035     YZ       0.0020     ZZ     -57.0421
    Octopole Moments (Debye-Ang^2)
       XXX      -0.0142    XXY      -1.0143    XYY      -0.0056
       YYY      -0.5331    XXZ      -0.2878    XYZ       0.0009
       YYZ      -0.0443    XZZ      -0.0021    YZZ      -0.1857
       ZZZ      -0.1232
    Hexadecapole Moments (Debye-Ang^3)
      XXXX   -1160.8112   XXXY      -0.0116   XXYY    -209.5468
      XYYY      -0.0193   YYYY    -333.2845   XXXZ      -0.0088
      XXYZ      -0.0389   XYYZ      -0.0059   YYYZ      -0.0075
      XXZZ    -209.5291   XYZZ      -0.0054   YYZZ    -111.2715
      XZZZ      -0.0181   YZZZ       0.0104   ZZZZ    -333.2668
 -----------------------------------------------------------------
 Calculating analytic gradient of the SCF energy
  Adding D3 Dispersion Correction
 Gradient of SCF Energy
            1           2           3           4           5           6
    1   0.0002752   0.0031093  -0.0024487   0.0032143  -0.0049885   0.0033958
    2   0.0006543  -0.0000157   0.0010188   0.0000617  -0.0000348   0.0001032
    3  -0.0002676  -0.0000877   0.0005660  -0.0001044   0.0001019  -0.0000112
            7           8           9          10          11          12
    1  -0.0035479   0.0032673  -0.0002056   0.0030166   0.0002093  -0.0030115
    2   0.0009022   0.0000944   0.0007352   0.0000067   0.0007581   0.0000153
    3  -0.0004158   0.0000911   0.0006276   0.0000836   0.0006573   0.0000876
           13          14          15          16          17          18
    1   0.0035344  -0.0032776   0.0049761  -0.0034041   0.0024444  -0.0032056
    2   0.0009113   0.0001048  -0.0000114   0.0001201   0.0010611   0.0000795
    3  -0.0003929   0.0001101   0.0001472   0.0000060   0.0005934  -0.0000878
           19          20          21
    1  -0.0002635  -0.0030923   0.0000026
    2   0.0006822   0.0000016  -0.0072486
    3  -0.0002648  -0.0000746  -0.0013652
 Max gradient component =       7.249E-03
 RMS gradient           =       1.999E-03
 Gradient time:  CPU 5.54 s  wall 5.43 s
 Geometry Optimization Parameters
   NAtoms,    NIC,     NZ,  NCons,   NDum,   NFix, NCnnct, MaxDiis
       21     507       0       0       0       0       0       0

 Cartesian Hessian Update
 Hessian Updated using BFGS Update


** GEOMETRY OPTIMIZATION IN DELOCALIZED INTERNAL COORDINATES **
   Searching for a Minimum

   Optimization Cycle:   3

                       Coordinates (Angstroms)
     ATOM                X               Y               Z
      1  C         1.7445248454    0.9470680701    0.7612830775
      2  H         1.7835460854    1.7895841655    1.4395920454
      3  C         1.7597200598   -0.4309282822    1.1337167240
      4  H         1.8035129411   -0.8175831469    2.1439095884
      5  C         1.7726732746   -1.2094947916   -0.0585025568
      6  H         1.8198097034   -2.2897819845   -0.1112685063
      7  C         1.7657613206   -0.3196167698   -1.1693741515
      8  H         1.8114037740   -0.6070225951   -2.2121238980
      9  C         1.7485276652    1.0154952660   -0.6663746859
     10  H         1.7901616109    1.9188775335   -1.2611800559
     11  C        -1.7484269730    1.0155137514   -0.6662672746
     12  H        -1.7902290361    1.9191817696   -1.2606488787
     13  C        -1.7658741535   -0.3194887038   -1.1695786621
     14  H        -1.8120621588   -0.6065527695   -2.2123692350
     15  C        -1.7727206839   -1.2096732642   -0.0589168282
     16  H        -1.8203377531   -2.2899226533   -0.1118355365
     17  C        -1.7595261600   -0.4313620539    1.1334254486
     18  H        -1.8033635287   -0.8182146336    2.1435377068
     19  C        -1.7442341448    0.9466920050    0.7613110723
     20  H        -1.7831147519    1.7890387688    1.4398045425
     21  Fe        0.0000386883    0.0081900855    0.0018569476
   Point Group: c1    Number of degrees of freedom:    57


   Energy is   -510.798884364

 Hessian Updated using BFGS Update

 57 Hessian modes will be used to form the next step
  Hessian Eigenvalues:
     0.009419    0.009440    0.014651    0.014651    0.016911    0.018142
     0.018448    0.019116    0.019117    0.019433    0.019439    0.019902
     0.020198    0.020685    0.020819    0.020823    0.020915    0.020915
     0.027976    0.027976    0.028004    0.028005    0.031544    0.031544
     0.031672    0.031723    0.037204    0.037920    0.070115    0.070116
     0.075724    0.079884    0.089163    0.089163    0.097621    0.097621
     0.111076    0.182221    0.182221    0.188488    0.188783    0.194919
     0.223001    0.223005    0.233899    0.233905    0.341862    0.366256
     0.366261    0.366264    0.366265    0.366267    0.366269    0.366270
     0.366272    0.366275    0.417985

 Minimum Search - Taking Simple RFO Step
 Searching for Lamda that Minimizes Along All modes
 Value Taken    Lamda =  -0.00380591
 Calculated Step too Large.  Step scaled by  0.734539
 Step Taken.  Stepsize is  0.300000

                             Maximum     Tolerance    Cnvgd?
         Gradient           0.007298      0.000300      NO
         Displacement       0.218342      0.001200      NO
         Energy change     -0.003785      0.000001      NO


 New Cartesian Coordinates Obtained by Inverse Iteration

 Displacement from previous Coordinates is:  0.312324
  Adding D3 Dispersion Correction
 ----------------------------------------------------------------
             Standard Nuclear Orientation (Angstroms)
    I     Atom           X                Y                Z
 ----------------------------------------------------------------
    1      C       1.7232075657     0.9465082283     0.7611247407
    2      H       1.7222090005     1.7895430959     1.4408959871
    3      C       1.7483582223    -0.4309074956     1.1325773745
    4      H       1.7552482520    -0.8186431650     2.1440603980
    5      C       1.7699713658    -1.2077981066    -0.0583622490
    6      H       1.7824047565    -2.2897263061    -0.1111148428
    7      C       1.7583026481    -0.3197133965    -1.1680579585
    8      H       1.7683983388    -0.6083506479    -2.2121733809
    9      C       1.7295523674     1.0148188671    -0.6665160430
   10      H       1.7328891988     1.9188439068    -1.2628425827
   11      C      -1.7294392852     1.0148646919    -0.6663413839
   12      H      -1.7329339354     1.9192999839    -1.2620675296
   13      C      -1.7584758904    -0.3194853941    -1.1683771759
   14      H      -1.7692759013    -0.6076214284    -2.2125934197
   15      C      -1.7700629964    -1.2080336764    -0.0590144482
   16      H      -1.7831226678    -2.2899283257    -0.1120597626
   17      C      -1.7481031833    -0.4315599117     1.1321564767
   18      H      -1.7549936779    -0.8196289120     2.1435070982
   19      C      -1.7228294627     0.9459681764     0.7612158293
   20      H      -1.7215569179     1.7887387394     1.4412808659
   21      Fe      0.0000428273     0.0128108434     0.0026988900
 ----------------------------------------------------------------
 Molecular Point Group                 C1    NOp =  1
 Largest Abelian Subgroup              C1    NOp =  1
 Nuclear Repulsion Energy =   727.6959282571 hartrees
 There are       43 alpha and       42 beta electrons
 Applying Cartesian multipole field
    Component          Value
    ---------          -----
     (2,0,0)        1.00000E-11
     (0,2,0)        2.00000E-11
     (0,0,2)       -3.00000E-11
 Nucleus-field energy     =     0.0000000051 hartrees
 Requested basis set is non-standard
 There are 84 shells and 236 basis functions
 tim1(1): 
  2.998999999988428E-003
 tim1(2): 
  0.000000000000000E+000
 A cutoff of  1.0D-11 yielded   3345 shell pairs
 There are     27646 function pairs (     30800 Cartesian)
 Requested basis set is non-standard
 Compound shells will be simplified
 There are 114 shells and 236 basis functions
 tim1(1): 
  5.000000000052296E-003
 tim1(2): 
  0.000000000000000E+000
 A cutoff of  1.0D-11 yielded   6290 shell pairs
 There are     27556 function pairs (     30710 Cartesian)
 Smallest overlap matrix eigenvalue = 1.17E-05
 Guess MOs from SCF MO coefficient file
 Reading MOs from coefficient file
 Reading MOs from coefficient file
 An unrestricted hybrid HF-DFT SCF calculation will be
 performed using Pulay DIIS extrapolation
 Exchange:     0.2000 Hartree-Fock + 0.0800 Slater + 0.7200 B88
 Correlation:  0.1900 VWN1RPA + 0.8100 LYP
 Using SG-1 standard quadrature grid
 SCF converges when DIIS error is below 1.0E-08
Geometry optimization detected.  Setting ReadMinima to 0
Setting SaveMinima to 0
 ---------------------------------------
  Cycle       Energy         DIIS Error
 ---------------------------------------
    1    -510.8030281096      5.18E-04
    2    -510.8005402742      2.37E-04
    3    -510.7960093335      1.10E-03
    4    -510.8007937680      5.79E-05
    5    -510.8008137596      1.74E-05
    6    -510.8008156891      5.53E-06
    7    -510.8008161189      2.43E-06
    8    -510.8008162977      1.11E-06
    9    -510.8008163842      8.33E-07
   10    -510.8008164484      7.14E-07
   11    -510.8008165214      1.60E-07
   12    -510.8008165277      5.50E-08
   13    -510.8008165285      5.32E-08
   14    -510.8008165298      4.27E-08
   15    -510.8008165289      3.75E-08
   16    -510.8008165312      3.69E-08
   17    -510.8008165316      3.61E-08
   18    -510.8008165329      3.58E-08
   19    -510.8008165345      3.62E-08
   20    -510.8008165396      3.74E-08
   21    -510.8008165453      3.72E-08
   22    -510.8008165851      4.09E-08
   23    -510.8008166698      1.39E-07
   24    -510.8008166854      2.36E-07
   25    -510.8008167631      5.85E-07
   26    -510.8008167639      5.32E-07
   27    -510.8008167994      4.72E-07
   28    -510.8008168227      4.97E-07
   29    -510.8008168234      1.56E-07
   30    -510.8008168262      1.27E-07
   31    -510.8008168268      1.82E-08
   32    -510.8008168268      2.25E-09 Convergence criterion met
 ---------------------------------------
 <S^2> = 0.8012
 SCF time:  CPU 39.20 s  wall 36.83 s
 SCF   energy in the final basis set = -510.8008168268
 Total energy in the final basis set = -510.8008168268
 
 --------------------------------------------------------------
 
                    Orbital Energies (a.u.)
 --------------------------------------------------------------
 
 Alpha MOs
 -- Occupied --
-10.376 -10.376 -10.376 -10.376 -10.375 -10.375 -10.374 -10.374
-10.374 -10.374  -3.817  -2.449  -2.449  -2.440  -1.077  -1.063
 -0.895  -0.895  -0.893  -0.893  -0.725  -0.724  -0.718  -0.717
 -0.712  -0.700  -0.600  -0.589  -0.588  -0.577  -0.577  -0.561
 -0.560  -0.557  -0.556  -0.547  -0.489  -0.474  -0.474  -0.467
 -0.459  -0.428  -0.428
 -- Virtual --
 -0.245  -0.245  -0.133  -0.129  -0.129  -0.114  -0.113  -0.106
 -0.106  -0.100  -0.087  -0.087  -0.085  -0.070  -0.070  -0.052
 -0.048  -0.046  -0.046  -0.028  -0.028  -0.027  -0.021  -0.021
 -0.003  -0.003   0.011   0.012   0.016   0.016   0.029   0.029
  0.033   0.033   0.038   0.038   0.040   0.040   0.043   0.043
  0.059   0.059   0.067   0.068   0.083   0.094   0.098   0.098
  0.100   0.109   0.109   0.112   0.113   0.131   0.131   0.136
  0.139   0.153   0.154   0.154   0.157   0.167   0.214   0.220
  0.223   0.224   0.224   0.225   0.226   0.272   0.273   0.275
  0.276   0.276   0.277   0.283   0.289   0.336   0.367   0.368
  0.540   0.543   0.554   0.554   0.571   0.587   0.616   0.617
  0.632   0.632   0.663   0.663   0.670   0.671   0.673   0.683
  0.686   0.708   0.708   0.727   0.731   0.749   0.768   0.770
  0.813   0.822   0.822   0.840   0.842   0.849   0.849   0.853
  0.874   0.896   0.915   0.960   0.961   0.982   0.982   1.032
  1.050   1.051   1.053   1.058   1.075   1.081   1.158   1.184
  1.186   1.212   1.213   1.307   1.307   1.386   1.393   1.395
  1.398   1.490   1.491   1.499   1.585   1.599   1.647   1.651
  1.696   1.818   1.821   1.838   1.838   1.850   1.851   1.866
  1.869   1.937   1.937   1.954   1.954   2.000   2.026   2.027
  2.060   2.115   2.116   2.135   2.137   2.205   2.223   2.299
  2.299   2.425   2.426   2.438   2.440   2.456   2.461   2.501
  2.507   2.557   2.557   2.649   2.649   2.768   2.772   2.775
  2.775   2.780   2.791   3.075   3.328  39.711  39.711  40.244
 55.966
 
 Beta MOs
 -- Occupied --
-10.377 -10.377 -10.376 -10.376 -10.376 -10.376 -10.375 -10.375
-10.374 -10.374  -3.749  -2.401  -2.361  -2.361  -1.078  -1.065
 -0.895  -0.895  -0.894  -0.894  -0.725  -0.723  -0.719  -0.718
 -0.711  -0.701  -0.602  -0.586  -0.586  -0.578  -0.578  -0.560
 -0.559  -0.557  -0.556  -0.552  -0.456  -0.456  -0.439  -0.434
 -0.432  -0.432
 -- Virtual --
 -0.266  -0.210  -0.210  -0.131  -0.129  -0.119  -0.117  -0.107
 -0.107  -0.107  -0.100  -0.087  -0.086  -0.083  -0.069  -0.069
 -0.052  -0.047  -0.047  -0.047  -0.028  -0.027  -0.025  -0.021
 -0.021  -0.003  -0.003   0.011   0.011   0.016   0.016   0.030
  0.030   0.034   0.034   0.037   0.039   0.040   0.043   0.043
  0.044   0.058   0.059   0.067   0.067   0.083   0.095   0.098
  0.098   0.100   0.109   0.109   0.112   0.112   0.131   0.131
  0.136   0.139   0.155   0.156   0.156   0.158   0.169   0.215
  0.220   0.222   0.224   0.224   0.224   0.230   0.271   0.272
  0.275   0.279   0.279   0.280   0.283   0.289   0.339   0.366
  0.367   0.539   0.544   0.553   0.553   0.571   0.587   0.615
  0.616   0.632   0.633   0.662   0.662   0.669   0.671   0.672
  0.682   0.684   0.707   0.708   0.727   0.736   0.748   0.769
  0.769   0.812   0.822   0.822   0.840   0.842   0.849   0.849
  0.878   0.896   0.897   0.916   0.969   0.969   0.983   0.983
  1.031   1.051   1.052   1.056   1.057   1.074   1.080   1.160
  1.181   1.184   1.210   1.213   1.305   1.305   1.387   1.392
  1.394   1.397   1.491   1.491   1.497   1.590   1.599   1.646
  1.651   1.698   1.818   1.820   1.842   1.842   1.850   1.850
  1.865   1.870   1.938   1.938   1.966   1.966   2.003   2.026
  2.027   2.062   2.113   2.114   2.132   2.135   2.206   2.221
  2.296   2.296   2.435   2.436   2.438   2.439   2.454   2.459
  2.499   2.504   2.567   2.568   2.651   2.652   2.767   2.772
  2.774   2.775   2.780   2.791   3.090   3.362  39.813  39.813
 40.258  55.969
 --------------------------------------------------------------
 
          Ground-State Mulliken Net Atomic Charges

     Atom                 Charge (a.u.)    Spin (a.u.)
  --------------------------------------------------------
      1 C                    -0.020269      -0.048726
      2 H                     0.244167       0.001834
      3 C                    -0.016051      -0.040266
      4 H                     0.244921       0.001720
      5 C                    -0.011642      -0.031133
      6 H                     0.245438       0.001591
      7 C                    -0.014103      -0.035383
      8 H                     0.245178       0.001649
      9 C                    -0.018978      -0.046331
     10 H                     0.244428       0.001804
     11 C                    -0.018896      -0.046324
     12 H                     0.244428       0.001803
     13 C                    -0.014361      -0.035395
     14 H                     0.245172       0.001649
     15 C                    -0.011832      -0.031126
     16 H                     0.245442       0.001590
     17 C                    -0.015947      -0.040309
     18 H                     0.244909       0.001720
     19 C                    -0.020070      -0.048698
     20 H                     0.244152       0.001833
     21 Fe                   -1.286087       1.386498
  --------------------------------------------------------
  Sum of atomic charges =     1.000000
  Sum of spin   charges =     1.000000

 -----------------------------------------------------------------
                    Cartesian Multipole Moments
 -----------------------------------------------------------------
    Charge (ESU x 10^10)
                 4.8032
    Dipole Moment (Debye)
         X      -0.0004      Y      -0.1454      Z      -0.0419
       Tot       0.1513
    Quadrupole Moments (Debye-Ang)
        XX     -59.5889     XY       0.0045     YY     -56.9932
        XZ       0.0052     YZ      -0.0008     ZZ     -56.9744
    Octopole Moments (Debye-Ang^2)
       XXX      -0.0154    XXY      -1.5999    XYY      -0.0066
       YYY      -0.7841    XXZ      -0.4518    XYZ       0.0008
       YYZ      -0.0673    XZZ      -0.0025    YZZ      -0.2642
       ZZZ      -0.1786
    Hexadecapole Moments (Debye-Ang^3)
      XXXX   -1147.7847   XXXY      -0.0159   XXYY    -210.7150
      XYYY      -0.0252   YYYY    -332.4683   XXXZ      -0.0143
      XXYZ      -0.0595   XYYZ      -0.0084   YYYZ      -0.0489
      XXZZ    -210.6675   XYZZ      -0.0071   YYZZ    -110.9733
      XZZZ      -0.0250   YZZZ       0.0514   ZZZZ    -332.4482
 -----------------------------------------------------------------
 Calculating analytic gradient of the SCF energy
  Adding D3 Dispersion Correction
 Gradient of SCF Energy
            1           2           3           4           5           6
    1   0.0005505   0.0011822  -0.0008429   0.0013865  -0.0027949   0.0014756
    2  -0.0017534   0.0003846   0.0012921  -0.0001267   0.0023536  -0.0004401
    3  -0.0014118   0.0002334  -0.0020347   0.0004147   0.0003766  -0.0000072
            7           8           9          10          11          12
    1  -0.0022994   0.0014523  -0.0002407   0.0012571   0.0002478  -0.0012525
    2   0.0007486  -0.0000676  -0.0013971   0.0004421  -0.0013844   0.0004560
    3   0.0019544  -0.0004220   0.0017307  -0.0001472   0.0017473  -0.0001367
           13          14          15          16          17          18
    1   0.0022871  -0.0014720   0.0027788  -0.0014927   0.0008430  -0.0013774
    2   0.0007506  -0.0000555   0.0023658  -0.0004233   0.0013311  -0.0001077
    3   0.0019713  -0.0004038   0.0004179   0.0000114  -0.0020148   0.0004307
           19          20          21
    1  -0.0005279  -0.0011605   0.0000001
    2  -0.0017322   0.0004012  -0.0030375
    3  -0.0014157   0.0002456  -0.0015403
 Max gradient component =       3.038E-03
 RMS gradient           =       1.334E-03
 Gradient time:  CPU 5.56 s  wall 5.45 s
 Geometry Optimization Parameters
   NAtoms,    NIC,     NZ,  NCons,   NDum,   NFix, NCnnct, MaxDiis
       21     507       0       0       0       0       0       0

 Cartesian Hessian Update
 Hessian Updated using BFGS Update


** GEOMETRY OPTIMIZATION IN DELOCALIZED INTERNAL COORDINATES **
   Searching for a Minimum

   Optimization Cycle:   4

                       Coordinates (Angstroms)
     ATOM                X               Y               Z
      1  C         1.7232075657    0.9465082283    0.7611247407
      2  H         1.7222090005    1.7895430959    1.4408959871
      3  C         1.7483582223   -0.4309074956    1.1325773745
      4  H         1.7552482520   -0.8186431650    2.1440603980
      5  C         1.7699713658   -1.2077981066   -0.0583622490
      6  H         1.7824047565   -2.2897263061   -0.1111148428
      7  C         1.7583026481   -0.3197133965   -1.1680579585
      8  H         1.7683983388   -0.6083506479   -2.2121733809
      9  C         1.7295523674    1.0148188671   -0.6665160430
     10  H         1.7328891988    1.9188439068   -1.2628425827
     11  C        -1.7294392852    1.0148646919   -0.6663413839
     12  H        -1.7329339354    1.9192999839   -1.2620675296
     13  C        -1.7584758904   -0.3194853941   -1.1683771759
     14  H        -1.7692759013   -0.6076214284   -2.2125934197
     15  C        -1.7700629964   -1.2080336764   -0.0590144482
     16  H        -1.7831226678   -2.2899283257   -0.1120597626
     17  C        -1.7481031833   -0.4315599117    1.1321564767
     18  H        -1.7549936779   -0.8196289120    2.1435070982
     19  C        -1.7228294627    0.9459681764    0.7612158293
     20  H        -1.7215569179    1.7887387394    1.4412808659
     21  Fe        0.0000428273    0.0128108434    0.0026988900
   Point Group: c1    Number of degrees of freedom:    57


   Energy is   -510.800816827

 Hessian Updated using BFGS Update

 57 Hessian modes will be used to form the next step
  Hessian Eigenvalues:
     0.009372    0.009442    0.014651    0.014651    0.016909    0.017392
     0.018448    0.019116    0.019117    0.019433    0.019451    0.019902
     0.020203    0.020596    0.020819    0.020844    0.020915    0.020915
     0.027976    0.027976    0.028004    0.028010    0.031544    0.031544
     0.031679    0.031788    0.037204    0.037920    0.070115    0.070116
     0.074967    0.080143    0.089163    0.089163    0.097621    0.097625
     0.112772    0.182221    0.182221    0.188339    0.188781    0.194919
     0.223001    0.223005    0.233899    0.233904    0.342523    0.366256
     0.366261    0.366264    0.366265    0.366267    0.366269    0.366270
     0.366272    0.366275    0.422361

 Minimum Search - Taking Simple RFO Step
 Searching for Lamda that Minimizes Along All modes
 Value Taken    Lamda =  -0.00088619
 Step Taken.  Stepsize is  0.214005

                             Maximum     Tolerance    Cnvgd?
         Gradient           0.004513      0.000300      NO
         Displacement       0.149603      0.001200      NO
         Energy change     -0.001932      0.000001      NO


 New Cartesian Coordinates Obtained by Inverse Iteration

 Displacement from previous Coordinates is:  0.208711
  Adding D3 Dispersion Correction
 ----------------------------------------------------------------
             Standard Nuclear Orientation (Angstroms)
    I     Atom           X                Y                Z
 ----------------------------------------------------------------
    1      C       1.7081686994     0.9478027016     0.7620840097
    2      H       1.6796114077     1.7898130053     1.4420892795
    3      C       1.7404874811    -0.4315218027     1.1338503556
    4      H       1.7203664902    -0.8196139390     2.1447891564
    5      C       1.7715440487    -1.2082747401    -0.0583551251
    6      H       1.7597501789    -2.2899669921    -0.1114447102
    7      C       1.7572975180    -0.3200255445    -1.1685339394
    8      H       1.7425292168    -0.6090584054    -2.2123048581
    9      C       1.7183015960     1.0156596014    -0.6677707438
   10      H       1.6949255355     1.9183820035    -1.2651244955
   11      C      -1.7181957620     1.0157965069    -0.6674532086
   12      H      -1.6949614580     1.9190703888    -1.2639997013
   13      C      -1.7575162128    -0.3196023209    -1.1689585276
   14      H      -1.7435621995    -0.6079072451    -2.2129109518
   15      C      -1.7716505092    -1.2085294511    -0.0592909102
   16      H      -1.7605785807    -2.2901899505    -0.1128958892
   17      C      -1.7401823858    -0.4324285824     1.1333044216
   18      H      -1.7200193248    -0.8210687778     2.1440270088
   19      C      -1.7077534804     0.9470892730     0.7623153317
   20      H      -1.6788161711     1.7886922082     1.4427777553
   21      Fe      0.0000445371     0.0158818302     0.0038026256
[...]
 C          0.009 -0.017 -0.036    0.007 -0.008 -0.037    0.002 -0.194  0.055
 H         -0.035 -0.093 -0.289   -0.037 -0.082 -0.287    0.042 -0.237  0.007
 C         -0.013 -0.012 -0.001   -0.009 -0.015 -0.007   -0.003 -0.111 -0.162
 H          0.025 -0.061  0.030    0.023 -0.062  0.022    0.034 -0.105 -0.199
 C          0.013 -0.016 -0.010    0.009 -0.023 -0.007   -0.002  0.120 -0.156
 H         -0.029 -0.109 -0.079   -0.029 -0.135 -0.091    0.031  0.117 -0.193
 Fe        -0.000 -0.000 -0.000   -0.000 -0.000 -0.000    0.000  0.000  0.003
 TransDip  -0.001  0.000 -0.000   -0.000  0.020  0.009    0.000 -0.000 -0.008

 Mode:                37                     38                     39
 Frequency:      1140.17                1303.72                1304.92
 Force Cnst:      4.3153                 1.2819                 1.2832
 Red. Mass:       5.6341                 1.2801                 1.2791
 IR Active:          YES                    YES                    YES
 IR Intens:        0.104                  0.000                  0.006
 Raman Active:       YES                    YES                    YES
               X      Y      Z        X      Y      Z        X      Y      Z
 C         -0.001 -0.121  0.155   -0.001  0.040  0.035   -0.001  0.038  0.032
 H          0.032 -0.118  0.193    0.012 -0.259 -0.198    0.011 -0.246 -0.188
 C         -0.001  0.111  0.162    0.001  0.045 -0.032    0.001  0.042 -0.030
 H          0.032  0.105  0.200   -0.007 -0.269  0.182   -0.006 -0.255  0.173
 C          0.003  0.194 -0.054    0.002 -0.016 -0.047    0.001 -0.016 -0.045
 H          0.041  0.237 -0.006   -0.013  0.087  0.306   -0.013  0.083  0.291
 C          0.009  0.007 -0.204    0.000 -0.049 -0.001    0.000 -0.047 -0.000
 H          0.045  0.018 -0.231   -0.002  0.316  0.011   -0.002  0.299  0.011
 C          0.005 -0.191 -0.065   -0.001 -0.017  0.045   -0.001 -0.017  0.043
 H          0.041 -0.239 -0.015    0.011  0.108 -0.297    0.012  0.102 -0.281
 C          0.005  0.200  0.067   -0.001  0.016 -0.043    0.001 -0.017  0.045
 H          0.043  0.250  0.014    0.011 -0.101  0.283   -0.012  0.106 -0.297
 C          0.009 -0.007  0.214    0.000  0.047  0.000   -0.000 -0.049 -0.000
 H          0.048 -0.019  0.242   -0.002 -0.300 -0.009    0.003  0.315  0.010
 C          0.003 -0.203  0.058    0.002  0.016  0.045   -0.002 -0.016 -0.047
 H          0.043 -0.248  0.008   -0.012 -0.084 -0.290    0.014  0.089  0.306
 C         -0.002 -0.116 -0.169    0.001 -0.042  0.031   -0.001  0.044 -0.032
 H          0.033 -0.112 -0.208   -0.007  0.255 -0.174    0.006 -0.268  0.184
 C         -0.001  0.126 -0.163   -0.001 -0.038 -0.033    0.001  0.040  0.034
 H          0.034  0.122 -0.203    0.011  0.247  0.186   -0.012 -0.260 -0.197
 Fe        -0.013  0.000  0.000   -0.000  0.000 -0.000   -0.000  0.000 -0.000
 TransDip  -0.010 -0.000 -0.000    0.000 -0.000  0.000   -0.000 -0.002  0.001

 Mode:                40                     41                     42
 Frequency:      1381.15                1390.39                1395.13
 Force Cnst:      4.8995                 5.0167                 5.1843
 Red. Mass:       4.3593                 4.4045                 4.5208
 IR Active:          YES                    YES                    YES
 IR Intens:        0.001                  0.000                  1.601
 Raman Active:       YES                    YES                    YES
               X      Y      Z        X      Y      Z        X      Y      Z
 C          0.013 -0.200 -0.088    0.015  0.010  0.147    0.011 -0.204 -0.093
 H         -0.026  0.244  0.266   -0.028 -0.228 -0.023   -0.026  0.241  0.262
 C          0.008  0.208 -0.098   -0.016 -0.010 -0.137    0.007  0.213 -0.101
 H         -0.016 -0.295  0.250    0.033 -0.186 -0.034   -0.017 -0.289  0.247
 C         -0.020 -0.056  0.144    0.005  0.109  0.157   -0.016 -0.053  0.145
 H          0.021 -0.145 -0.118   -0.001 -0.023 -0.312    0.027 -0.138 -0.108
 C          0.021 -0.006 -0.099    0.000 -0.197 -0.002    0.015 -0.005 -0.093
 H         -0.006  0.008 -0.110   -0.001  0.247  0.012   -0.020  0.005 -0.101
 C         -0.021  0.058  0.123   -0.004  0.108 -0.161   -0.016  0.052  0.126
 H          0.018  0.140 -0.066   -0.002 -0.057  0.304    0.026  0.132 -0.063
 C         -0.021 -0.059 -0.121   -0.004 -0.107  0.163    0.017  0.055  0.125
 H          0.018 -0.137  0.065   -0.002  0.057 -0.305   -0.026  0.133 -0.060
 C          0.020  0.007  0.098   -0.000  0.197  0.000   -0.016 -0.008 -0.094
 H         -0.006 -0.008  0.108   -0.001 -0.248 -0.012    0.020  0.007 -0.103
 C         -0.020  0.055 -0.143    0.005 -0.111 -0.156    0.016 -0.051  0.149
 H          0.022  0.144  0.117   -0.001  0.023  0.313   -0.028 -0.141 -0.113
 C          0.008 -0.205  0.098   -0.016  0.014  0.136   -0.007  0.215 -0.105
 H         -0.016  0.290 -0.248    0.034  0.182  0.036    0.017 -0.294  0.251
 C          0.013  0.197  0.085    0.014 -0.013 -0.149   -0.011 -0.207 -0.092
 H         -0.025 -0.241 -0.261   -0.028  0.231  0.024    0.026  0.242  0.263
 Fe        -0.000 -0.000 -0.000    0.000  0.000 -0.000   -0.000  0.001 -0.002
 TransDip  -0.001  0.000  0.000    0.000 -0.000  0.001   -0.000 -0.012  0.039

 Mode:                43                     44                     45
 Frequency:      1407.08                1467.57                1473.47
 Force Cnst:      5.5008                 2.9941                 3.1221
 Red. Mass:       4.7156                 2.3595                 2.4407
 IR Active:          YES                    YES                    YES
 IR Intens:        2.095                 17.445                 19.819
 Raman Active:       YES                    YES                    YES
               X      Y      Z        X      Y      Z        X      Y      Z
 C         -0.010 -0.019 -0.151    0.001  0.031  0.092   -0.004  0.104  0.005
 H          0.041  0.234  0.032    0.003 -0.245 -0.108    0.017 -0.195 -0.243
 C          0.011  0.003  0.140    0.001  0.067 -0.078   -0.001 -0.073 -0.048
 H         -0.044  0.193  0.025   -0.006 -0.296  0.162    0.007  0.054 -0.155
 C         -0.001 -0.105 -0.172   -0.008 -0.091  0.016   -0.006  0.039  0.138
 H          0.014  0.031  0.306    0.012 -0.111  0.010    0.021 -0.122 -0.414
 C         -0.000  0.207  0.003   -0.004  0.149  0.027    0.007  0.049 -0.104
 H         -0.002 -0.220 -0.010    0.004 -0.434  0.013    0.003 -0.116 -0.131
 C          0.000 -0.106  0.176    0.011 -0.063 -0.074   -0.003 -0.095  0.114
 H         -0.010  0.064 -0.296   -0.017 -0.162  0.148    0.016  0.077 -0.386
 C         -0.000 -0.105  0.176   -0.011 -0.062 -0.077    0.003 -0.077  0.105
 H          0.009  0.062 -0.294    0.017 -0.164  0.158   -0.015  0.077 -0.346
 C          0.000  0.207  0.002    0.004  0.149  0.028   -0.006  0.031 -0.093
 H          0.002 -0.220 -0.009   -0.004 -0.434  0.017   -0.003 -0.070 -0.114
 C          0.001 -0.106 -0.171    0.008 -0.092  0.015    0.005  0.041  0.118
 H         -0.014  0.033  0.307   -0.011 -0.110  0.019   -0.018 -0.099 -0.359
 C         -0.011  0.005  0.139   -0.001  0.068 -0.078    0.001 -0.069 -0.035
 H          0.044  0.191  0.025    0.006 -0.300  0.169   -0.006  0.069 -0.147
 C          0.010 -0.020 -0.151   -0.001  0.029  0.093    0.004  0.087 -0.004
 H         -0.040  0.234  0.032   -0.003 -0.243 -0.103   -0.015 -0.151 -0.202
 Fe         0.000 -0.002 -0.001    0.000  0.005 -0.001    0.000  0.000  0.003
 TransDip   0.000  0.044  0.013    0.000 -0.131  0.026    0.001 -0.028 -0.140

 Mode:                46                     47                     48
 Frequency:      1474.20                1474.85                3259.90
 Force Cnst:      3.1298                 3.1363                 6.8343
 Red. Mass:       2.4443                 2.4472                 1.0915
 IR Active:          YES                    YES                    YES
 IR Intens:        0.202                  0.236                  0.001
 Raman Active:       YES                    YES                    YES
               X      Y      Z        X      Y      Z        X      Y      Z
 C          0.004 -0.075 -0.081    0.000 -0.057  0.055    0.000  0.009 -0.014
 H         -0.012  0.286  0.195   -0.010 -0.008  0.115   -0.006 -0.116  0.152
 C         -0.002 -0.022  0.088    0.002  0.099 -0.017   -0.001  0.025  0.035
 H         -0.000  0.212 -0.056   -0.011 -0.223  0.213    0.018 -0.276 -0.402
 C          0.005  0.054 -0.081    0.004 -0.086 -0.090    0.000 -0.039  0.011
 H         -0.014  0.148  0.186   -0.011  0.019  0.310   -0.007  0.445 -0.130
 C         -0.000 -0.142  0.026   -0.005  0.058  0.093    0.000  0.002 -0.029
 H         -0.003  0.395  0.050   -0.000 -0.179  0.105   -0.001 -0.012  0.329
 C         -0.002  0.093  0.012    0.006  0.031 -0.133   -0.000  0.005  0.003
 H          0.002  0.097  0.057   -0.017 -0.158  0.376   -0.000 -0.067 -0.027
 C         -0.002 -0.106  0.004    0.007 -0.038  0.139   -0.000 -0.003 -0.002
 H         -0.000 -0.087 -0.109   -0.018  0.158 -0.399   -0.000  0.040  0.016
 C         -0.001  0.149 -0.041   -0.006 -0.052 -0.099    0.000 -0.001  0.021
 H         -0.004 -0.411 -0.066   -0.001  0.162 -0.114   -0.001  0.008 -0.243
 C          0.006 -0.048  0.100    0.004  0.087  0.099    0.000  0.031 -0.009
 H         -0.017 -0.167 -0.242   -0.013 -0.031 -0.336   -0.006 -0.350  0.104
 C         -0.002  0.012 -0.095    0.002 -0.102  0.013   -0.001 -0.021 -0.029
 H         -0.001 -0.205  0.035   -0.011  0.220 -0.222    0.016  0.232  0.334
 C          0.005  0.090  0.081    0.001  0.064 -0.054    0.000 -0.008  0.012
 H         -0.015 -0.314 -0.227   -0.011 -0.010 -0.133   -0.005  0.103 -0.136
 Fe        -0.001  0.000  0.000   -0.001  0.000  0.000   -0.000  0.000 -0.000
 TransDip  -0.010 -0.003 -0.010   -0.015 -0.003 -0.005   -0.001  0.000  0.000

 Mode:                49                     50                     51
 Frequency:      3261.00                3261.64                3262.52
 Force Cnst:      6.8372                 6.8413                 6.8447
 Red. Mass:       1.0912                 1.0915                 1.0914
 IR Active:          YES                    YES                    YES
 IR Intens:        0.014                  0.001                  0.265
 Raman Active:       YES                    YES                    YES
               X      Y      Z        X      Y      Z        X      Y      Z
 C          0.000  0.003 -0.005    0.001  0.020 -0.025    0.001  0.020 -0.026
 H         -0.002 -0.035  0.048   -0.011 -0.225  0.287   -0.011 -0.231  0.295
 C         -0.001  0.015  0.022   -0.001  0.013  0.021   -0.001  0.016  0.025
 H          0.011 -0.171 -0.248    0.011 -0.157 -0.233    0.012 -0.188 -0.278
 C          0.000 -0.032  0.010    0.000  0.006 -0.003    0.000 -0.001 -0.001
 H         -0.006  0.368 -0.109    0.001 -0.071  0.024   -0.000  0.005  0.001
 C          0.000  0.001 -0.033   -0.000 -0.000  0.032   -0.000 -0.000  0.027
 H         -0.001 -0.013  0.372    0.001  0.010 -0.366    0.001  0.008 -0.304
 C         -0.000  0.012  0.005   -0.000 -0.032 -0.012    0.000 -0.029 -0.011
 H         -0.001 -0.147 -0.056    0.003  0.367  0.135    0.002  0.333  0.122
 C          0.000  0.009  0.004    0.000  0.033  0.012   -0.000 -0.031 -0.011
 H          0.001 -0.111 -0.043    0.003 -0.374 -0.135   -0.002  0.359  0.129
 C         -0.000  0.002 -0.033   -0.000  0.000 -0.035    0.000 -0.000  0.028
 H          0.002 -0.012  0.381    0.002 -0.010  0.399   -0.002  0.007 -0.319
 C         -0.000 -0.038  0.011   -0.000 -0.011  0.005   -0.000 -0.000 -0.001
 H          0.007  0.439 -0.131    0.002  0.128 -0.041    0.000 -0.002  0.003
 C          0.001  0.023  0.032   -0.001 -0.010 -0.016    0.001  0.017  0.025
 H         -0.016 -0.252 -0.362    0.008  0.115  0.170   -0.013 -0.193 -0.282
 C         -0.000  0.007 -0.011    0.001 -0.018  0.023   -0.001  0.021 -0.027
 H          0.005 -0.091  0.121   -0.011  0.204 -0.262    0.012 -0.242  0.313
 Fe         0.000 -0.000 -0.000   -0.000 -0.000 -0.000   -0.000 -0.000 -0.000
 TransDip   0.000 -0.001  0.004    0.000 -0.001 -0.001   -0.000 -0.003 -0.016

 Mode:                52                     53                     54
 Frequency:      3272.04                3273.14                3273.23
 Force Cnst:      6.9180                 6.9229                 6.9244
 Red. Mass:       1.0967                 1.0968                 1.0969
 IR Active:          YES                    YES                    YES
 IR Intens:        0.015                  9.270                  1.086
 Raman Active:       YES                    YES                    YES
               X      Y      Z        X      Y      Z        X      Y      Z
 C          0.001  0.019 -0.020    0.001  0.025 -0.030   -0.001 -0.014  0.021
 H         -0.010 -0.189  0.237   -0.014 -0.268  0.340    0.009  0.168 -0.218
 C          0.001 -0.022 -0.031    0.001 -0.018 -0.023    0.001 -0.009 -0.018
 H         -0.016  0.233  0.340   -0.012  0.182  0.263   -0.009  0.123  0.185
 C         -0.000 -0.010  0.006   -0.000  0.012 -0.001    0.000 -0.043  0.013
 H         -0.002  0.115 -0.037    0.002 -0.122  0.033   -0.008  0.479 -0.141
 C          0.000  0.003 -0.031    0.000  0.001 -0.037   -0.000  0.002  0.014
 H         -0.001 -0.013  0.348   -0.001 -0.013  0.410    0.000  0.001 -0.147
 C         -0.000 -0.032 -0.009   -0.000 -0.017 -0.003    0.000 -0.031 -0.013
 H          0.003  0.347  0.125    0.002  0.185  0.065    0.003  0.351  0.131
 C         -0.000  0.029  0.008    0.000 -0.033 -0.010    0.000  0.010  0.006
 H          0.003 -0.318 -0.112   -0.003  0.359  0.128    0.001 -0.120 -0.046
 C          0.000 -0.002  0.030   -0.000  0.002 -0.026   -0.000 -0.001 -0.030
 H         -0.001  0.011 -0.329    0.001 -0.010  0.290    0.001 -0.007  0.326
 C          0.000  0.010 -0.005    0.000 -0.014  0.007    0.000  0.034 -0.009
 H         -0.002 -0.113  0.037    0.003  0.164 -0.052   -0.006 -0.367  0.109
 C          0.001  0.020  0.028   -0.001 -0.021 -0.031   -0.000 -0.005 -0.002
 H         -0.015 -0.218 -0.315    0.016  0.233  0.337    0.002  0.033  0.043
 C          0.001 -0.017  0.018   -0.000  0.014 -0.015   -0.001  0.023 -0.030
 H         -0.009  0.169 -0.214    0.007 -0.141  0.177    0.014 -0.260  0.337
 Fe         0.000  0.000  0.000   -0.000  0.000  0.000    0.000  0.000  0.000
 TransDip   0.000  0.001  0.004   -0.001  0.027  0.094    0.003  0.019  0.027

 Mode:                55                     56                     57
 Frequency:      3274.07                3282.15                3283.01
 Force Cnst:      6.9265                 7.0226                 7.0238
 Red. Mass:       1.0967                 1.1064                 1.1061
 IR Active:          YES                    YES                    YES
 IR Intens:       11.173                  0.612                  0.209
 Raman Active:       YES                    YES                    YES
               X      Y      Z        X      Y      Z        X      Y      Z
 C         -0.000 -0.015  0.021   -0.001 -0.021  0.028   -0.001 -0.019  0.024
 H          0.009  0.174 -0.225    0.013  0.227 -0.292    0.011  0.199 -0.256
 C          0.000 -0.005 -0.012   -0.001  0.015  0.021   -0.001  0.013  0.019
 H         -0.005  0.077  0.118    0.011 -0.150 -0.219    0.010 -0.136 -0.198
 C          0.000 -0.038  0.011   -0.000  0.027 -0.008   -0.000  0.024 -0.007
 H         -0.007  0.417 -0.123    0.006 -0.278  0.082    0.005 -0.254  0.075
 C         -0.000  0.002  0.015    0.000  0.001 -0.030    0.000  0.001 -0.027
 H          0.001  0.002 -0.165   -0.000 -0.011  0.316   -0.000 -0.009  0.280
 C          0.000 -0.024 -0.010   -0.000 -0.035 -0.013   -0.000 -0.032 -0.012
 H          0.002  0.269  0.101    0.004  0.373  0.137    0.003  0.337  0.124
 C         -0.000 -0.029 -0.012   -0.000  0.031  0.011    0.000 -0.035 -0.013
 H         -0.002  0.326  0.120    0.004 -0.328 -0.119   -0.003  0.370  0.134
 C          0.000  0.002  0.018    0.000 -0.001  0.028   -0.000  0.001 -0.030
 H         -0.001  0.002 -0.203   -0.000  0.008 -0.290    0.001 -0.009  0.319
 C         -0.000 -0.046  0.013   -0.000 -0.025  0.007    0.000  0.028 -0.008
 H          0.008  0.503 -0.151    0.005  0.257 -0.077   -0.005 -0.291  0.087
 C         -0.000 -0.006 -0.013   -0.001 -0.013 -0.019    0.001  0.015  0.021
 H          0.006  0.084  0.127    0.010  0.136  0.196   -0.011 -0.153 -0.221
 C          0.001 -0.019  0.027   -0.001  0.019 -0.025    0.001 -0.020  0.027
 H         -0.012  0.220 -0.288    0.011 -0.199  0.259   -0.012  0.218 -0.283
 Fe         0.000  0.000 -0.000   -0.000  0.000 -0.000    0.000  0.000 -0.000
 TransDip  -0.000  0.102 -0.034   -0.025  0.002 -0.000    0.001  0.014  0.004

 STANDARD THERMODYNAMIC QUANTITIES AT   298.15 K  AND     1.00 ATM

   This Molecule has  1 Imaginary Frequencies
   Zero point vibrational energy:      106.632 kcal/mol

   Atom    1 Element C  Has Mass   12.00000
   Atom    2 Element H  Has Mass    1.00783
   Atom    3 Element C  Has Mass   12.00000
   Atom    4 Element H  Has Mass    1.00783
   Atom    5 Element C  Has Mass   12.00000
   Atom    6 Element H  Has Mass    1.00783
   Atom    7 Element C  Has Mass   12.00000
   Atom    8 Element H  Has Mass    1.00783
   Atom    9 Element C  Has Mass   12.00000
   Atom   10 Element H  Has Mass    1.00783
   Atom   11 Element C  Has Mass   12.00000
   Atom   12 Element H  Has Mass    1.00783
   Atom   13 Element C  Has Mass   12.00000
   Atom   14 Element H  Has Mass    1.00783
   Atom   15 Element C  Has Mass   12.00000
   Atom   16 Element H  Has Mass    1.00783
   Atom   17 Element C  Has Mass   12.00000
   Atom   18 Element H  Has Mass    1.00783
   Atom   19 Element C  Has Mass   12.00000
   Atom   20 Element H  Has Mass    1.00783
   Atom   21 Element Fe Has Mass   55.93490
   Molecular Mass:   186.013200 amu
   Principal axes and moments of inertia in amu*Bohr^2:
                             1           2           3
    Eigenvalues --      820.84584  1817.07835  1817.46691
          X               1.00000     0.00002     0.00002
          Y              -0.00002     0.99991     0.01312
          Z              -0.00002    -0.01312     0.99991
   Rotational Symmetry Number is   1
   The Molecule is an Asymmetric Top
   Translational Enthalpy:        0.889 kcal/mol
   Rotational Enthalpy:           0.889 kcal/mol
   Vibrational Enthalpy:        110.197 kcal/mol
   gas constant (RT):             0.592 kcal/mol
   Translational Entropy:        41.568  cal/mol.K
   Rotational Entropy:           29.384  cal/mol.K
   Vibrational Entropy:          22.833  cal/mol.K

   Total Enthalpy:              112.567 kcal/mol
   Total Entropy:                93.785  cal/mol.K
Archival summary:
1\1\mc0601\FREQ\ProcedureUnspecified\BasisUnspecified\e11010(+,2)\xhqu\SunDec2014:06:122015SunDec2014:06:122015\0\\#,FREQ,ProcedureUnspecified,BasisUnspecified,\\11,2\Fe\C,1,2.0877\H,2,1.08259,1,123.507\C,2,1.42926,1,71.8361,3,121.731,0\H,4,1.08258,2,126.032,1,-116.989,0\C,4,1.42344,2,108.08,1,61.3847,0\H,6,1.08284,4,125.837,2,-177.151,0\C,6,1.42297,4,108.221,2,-0.177157,0\H,8,1.08257,6,125.821,4,-177.955,0\C,8,1.42874,6,108.09,4,0.151659,0\H,10,1.08237,8,126.092,6,-179.968,0\C,1,2.0881,2,108.666,3,0.13211,0\H,12,1.08259,1,123.512,2,0.22046,0\C,12,1.42923,1,71.8353,2,-121.506,0\H,14,1.0826,12,126.03,1,116.95,0\C,14,1.42334,12,108.086,1,-61.3597,0\H,16,1.08287,14,125.828,12,177.106,0\C,16,1.42302,14,108.221,12,0.169435,0\H,18,1.08255,16,125.799,14,177.963,0\C,18,1.42884,16,108.089,14,-0.150076,0\H,20,1.08238,18,126.097,16,179.998,0\\\@

 Total job time:  1373.86s(wall), 1375.99s(cpu) 
 Sun Dec 20 14:06:12 2015

        *************************************************************
        *                                                           *
        *  Thank you very much for using Q-Chem.  Have a nice day.  *
        *                                                           *
        *************************************************************


0 sent ACK to 0 
now end server 0 ... 
