
Running Job 1 of 2 Mg0_resid3_3coord_c_go.inp
qchem Mg0_resid3_3coord_c_go.inp_36838.0 /tmp/eg_qchem/qchem36838/ 12
aprun -b -n 12 -L 5422 /global/project/projectdirs/jcesr/qchem/qc41/exe/qcprog.exe Mg0_resid3_3coord_c_go.inp_36838.0 /tmp/eg_qchem/qchem36838/

Process 11 of 12 is on nid05422 - thread support 0
Process 1 of 12 is on nid05422 - thread support 0
Process 5 of 12 is on nid05422 - thread support 0
Process 4 of 12 is on nid05422 - thread support 0
Process 6 of 12 is on nid05422 - thread support 0
Process 3 of 12 is on nid05422 - thread support 0
Process 2 of 12 is on nid05422 - thread support 0
Process 0 of 12 is on nid05422 - thread support 0
initial socket setup ...start 0 nproc 12 
initial socket setup ...done 0 nproc 12 
now start server 0 ... 
                  Welcome to Q-Chem
     A Quantum Leap Into The Future Of Chemistry

 Y. Shao, L. Fusti-Molnar, Y. Jung, J. Kussmann, C. Ochsenfeld, S. T. Brown, 
 A. T. B. Gilbert, L. V. Slipchenko, S. V. Levchenko, D. P. O'Neill, 
 R. A. DiStasio Jr., R. C. Lochan, T. Wang, G. J. O. Beran, N. A. Besley, 
 J. M. Herbert, C. Y. Lin, T. Van Voorhis, S. H. Chien, A. Sodt, R. P. Steele, 
 V. A. Rassolov, P. E. Maslen, P. P. Korambath, R. D. Adamson, B. Austin, 
 J. Baker, E. F. C. Byrd, H. Dachsel, R. J. Doerksen, A. Dreuw, B. D. Dunietz, 
 A. D. Dutoi, T. R. Furlani, S. R. Gwaltney, A. Heyden, S. Hirata, C.-P. Hsu, 
 G. Kedziora, R. Z. Khaliullin, P. Klunzinger, A. M. Lee, M. S. Lee, W. Liang, 
 I. Lotan, N. Nair, B. Peters, E. I. Proynov, P. A. Pieniazek, Y. M. Rhee, 
 J. Ritchie, E. Rosta, C. D. Sherrill, A. C. Simmonett, J. E. Subotnik, 
 H. L. Woodcock III, W. Zhang, A. T. Bell, A. K. Chakraborty, D. M. Chipman, 
 F. J. Keil, A. Warshel, W. J. Hehre, H. F. Schaefer III, J. Kong, 
 A. I. Krylov, P. M. W. Gill, M. Head-Gordon

 Additional authors for Version 3.1: 
 Z. Gan, Y. Zhao, N. E. SchultzD. Truhlar, E. Epifanovsky, M. Oana

 Additional authors for Version 3.2: 
 R. Baer, B. R. Brooks, D. Casanova, J.-D. Chai, C.-L. Cheng, C. Cramer, 
 D. Crittenden, A. Ghysels, G. Hawkins, E. G. Hohenstein, C. Kelley, 
 W. Kurlancheek, D. Liotard, E. Livshits, P. Manohar, A. Marenich, 
 D. Neuhauser, R. Olson, M. A. Rohrdanz, K. S. Thanthiriwatte, A. J. W. Thom, 
 V. Vanovschi, C. F. Williams, Q. Wu, Z.-Q. You

 Additional authors for Version 4.0: 
 A. Aspuru-Guzik, Y. Bernard, C. Chang, J. Deng, A. Dreuw, M. Diedenhofen, 
 R. G. Edgar, D. Ghosh, W. A. Goddard III, M. Goldey, L. D. Jacobson, 
 M. Gordon, B. Kaduk, I. Kaliman, K. Khistyaev, R. King, A. Klamt, 
 D. Kosenkov, T. Kus, D. Lambrecht, A. Landau, A. W. Lange, K. Lawler, F. Liu, 
 J. Liu, R. Olivares-Amaya, S. P. Mao, J. Parkhill, N. Russ, M. Schmidt, 
 N. Shenvi, D. Small, Y. C. Su, E. Sundstrom, L. Vogt, O. Vydrov, M. Watson, 
 M. Wormit, X. Xu, S. Yeganeh, I. Y. Zhang, D. Zuev

 Additional authors for Version 4.1: 
 X. Feng, M. W. D. Hanson-Heine, P. Horn, H. Ji, A. Laurent, R. Peverati, 
 N. Mardirossian, N. Sergueev, S. Sharada, P. Zimmerman


 Q-Chem, Version 4.1, Q-Chem, Inc., Pittsburgh, PA (2013).

 Intel X86 Linux Version 4.1.1

 Q-chem begins on Sun Apr 12 08:53:03 2015  

 Host: edison06

 Scratch files written to /tmp/eg_qchem/qchem36838.0//
 Nov1913 .. -1
 Parallel job on  12  processors

Processing $rem in /global/project/projectdirs/jcesr/qchem/qc41/config/preferences.
 mem_total = 4000
Finally everything over in PARseQInput

--------------------------------------------------------------
User input:
--------------------------------------------------------------
$molecule
0  2
Mg         -0.13951000       -0.75845000        0.07854000
O          -2.25817000       -0.95391000       -0.09588000
C          -2.85905000       -0.81907000       -1.39124000
C          -3.15986000       -1.08289000        1.02354000
C          -1.82010000       -1.22778000       -2.41174000
C          -4.19944000        0.01824000        1.12716000
O          -0.56841000       -0.59634000       -2.06064000
O          -3.57681000        1.28050000        1.28378000
C           0.39243000       -0.74318000       -3.12166000
C          -4.51437000        2.33871000        1.41025000
H          -3.17770000        0.22071000       -1.54180000
H          -3.73315000       -1.48013000       -1.48363000
H          -2.49973000       -1.10393000        1.89360000
H          -3.68549000       -2.04582000        0.93171000
H          -2.13208000       -0.89195000       -3.41104000
H          -1.67223000       -2.31690000       -2.43352000
H          -4.82998000       -0.21441000        2.00316000
H          -4.86325000        0.03164000        0.24649000
H          -0.01384000       -0.30777000       -4.04373000
H           0.62055000       -1.80470000       -3.28606000
H           1.28879000       -0.19952000       -2.82789000
H          -3.94239000        3.26296000        1.52757000
H          -5.15691000        2.19833000        2.29342000
H          -5.14905000        2.41851000        0.51425000
O          -0.00070000        1.32411000        0.70804000
C          -0.06116000        1.31453000        2.16919000
C          -0.42597000        2.60091000        0.20402000
C           0.45285000       -0.03450000        2.67810000
C          -0.40925000        2.68966000       -1.30556000
O          -0.12609000       -1.08943000        1.98347000
O           0.92641000        2.64674000       -1.78685000
C           1.03276000        3.01912000       -3.15431000
H          -1.11142000        1.47009000        2.44673000
H           0.55060000        2.14837000        2.54000000
H           0.23804000        3.37056000        0.61920000
H          -1.45075000        2.78694000        0.55238000
H           0.21698000       -0.06547000        3.76092000
H           1.55476000       -0.03673000        2.59357000
H          -0.87722000        3.65135000       -1.57513000
H          -1.00646000        1.88874000       -1.76377000
H           2.08615000        2.92282000       -3.43227000
H           0.71184000        4.06194000       -3.30288000
H           0.42613000        2.36671000       -3.79992000
O           2.04726000       -0.81652000       -0.25524000
C           2.54582000       -2.14892000       -0.45587000
C           2.94999000        0.22689000       -0.68621000
C           1.62005000       -3.11727000        0.24433000
C           4.12877000        0.46459000        0.24184000
O           0.28940000       -2.90127000       -0.24993000
O           3.68443000        1.02312000        1.46036000
C          -0.63788000       -3.84957000        0.30712000
C           4.73976000        1.27508000        2.37110000
H           3.55156000       -2.25010000       -0.03048000
H           2.59574000       -2.35677000       -1.53431000
H           2.34519000        1.13097000       -0.76592000
H           3.33356000       -0.03184000       -1.68458000
H           1.62000000       -2.95397000        1.32881000
H           1.93323000       -4.14549000        0.01465000
H           4.81218000        1.16007000       -0.27821000
H           4.69598000       -0.46247000        0.43081000
H          -1.60971000       -3.65614000       -0.14960000
H          -0.69336000       -3.72093000        1.39422000
H          -0.31648000       -4.86627000        0.05016000
H           5.46296000        1.99529000        1.95697000
H           5.27155000        0.34699000        2.63375000
H           4.28887000        1.69653000        3.27266000
$end


$rem
jobtype = opt
exchange = b3lyp
basis = 6-31+g*
mem_static = 200
mem_total = 2400
$end


--------------------------------------------------------------
 ----------------------------------------------------
       Standard Nuclear Orientation (Angstroms)
    I     Atom         X            Y            Z
 ----------------------------------------------------
    1      Mg     -0.139510    -0.758451     0.078539
    2      O      -2.258170    -0.953911    -0.095883
    3      C      -2.859049    -0.819069    -1.391243
    4      C      -3.159860    -1.082893     1.023537
    5      C      -1.820098    -1.227778    -2.411743
    6      C      -4.199441     0.018237     1.127158
    7      O      -0.568409    -0.596338    -2.060641
    8      O      -3.576811     1.280497     1.283780
    9      C       0.392432    -0.743176    -3.121661
   10      C      -4.514371     2.338707     1.410250
   11      H      -3.177699     0.220711    -1.541802
   12      H      -3.733149    -1.480130    -1.483634
   13      H      -2.499731    -1.103934     1.893597
   14      H      -3.685490    -2.045823     0.931705
   15      H      -2.132078    -0.891947    -3.411042
   16      H      -1.672228    -2.316898    -2.433524
   17      H      -4.829981    -0.214414     2.003157
   18      H      -4.863250     0.031638     0.246487
   19      H      -0.013838    -0.307765    -4.043730
   20      H       0.620552    -1.804696    -3.286062
   21      H       1.288792    -0.199517    -2.827890
   22      H      -3.942392     3.262957     1.527572
   23      H      -5.156912     2.198325     2.293420
   24      H      -5.149051     2.418508     0.514250
   25      O      -0.000701     1.324109     0.708042
   26      C      -0.061162     1.314527     2.169192
   27      C      -0.425971     2.600909     0.204023
   28      C       0.452848    -0.034504     2.678100
   29      C      -0.409250     2.689661    -1.305557
   30      O      -0.126091    -1.089433     1.983469
   31      O       0.926410     2.646742    -1.786846
   32      C       1.032761     3.019124    -3.154306
   33      H      -1.111422     1.470086     2.446731
   34      H       0.550598     2.148366     2.540003
   35      H       0.238039     3.370559     0.619204
   36      H      -1.450751     2.786938     0.552383
   37      H       0.216978    -0.065475     3.760920
   38      H       1.554759    -0.036733     2.593571
   39      H      -0.877220     3.651351    -1.575126
   40      H      -1.006459     1.888741    -1.763768
   41      H       2.086151     2.922824    -3.432265
   42      H       0.711841     4.061944    -3.302874
   43      H       0.426132     2.366714    -3.799917
   44      O       2.047260    -0.816520    -0.255240
   45      C       2.545821    -2.148919    -0.455871
   46      C       2.949990     0.226891    -0.686208
   47      C       1.620051    -3.117270     0.244327
   48      C       4.128770     0.464590     0.241843
   49      O       0.289401    -2.901270    -0.249934
   50      O       3.684429     1.023119     1.460363
   51      C      -0.637879    -3.849571     0.307115
   52      C       4.739758     1.275078     2.371104
   53      H       3.551561    -2.250100    -0.030481
   54      H       2.595741    -2.356768    -1.534312
   55      H       2.345190     1.130971    -0.765917
   56      H       3.333561    -0.031838    -1.684578
   57      H       1.620000    -2.953972     1.328807
   58      H       1.933231    -4.145490     0.014646
   59      H       4.812180     1.160071    -0.278206
   60      H       4.695980    -0.462470     0.430812
   61      H      -1.609709    -3.656141    -0.149606
   62      H      -0.693360    -3.720932     1.394215
   63      H      -0.316479    -4.866271     0.050154
   64      H       5.462958     1.995288     1.956976
   65      H       5.271548     0.346988     2.633753
   66      H       4.288868     1.696526     3.272665
 ----------------------------------------------------
 Molecular Point Group                 C1    NOp =  1
 Largest Abelian Subgroup              C1    NOp =  1
 Nuclear Repulsion Energy =  3373.8395558213 hartrees
 There are      113 alpha and      112 beta electrons
 Requested basis set is 6-31+G(d)
 There are 214 shells and 595 basis functions

Total QAlloc Memory Limit   2400 MB
Mega-Array Size       196 MB
MEM_STATIC part       200 MB
 A cutoff of  1.0D-11 yielded  16304 shell pairs
 There are    136852 function pairs
 Smallest overlap matrix eigenvalue = 1.17E-05

  Scale SEOQF with 1.000000e-02/1.000000e-01/1.000000e-01

 Standard Electronic Orientation quadrupole field applied
 Nucleus-field energy     =    -0.0000000050 hartrees
 Guess from superposition of atomic densities
 Warning:  Energy on first SCF cycle will be non-variational
 An unrestricted hybrid HF-DFT SCF calculation will be
 performed using Pulay DIIS extrapolation
 Exchange:     0.2000 Hartree-Fock + 0.0800 Slater + 0.7200 Becke88
 Correlation:  0.8100 LYP + 0.1900 VWN1RPA
 Using SG-1 standard quadrature grid
 SCF converges when DIIS error is below 1.0E-08
 ---------------------------------------
  Cycle       Energy         DIIS Error
 ---------------------------------------
    1   -1552.6771546378      2.87E-02
    2   -1547.8555248423      3.27E-03
    3   -1541.6391521817      8.90E-03
    4   -1547.9236443537      2.91E-03
    5   -1548.2949227133      9.68E-04
    6   -1548.3341594059      6.13E-04
    7   -1548.3495917545      1.57E-04
    8   -1548.3512110135      5.07E-05
    9   -1548.3514853198      2.28E-05
   10   -1548.3515445635      8.54E-06
   11   -1548.3515673099      5.16E-06
   12   -1548.3515725710      2.41E-06
   13   -1548.3515733480      7.30E-07
   14   -1548.3515734456      3.01E-07
   15   -1548.3515734670      1.37E-07
   16   -1548.3515734901      8.14E-08
   17   -1548.3515734945      2.73E-08
   18   -1548.3515734975      8.80E-09 Convergence criterion met
 ---------------------------------------
 <S^2> = 0.7501
 SCF time:  CPU 315.69 s  wall 322.77 s
 SCF   energy in the final basis set = -1548.3515734975
 Total energy in the final basis set = -1548.3515734975
 Analysis of SCF Wavefunction
 
 --------------------------------------------------------------
                    Orbital Energies (a.u.)
 --------------------------------------------------------------
 
 Alpha MOs
 -- Occupied --
-46.817 -19.213 -19.210 -19.207 -19.204 -19.193 -19.179 -19.175
-19.175 -19.061 -10.270 -10.264 -10.263 -10.262 -10.261 -10.259
-10.256 -10.256 -10.254 -10.251 -10.250 -10.247 -10.246 -10.245
-10.240 -10.232 -10.204  -3.090  -1.836  -1.835  -1.833  -1.089
 -1.085  -1.070  -1.068  -1.062  -1.055  -1.054  -1.048  -0.923
 -0.810  -0.808  -0.784  -0.771  -0.769  -0.717  -0.712  -0.708
 -0.694  -0.692  -0.684  -0.655  -0.652  -0.625  -0.621  -0.613
 -0.588  -0.549  -0.543  -0.537  -0.531  -0.530  -0.523  -0.518
 -0.517  -0.508  -0.506  -0.502  -0.496  -0.492  -0.490  -0.488
 -0.483  -0.477  -0.476  -0.471  -0.464  -0.461  -0.456  -0.449
 -0.435  -0.430  -0.425  -0.419  -0.415  -0.412  -0.406  -0.403
 -0.399  -0.394  -0.392  -0.388  -0.384  -0.379  -0.374  -0.374
 -0.373  -0.364  -0.355  -0.345  -0.343  -0.338  -0.316  -0.310
 -0.307  -0.304  -0.294  -0.283  -0.281  -0.278  -0.229  -0.212
 -0.049
 -- Virtual --
 -0.028  -0.020  -0.014   0.001   0.003   0.003   0.009   0.011
  0.015   0.020   0.023   0.025   0.026   0.031   0.034   0.036
  0.038   0.039   0.040   0.048   0.050   0.052   0.055   0.057
  0.062   0.062   0.066   0.068   0.070   0.072   0.074   0.076
  0.078   0.081   0.083   0.085   0.087   0.091   0.094   0.095
  0.097   0.100   0.103   0.107   0.109   0.113   0.116   0.118
  0.120   0.122   0.125   0.127   0.133   0.137   0.138   0.141
  0.146   0.149   0.150   0.153   0.154   0.159   0.162   0.164
  0.166   0.171   0.171   0.172   0.176   0.180   0.183   0.185
  0.187   0.188   0.191   0.193   0.197   0.198   0.200   0.200
  0.203   0.207   0.208   0.208   0.214   0.215   0.219   0.222
  0.223   0.225   0.227   0.229   0.231   0.234   0.235   0.238
  0.240   0.242   0.247   0.249   0.250   0.251   0.255   0.255
  0.262   0.264   0.265   0.266   0.270   0.271   0.272   0.275
  0.276   0.280   0.284   0.286   0.289   0.291   0.296   0.298
  0.300   0.309   0.311   0.312   0.316   0.319   0.322   0.326
  0.328   0.331   0.334   0.342   0.344   0.348   0.350   0.351
  0.355   0.356   0.364   0.365   0.369   0.370   0.376   0.381
  0.383   0.385   0.387   0.390   0.396   0.403   0.407   0.416
  0.416   0.421   0.425   0.428   0.438   0.442   0.451   0.456
  0.460   0.468   0.471   0.482   0.487   0.493   0.509   0.519
  0.529   0.533   0.548   0.553   0.566   0.583   0.589   0.605
  0.609   0.623   0.642   0.647   0.651   0.659   0.666   0.671
  0.679   0.682   0.691   0.692   0.698   0.700   0.713   0.717
  0.724   0.734   0.738   0.743   0.752   0.758   0.759   0.767
  0.775   0.776   0.788   0.791   0.798   0.800   0.806   0.814
  0.817   0.826   0.836   0.840   0.850   0.856   0.864   0.873
  0.878   0.884   0.888   0.898   0.910   0.921   0.931   0.938
  0.942   0.945   0.947   0.951   0.955   0.964   0.971   0.972
  0.978   0.981   0.988   0.999   1.003   1.005   1.006   1.008
  1.014   1.023   1.034   1.035   1.042   1.048   1.051   1.062
  1.065   1.069   1.083   1.088   1.097   1.103   1.107   1.109
  1.121   1.128   1.132   1.134   1.141   1.154   1.165   1.172
  1.174   1.182   1.202   1.207   1.219   1.221   1.225   1.229
  1.235   1.241   1.263   1.265   1.274   1.276   1.284   1.286
  1.295   1.304   1.308   1.325   1.327   1.333   1.342   1.348
  1.354   1.360   1.367   1.371   1.381   1.398   1.403   1.413
  1.417   1.420   1.436   1.452   1.457   1.479   1.485   1.494
  1.502   1.515   1.519   1.528   1.538   1.545   1.559   1.568
  1.573   1.578   1.586   1.591   1.598   1.615   1.630   1.647
  1.654   1.666   1.678   1.690   1.703   1.714   1.729   1.738
  1.744   1.748   1.767   1.778   1.783   1.791   1.797   1.804
  1.839   1.849   1.858   1.865   1.882   1.886   1.892   1.901
  1.911   1.915   1.917   1.921   1.945   1.947   1.965   1.975
  1.975   1.991   1.997   2.002   2.014   2.018   2.021   2.029
  2.042   2.050   2.059   2.060   2.068   2.073   2.078   2.082
  2.085   2.087   2.097   2.109   2.113   2.116   2.126   2.129
  2.137   2.146   2.150   2.152   2.154   2.161   2.166   2.173
  2.186   2.192   2.197   2.200   2.209   2.215   2.223   2.229
  2.239   2.244   2.250   2.252   2.258   2.266   2.274   2.275
  2.279   2.285   2.291   2.297   2.301   2.306   2.312   2.328
  2.334   2.342   2.384   2.393   2.394   2.416   2.436   2.441
  2.457   2.463   2.468   2.482   2.488   2.501   2.503   2.511
  2.515   2.528   2.533   2.537   2.543   2.560   2.562   2.574
  2.682   2.736   2.746   2.756   2.784   2.803   2.817   2.821
  2.828   2.850   2.863   2.883   2.889   2.923   2.932   2.957
  2.963   2.968   2.975   2.992   3.009   3.032   3.033   3.068
  4.286   4.297   4.328   4.341   4.349   4.367   4.379   4.396
  4.399   4.416   4.465   4.471   4.500   4.526   4.541   4.559
  4.567   4.621   4.639   4.660   4.712   4.752   4.826   4.859
  4.904   5.064
 
 Beta MOs
 -- Occupied --
-46.817 -19.213 -19.210 -19.207 -19.204 -19.193 -19.179 -19.175
-19.175 -19.061 -10.270 -10.263 -10.263 -10.261 -10.260 -10.258
-10.256 -10.256 -10.254 -10.251 -10.250 -10.246 -10.246 -10.245
-10.239 -10.232 -10.204  -3.090  -1.836  -1.835  -1.833  -1.089
 -1.085  -1.070  -1.068  -1.062  -1.055  -1.054  -1.048  -0.923
 -0.810  -0.808  -0.784  -0.771  -0.769  -0.717  -0.711  -0.708
 -0.693  -0.692  -0.684  -0.654  -0.651  -0.624  -0.620  -0.612
 -0.588  -0.549  -0.543  -0.537  -0.530  -0.529  -0.523  -0.518
 -0.517  -0.507  -0.506  -0.502  -0.495  -0.492  -0.490  -0.488
 -0.483  -0.476  -0.476  -0.470  -0.463  -0.461  -0.456  -0.448
 -0.435  -0.430  -0.425  -0.418  -0.415  -0.412  -0.406  -0.403
 -0.398  -0.394  -0.391  -0.388  -0.384  -0.379  -0.374  -0.374
 -0.373  -0.364  -0.354  -0.345  -0.343  -0.338  -0.316  -0.310
 -0.307  -0.304  -0.294  -0.283  -0.281  -0.278  -0.229  -0.212
 -- Virtual --
 -0.026  -0.023  -0.017  -0.012   0.002   0.004   0.006   0.010
  0.012   0.016   0.019   0.024   0.025   0.026   0.031   0.035
  0.036   0.037   0.040   0.041   0.048   0.050   0.052   0.055
  0.057   0.062   0.063   0.066   0.068   0.071   0.072   0.074
  0.076   0.078   0.081   0.083   0.086   0.088   0.090   0.094
  0.095   0.097   0.100   0.103   0.107   0.109   0.113   0.116
  0.118   0.120   0.122   0.125   0.127   0.133   0.137   0.138
  0.140   0.146   0.150   0.150   0.154   0.156   0.158   0.162
  0.164   0.166   0.170   0.172   0.173   0.177   0.179   0.183
  0.185   0.187   0.188   0.192   0.193   0.197   0.198   0.200
  0.201   0.204   0.207   0.208   0.209   0.213   0.215   0.219
  0.222   0.223   0.225   0.227   0.229   0.231   0.234   0.235
  0.238   0.240   0.242   0.247   0.248   0.250   0.252   0.255
  0.256   0.262   0.264   0.265   0.266   0.270   0.272   0.272
  0.275   0.276   0.280   0.284   0.286   0.289   0.292   0.296
  0.299   0.301   0.309   0.311   0.312   0.316   0.319   0.322
  0.325   0.328   0.331   0.334   0.342   0.344   0.349   0.350
  0.351   0.355   0.357   0.364   0.365   0.369   0.370   0.377
  0.381   0.383   0.385   0.387   0.389   0.396   0.403   0.408
  0.416   0.417   0.421   0.425   0.428   0.438   0.442   0.451
  0.456   0.461   0.468   0.471   0.482   0.487   0.493   0.509
  0.519   0.529   0.533   0.548   0.553   0.567   0.583   0.589
  0.604   0.609   0.623   0.642   0.648   0.651   0.660   0.666
  0.671   0.679   0.682   0.691   0.692   0.698   0.700   0.713
  0.717   0.724   0.734   0.738   0.743   0.752   0.758   0.759
  0.767   0.775   0.776   0.789   0.790   0.798   0.800   0.806
  0.814   0.817   0.826   0.836   0.840   0.850   0.856   0.864
  0.873   0.878   0.884   0.888   0.898   0.910   0.921   0.931
  0.938   0.942   0.945   0.947   0.952   0.955   0.964   0.971
  0.972   0.979   0.981   0.988   0.999   1.003   1.005   1.006
  1.008   1.014   1.023   1.034   1.035   1.042   1.048   1.052
  1.062   1.066   1.070   1.083   1.088   1.097   1.104   1.107
  1.109   1.121   1.128   1.133   1.134   1.142   1.154   1.166
  1.173   1.175   1.183   1.202   1.207   1.219   1.221   1.225
  1.229   1.235   1.242   1.263   1.265   1.274   1.276   1.284
  1.287   1.295   1.304   1.308   1.325   1.327   1.333   1.342
  1.348   1.354   1.360   1.367   1.371   1.381   1.398   1.403
  1.413   1.417   1.420   1.436   1.452   1.457   1.479   1.485
  1.494   1.502   1.515   1.519   1.528   1.538   1.545   1.559
  1.568   1.573   1.578   1.586   1.591   1.599   1.615   1.630
  1.647   1.655   1.666   1.678   1.690   1.703   1.714   1.729
  1.738   1.744   1.748   1.767   1.778   1.783   1.791   1.797
  1.804   1.839   1.849   1.859   1.865   1.883   1.886   1.893
  1.901   1.912   1.915   1.918   1.921   1.945   1.947   1.965
  1.975   1.976   1.991   1.997   2.003   2.014   2.019   2.021
  2.030   2.042   2.050   2.059   2.060   2.068   2.073   2.078
  2.082   2.085   2.087   2.097   2.109   2.113   2.116   2.126
  2.129   2.137   2.146   2.150   2.152   2.154   2.161   2.166
  2.173   2.186   2.192   2.197   2.201   2.209   2.215   2.223
  2.229   2.239   2.244   2.250   2.252   2.258   2.266   2.274
  2.275   2.280   2.285   2.291   2.297   2.302   2.306   2.313
  2.328   2.334   2.342   2.385   2.393   2.394   2.416   2.436
  2.441   2.457   2.463   2.469   2.482   2.488   2.501   2.504
  2.512   2.515   2.529   2.533   2.538   2.544   2.560   2.562
  2.574   2.682   2.736   2.747   2.756   2.784   2.803   2.818
  2.821   2.828   2.850   2.863   2.883   2.890   2.923   2.932
  2.957   2.963   2.968   2.975   2.992   3.009   3.032   3.033
  3.068   4.286   4.297   4.328   4.341   4.350   4.368   4.379
  4.396   4.400   4.416   4.466   4.471   4.500   4.526   4.541
  4.559   4.568   4.621   4.639   4.660   4.712   4.752   4.826
  4.859   4.904   5.064
 --------------------------------------------------------------
 
          Ground-State Mulliken Net Atomic Charges

     Atom                 Charge (a.u.)    Spin (a.u.)
  --------------------------------------------------------
      1 Mg                   -3.390820       1.751045
      2 O                    -0.100553      -0.003076
      3 C                     0.429638      -0.462155
      4 C                    -0.148864       0.114624
      5 C                    -0.440695       0.165519
      6 C                    -0.154865      -0.182904
      7 O                    -0.097648      -0.004647
      8 O                    -0.311997       0.003687
      9 C                    -0.295848      -0.092888
     10 C                    -0.310517      -0.034708
     11 H                     0.227750       0.012316
     12 H                     0.224359       0.011598
     13 H                     0.286685       0.000161
     14 H                     0.203793       0.005260
     15 H                     0.223963       0.014160
     16 H                     0.231072       0.014797
     17 H                     0.193483       0.001729
     18 H                     0.195564       0.003931
     19 H                     0.223085       0.011589
     20 H                     0.227871       0.012212
     21 H                     0.234405       0.002984
     22 H                     0.200785       0.001191
     23 H                     0.187934       0.001266
     24 H                     0.196283       0.002654
     25 O                    -0.101475      -0.000137
     26 C                    -0.035422       0.009115
     27 C                    -0.089912      -0.006670
     28 C                    -0.294023      -0.032000
     29 C                    -0.292393      -0.040054
     30 O                    -0.373537       0.001014
     31 O                    -0.294311       0.007084
     32 C                    -0.247649      -0.111687
     33 H                     0.225596       0.000072
     34 H                     0.184923       0.000267
     35 H                     0.211766       0.000577
     36 H                     0.222578       0.000761
     37 H                     0.155186       0.000227
     38 H                     0.197776       0.000188
     39 H                     0.191128       0.002954
     40 H                     0.225141       0.004805
     41 H                     0.198926       0.004968
     42 H                     0.187652       0.003824
     43 H                     0.200360       0.006062
     44 O                    -0.102112      -0.001852
     45 C                    -0.328545       0.084426
     46 C                     0.028375      -0.038927
     47 C                     0.142720      -0.194466
     48 C                    -0.466719       0.004483
     49 O                    -0.144226       0.008549
     50 O                    -0.285714       0.003266
     51 C                    -0.190752      -0.101443
     52 C                    -0.353776      -0.003329
     53 H                     0.200514       0.003299
     54 H                     0.229083       0.006939
     55 H                     0.297799       0.000142
     56 H                     0.197277       0.003768
     57 H                     0.260281       0.000587
     58 H                     0.200753       0.004948
     59 H                     0.190103       0.002138
     60 H                     0.176719       0.001502
     61 H                     0.220296       0.007189
     62 H                     0.241828       0.002388
     63 H                     0.204045       0.004033
     64 H                     0.183756       0.000319
     65 H                     0.185243       0.000257
     66 H                     0.205881       0.000070
  --------------------------------------------------------
  Sum of atomic charges =     0.000000
  Sum of spin   charges =     1.000000

 -----------------------------------------------------------------
                    Cartesian Multipole Moments
 -----------------------------------------------------------------
    Charge (ESU x 10^10)
                 0.0000
    Dipole Moment (Debye)
         X       3.0423      Y       3.2472      Z       5.5311
       Tot       7.0987
    Quadrupole Moments (Debye-Ang)
        XX    -168.3096     XY      -6.9757     YY    -188.5959
        XZ     -10.1598     YZ      -7.8398     ZZ    -212.7051
    Octapole Moments (Debye-Ang^2)
       XXX     107.2907    XXY      48.6065    XYY      31.7303
       YYY     101.3390    XXZ     135.5658    XYZ      -2.9384
       YYZ     102.8206    XZZ      55.0364    YZZ      77.5478
       ZZZ     232.6423
    Hexadecapole Moments (Debye-Ang^3)
      XXXX   -6923.3938   XXXY    -105.0330   XXYY   -2021.8066
      XYYY    -160.8441   YYYY   -4717.9771   XXXZ    -197.6844
      XXYZ     -37.5145   XYYZ     -87.4863   YYYZ    -347.5701
      XXZZ   -1981.2484   XYZZ      38.3571   YYZZ   -1603.2035
      XZZZ    -180.7320   YZZZ    -212.3587   ZZZZ   -4595.0245
 -----------------------------------------------------------------
 Calculating analytic gradient of the SCF energy
 Gradient of Coulomb and Exchange Energy
            1           2           3           4           5           6
    1   0.5405575  18.7050303   8.6407989   9.4971558   1.4607706   8.2452646
    2  -7.7558214   6.6493352   5.7127438   1.4548028   0.4431240   1.4164590
    3  -3.7070723  -0.2075204   6.9606247  -0.0949593   5.5626928  -1.1722132
            7           8           9          10          11          12
    1   2.9106821  10.4742877   3.3813867   6.1300012   3.8950139   7.0387817
    2   1.5808887 -10.3118916   3.5973104  -2.3972462  -7.1676456   4.4540769
    3  19.6932222  -7.0076966   8.8381330  -2.4142594   1.8432975   1.6254937
           13          14          15          16          17          18
    1  -3.7753483   4.3587837   3.0539164  -0.2278982   4.8512823   5.6355041
    2   1.0790744   6.9188294  -1.4915609   8.1247404   1.5996806   0.1182195
    3  -8.2467603  -0.2672436   7.7861028   1.7072467  -5.4826703   4.9782700
           19          20          21          22          23          24
    1   2.0650617  -1.8508239  -7.4507728  -2.5676429   4.4809163   4.6681736
    2  -2.4795696   7.4159865  -3.9688726  -6.8273251  -0.1081668  -1.4377204
    3   7.5826046   2.8926648  -0.2070946  -1.1545844  -5.1918851   4.7941000
           25          26          27          28          29          30
    1  -2.4229660  -1.4004740  -0.2364058   3.0202557  -0.8635188   0.2620006
    2 -15.1650414  -4.8072782  -8.0274202   0.0408492  -5.5875748  12.6459445
    3  -8.0080502  -4.2249307   0.9476623  -8.1076520   1.0310163 -24.7918228
           31          32          33          34          35          36
    1  -9.8283105  -1.2489449   7.3550097  -3.9487443  -4.1883899   7.0664440
    2 -14.0308327  -6.3483239  -1.8725792  -6.0930898  -6.9260101  -2.8840085
    3   7.8194847   5.0820353  -3.7493346  -4.1247163  -3.2198150  -2.5627025
           37          38          39          40          41          42
    1   1.0523701  -7.3772615   3.5868030   4.7220669  -7.1517482   1.4785191
    2   0.6930639   0.4591477  -6.7188763   4.1084377  -0.2510529  -6.7725805
    3  -7.6254029  -1.1963649   2.1045681   4.1409109   2.9811106   1.9593709
           43          44          45          46          47          48
    1   3.3534519 -18.3010977  -6.1814465  -8.8396090  -3.6769239  -8.2596444
    2   2.9091584   3.8715775   3.2114862   4.2523426  11.0217977  -0.3485383
    3   5.3706705   0.4136018  -1.0058495   2.6468247   2.7757029  -0.8972700
           49          50          51          52          53          54
    1  -0.9883890 -10.0785791  -1.0753843  -6.4246567  -7.7785335  -1.6256880
    2  21.5013652  -6.8384190  10.6199818  -2.2417416   2.0972240   2.4625301
    3   6.8726513  -9.6065064   1.0115883  -2.9421558  -2.3682494   7.9136158
           55          56          57          58          59          60
    1   3.6356597  -3.8149718  -0.7691494  -2.8586524  -5.2145885  -5.1878236
    2  -8.2412670   1.0068484   0.3143348   7.7028173  -4.1461577   5.2967295
    3   1.7708207   7.2109718  -8.6672906   0.9614571   3.2389144  -1.0415343
           61          62          63          64          65          66
    1   7.6309589   0.8343693  -1.3389590  -4.9499122  -4.0412237   1.9132045
    2   0.6143222   0.7130571   7.7060744  -4.3178813   4.8123896  -3.0622577
    3   3.0805015  -8.1707260   1.2294768   1.4609791  -2.3499849  -6.4740703
 Gradient of SCF Energy
            1           2           3           4           5           6
    1  -0.0006641   0.0005993   0.0000979   0.0005700  -0.0004156  -0.0000637
    2   0.0002026   0.0006086  -0.0002083  -0.0003554   0.0001158   0.0000997
    3  -0.0001408  -0.0000206   0.0000057  -0.0001488   0.0000879   0.0000924
            7           8           9          10          11          12
    1   0.0002986  -0.0003955   0.0002170   0.0001512  -0.0000821   0.0000269
    2   0.0001565  -0.0002281  -0.0000964  -0.0001500   0.0001435  -0.0000966
    3  -0.0002069  -0.0001888   0.0000237  -0.0000914   0.0003692  -0.0001480
           13          14          15          16          17          18
    1  -0.0004057  -0.0000892   0.0000094   0.0000892   0.0000938  -0.0000498
    2   0.0002088   0.0000148  -0.0000078  -0.0000574  -0.0000418   0.0000429
    3   0.0003099  -0.0000344   0.0000648   0.0000758  -0.0000515   0.0000240
           19          20          21          22          23          24
    1   0.0001660  -0.0001492  -0.0002197  -0.0000207  -0.0000445   0.0000728
    2   0.0000698   0.0000516   0.0000762   0.0000585   0.0001546   0.0000258
    3  -0.0000050  -0.0000631  -0.0000559  -0.0000099   0.0000624  -0.0000309
           25          26          27          28          29          30
    1  -0.0006647   0.0001584   0.0002614   0.0001222   0.0001005   0.0003478
    2  -0.0010313  -0.0002563   0.0002690   0.0002369   0.0000523  -0.0000591
    3  -0.0005323   0.0003483  -0.0003735   0.0003058  -0.0003456  -0.0000423
           31          32          33          34          35          36
    1  -0.0003491   0.0000198  -0.0000179  -0.0000417  -0.0000486   0.0001751
    2   0.0001079  -0.0001468   0.0003242  -0.0002131  -0.0000425   0.0003436
    3   0.0000621   0.0000924   0.0002493  -0.0000984   0.0000367   0.0001768
           37          38          39          40          41          42
    1  -0.0000707  -0.0000973  -0.0000776  -0.0000933  -0.0000000   0.0000456
    2   0.0000500  -0.0000130   0.0000111  -0.0000592   0.0000592   0.0000722
    3  -0.0000168  -0.0002403   0.0000700  -0.0000230  -0.0000013  -0.0000934
           43          44          45          46          47          48
    1   0.0000626   0.0004854   0.0002594  -0.0000148  -0.0000559   0.0001323
    2  -0.0002009  -0.0004743   0.0003338   0.0000984  -0.0002080  -0.0002496
    3  -0.0000093   0.0006823  -0.0001010  -0.0000979   0.0001240   0.0000120
           49          50          51          52          53          54
    1   0.0001473  -0.0000411  -0.0001144   0.0000843  -0.0000425  -0.0002614
    2   0.0001203   0.0000313   0.0000313  -0.0000560   0.0000975  -0.0000714
    3   0.0000453   0.0001398   0.0000764  -0.0000474  -0.0000606   0.0000880
           55          56          57          58          59          60
    1   0.0001281   0.0000155  -0.0002262   0.0000362  -0.0000711  -0.0000097
    2   0.0000286   0.0001232  -0.0000656   0.0000047   0.0000122   0.0001858
    3  -0.0000852  -0.0001172  -0.0000394  -0.0000015  -0.0001839   0.0000679
           61          62          63          64          65          66
    1  -0.0001087   0.0000866   0.0000890  -0.0000775  -0.0000480  -0.0000173
    2  -0.0002223  -0.0000606   0.0000211   0.0000294  -0.0000281   0.0000256
    3  -0.0000385  -0.0000369   0.0000473  -0.0000046   0.0000438   0.0000024
 Max gradient component =       1.031E-03
 RMS gradient           =       2.059E-04
 Gradient time:  CPU 70.68 s  wall 71.09 s
 Geometry Optimization Parameters
   NAtoms,    NIC,     NZ,  NCons,   NDum,   NFix, NCnnct, MaxDiis
       66     694       0       0       0       0       0       0


** GEOMETRY OPTIMIZATION IN DELOCALIZED INTERNAL COORDINATES **
   Searching for a Minimum

   Optimization Cycle:   1

                       Coordinates (Angstroms)
     ATOM              X           Y           Z
      1  Mg       -0.139510   -0.758451    0.078539
      2  O        -2.258170   -0.953911   -0.095883
      3  C        -2.859049   -0.819069   -1.391243
      4  C        -3.159860   -1.082893    1.023537
      5  C        -1.820098   -1.227778   -2.411743
      6  C        -4.199441    0.018237    1.127158
      7  O        -0.568409   -0.596338   -2.060641
      8  O        -3.576811    1.280497    1.283780
      9  C         0.392432   -0.743176   -3.121661
     10  C        -4.514371    2.338707    1.410250
     11  H        -3.177699    0.220711   -1.541802
     12  H        -3.733149   -1.480130   -1.483634
     13  H        -2.499731   -1.103934    1.893597
     14  H        -3.685490   -2.045823    0.931705
     15  H        -2.132078   -0.891947   -3.411042
     16  H        -1.672228   -2.316898   -2.433524
     17  H        -4.829981   -0.214414    2.003157
     18  H        -4.863250    0.031638    0.246487
     19  H        -0.013838   -0.307765   -4.043730
     20  H         0.620552   -1.804696   -3.286062
     21  H         1.288792   -0.199517   -2.827890
     22  H        -3.942392    3.262957    1.527572
     23  H        -5.156912    2.198325    2.293420
     24  H        -5.149051    2.418508    0.514250
     25  O        -0.000701    1.324109    0.708042
     26  C        -0.061162    1.314527    2.169192
     27  C        -0.425971    2.600909    0.204023
     28  C         0.452848   -0.034504    2.678100
     29  C        -0.409250    2.689661   -1.305557
     30  O        -0.126091   -1.089433    1.983469
     31  O         0.926410    2.646742   -1.786846
     32  C         1.032761    3.019124   -3.154306
     33  H        -1.111422    1.470086    2.446731
     34  H         0.550598    2.148366    2.540003
     35  H         0.238039    3.370559    0.619204
     36  H        -1.450751    2.786938    0.552383
     37  H         0.216978   -0.065475    3.760920
     38  H         1.554759   -0.036733    2.593571
     39  H        -0.877220    3.651351   -1.575126
     40  H        -1.006459    1.888741   -1.763768
     41  H         2.086151    2.922824   -3.432265
     42  H         0.711841    4.061944   -3.302874
     43  H         0.426132    2.366714   -3.799917
     44  O         2.047260   -0.816520   -0.255240
     45  C         2.545821   -2.148919   -0.455871
     46  C         2.949990    0.226891   -0.686208
     47  C         1.620051   -3.117270    0.244327
     48  C         4.128770    0.464590    0.241843
     49  O         0.289401   -2.901270   -0.249934
     50  O         3.684429    1.023119    1.460363
     51  C        -0.637879   -3.849571    0.307115
     52  C         4.739758    1.275078    2.371104
     53  H         3.551561   -2.250100   -0.030481
     54  H         2.595741   -2.356768   -1.534312
     55  H         2.345190    1.130971   -0.765917
     56  H         3.333561   -0.031838   -1.684578
     57  H         1.620000   -2.953972    1.328807
     58  H         1.933231   -4.145490    0.014646
     59  H         4.812180    1.160071   -0.278206
     60  H         4.695980   -0.462470    0.430812
     61  H        -1.609709   -3.656141   -0.149606
     62  H        -0.693360   -3.720932    1.394215
     63  H        -0.316479   -4.866271    0.050154
     64  H         5.462958    1.995288    1.956976
     65  H         5.271548    0.346988    2.633753
     66  H         4.288868    1.696526    3.272665
   Point Group: c1    Number of degrees of freedom:   192


   Energy is  -1548.351573498


 Attempting to Generate Delocalized Internal Coordinates
 GETINT wrote B to file, NVib is          192
 calling HSSCONV
 HCONV 3*NATOMS:          198
 wrote HINT to file
  writing hessian 

192 Hessian modes will be used to form the next step
  Hessian Eigenvalues:
     0.004661    0.005259    0.005497    0.005627    0.005940    0.006094
     0.006668    0.006786    0.006814    0.007554    0.008929    0.009536
     0.009605    0.009632    0.009933    0.010495    0.010546    0.010674
     0.010745    0.010904    0.012836    0.012950    0.013073    0.013454
     0.013508    0.014037    0.014204    0.014459    0.017564    0.022041
     0.023319    0.023713    0.029111    0.032276    0.035520    0.038364
     0.039526    0.042302    0.042422    0.042773    0.044174    0.051305
     0.051617    0.052125    0.052404    0.055095    0.055726    0.057281
     0.058273    0.061424    0.061632    0.061669    0.061956    0.062260
     0.063456    0.065048    0.066732    0.068745    0.070564    0.072698
     0.076247    0.076501    0.077335    0.079120    0.079908    0.082980
     0.087638    0.087962    0.089419    0.092284    0.094332    0.096318
     0.097323    0.098042    0.098621    0.100378    0.100394    0.100442
     0.100455    0.104823    0.104928    0.105142    0.110292    0.112159
     0.112978    0.113227    0.113579    0.118133    0.122560    0.123104
     0.129678    0.129843    0.130335    0.130549    0.138115    0.138225
     0.138490    0.141117    0.144805    0.160000    0.160000    0.160000
     0.160000    0.160000    0.160000    0.160000    0.160000    0.160000
     0.160000    0.160000    0.160000    0.160000    0.160000    0.160000
     0.162701    0.165904    0.168167    0.171257    0.205596    0.206676
     0.219830    0.219953    0.220156    0.220618    0.220650    0.220880
     0.226295    0.245683    0.250000    0.250000    0.250000    0.262200
     0.271351    0.284235    0.303148    0.304650    0.305720    0.311225
     0.327439    0.330069    0.331190    0.331269    0.332305    0.333393
     0.333573    0.333627    0.335207    0.335250    0.335542    0.335550
     0.335817    0.335841    0.336414    0.336595    0.337029    0.337462
     0.337469    0.337565    0.337784    0.337793    0.338315    0.338773
     0.338897    0.339022    0.339172    0.339426    0.339720    0.340367
     0.340490    0.340520    0.341183    0.343892    0.344414    0.345161
     0.345430    0.345786    0.346878    0.347387    0.349601    0.363063
     0.381763    0.388355    0.391400    0.397265    0.397850    0.399930
     0.422741    0.424037    0.425442    0.429821    0.430445    0.436639

 Minimum Search - Taking Simple RFO Step
 Searching for Lamda that Minimizes Along All modes
 Value Taken    Lamda =  -0.00014310
 Step Taken.  Stepsize is  0.097683

                             Maximum     Tolerance    Cnvgd?
         Gradient           0.001008      0.000300      NO
         Displacement       0.026921      0.001200      NO
         Energy change     *********      0.000001      NO


 New Cartesian Coordinates Obtained by Inverse Iteration

 Displacement from previous Coordinates is:  0.536807
 ----------------------------------------------------
       Standard Nuclear Orientation (Angstroms)
    I     Atom         X            Y            Z
 ----------------------------------------------------
    1      Mg     -0.146253    -0.765803     0.070700
    2      O      -2.265477    -0.965774    -0.109276
    3      C      -2.862272    -0.834429    -1.407153
    4      C      -3.166807    -1.092133     1.010559
    5      C      -1.819669    -1.250390    -2.421410
    6      C      -4.188501     0.023529     1.132244
    7      O      -0.569414    -0.616515    -2.069728
    8      O      -3.546569     1.273094     1.313786
    9      C       0.394767    -0.772591    -3.126257
   10      C      -4.470359     2.339487     1.470120
   11      H      -3.177854     0.204750    -1.566748
   12      H      -3.737489    -1.494042    -1.498446
   13      H      -2.500964    -1.132442     1.875583
   14      H      -3.705256    -2.047171     0.911544
   15      H      -2.127832    -0.920513    -3.423970
   16      H      -1.672797    -2.339668    -2.436355
   17      H      -4.823169    -0.214391     2.004009
   18      H      -4.851678     0.062734     0.251891
   19      H      -0.010240    -0.347179    -4.053576
   20      H       0.624680    -1.835575    -3.279156
   21      H       1.290626    -0.226113    -2.835345
   22      H      -3.886567     3.253639     1.606355
   23      H      -5.109487     2.184552     2.353208
   24      H      -5.109407     2.447935     0.580212
   25      O      -0.011561     1.322236     0.693193
   26      C      -0.081121     1.317095     2.153167
   27      C      -0.442454     2.594719     0.185106
   28      C       0.434950    -0.028640     2.669399
   29      C      -0.401219     2.689903    -1.323342
   30      O      -0.139419    -1.087578     1.977294
   31      O       0.942282     2.664926    -1.784537
   32      C       1.064922     3.069493    -3.141535
   33      H      -1.133627     1.468769     2.423482
   34      H       0.525510     2.154981     2.524316
   35      H       0.205986     3.370935     0.612661
   36      H      -1.475435     2.766279     0.516484
   37      H       0.195083    -0.055827     3.751447
   38      H       1.537388    -0.028561     2.590263
   39      H      -0.874537     3.648119    -1.595754
   40      H      -0.982140     1.885622    -1.796019
   41      H       2.121094     2.977421    -3.410269
   42      H       0.747335     4.116167    -3.267552
   43      H       0.463516     2.435384    -3.809670
   44      O       2.039559    -0.821151    -0.257635
   45      C       2.542414    -2.153886    -0.447947
   46      C       2.941691     0.221730    -0.690064
   47      C       1.615923    -3.119977     0.253787
   48      C       4.117719     0.466065     0.239802
   49      O       0.286289    -2.908410    -0.245507
   50      O       3.670742     1.033458     1.453042
   51      C      -0.643139    -3.852561     0.314373
   52      C       4.724929     1.295685     2.362295
   53      H       3.545937    -2.250734    -0.016061
   54      H       2.600249    -2.367335    -1.525020
   55      H       2.334882     1.123954    -0.776111
   56      H       3.328701    -0.042435    -1.685537
   57      H       1.613853    -2.950278     1.337378
   58      H       1.931271    -4.148963     0.030672
   59      H       4.803339     1.157978    -0.281931
   60      H       4.683994    -0.460326     0.436083
   61      H      -1.613227    -3.656368    -0.144573
   62      H      -0.700577    -3.718679     1.400836
   63      H      -0.325329    -4.871491     0.061815
   64      H       5.446433     2.014670     1.942950
   65      H       5.259754     0.371366     2.631853
   66      H       4.272648     1.722535     3.260576
 ----------------------------------------------------
 Molecular Point Group                 C1    NOp =  1
 Largest Abelian Subgroup              C1    NOp =  1
 Nuclear Repulsion Energy =  3373.4026591688 hartrees
 There are      113 alpha and      112 beta electrons
 Applying Cartesian multipole field
    Component          Value
    ---------          -----
     (2,0,0)        1.00000E-12
     (0,2,0)        2.00000E-11
     (0,0,2)       -3.00000E-11
 Nucleus-field energy     =    -0.0000000046 hartrees
 Requested basis set is 6-31+G(d)
 There are 214 shells and 595 basis functions
 A cutoff of  1.0D-11 yielded  16311 shell pairs
 There are    136987 function pairs
 Smallest overlap matrix eigenvalue = 1.18E-05
 Guess MOs from SCF MO coefficient file
Reading MOs from coefficient file
Reading MOs from coefficient file
 An unrestricted hybrid HF-DFT SCF calculation will be
 performed using Pulay DIIS extrapolation
 Exchange:     0.2000 Hartree-Fock + 0.0800 Slater + 0.7200 Becke88
 Correlation:  0.8100 LYP + 0.1900 VWN1RPA
 Using SG-1 standard quadrature grid
 SCF converges when DIIS error is below 1.0E-08
Geometry optimization detected.  Setting ReadMinima to 0
Setting SaveMinima to 0
 ---------------------------------------
  Cycle       Energy         DIIS Error
 ---------------------------------------
    1   -1548.3478795577      3.14E-04
    2   -1548.3515965065      2.55E-05
    3   -1548.3516014547      2.94E-05
    4   -1548.3516383500      6.41E-06
    5   -1548.3516395364      2.90E-06
    6   -1548.3516398394      8.53E-07
    7   -1548.3516398707      2.67E-07
    8   -1548.3516398789      7.55E-08
    9   -1548.3516398800      2.66E-08
   10   -1548.3516398842      1.31E-08
   11   -1548.3516398875      4.23E-09 Convergence criterion met
 ---------------------------------------
 <S^2> = 0.7501
 SCF time:  CPU 178.36 s  wall 180.90 s
 SCF   energy in the final basis set = -1548.3516398875
 Total energy in the final basis set = -1548.3516398875
 Analysis of SCF Wavefunction
 
 --------------------------------------------------------------
                    Orbital Energies (a.u.)
 --------------------------------------------------------------
 
 Alpha MOs
 -- Occupied --
-46.817 -19.213 -19.210 -19.207 -19.204 -19.192 -19.179 -19.175
-19.174 -19.061 -10.270 -10.264 -10.263 -10.262 -10.260 -10.258
-10.256 -10.256 -10.254 -10.251 -10.250 -10.247 -10.246 -10.245
-10.239 -10.231 -10.204  -3.090  -1.836  -1.835  -1.833  -1.089
 -1.085  -1.070  -1.068  -1.062  -1.055  -1.054  -1.048  -0.923
 -0.810  -0.808  -0.784  -0.771  -0.769  -0.717  -0.712  -0.708
 -0.694  -0.692  -0.684  -0.655  -0.652  -0.625  -0.621  -0.613
 -0.588  -0.549  -0.543  -0.537  -0.531  -0.530  -0.523  -0.518
 -0.516  -0.507  -0.506  -0.502  -0.496  -0.492  -0.490  -0.488
 -0.483  -0.477  -0.476  -0.470  -0.464  -0.461  -0.456  -0.449
 -0.435  -0.430  -0.425  -0.419  -0.415  -0.412  -0.405  -0.403
 -0.399  -0.395  -0.392  -0.388  -0.384  -0.379  -0.374  -0.374
 -0.373  -0.364  -0.354  -0.345  -0.343  -0.338  -0.316  -0.310
 -0.308  -0.304  -0.293  -0.283  -0.281  -0.277  -0.229  -0.212
 -0.049
 -- Virtual --
 -0.028  -0.020  -0.014   0.001   0.003   0.004   0.009   0.011
  0.015   0.020   0.023   0.025   0.026   0.031   0.034   0.036
  0.038   0.039   0.040   0.048   0.050   0.052   0.055   0.057
  0.062   0.062   0.066   0.068   0.070   0.072   0.074   0.075
  0.078   0.081   0.083   0.085   0.087   0.091   0.093   0.095
  0.097   0.101   0.103   0.107   0.108   0.114   0.116   0.118
  0.120   0.123   0.125   0.128   0.133   0.137   0.138   0.140
  0.146   0.150   0.151   0.153   0.154   0.159   0.162   0.165
  0.166   0.171   0.171   0.173   0.176   0.180   0.183   0.186
  0.187   0.188   0.192   0.193   0.197   0.198   0.200   0.201
  0.203   0.207   0.208   0.209   0.214   0.215   0.219   0.222
  0.223   0.225   0.226   0.229   0.231   0.234   0.235   0.237
  0.240   0.242   0.247   0.249   0.251   0.251   0.255   0.256
  0.262   0.264   0.265   0.266   0.270   0.271   0.272   0.275
  0.276   0.280   0.284   0.286   0.290   0.291   0.296   0.298
  0.300   0.309   0.311   0.312   0.316   0.320   0.323   0.326
  0.329   0.331   0.334   0.343   0.344   0.348   0.350   0.352
  0.356   0.356   0.364   0.364   0.369   0.370   0.376   0.381
  0.383   0.386   0.387   0.390   0.396   0.402   0.407   0.416
  0.416   0.422   0.426   0.427   0.438   0.443   0.452   0.456
  0.460   0.468   0.471   0.482   0.486   0.492   0.508   0.519
  0.529   0.533   0.549   0.552   0.566   0.582   0.588   0.605
  0.609   0.621   0.642   0.648   0.652   0.658   0.666   0.671
  0.679   0.682   0.691   0.693   0.698   0.700   0.712   0.718
  0.723   0.734   0.738   0.744   0.751   0.757   0.760   0.767
  0.776   0.779   0.791   0.792   0.796   0.800   0.807   0.815
  0.815   0.825   0.836   0.839   0.850   0.855   0.864   0.874
  0.878   0.884   0.887   0.899   0.910   0.921   0.932   0.938
  0.941   0.945   0.948   0.951   0.956   0.964   0.970   0.972
  0.978   0.980   0.987   0.999   1.001   1.005   1.006   1.008
  1.013   1.023   1.033   1.035   1.042   1.048   1.052   1.063
  1.066   1.070   1.084   1.088   1.098   1.103   1.107   1.108
  1.119   1.128   1.131   1.133   1.141   1.154   1.165   1.172
  1.174   1.182   1.203   1.208   1.218   1.221   1.225   1.230
  1.234   1.242   1.263   1.265   1.273   1.276   1.285   1.287
  1.293   1.303   1.308   1.324   1.327   1.333   1.341   1.351
  1.354   1.360   1.367   1.371   1.380   1.399   1.403   1.413
  1.418   1.421   1.436   1.451   1.457   1.479   1.486   1.495
  1.502   1.514   1.520   1.529   1.535   1.546   1.559   1.566
  1.574   1.577   1.585   1.590   1.599   1.615   1.629   1.647
  1.655   1.667   1.677   1.690   1.701   1.714   1.729   1.737
  1.740   1.748   1.766   1.777   1.783   1.792   1.796   1.804
  1.839   1.850   1.858   1.866   1.881   1.886   1.893   1.902
  1.911   1.915   1.918   1.921   1.945   1.947   1.965   1.974
  1.976   1.991   1.997   2.001   2.014   2.018   2.021   2.031
  2.040   2.050   2.059   2.060   2.068   2.073   2.077   2.083
  2.085   2.087   2.098   2.109   2.113   2.117   2.126   2.128
  2.137   2.146   2.150   2.153   2.154   2.160   2.166   2.173
  2.186   2.192   2.197   2.200   2.209   2.214   2.223   2.229
  2.238   2.244   2.250   2.252   2.258   2.267   2.273   2.275
  2.280   2.284   2.291   2.297   2.302   2.306   2.312   2.328
  2.334   2.343   2.385   2.393   2.394   2.416   2.435   2.441
  2.457   2.462   2.469   2.482   2.488   2.500   2.503   2.511
  2.515   2.529   2.533   2.538   2.544   2.561   2.562   2.575
  2.681   2.735   2.746   2.756   2.784   2.803   2.816   2.820
  2.827   2.849   2.863   2.882   2.891   2.922   2.932   2.957
  2.962   2.968   2.976   2.993   3.008   3.031   3.033   3.067
  4.286   4.298   4.328   4.341   4.349   4.365   4.380   4.396
  4.399   4.413   4.468   4.469   4.501   4.528   4.540   4.558
  4.565   4.621   4.642   4.663   4.712   4.752   4.824   4.859
  4.902   5.060
 
 Beta MOs
 -- Occupied --
-46.817 -19.213 -19.210 -19.207 -19.204 -19.192 -19.179 -19.175
-19.174 -19.061 -10.270 -10.263 -10.263 -10.261 -10.260 -10.258
-10.256 -10.256 -10.254 -10.251 -10.250 -10.246 -10.246 -10.245
-10.239 -10.231 -10.204  -3.090  -1.836  -1.835  -1.833  -1.089
 -1.085  -1.070  -1.068  -1.062  -1.055  -1.054  -1.048  -0.923
 -0.810  -0.808  -0.784  -0.771  -0.769  -0.717  -0.711  -0.708
 -0.693  -0.692  -0.684  -0.654  -0.651  -0.624  -0.620  -0.612
 -0.588  -0.549  -0.543  -0.537  -0.531  -0.530  -0.523  -0.518
 -0.516  -0.507  -0.506  -0.502  -0.495  -0.492  -0.490  -0.488
 -0.483  -0.476  -0.476  -0.470  -0.464  -0.461  -0.456  -0.448
 -0.434  -0.430  -0.425  -0.419  -0.415  -0.412  -0.405  -0.403
 -0.399  -0.394  -0.391  -0.388  -0.383  -0.379  -0.374  -0.374
 -0.373  -0.364  -0.354  -0.345  -0.343  -0.338  -0.316  -0.310
 -0.307  -0.304  -0.293  -0.283  -0.281  -0.277  -0.229  -0.212
 -- Virtual --
 -0.026  -0.023  -0.017  -0.012   0.002   0.004   0.006   0.010
  0.012   0.016   0.019   0.024   0.025   0.026   0.031   0.035
  0.036   0.038   0.040   0.041   0.048   0.050   0.052   0.055
  0.057   0.062   0.063   0.066   0.068   0.071   0.072   0.074
  0.075   0.078   0.081   0.083   0.086   0.088   0.090   0.094
  0.095   0.097   0.100   0.103   0.107   0.109   0.113   0.116
  0.118   0.120   0.123   0.125   0.128   0.133   0.137   0.138
  0.140   0.146   0.150   0.150   0.154   0.155   0.158   0.162
  0.164   0.166   0.171   0.172   0.173   0.177   0.179   0.183
  0.185   0.187   0.188   0.192   0.193   0.197   0.198   0.200
  0.201   0.204   0.207   0.208   0.209   0.213   0.216   0.219
  0.222   0.223   0.225   0.227   0.229   0.231   0.234   0.235
  0.238   0.240   0.242   0.247   0.248   0.251   0.252   0.255
  0.256   0.262   0.264   0.265   0.266   0.270   0.271   0.272
  0.274   0.276   0.280   0.284   0.286   0.290   0.292   0.296
  0.299   0.301   0.309   0.311   0.312   0.316   0.320   0.323
  0.325   0.328   0.331   0.334   0.342   0.344   0.348   0.350
  0.351   0.356   0.356   0.364   0.365   0.369   0.370   0.376
  0.380   0.383   0.386   0.386   0.390   0.396   0.403   0.407
  0.416   0.416   0.422   0.426   0.427   0.438   0.442   0.452
  0.456   0.460   0.468   0.471   0.482   0.486   0.492   0.508
  0.519   0.529   0.533   0.549   0.552   0.566   0.582   0.588
  0.605   0.609   0.622   0.642   0.648   0.652   0.658   0.666
  0.671   0.679   0.682   0.691   0.693   0.698   0.700   0.712
  0.718   0.723   0.734   0.738   0.744   0.752   0.757   0.760
  0.767   0.776   0.779   0.791   0.792   0.796   0.800   0.807
  0.815   0.815   0.825   0.836   0.839   0.850   0.855   0.864
  0.873   0.878   0.885   0.887   0.900   0.910   0.921   0.932
  0.938   0.941   0.945   0.948   0.951   0.956   0.964   0.970
  0.972   0.978   0.980   0.987   1.000   1.001   1.006   1.006
  1.008   1.014   1.023   1.033   1.035   1.042   1.048   1.052
  1.063   1.066   1.070   1.084   1.088   1.098   1.103   1.107
  1.109   1.119   1.128   1.131   1.134   1.141   1.154   1.166
  1.172   1.174   1.182   1.203   1.209   1.219   1.222   1.225
  1.230   1.235   1.242   1.264   1.265   1.273   1.276   1.285
  1.287   1.294   1.303   1.308   1.324   1.327   1.333   1.341
  1.351   1.354   1.360   1.367   1.371   1.381   1.399   1.403
  1.413   1.418   1.421   1.436   1.451   1.457   1.479   1.486
  1.495   1.502   1.514   1.520   1.529   1.535   1.546   1.559
  1.566   1.574   1.577   1.585   1.590   1.599   1.615   1.629
  1.647   1.655   1.667   1.677   1.690   1.701   1.714   1.729
  1.737   1.741   1.748   1.767   1.777   1.783   1.792   1.796
  1.804   1.839   1.850   1.859   1.866   1.882   1.886   1.893
  1.902   1.911   1.915   1.919   1.921   1.945   1.947   1.965
  1.974   1.976   1.991   1.998   2.001   2.014   2.018   2.021
  2.031   2.041   2.050   2.059   2.060   2.069   2.073   2.077
  2.083   2.085   2.087   2.098   2.109   2.114   2.117   2.126
  2.128   2.137   2.146   2.150   2.153   2.154   2.161   2.166
  2.173   2.186   2.192   2.197   2.200   2.209   2.214   2.223
  2.229   2.238   2.244   2.251   2.252   2.258   2.267   2.274
  2.275   2.280   2.284   2.291   2.297   2.302   2.306   2.312
  2.328   2.335   2.343   2.385   2.393   2.394   2.416   2.436
  2.442   2.457   2.462   2.469   2.482   2.488   2.501   2.503
  2.511   2.515   2.529   2.533   2.539   2.544   2.561   2.562
  2.575   2.681   2.735   2.747   2.756   2.784   2.803   2.817
  2.821   2.827   2.849   2.863   2.883   2.891   2.922   2.932
  2.958   2.962   2.968   2.976   2.993   3.008   3.031   3.033
  3.068   4.286   4.298   4.328   4.342   4.349   4.366   4.380
  4.397   4.399   4.413   4.468   4.470   4.501   4.528   4.541
  4.558   4.565   4.621   4.643   4.663   4.712   4.752   4.824
  4.859   4.902   5.060
 --------------------------------------------------------------
 
          Ground-State Mulliken Net Atomic Charges

     Atom                 Charge (a.u.)    Spin (a.u.)
  --------------------------------------------------------
      1 Mg                   -3.384717       1.755145
      2 O                    -0.109559      -0.003111
      3 C                     0.401276      -0.444247
      4 C                    -0.138174       0.106686
      5 C                    -0.408622       0.145299
      6 C                    -0.169903      -0.173653
      7 O                    -0.095511      -0.004549
      8 O                    -0.311596       0.003357
      9 C                    -0.291116      -0.094637
     10 C                    -0.308448      -0.035562
     11 H                     0.227054       0.012516
     12 H                     0.223924       0.011568
     13 H                     0.287412       0.000186
     14 H                     0.203468       0.005315
     15 H                     0.223976       0.014197
     16 H                     0.230894       0.014651
     17 H                     0.193375       0.001795
     18 H                     0.195793       0.003913
     19 H                     0.223368       0.011618
     20 H                     0.227771       0.012295
     21 H                     0.233997       0.003040
     22 H                     0.200955       0.001118
     23 H                     0.188237       0.001241
     24 H                     0.196361       0.002641
     25 O                    -0.104342      -0.000192
     26 C                    -0.037989       0.009534
     27 C                    -0.077745      -0.004800
     28 C                    -0.294376      -0.031840
     29 C                    -0.309300      -0.043435
     30 O                    -0.375996       0.001003
     31 O                    -0.291817       0.007142
     32 C                    -0.248358      -0.110941
     33 H                     0.228050       0.000061
     34 H                     0.184059       0.000267
     35 H                     0.210893       0.000590
     36 H                     0.222886       0.000819
     37 H                     0.155055       0.000229
     38 H                     0.197341       0.000185
     39 H                     0.191157       0.002975
     40 H                     0.225226       0.004979
     41 H                     0.198713       0.004718
     42 H                     0.187495       0.003768
     43 H                     0.201076       0.006087
     44 O                    -0.102283      -0.001629
     45 C                    -0.328139       0.084040
     46 C                     0.021877      -0.038085
     47 C                     0.142416      -0.193704
     48 C                    -0.457845       0.002035
     49 O                    -0.142647       0.008561
     50 O                    -0.285160       0.003218
     51 C                    -0.191997      -0.099948
     52 C                    -0.353046      -0.003699
     53 H                     0.200653       0.003279
     54 H                     0.229151       0.006872
     55 H                     0.298543       0.000129
     56 H                     0.196948       0.003785
     57 H                     0.260313       0.000586
     58 H                     0.200886       0.004920
     59 H                     0.190017       0.002122
     60 H                     0.176549       0.001478
     61 H                     0.220563       0.007083
     62 H                     0.241877       0.002362
     63 H                     0.204308       0.003969
     64 H                     0.183712       0.000323
     65 H                     0.185132       0.000258
     66 H                     0.205931       0.000073
  --------------------------------------------------------
  Sum of atomic charges =    -0.000000
  Sum of spin   charges =     1.000000

 -----------------------------------------------------------------
                    Cartesian Multipole Moments
 -----------------------------------------------------------------
    Charge (ESU x 10^10)
                -0.0000
    Dipole Moment (Debye)
         X       3.0452      Y       3.2064      Z       5.5407
       Tot       7.0890
    Quadrupole Moments (Debye-Ang)
        XX    -168.3583     XY      -6.8754     YY    -188.3939
        XZ     -10.3376     YZ      -7.7866     ZZ    -212.8111
    Octapole Moments (Debye-Ang^2)
       XXX     108.3219    XXY      48.5613    XYY      32.2981
       YYY     102.6255    XXZ     135.8689    XYZ      -3.7943
       YYZ     102.9644    XZZ      55.4526    YZZ      77.6824
       ZZZ     234.1680
    Hexadecapole Moments (Debye-Ang^3)
      XXXX   -6894.8664   XXXY    -112.2217   XXYY   -2020.6801
      XYYY    -170.2370   YYYY   -4749.8733   XXXZ    -191.3027
      XXYZ     -37.4275   XYYZ     -86.1289   YYYZ    -354.7101
      XXZZ   -1975.7406   XYZZ      34.2971   YYZZ   -1606.2341
      XZZZ    -174.4817   YZZZ    -214.3816   ZZZZ   -4608.8055
 -----------------------------------------------------------------
 Calculating analytic gradient of the SCF energy
 Gradient of Coulomb and Exchange Energy
            1           2           3           4           5           6
    1   0.6255132  18.6549631   8.5175037   9.6345361   1.6015125   8.3435925
    2  -7.5406016   6.6923909   5.5873342   1.4059589   0.5721890   1.2698188
    3  -3.8519559  -0.0340900   6.9141644   0.0206955   5.6334302  -1.2749357
            7           8           9          10          11          12
    1   2.7668389  10.4275961   3.3787769   6.0933181   3.8652320   7.0413093
    2   1.4962125 -10.2985292   3.5672515  -2.3742499  -7.1549994   4.4422746
    3  19.6963161  -7.1765357   8.8998906  -2.4209125   1.9329473   1.6247765
           13          14          15          16          17          18
    1  -3.8326369   4.4255817   3.0232129  -0.2135471   4.8780751   5.6464621
    2   1.2552369   6.8742081  -1.4457631   8.1307041   1.6221064  -0.0578288
    3  -8.1736823  -0.2417680   7.7960749   1.6722581  -5.4456372   4.9797090
           19          20          21          22          23          24
    1   2.0629561  -1.8684492  -7.4469117  -2.6572806   4.4574557   4.6865742
    2  -2.4018153   7.4256100  -3.9577169  -6.7816096  -0.0215107  -1.5956518
    3   7.6080698   2.8071055  -0.1990152  -1.3052751  -5.2227256   4.7352067
           25          26          27          28          29          30
    1  -2.4559296  -1.4447696  -0.3507535   3.0262586  -0.8223085   0.2823877
    2 -15.1426269  -4.8192690  -7.9484788  -0.0108581  -5.6170993  12.6012525
    3  -7.7056656  -4.2739064   1.0751014  -7.9507272   0.9379744 -24.8363114
           31          32          33          34          35          36
    1  -9.7318654  -1.2954182   7.4123294  -3.9060608  -4.0747974   7.1359703
    2 -13.9303039  -6.2145521  -1.8502739  -6.1269661  -6.9743386  -2.7341529
    3   7.7534415   4.9927274  -3.6656639  -4.1191497  -3.2805471  -2.4297748
           37          38          39          40          41          42
    1   1.0717712  -7.3711598   3.6124909   4.5790284  -7.1671288   1.4495907
    2   0.6645628   0.4333638  -6.6752856   4.1325014  -0.2825842  -6.7869745
    3  -7.6281922  -1.2503354   2.1395276   4.2611528   2.8991336   1.8028250
           43          44          45          46          47          48
    1   3.3172203 -18.2238062  -6.1409854  -8.9434191  -3.6711834  -8.1914242
    2   2.7604034   3.8055956   3.1754261   4.2313592  11.0343206  -0.3295380
    3   5.4707566   0.4629446  -1.0098562   2.6484295   2.7324986  -0.8860056
           49          50          51          52          53          54
    1  -1.0315287 -10.0545069  -1.1235359  -6.4042008  -7.7617594  -1.6933387
    2  21.5121658  -6.8903521  10.6578564  -2.2579133   2.0763961   2.5010176
    3   6.8182264  -9.5926211   0.9493465  -2.9363181  -2.4216924   7.8904704
           55          56          57          58          59          60
    1   3.6660868  -3.8330384  -0.7722052  -2.8724872  -5.2354869  -5.1767965
    2  -8.2242261   1.0545544   0.2585644   7.7064704  -4.1247796   5.2911487
    3   1.8273354   7.1884634  -8.6681797   0.9119874   3.2383814  -1.0861459
           61          62          63          64          65          66
    1   7.6175296   0.8570036  -1.3119332  -4.9440263  -4.0589386   1.9249409
    2   0.5797755   0.6709301   7.7226683  -4.3168757   4.7792597  -3.1031642
    3   3.0907987  -8.1744114   1.2014019   1.4879117  -2.3835030  -6.4559405
 Gradient of SCF Energy
            1           2           3           4           5           6
    1  -0.0005675   0.0005346  -0.0000688   0.0000254  -0.0000388  -0.0003002
    2   0.0000304   0.0001831   0.0002115  -0.0000877  -0.0000767   0.0003964
    3  -0.0002502   0.0003410  -0.0000435  -0.0002122   0.0001510  -0.0001209
            7           8           9          10          11          12
    1   0.0003224   0.0000874   0.0000282   0.0001608  -0.0000012   0.0000718
    2   0.0002326  -0.0001226  -0.0001078  -0.0000888  -0.0000771  -0.0001058
    3  -0.0001925   0.0001494   0.0001169  -0.0000946  -0.0000364  -0.0001156
           13          14          15          16          17          18
    1  -0.0001257   0.0001264  -0.0000043  -0.0000226   0.0000721  -0.0000456
    2  -0.0000477  -0.0000936  -0.0000273  -0.0000557   0.0000166  -0.0001192
    3  -0.0001416   0.0001013   0.0000272  -0.0000128   0.0000290   0.0001643
           19          20          21          22          23          24
    1  -0.0000303  -0.0000960  -0.0000345   0.0000161   0.0000172  -0.0000209
    2  -0.0000629   0.0000350  -0.0000578   0.0000252  -0.0000019   0.0000325
    3  -0.0000193  -0.0000457   0.0000532  -0.0000126   0.0000027  -0.0000194
           25          26          27          28          29          30
    1  -0.0008911  -0.0001495   0.0004566   0.0002321  -0.0000383   0.0002248
    2  -0.0007145  -0.0001218   0.0000725  -0.0000777  -0.0001630   0.0001455
    3  -0.0001059  -0.0001168  -0.0001780   0.0000168  -0.0001547   0.0000918
           31          32          33          34          35          36
    1  -0.0002090  -0.0001180  -0.0001036   0.0000274   0.0000875  -0.0000012
    2   0.0002088  -0.0000976   0.0003627   0.0000212  -0.0000218   0.0001140
    3   0.0000598   0.0000662   0.0001761  -0.0001503  -0.0000464   0.0002000
           37          38          39          40          41          42
    1  -0.0000294  -0.0000516   0.0000745   0.0000279   0.0000477  -0.0000449
    2   0.0000486   0.0000328   0.0000405   0.0001230   0.0000233  -0.0000444
    3  -0.0000296  -0.0000764  -0.0000330   0.0000373  -0.0000084  -0.0000174
           43          44          45          46          47          48
    1   0.0000310   0.0004448   0.0000475  -0.0000752   0.0000496   0.0000587
    2   0.0001686   0.0000435   0.0000906  -0.0000085  -0.0001126  -0.0001729
    3  -0.0000026   0.0004594  -0.0000375   0.0000510   0.0000862  -0.0000152
           49          50          51          52          53          54
    1  -0.0001872   0.0000030   0.0000930   0.0000322  -0.0000065  -0.0001077
    2   0.0000942   0.0000790  -0.0001089  -0.0000163   0.0000091  -0.0000702
    3  -0.0000435  -0.0000417   0.0000088  -0.0000144  -0.0000365   0.0000175
           55          56          57          58          59          60
    1  -0.0000245  -0.0000328  -0.0000135   0.0000602  -0.0000180   0.0000073
    2  -0.0000474  -0.0000259  -0.0000033   0.0000046   0.0000525   0.0000326
    3  -0.0000335   0.0000002   0.0000125   0.0000004   0.0000018  -0.0000078
           61          62          63          64          65          66
    1   0.0000286   0.0000036  -0.0000166  -0.0000109  -0.0000187   0.0000041
    2   0.0000182  -0.0000130  -0.0000411   0.0000050   0.0000245   0.0000151
    3  -0.0000529   0.0000202   0.0000391   0.0000118   0.0000184   0.0000084
 Max gradient component =       8.911E-04
 RMS gradient           =       1.522E-04
 Gradient time:  CPU 70.64 s  wall 70.92 s
 Geometry Optimization Parameters
   NAtoms,    NIC,     NZ,  NCons,   NDum,   NFix, NCnnct, MaxDiis
       66     694       0       0       0       0       0       0

 Cartesian Hessian Update
 Hessian Updated using BFGS Update


** GEOMETRY OPTIMIZATION IN DELOCALIZED INTERNAL COORDINATES **
   Searching for a Minimum

   Optimization Cycle:   2

                       Coordinates (Angstroms)
     ATOM              X           Y           Z
      1  Mg       -0.146253   -0.765803    0.070700
      2  O        -2.265477   -0.965774   -0.109276
      3  C        -2.862272   -0.834429   -1.407153
      4  C        -3.166807   -1.092133    1.010559
      5  C        -1.819669   -1.250390   -2.421410
      6  C        -4.188501    0.023529    1.132244
      7  O        -0.569414   -0.616515   -2.069728
      8  O        -3.546569    1.273094    1.313786
      9  C         0.394767   -0.772591   -3.126257
     10  C        -4.470359    2.339487    1.470120
     11  H        -3.177854    0.204750   -1.566748
     12  H        -3.737489   -1.494042   -1.498446
     13  H        -2.500964   -1.132442    1.875583
     14  H        -3.705256   -2.047171    0.911544
     15  H        -2.127832   -0.920513   -3.423970
     16  H        -1.672797   -2.339668   -2.436355
     17  H        -4.823169   -0.214391    2.004009
     18  H        -4.851678    0.062734    0.251891
     19  H        -0.010240   -0.347179   -4.053576
     20  H         0.624680   -1.835575   -3.279156
     21  H         1.290626   -0.226113   -2.835345
     22  H        -3.886567    3.253639    1.606355
     23  H        -5.109487    2.184552    2.353208
     24  H        -5.109407    2.447935    0.580212
     25  O        -0.011561    1.322236    0.693193
     26  C        -0.081121    1.317095    2.153167
     27  C        -0.442454    2.594719    0.185106
     28  C         0.434950   -0.028640    2.669399
     29  C        -0.401219    2.689903   -1.323342
     30  O        -0.139419   -1.087578    1.977294
     31  O         0.942282    2.664926   -1.784537
     32  C         1.064922    3.069493   -3.141535
     33  H        -1.133627    1.468769    2.423482
     34  H         0.525510    2.154981    2.524316
     35  H         0.205986    3.370935    0.612661
     36  H        -1.475435    2.766279    0.516484
     37  H         0.195083   -0.055827    3.751447
     38  H         1.537388   -0.028561    2.590263
     39  H        -0.874537    3.648119   -1.595754
     40  H        -0.982140    1.885622   -1.796019
     41  H         2.121094    2.977421   -3.410269
     42  H         0.747335    4.116167   -3.267552
     43  H         0.463516    2.435384   -3.809670
     44  O         2.039559   -0.821151   -0.257635
     45  C         2.542414   -2.153886   -0.447947
     46  C         2.941691    0.221730   -0.690064
     47  C         1.615923   -3.119977    0.253787
     48  C         4.117719    0.466065    0.239802
     49  O         0.286289   -2.908410   -0.245507
     50  O         3.670742    1.033458    1.453042
     51  C        -0.643139   -3.852561    0.314373
     52  C         4.724929    1.295685    2.362295
     53  H         3.545937   -2.250734   -0.016061
     54  H         2.600249   -2.367335   -1.525020
     55  H         2.334882    1.123954   -0.776111
     56  H         3.328701   -0.042435   -1.685537
     57  H         1.613853   -2.950278    1.337378
     58  H         1.931271   -4.148963    0.030672
     59  H         4.803339    1.157978   -0.281931
     60  H         4.683994   -0.460326    0.436083
     61  H        -1.613227   -3.656368   -0.144573
     62  H        -0.700577   -3.718679    1.400836
     63  H        -0.325329   -4.871491    0.061815
     64  H         5.446433    2.014670    1.942950
     65  H         5.259754    0.371366    2.631853
     66  H         4.272648    1.722535    3.260576
   Point Group: c1    Number of degrees of freedom:   192


   Energy is  -1548.351639887

 GETINT wrote B to file, NVib is          192
 Hessian Updated using BFGS Update

178 Hessian modes will be used to form the next step
  Hessian Eigenvalues:
     0.004692    0.005256    0.005442    0.005552    0.005905    0.005996
     0.006170    0.006674    0.006792    0.007393    0.008539    0.008971
     0.009577    0.009632    0.009864    0.010505    0.010556    0.010663
     0.010755    0.011238    0.012773    0.013072    0.013362    0.013456
     0.013976    0.014155    0.014336    0.014851    0.017553    0.021670
     0.023321    0.023643    0.029091    0.032296    0.035445    0.038346
     0.039468    0.042279    0.042407    0.044172    0.044680    0.051184
     0.051622    0.052386    0.054099    0.055184    0.055634    0.057018
     0.058289    0.060526    0.061665    0.061718    0.061927    0.062405
     0.063467    0.064920    0.066804    0.068177    0.070494    0.072315
     0.076206    0.076484    0.077217    0.079163    0.079849    0.082943
     0.087756    0.087993    0.089464    0.090956    0.094222    0.096176
     0.097342    0.098069    0.098735    0.100077    0.100400    0.100441
     0.100671    0.104882    0.104958    0.105144    0.109773    0.112113
     0.112947    0.113210    0.113642    0.117947    0.121643    0.122721
     0.129039    0.129910    0.130368    0.130561    0.137896    0.138133
     0.138482    0.141410    0.150333    0.159284    0.160360    0.163569
     0.166794    0.168554    0.173645    0.205647    0.206666    0.215586
     0.219845    0.220145    0.220420    0.220692    0.225956    0.234655
     0.248924    0.249233    0.261854    0.267381    0.282533    0.290179
     0.303749    0.304735    0.305717    0.311408    0.327445    0.330624
     0.331149    0.331264    0.332286    0.333334    0.333571    0.333811
     0.335200    0.335257    0.335540    0.335580    0.335830    0.335836
     0.336406    0.336866    0.337022    0.337424    0.337469    0.337547
     0.337791    0.338038    0.338343    0.338852    0.338908    0.339040
     0.339321    0.339426    0.340274    0.340402    0.340507    0.340756
     0.341281    0.343932    0.344406    0.345157    0.345393    0.346479
     0.346965    0.347381    0.349580    0.363202    0.382569    0.389177
     0.391874    0.397489    0.397918    0.398683    0.422712    0.423936
     0.425576    0.429854    0.430564    0.436628

 Minimum Search - Taking Simple RFO Step
 Searching for Lamda that Minimizes Along All modes
 Value Taken    Lamda =  -0.00007538
 Step Taken.  Stepsize is  0.072052

                             Maximum     Tolerance    Cnvgd?
         Gradient           0.001890      0.000300      NO
         Displacement       0.018783      0.001200      NO
         Energy change     -0.000066      0.000001      NO


 New Cartesian Coordinates Obtained by Inverse Iteration

 Displacement from previous Coordinates is:  0.342821
 ----------------------------------------------------
       Standard Nuclear Orientation (Angstroms)
    I     Atom         X            Y            Z
 ----------------------------------------------------
    1      Mg     -0.147440    -0.762661     0.068391
    2      O      -2.269569    -0.963548    -0.108681
    3      C      -2.867331    -0.833404    -1.406216
    4      C      -3.168682    -1.091586     1.012823
    5      C      -1.824983    -1.250029    -2.421039
    6      C      -4.195316     0.018947     1.136563
    7      O      -0.575189    -0.614556    -2.070659
    8      O      -3.563996     1.272236     1.330757
    9      C       0.387773    -0.766948    -3.128996
   10      C      -4.499389     2.327078     1.498053
   11      H      -3.182286     0.205659    -1.567762
   12      H      -3.743487    -1.492054    -1.494735
   13      H      -2.500321    -1.131724     1.876254
   14      H      -3.704741    -2.047798     0.912704
   15      H      -2.134028    -0.920994    -3.423693
   16      H      -1.677427    -2.339111    -2.435419
   17      H      -4.833835    -0.228253     2.003045
   18      H      -4.853906     0.060711     0.252707
   19      H      -0.022060    -0.345711    -4.056106
   20      H       0.624361    -1.828894    -3.279960
   21      H       1.281457    -0.214860    -2.841351
   22      H      -3.925718     3.245957     1.644575
   23      H      -5.137124     2.155007     2.378911
   24      H      -5.139422     2.437808     0.609156
   25      O      -0.008031     1.326396     0.691588
   26      C      -0.081544     1.320176     2.151185
   27      C      -0.441460     2.595253     0.178755
   28      C       0.435216    -0.025753     2.666987
   29      C      -0.377589     2.684426    -1.329146
   30      O      -0.138995    -1.084783     1.974811
   31      O       0.972732     2.653853    -1.771297
   32      C       1.114834     3.048974    -3.129291
   33      H      -1.134807     1.468357     2.418953
   34      H       0.523240     2.158664     2.524611
   35      H       0.195647     3.376900     0.613401
   36      H      -1.480855     2.758618     0.493550
   37      H       0.195733    -0.053662     3.749140
   38      H       1.537841    -0.025481     2.588595
   39      H      -0.846998     3.640944    -1.613851
   40      H      -0.951291     1.877305    -1.806027
   41      H       2.173530     2.948255    -3.384419
   42      H       0.805279     4.096705    -3.265785
   43      H       0.517557     2.413925    -3.800422
   44      O       2.035218    -0.817155    -0.265614
   45      C       2.539763    -2.149832    -0.453791
   46      C       2.936656     0.226625    -0.697305
   47      C       1.614113    -3.115739     0.249028
   48      C       4.112488     0.471541     0.232599
[...]
   18      H      -4.883015     0.055841     0.163358
   19      H      -0.002556     0.006115    -4.058217
   20      H       0.674041    -1.522818    -3.407677
   21      H       1.284646     0.061838    -2.821028
   22      H      -3.990379     3.151698     1.772742
   23      H      -5.214466     2.017597     2.414984
   24      H      -5.184717     2.411451     0.666714
   25      O      -0.006716     1.312992     0.752489
   26      C      -0.131022     1.218067     2.206554
   27      C      -0.495755     2.585668     0.295703
   28      C       0.369716    -0.155230     2.659137
   29      C      -0.287625     2.809235    -1.185676
   30      O      -0.198117    -1.172021     1.900377
   31      O       1.099841     2.896985    -1.478412
   32      C       1.357817     3.400103    -2.782311
   33      H      -1.193784     1.344741     2.447124
   34      H       0.455180     2.034433     2.651177
   35      H       0.029919     3.372140     0.853301
   36      H      -1.569875     2.646276     0.516459
   37      H       0.108219    -0.238773     3.733244
   38      H       1.473444    -0.160243     2.602211
   39      H      -0.789226     3.757821    -1.440784
   40      H      -0.756219     2.015420    -1.784341
   41      H       2.442756     3.395418    -2.918851
   42      H       0.983030     4.430116    -2.886481
   43      H       0.890714     2.774809    -3.558111
   44      O       2.013990    -0.817513    -0.306029
   45      C       2.497618    -2.143044    -0.579495
   46      C       2.940301     0.241861    -0.634212
   47      C       1.557267    -3.134548     0.065465
   48      C       4.147212     0.340484     0.283391
   49      O       0.229758    -2.876427    -0.416918
   50      O       3.743155     0.696535     1.587878
   51      C      -0.715483    -3.823455     0.112778
   52      C       4.829439     0.835394     2.486291
   53      H       3.497858    -2.283004    -0.152924
   54      H       2.554355    -2.290925    -1.667586
   55      H       2.359849     1.164125    -0.594422
   56      H       3.297820     0.089947    -1.663934
   57      H       1.561207    -3.026895     1.156975
   58      H       1.856437    -4.153724    -0.216886
   59      H       4.809688     1.114065    -0.145248
   60      H       4.725383    -0.598714     0.304752
   61      H      -1.672189    -3.626022    -0.373167
   62      H      -0.800710    -3.693705     1.197660
   63      H      -0.390323    -4.840898    -0.135553
   64      H       5.519470     1.629854     2.160844
   65      H       5.392474    -0.106462     2.583626
   66      H       4.406668     1.101306     3.457963
 ----------------------------------------------------
 Molecular Point Group                 C1    NOp =  1
 Largest Abelian Subgroup              C1    NOp =  1
 Nuclear Repulsion Energy =  3364.9661513351 hartrees
 There are      113 alpha and      112 beta electrons
 Requested basis set is 6-31+G(d)
 There are 214 shells and 595 basis functions

Total QAlloc Memory Limit   2400 MB
Mega-Array Size       212 MB
MEM_STATIC part       200 MB
 A cutoff of  1.0D-12 yielded  16876 shell pairs
 There are    141022 function pairs
 Smallest overlap matrix eigenvalue = 1.24E-05
 Guess from superposition of atomic densities
 Warning:  Energy on first SCF cycle will be non-variational
 An unrestricted hybrid HF-DFT SCF calculation will be
 performed using Pulay DIIS extrapolation
 Exchange:     0.2000 Hartree-Fock + 0.0800 Slater + 0.7200 Becke88
 Correlation:  0.8100 LYP + 0.1900 VWN1RPA
 Using SG-1 standard quadrature grid
 SCF converges when DIIS error is below 1.0E-08
 ---------------------------------------
  Cycle       Energy         DIIS Error
 ---------------------------------------
    1   -1552.6749432424      2.87E-02
    2   -1547.8582939127      3.26E-03
    3   -1541.6494480394      8.88E-03
    4   -1547.9232645090      2.91E-03
    5   -1548.2942206507      9.75E-04
    6   -1548.3341413518      6.21E-04
    7   -1548.3500222881      1.59E-04
    8   -1548.3516781742      5.20E-05
    9   -1548.3519644282      2.41E-05
   10   -1548.3520285951      8.57E-06
   11   -1548.3520532904      5.29E-06
   12   -1548.3520591357      2.47E-06
   13   -1548.3520600033      7.53E-07
   14   -1548.3520601163      3.15E-07
   15   -1548.3520601335      1.47E-07
   16   -1548.3520601390      8.24E-08
   17   -1548.3520601378      2.75E-08
   18   -1548.3520601374      8.68E-09 Convergence criterion met
 ---------------------------------------
 <S^2> = 0.7501
 SCF time:  CPU 343.71 s  wall 351.79 s
 SCF   energy in the final basis set = -1548.3520601374
 Total energy in the final basis set = -1548.3520601374
 Analysis of SCF Wavefunction
 
 --------------------------------------------------------------
                    Orbital Energies (a.u.)
 --------------------------------------------------------------
 
 Alpha MOs
 -- Occupied --
-46.817 -19.213 -19.210 -19.207 -19.204 -19.192 -19.179 -19.175
-19.174 -19.062 -10.270 -10.264 -10.263 -10.262 -10.260 -10.258
-10.256 -10.256 -10.253 -10.252 -10.249 -10.246 -10.246 -10.245
-10.240 -10.231 -10.204  -3.090  -1.836  -1.836  -1.833  -1.090
 -1.085  -1.070  -1.068  -1.062  -1.055  -1.054  -1.047  -0.923
 -0.810  -0.808  -0.784  -0.771  -0.769  -0.717  -0.713  -0.709
 -0.694  -0.692  -0.684  -0.655  -0.652  -0.624  -0.620  -0.613
 -0.587  -0.550  -0.543  -0.537  -0.531  -0.530  -0.524  -0.518
 -0.516  -0.508  -0.506  -0.502  -0.495  -0.492  -0.490  -0.488
 -0.483  -0.477  -0.476  -0.471  -0.464  -0.461  -0.456  -0.449
 -0.433  -0.431  -0.426  -0.419  -0.415  -0.412  -0.406  -0.403
 -0.399  -0.395  -0.392  -0.388  -0.384  -0.379  -0.375  -0.374
 -0.373  -0.363  -0.354  -0.345  -0.343  -0.338  -0.317  -0.310
 -0.308  -0.304  -0.293  -0.284  -0.281  -0.277  -0.230  -0.213
 -0.049
 -- Virtual --
 -0.028  -0.020  -0.014   0.001   0.003   0.004   0.009   0.011
  0.015   0.019   0.023   0.025   0.026   0.031   0.034   0.036
  0.039   0.039   0.041   0.049   0.051   0.051   0.054   0.057
  0.061   0.063   0.066   0.068   0.069   0.071   0.075   0.076
  0.078   0.080   0.084   0.085   0.088   0.090   0.093   0.093
  0.098   0.101   0.103   0.107   0.107   0.114   0.115   0.118
  0.120   0.123   0.126   0.128   0.131   0.135   0.138   0.139
  0.146   0.150   0.151   0.152   0.156   0.159   0.161   0.163
  0.165   0.170   0.171   0.174   0.176   0.179   0.181   0.185
  0.187   0.188   0.192   0.194   0.196   0.198   0.199   0.201
  0.205   0.207   0.208   0.209   0.213   0.215   0.218   0.221
  0.223   0.225   0.226   0.228   0.231   0.233   0.235   0.237
  0.240   0.242   0.245   0.247   0.249   0.251   0.256   0.258
  0.261   0.262   0.265   0.267   0.269   0.270   0.273   0.274
  0.276   0.281   0.284   0.286   0.288   0.293   0.295   0.298
  0.300   0.308   0.309   0.311   0.315   0.320   0.324   0.326
  0.327   0.329   0.335   0.341   0.344   0.345   0.348   0.350
  0.355   0.357   0.362   0.363   0.368   0.371   0.375   0.378
  0.383   0.385   0.389   0.392   0.395   0.403   0.404   0.411
  0.414   0.423   0.425   0.427   0.437   0.442   0.447   0.451
  0.460   0.464   0.471   0.481   0.484   0.489   0.499   0.519
  0.528   0.538   0.549   0.554   0.563   0.578   0.585   0.603
  0.605   0.619   0.639   0.649   0.652   0.654   0.668   0.669
  0.678   0.681   0.692   0.694   0.697   0.699   0.707   0.720
  0.724   0.732   0.737   0.748   0.750   0.756   0.763   0.767
  0.771   0.776   0.787   0.795   0.797   0.799   0.807   0.811
  0.819   0.827   0.835   0.838   0.847   0.851   0.865   0.868
  0.877   0.885   0.889   0.901   0.911   0.921   0.927   0.934
  0.941   0.942   0.947   0.953   0.959   0.961   0.970   0.970
  0.975   0.977   0.986   0.996   1.001   1.004   1.007   1.010
  1.013   1.024   1.032   1.033   1.043   1.046   1.054   1.060
  1.065   1.068   1.083   1.089   1.095   1.099   1.106   1.111
  1.113   1.124   1.127   1.131   1.140   1.154   1.162   1.172
  1.177   1.182   1.207   1.208   1.213   1.219   1.222   1.229
  1.236   1.243   1.259   1.266   1.272   1.276   1.284   1.285
  1.294   1.303   1.313   1.323   1.324   1.337   1.339   1.349
  1.352   1.358   1.365   1.372   1.380   1.398   1.404   1.413
  1.419   1.423   1.432   1.452   1.456   1.472   1.485   1.497
  1.501   1.511   1.520   1.525   1.537   1.546   1.557   1.566
  1.567   1.575   1.584   1.591   1.600   1.612   1.629   1.645
  1.653   1.662   1.677   1.686   1.698   1.713   1.724   1.726
  1.735   1.747   1.760   1.774   1.785   1.791   1.800   1.804
  1.834   1.845   1.858   1.867   1.878   1.884   1.890   1.904
  1.909   1.913   1.919   1.919   1.940   1.949   1.956   1.969
  1.977   1.984   1.996   1.997   2.012   2.015   2.026   2.033
  2.037   2.050   2.059   2.060   2.066   2.071   2.076   2.081
  2.084   2.087   2.097   2.108   2.113   2.115   2.125   2.128
  2.139   2.144   2.146   2.150   2.156   2.161   2.166   2.170
  2.185   2.190   2.196   2.199   2.207   2.211   2.222   2.225
  2.238   2.242   2.251   2.253   2.259   2.265   2.272   2.274
  2.277   2.285   2.293   2.299   2.301   2.305   2.315   2.327
  2.334   2.340   2.384   2.388   2.391   2.417   2.433   2.442
  2.456   2.464   2.473   2.482   2.486   2.498   2.500   2.509
  2.513   2.526   2.530   2.538   2.542   2.557   2.562   2.572
  2.665   2.734   2.743   2.753   2.782   2.807   2.812   2.818
  2.823   2.846   2.863   2.883   2.890   2.918   2.930   2.955
  2.960   2.965   2.977   2.993   3.005   3.026   3.032   3.062
  4.285   4.296   4.326   4.337   4.340   4.364   4.377   4.395
  4.396   4.411   4.459   4.474   4.498   4.526   4.547   4.558
  4.563   4.620   4.638   4.665   4.708   4.753   4.800   4.859
  4.892   5.046
 
 Beta MOs
 -- Occupied --
-46.817 -19.213 -19.210 -19.207 -19.204 -19.192 -19.179 -19.175
-19.174 -19.062 -10.269 -10.264 -10.263 -10.262 -10.260 -10.258
-10.256 -10.256 -10.253 -10.252 -10.249 -10.246 -10.246 -10.245
-10.240 -10.231 -10.204  -3.090  -1.836  -1.836  -1.833  -1.089
 -1.085  -1.070  -1.068  -1.061  -1.055  -1.054  -1.047  -0.923
 -0.810  -0.808  -0.784  -0.771  -0.769  -0.717  -0.712  -0.708
 -0.693  -0.691  -0.684  -0.655  -0.652  -0.624  -0.619  -0.613
 -0.587  -0.549  -0.543  -0.537  -0.531  -0.529  -0.523  -0.518
 -0.516  -0.507  -0.506  -0.502  -0.495  -0.492  -0.490  -0.488
 -0.483  -0.477  -0.476  -0.471  -0.464  -0.461  -0.456  -0.449
 -0.432  -0.431  -0.425  -0.419  -0.414  -0.412  -0.405  -0.402
 -0.399  -0.394  -0.391  -0.388  -0.384  -0.378  -0.374  -0.373
 -0.373  -0.363  -0.354  -0.345  -0.343  -0.337  -0.317  -0.310
 -0.308  -0.304  -0.293  -0.283  -0.281  -0.277  -0.230  -0.213
 -- Virtual --
 -0.026  -0.023  -0.016  -0.012   0.001   0.004   0.005   0.011
  0.013   0.016   0.019   0.023   0.025   0.026   0.031   0.035
  0.036   0.038   0.039   0.042   0.048   0.051   0.051   0.054
  0.057   0.061   0.064   0.066   0.068   0.069   0.072   0.075
  0.076   0.078   0.082   0.084   0.086   0.088   0.090   0.093
  0.094   0.099   0.100   0.103   0.107   0.108   0.114   0.115
  0.118   0.120   0.123   0.126   0.127   0.131   0.135   0.138
  0.139   0.146   0.150   0.151   0.152   0.156   0.159   0.161
  0.163   0.166   0.170   0.172   0.175   0.176   0.179   0.181
  0.185   0.187   0.188   0.193   0.195   0.197   0.197   0.199
  0.202   0.205   0.207   0.209   0.210   0.213   0.215   0.219
  0.221   0.223   0.225   0.226   0.229   0.231   0.233   0.235
  0.237   0.240   0.242   0.246   0.247   0.249   0.251   0.257
  0.257   0.262   0.262   0.265   0.267   0.270   0.270   0.273
  0.275   0.276   0.281   0.284   0.286   0.288   0.293   0.296
  0.298   0.300   0.308   0.309   0.311   0.315   0.320   0.324
  0.327   0.327   0.329   0.335   0.340   0.344   0.346   0.348
  0.350   0.356   0.357   0.362   0.363   0.368   0.371   0.375
  0.378   0.383   0.384   0.389   0.392   0.395   0.403   0.404
  0.411   0.414   0.423   0.425   0.427   0.437   0.442   0.447
  0.451   0.460   0.464   0.471   0.481   0.484   0.489   0.499
  0.519   0.528   0.538   0.549   0.554   0.563   0.578   0.585
  0.603   0.605   0.619   0.639   0.649   0.652   0.655   0.668
  0.669   0.678   0.681   0.692   0.694   0.697   0.699   0.707
  0.720   0.724   0.732   0.737   0.748   0.750   0.756   0.763
  0.767   0.770   0.776   0.787   0.795   0.797   0.799   0.807
  0.811   0.820   0.827   0.835   0.838   0.847   0.851   0.865
  0.868   0.877   0.885   0.889   0.901   0.911   0.921   0.927
  0.934   0.942   0.942   0.947   0.953   0.959   0.961   0.970
  0.971   0.975   0.978   0.986   0.996   1.001   1.004   1.007
  1.010   1.013   1.024   1.032   1.033   1.043   1.046   1.054
  1.060   1.065   1.068   1.083   1.089   1.095   1.099   1.107
  1.112   1.113   1.124   1.127   1.131   1.141   1.154   1.162
  1.173   1.178   1.182   1.207   1.208   1.213   1.219   1.223
  1.229   1.236   1.243   1.259   1.266   1.273   1.276   1.284
  1.285   1.294   1.303   1.313   1.323   1.324   1.337   1.339
  1.349   1.352   1.358   1.365   1.372   1.380   1.398   1.404
  1.413   1.419   1.423   1.432   1.452   1.456   1.472   1.485
  1.497   1.501   1.511   1.520   1.525   1.537   1.546   1.557
  1.566   1.567   1.575   1.584   1.591   1.600   1.612   1.629
  1.645   1.653   1.662   1.677   1.686   1.698   1.713   1.724
  1.726   1.735   1.747   1.760   1.774   1.785   1.791   1.800
  1.804   1.835   1.845   1.858   1.867   1.878   1.884   1.890
  1.905   1.909   1.913   1.919   1.920   1.941   1.950   1.956
  1.969   1.977   1.984   1.996   1.998   2.012   2.015   2.026
  2.033   2.038   2.050   2.059   2.060   2.066   2.071   2.077
  2.081   2.084   2.087   2.097   2.108   2.114   2.115   2.125
  2.128   2.139   2.144   2.147   2.150   2.156   2.161   2.166
  2.170   2.185   2.190   2.197   2.199   2.207   2.211   2.222
  2.225   2.238   2.242   2.251   2.253   2.259   2.266   2.272
  2.275   2.277   2.285   2.293   2.299   2.301   2.305   2.316
  2.327   2.334   2.340   2.385   2.388   2.391   2.417   2.433
  2.442   2.456   2.464   2.473   2.482   2.487   2.498   2.501
  2.510   2.513   2.526   2.530   2.539   2.542   2.557   2.562
  2.572   2.665   2.734   2.743   2.753   2.783   2.807   2.812
  2.819   2.824   2.846   2.863   2.883   2.890   2.918   2.930
  2.955   2.960   2.965   2.977   2.994   3.005   3.026   3.032
  3.062   4.285   4.296   4.327   4.338   4.340   4.364   4.377
  4.396   4.396   4.411   4.459   4.474   4.498   4.526   4.548
  4.558   4.564   4.620   4.638   4.665   4.708   4.753   4.800
  4.859   4.892   5.047
 --------------------------------------------------------------
 
          Ground-State Mulliken Net Atomic Charges

     Atom                 Charge (a.u.)    Spin (a.u.)
  --------------------------------------------------------
      1 Mg                   -3.332912       1.746974
      2 O                    -0.122961      -0.003670
      3 C                     0.421757      -0.458631
      4 C                    -0.131765       0.106579
      5 C                    -0.430154       0.164321
      6 C                    -0.182738      -0.174036
      7 O                    -0.102112      -0.004632
      8 O                    -0.310363       0.002981
      9 C                    -0.287692      -0.099989
     10 C                    -0.308056      -0.035541
     11 H                     0.227357       0.012403
     12 H                     0.223275       0.011443
     13 H                     0.287842       0.000179
     14 H                     0.203002       0.005247
     15 H                     0.224045       0.013656
     16 H                     0.232479       0.014370
     17 H                     0.193022       0.001762
     18 H                     0.195528       0.003790
     19 H                     0.223676       0.012446
     20 H                     0.227976       0.013030
     21 H                     0.230700       0.003240
     22 H                     0.201972       0.001056
     23 H                     0.187903       0.001172
     24 H                     0.195648       0.002547
     25 O                    -0.136142       0.000177
     26 C                    -0.030681       0.005490
     27 C                    -0.081739       0.002390
     28 C                    -0.301583      -0.026049
     29 C                    -0.306838      -0.059530
     30 O                    -0.380093       0.000801
     31 O                    -0.292527       0.006607
     32 C                    -0.260402      -0.095515
     33 H                     0.228357       0.000066
     34 H                     0.184448       0.000329
     35 H                     0.206504       0.000692
     36 H                     0.229651       0.001129
     37 H                     0.155126       0.000200
     38 H                     0.201330       0.000148
     39 H                     0.192497       0.003195
     40 H                     0.228313       0.004905
     41 H                     0.198884       0.003857
     42 H                     0.188004       0.003275
     43 H                     0.200239       0.005656
     44 O                    -0.088829      -0.000945
     45 C                    -0.339311       0.080560
     46 C                     0.026710      -0.037315
     47 C                     0.148598      -0.185289
     48 C                    -0.467153      -0.004854
     49 O                    -0.144658       0.007982
     50 O                    -0.281093       0.003206
     51 C                    -0.190826      -0.095751
     52 C                    -0.350111      -0.003705
     53 H                     0.199381       0.003331
     54 H                     0.229158       0.007111
     55 H                     0.300338       0.000098
     56 H                     0.197829       0.003895
     57 H                     0.259551       0.000546
     58 H                     0.200928       0.005018
     59 H                     0.190804       0.002077
     60 H                     0.175843       0.001765
     61 H                     0.219174       0.007214
     62 H                     0.246555       0.002138
     63 H                     0.201733       0.003752
     64 H                     0.183753       0.000319
     65 H                     0.184081       0.000275
     66 H                     0.206771       0.000050
  --------------------------------------------------------
  Sum of atomic charges =     0.000000
  Sum of spin   charges =     1.000000

 -----------------------------------------------------------------
                    Cartesian Multipole Moments
 -----------------------------------------------------------------
    Charge (ESU x 10^10)
                 0.0000
    Dipole Moment (Debye)
         X       2.8512      Y       2.7224      Z       5.7056
       Tot       6.9350
    Quadrupole Moments (Debye-Ang)
        XX    -166.7090     XY      -5.9356     YY    -187.3686
        XZ     -10.5322     YZ      -6.9789     ZZ    -214.4238
    Octapole Moments (Debye-Ang^2)
       XXX     100.6704    XXY      38.3143    XYY      30.8494
       YYY      81.9736    XXZ     137.8763    XYZ      -9.4592
       YYZ      98.8144    XZZ      54.7732    YZZ      72.9868
       ZZZ     253.5597
    Hexadecapole Moments (Debye-Ang^3)
      XXXX   -6994.3242   XXXY     -95.1746   XXYY   -2038.0326
      XYYY    -131.2498   YYYY   -4653.2389   XXXZ    -191.4390
      XXYZ     -38.9258   XYYZ    -114.3731   YYYZ    -325.0149
      XXZZ   -1992.9251   XYZZ      39.5913   YYZZ   -1619.9433
      XZZZ    -164.9101   YZZZ    -193.0706   ZZZZ   -4626.7840
 -----------------------------------------------------------------
 Calculating MO derivatives via CPSCF
This DFT freq job requires mem_total of 2646.

 Q-Chem fatal error occurred in module ../qchem/drvman/getCPSCFNseg.C, line 46:

 Not enough total memory.

Application 11731148 exit codes: 134
Application 11731148 resources: utime ~339s, stime ~8s, Rss ~165320, inblocks ~3581004, outblocks ~2187854
