<?xml version="1.0" encoding="ISO-8859-1"?>
<modeling>
 <generator>
  <i name="program" type="string">vasp </i>
  <i name="version" type="string">5.2.2  </i>
  <i name="subversion" type="string">15Apr09 complex  parallel </i>
  <i name="platform" type="string">unknown </i>
  <i name="date" type="string">2012 01 31 </i>
  <i name="time" type="string">15:28:00 </i>
 </generator>
 <incar>
  <i type="string" name="SYSTEM"> Al</i>
  <i type="int" name="ISTART">     1</i>
  <i type="string" name="PREC">accurate</i>
  <i type="logical" name="ADDGRID"> F  </i>
  <i type="int" name="ISPIN">     1</i>
  <i type="int" name="ICHARG">     1</i>
  <i type="int" name="IBRION">     2</i>
  <i name="EDIFF">      0.00000010</i>
  <i name="EDIFFG">      0.00000010</i>
  <i type="int" name="NSW">     5</i>
  <i type="int" name="ISIF">     2</i>
  <i name="ENCUT">    550.00000000</i>
  <i name="POTIM">      0.10000000</i>
  <i type="string" name="LREAL"> AUTO</i>
  <i type="int" name="ISMEAR">     2</i>
  <i name="SIGMA">      0.10000000</i>
  <i type="logical" name="LWAVE"> F  </i>
  <i type="logical" name="LPEAD"> F  </i>
  <i type="logical" name="LCALCPOL"> F  </i>
  <i type="logical" name="LCALCEPS"> F  </i>
  <v name="EFIELD_PEAD">      0.00000000      0.00000000      0.00000000</v>
  <i type="int" name="VOSKOWN">     1</i>
  <i type="logical" name="LEFG"> F  </i>
 </incar>
 <kpoints>
  <generation param="Gamma">
   <v type="int" name="divisions">      20       20       20 </v>
   <v name="usershift">      0.00000000       0.00000000       0.00000000 </v>
   <v name="genvec1">      0.05000000       0.00000000       0.00000000 </v>
   <v name="genvec2">      0.00000000       0.05000000       0.00000000 </v>
   <v name="genvec3">      0.00000000       0.00000000       0.05000000 </v>
   <v name="shift">      0.00000000       0.00000000       0.00000000 </v>
  </generation>
  <varray name="kpointlist" >
   <v>       0.00000000       0.00000000       0.00000000 </v>
   <v>       0.05000000       0.00000000       0.00000000 </v>
   <v>       0.10000000       0.00000000       0.00000000 </v>
   <v>       0.15000000       0.00000000       0.00000000 </v>
   <v>       0.20000000       0.00000000       0.00000000 </v>
   <v>       0.25000000       0.00000000       0.00000000 </v>
   <v>       0.30000000       0.00000000       0.00000000 </v>
   <v>       0.35000000       0.00000000       0.00000000 </v>
   <v>       0.40000000       0.00000000       0.00000000 </v>
   <v>       0.45000000       0.00000000       0.00000000 </v>
   <v>       0.50000000       0.00000000       0.00000000 </v>
   <v>       0.00000000       0.05000000       0.00000000 </v>
   <v>       0.05000000       0.05000000       0.00000000 </v>
   <v>       0.10000000       0.05000000       0.00000000 </v>
   <v>       0.15000000       0.05000000       0.00000000 </v>
   <v>       0.20000000       0.05000000       0.00000000 </v>
   <v>       0.25000000       0.05000000       0.00000000 </v>
   <v>       0.30000000       0.05000000       0.00000000 </v>
   <v>       0.35000000       0.05000000       0.00000000 </v>
   <v>       0.40000000       0.05000000       0.00000000 </v>
   <v>       0.45000000       0.05000000       0.00000000 </v>
   <v>       0.50000000       0.05000000       0.00000000 </v>
   <v>       0.00000000       0.10000000       0.00000000 </v>
   <v>       0.05000000       0.10000000       0.00000000 </v>
   <v>       0.10000000       0.10000000       0.00000000 </v>
   <v>       0.15000000       0.10000000       0.00000000 </v>
   <v>       0.20000000       0.10000000       0.00000000 </v>
   <v>       0.25000000       0.10000000       0.00000000 </v>
   <v>       0.30000000       0.10000000       0.00000000 </v>
   <v>       0.35000000       0.10000000       0.00000000 </v>
   <v>       0.40000000       0.10000000       0.00000000 </v>
   <v>       0.45000000       0.10000000       0.00000000 </v>
   <v>       0.50000000       0.10000000       0.00000000 </v>
   <v>       0.00000000       0.15000000       0.00000000 </v>
   <v>       0.05000000       0.15000000       0.00000000 </v>
   <v>       0.10000000       0.15000000       0.00000000 </v>
   <v>       0.15000000       0.15000000       0.00000000 </v>
   <v>       0.20000000       0.15000000       0.00000000 </v>
   <v>       0.25000000       0.15000000       0.00000000 </v>
   <v>       0.30000000       0.15000000       0.00000000 </v>
   <v>       0.35000000       0.15000000       0.00000000 </v>
   <v>       0.40000000       0.15000000       0.00000000 </v>
   <v>       0.45000000       0.15000000       0.00000000 </v>
   <v>       0.50000000       0.15000000       0.00000000 </v>
   <v>       0.00000000       0.20000000       0.00000000 </v>
   <v>       0.05000000       0.20000000       0.00000000 </v>
   <v>       0.10000000       0.20000000       0.00000000 </v>
   <v>       0.15000000       0.20000000       0.00000000 </v>
   <v>       0.20000000       0.20000000       0.00000000 </v>
   <v>       0.25000000       0.20000000       0.00000000 </v>
   <v>       0.30000000       0.20000000       0.00000000 </v>
   <v>       0.35000000       0.20000000       0.00000000 </v>
   <v>       0.40000000       0.20000000       0.00000000 </v>
   <v>       0.45000000       0.20000000       0.00000000 </v>
   <v>       0.50000000       0.20000000       0.00000000 </v>
   <v>       0.00000000       0.25000000       0.00000000 </v>
   <v>       0.05000000       0.25000000       0.00000000 </v>
   <v>       0.10000000       0.25000000       0.00000000 </v>
   <v>       0.15000000       0.25000000       0.00000000 </v>
   <v>       0.20000000       0.25000000       0.00000000 </v>
   <v>       0.25000000       0.25000000       0.00000000 </v>
   <v>       0.30000000       0.25000000       0.00000000 </v>
   <v>       0.35000000       0.25000000       0.00000000 </v>
   <v>       0.40000000       0.25000000       0.00000000 </v>
   <v>       0.45000000       0.25000000       0.00000000 </v>
   <v>       0.50000000       0.25000000       0.00000000 </v>
   <v>       0.00000000       0.30000000       0.00000000 </v>
   <v>       0.05000000       0.30000000       0.00000000 </v>
   <v>       0.10000000       0.30000000       0.00000000 </v>
   <v>       0.15000000       0.30000000       0.00000000 </v>
   <v>       0.20000000       0.30000000       0.00000000 </v>
   <v>       0.25000000       0.30000000       0.00000000 </v>
   <v>       0.30000000       0.30000000       0.00000000 </v>
   <v>       0.35000000       0.30000000       0.00000000 </v>
   <v>       0.40000000       0.30000000       0.00000000 </v>
   <v>       0.45000000       0.30000000       0.00000000 </v>
   <v>       0.50000000       0.30000000       0.00000000 </v>
   <v>       0.00000000       0.35000000       0.00000000 </v>
   <v>       0.05000000       0.35000000       0.00000000 </v>
   <v>       0.10000000       0.35000000       0.00000000 </v>
   <v>       0.15000000       0.35000000       0.00000000 </v>
   <v>       0.20000000       0.35000000       0.00000000 </v>
   <v>       0.25000000       0.35000000       0.00000000 </v>
   <v>       0.30000000       0.35000000       0.00000000 </v>
   <v>       0.35000000       0.35000000       0.00000000 </v>
   <v>       0.40000000       0.35000000       0.00000000 </v>
   <v>       0.45000000       0.35000000       0.00000000 </v>
   <v>       0.50000000       0.35000000       0.00000000 </v>
   <v>       0.00000000       0.40000000       0.00000000 </v>
   <v>       0.05000000       0.40000000       0.00000000 </v>
   <v>       0.10000000       0.40000000       0.00000000 </v>
   <v>       0.15000000       0.40000000       0.00000000 </v>
   <v>       0.20000000       0.40000000       0.00000000 </v>
   <v>       0.25000000       0.40000000       0.00000000 </v>
   <v>       0.30000000       0.40000000       0.00000000 </v>
   <v>       0.35000000       0.40000000       0.00000000 </v>
   <v>       0.40000000       0.40000000       0.00000000 </v>
   <v>       0.45000000       0.40000000       0.00000000 </v>
   <v>       0.50000000       0.40000000       0.00000000 </v>
   <v>       0.00000000       0.45000000       0.00000000 </v>
   <v>       0.05000000       0.45000000       0.00000000 </v>
   <v>       0.10000000       0.45000000       0.00000000 </v>
   <v>       0.15000000       0.45000000       0.00000000 </v>
   <v>       0.20000000       0.45000000       0.00000000 </v>
   <v>       0.25000000       0.45000000       0.00000000 </v>
   <v>       0.30000000       0.45000000       0.00000000 </v>
   <v>       0.35000000       0.45000000       0.00000000 </v>
   <v>       0.40000000       0.45000000       0.00000000 </v>
   <v>       0.45000000       0.45000000       0.00000000 </v>
   <v>       0.50000000       0.45000000       0.00000000 </v>
   <v>       0.00000000       0.50000000       0.00000000 </v>
   <v>       0.05000000       0.50000000       0.00000000 </v>
   <v>       0.10000000       0.50000000       0.00000000 </v>
   <v>       0.15000000       0.50000000       0.00000000 </v>
   <v>       0.20000000       0.50000000       0.00000000 </v>
   <v>       0.25000000       0.50000000       0.00000000 </v>
   <v>       0.30000000       0.50000000       0.00000000 </v>
   <v>       0.35000000       0.50000000       0.00000000 </v>
   <v>       0.40000000       0.50000000       0.00000000 </v>
   <v>       0.45000000       0.50000000       0.00000000 </v>
   <v>       0.50000000       0.50000000       0.00000000 </v>
   <v>       0.00000000       0.00000000       0.05000000 </v>
   <v>       0.05000000       0.00000000       0.05000000 </v>
   <v>       0.10000000       0.00000000       0.05000000 </v>
   <v>       0.15000000       0.00000000       0.05000000 </v>
   <v>       0.20000000       0.00000000       0.05000000 </v>
   <v>       0.25000000       0.00000000       0.05000000 </v>
   <v>       0.30000000       0.00000000       0.05000000 </v>
   <v>       0.35000000       0.00000000       0.05000000 </v>
   <v>       0.40000000       0.00000000       0.05000000 </v>
   <v>       0.45000000       0.00000000       0.05000000 </v>
   <v>       0.50000000       0.00000000       0.05000000 </v>
   <v>      -0.45000000       0.00000000       0.05000000 </v>
   <v>      -0.40000000       0.00000000       0.05000000 </v>
   <v>      -0.35000000       0.00000000       0.05000000 </v>
   <v>      -0.30000000       0.00000000       0.05000000 </v>
   <v>      -0.25000000       0.00000000       0.05000000 </v>
   <v>      -0.20000000       0.00000000       0.05000000 </v>
   <v>      -0.15000000       0.00000000       0.05000000 </v>
   <v>      -0.10000000       0.00000000       0.05000000 </v>
   <v>      -0.05000000       0.00000000       0.05000000 </v>
   <v>       0.00000000       0.05000000       0.05000000 </v>
   <v>       0.05000000       0.05000000       0.05000000 </v>
   <v>       0.10000000       0.05000000       0.05000000 </v>
   <v>       0.15000000       0.05000000       0.05000000 </v>
   <v>       0.20000000       0.05000000       0.05000000 </v>
   <v>       0.25000000       0.05000000       0.05000000 </v>
   <v>       0.30000000       0.05000000       0.05000000 </v>
   <v>       0.35000000       0.05000000       0.05000000 </v>
   <v>       0.40000000       0.05000000       0.05000000 </v>
   <v>       0.45000000       0.05000000       0.05000000 </v>
   <v>       0.50000000       0.05000000       0.05000000 </v>
   <v>      -0.45000000       0.05000000       0.05000000 </v>
   <v>      -0.40000000       0.05000000       0.05000000 </v>
   <v>      -0.35000000       0.05000000       0.05000000 </v>
   <v>      -0.30000000       0.05000000       0.05000000 </v>
   <v>      -0.25000000       0.05000000       0.05000000 </v>
   <v>      -0.20000000       0.05000000       0.05000000 </v>
   <v>      -0.15000000       0.05000000       0.05000000 </v>
   <v>      -0.10000000       0.05000000       0.05000000 </v>
   <v>      -0.05000000       0.05000000       0.05000000 </v>
   <v>       0.00000000       0.10000000       0.05000000 </v>
   <v>       0.05000000       0.10000000       0.05000000 </v>
   <v>       0.10000000       0.10000000       0.05000000 </v>
   <v>       0.15000000       0.10000000       0.05000000 </v>
   <v>       0.20000000       0.10000000       0.05000000 </v>
   <v>       0.25000000       0.10000000       0.05000000 </v>
   <v>       0.30000000       0.10000000       0.05000000 </v>
   <v>       0.35000000       0.10000000       0.05000000 </v>
   <v>       0.40000000       0.10000000       0.05000000 </v>
   <v>       0.45000000       0.10000000       0.05000000 </v>
   <v>       0.50000000       0.10000000       0.05000000 </v>
   <v>      -0.45000000       0.10000000       0.05000000 </v>
   <v>      -0.40000000       0.10000000       0.05000000 </v>
   <v>      -0.35000000       0.10000000       0.05000000 </v>
   <v>      -0.30000000       0.10000000       0.05000000 </v>
   <v>      -0.25000000       0.10000000       0.05000000 </v>
   <v>      -0.20000000       0.10000000       0.05000000 </v>
   <v>      -0.15000000       0.10000000       0.05000000 </v>
   <v>      -0.10000000       0.10000000       0.05000000 </v>
   <v>      -0.05000000       0.10000000       0.05000000 </v>
   <v>       0.00000000       0.15000000       0.05000000 </v>
   <v>       0.05000000       0.15000000       0.05000000 </v>
   <v>       0.10000000       0.15000000       0.05000000 </v>
   <v>       0.15000000       0.15000000       0.05000000 </v>
   <v>       0.20000000       0.15000000       0.05000000 </v>
   <v>       0.25000000       0.15000000       0.05000000 </v>
   <v>       0.30000000       0.15000000       0.05000000 </v>
   <v>       0.35000000       0.15000000       0.05000000 </v>
   <v>       0.40000000       0.15000000       0.05000000 </v>
   <v>       0.45000000       0.15000000       0.05000000 </v>
   <v>       0.50000000       0.15000000       0.05000000 </v>
   <v>      -0.45000000       0.15000000       0.05000000 </v>
   <v>      -0.40000000       0.15000000       0.05000000 </v>
   <v>      -0.35000000       0.15000000       0.05000000 </v>
   <v>      -0.30000000       0.15000000       0.05000000 </v>
   <v>      -0.25000000       0.15000000       0.05000000 </v>
   <v>      -0.20000000       0.15000000       0.05000000 </v>
   <v>      -0.15000000       0.15000000       0.05000000 </v>
   <v>      -0.10000000       0.15000000       0.05000000 </v>
   <v>      -0.05000000       0.15000000       0.05000000 </v>
   <v>       0.00000000       0.20000000       0.05000000 </v>
   <v>       0.05000000       0.20000000       0.05000000 </v>
   <v>       0.10000000       0.20000000       0.05000000 </v>
   <v>       0.15000000       0.20000000       0.05000000 </v>
   <v>       0.20000000       0.20000000       0.05000000 </v>
   <v>       0.25000000       0.20000000       0.05000000 </v>
   <v>       0.30000000       0.20000000       0.05000000 </v>
   <v>       0.35000000       0.20000000       0.05000000 </v>
   <v>       0.40000000       0.20000000       0.05000000 </v>
   <v>       0.45000000       0.20000000       0.05000000 </v>
   <v>       0.50000000       0.20000000       0.05000000 </v>
   <v>      -0.45000000       0.20000000       0.05000000 </v>
   <v>      -0.40000000       0.20000000       0.05000000 </v>
   <v>      -0.35000000       0.20000000       0.05000000 </v>
   <v>      -0.30000000       0.20000000       0.05000000 </v>
   <v>      -0.25000000       0.20000000       0.05000000 </v>
   <v>      -0.20000000       0.20000000       0.05000000 </v>
   <v>      -0.15000000       0.20000000       0.05000000 </v>
   <v>      -0.10000000       0.20000000       0.05000000 </v>
   <v>      -0.05000000       0.20000000       0.05000000 </v>
   <v>       0.00000000       0.25000000       0.05000000 </v>
   <v>       0.05000000       0.25000000       0.05000000 </v>
   <v>       0.10000000       0.25000000       0.05000000 </v>
   <v>       0.15000000       0.25000000       0.05000000 </v>
   <v>       0.20000000       0.25000000       0.05000000 </v>
   <v>       0.25000000       0.25000000       0.05000000 </v>
   <v>       0.30000000       0.25000000       0.05000000 </v>
   <v>       0.35000000       0.25000000       0.05000000 </v>
   <v>       0.40000000       0.25000000       0.05000000 </v>
   <v>       0.45000000       0.25000000       0.05000000 </v>
   <v>       0.50000000       0.25000000       0.05000000 </v>
   <v>      -0.45000000       0.25000000       0.05000000 </v>
   <v>      -0.40000000       0.25000000       0.05000000 </v>
   <v>      -0.35000000       0.25000000       0.05000000 </v>
   <v>      -0.30000000       0.25000000       0.05000000 </v>
   <v>      -0.25000000       0.25000000       0.05000000 </v>
   <v>      -0.20000000       0.25000000       0.05000000 </v>
   <v>      -0.15000000       0.25000000       0.05000000 </v>
   <v>      -0.10000000       0.25000000       0.05000000 </v>
   <v>      -0.05000000       0.25000000       0.05000000 </v>
   <v>       0.00000000       0.30000000       0.05000000 </v>
   <v>       0.05000000       0.30000000       0.05000000 </v>
   <v>       0.10000000       0.30000000       0.05000000 </v>
   <v>       0.15000000       0.30000000       0.05000000 </v>
   <v>       0.20000000       0.30000000       0.05000000 </v>
   <v>       0.25000000       0.30000000       0.05000000 </v>
   <v>       0.30000000       0.30000000       0.05000000 </v>
   <v>       0.35000000       0.30000000       0.05000000 </v>
   <v>       0.40000000       0.30000000       0.05000000 </v>
   <v>       0.45000000       0.30000000       0.05000000 </v>
   <v>       0.50000000       0.30000000       0.05000000 </v>
   <v>      -0.45000000       0.30000000       0.05000000 </v>
   <v>      -0.40000000       0.30000000       0.05000000 </v>
   <v>      -0.35000000       0.30000000       0.05000000 </v>
   <v>      -0.30000000       0.30000000       0.05000000 </v>
   <v>      -0.25000000       0.30000000       0.05000000 </v>
   <v>      -0.20000000       0.30000000       0.05000000 </v>
   <v>      -0.15000000       0.30000000       0.05000000 </v>
   <v>      -0.10000000       0.30000000       0.05000000 </v>
   <v>      -0.05000000       0.30000000       0.05000000 </v>
   <v>       0.00000000       0.35000000       0.05000000 </v>
   <v>       0.05000000       0.35000000       0.05000000 </v>
   <v>       0.10000000       0.35000000       0.05000000 </v>
   <v>       0.15000000       0.35000000       0.05000000 </v>
   <v>       0.20000000       0.35000000       0.05000000 </v>
   <v>       0.25000000       0.35000000       0.05000000 </v>
   <v>       0.30000000       0.35000000       0.05000000 </v>
   <v>       0.35000000       0.35000000       0.05000000 </v>
   <v>       0.40000000       0.35000000       0.05000000 </v>
   <v>       0.45000000       0.35000000       0.05000000 </v>
   <v>       0.50000000       0.35000000       0.05000000 </v>
   <v>      -0.45000000       0.35000000       0.05000000 </v>
   <v>      -0.40000000       0.35000000       0.05000000 </v>
   <v>      -0.35000000       0.35000000       0.05000000 </v>
   <v>      -0.30000000       0.35000000       0.05000000 </v>
   <v>      -0.25000000       0.35000000       0.05000000 </v>
   <v>      -0.20000000       0.35000000       0.05000000 </v>
   <v>      -0.15000000       0.35000000       0.05000000 </v>
   <v>      -0.10000000       0.35000000       0.05000000 </v>
   <v>      -0.05000000       0.35000000       0.05000000 </v>
   <v>       0.00000000       0.40000000       0.05000000 </v>
   <v>       0.05000000       0.40000000       0.05000000 </v>
   <v>       0.10000000       0.40000000       0.05000000 </v>
   <v>       0.15000000       0.40000000       0.05000000 </v>
   <v>       0.20000000       0.40000000       0.05000000 </v>
   <v>       0.25000000       0.40000000       0.05000000 </v>
   <v>       0.30000000       0.40000000       0.05000000 </v>
   <v>       0.35000000       0.40000000       0.05000000 </v>
   <v>       0.40000000       0.40000000       0.05000000 </v>
   <v>       0.45000000       0.40000000       0.05000000 </v>
   <v>       0.50000000       0.40000000       0.05000000 </v>
   <v>      -0.45000000       0.40000000       0.05000000 </v>
   <v>      -0.40000000       0.40000000       0.05000000 </v>
   <v>      -0.35000000       0.40000000       0.05000000 </v>
   <v>      -0.30000000       0.40000000       0.05000000 </v>
   <v>      -0.25000000       0.40000000       0.05000000 </v>
   <v>      -0.20000000       0.40000000       0.05000000 </v>
   <v>      -0.15000000       0.40000000       0.05000000 </v>
   <v>      -0.10000000       0.40000000       0.05000000 </v>
   <v>      -0.05000000       0.40000000       0.05000000 </v>
   <v>       0.00000000       0.45000000       0.05000000 </v>
   <v>       0.05000000       0.45000000       0.05000000 </v>
   <v>       0.10000000       0.45000000       0.05000000 </v>
   <v>       0.15000000       0.45000000       0.05000000 </v>
   <v>       0.20000000       0.45000000       0.05000000 </v>
   <v>       0.25000000       0.45000000       0.05000000 </v>
   <v>       0.30000000       0.45000000       0.05000000 </v>
   <v>       0.35000000       0.45000000       0.05000000 </v>
   <v>       0.40000000       0.45000000       0.05000000 </v>
   <v>       0.45000000       0.45000000       0.05000000 </v>
   <v>       0.50000000       0.45000000       0.05000000 </v>
   <v>      -0.45000000       0.45000000       0.05000000 </v>
   <v>      -0.40000000       0.45000000       0.05000000 </v>
   <v>      -0.35000000       0.45000000       0.05000000 </v>
   <v>      -0.30000000       0.45000000       0.05000000 </v>
   <v>      -0.25000000       0.45000000       0.05000000 </v>
   <v>      -0.20000000       0.45000000       0.05000000 </v>
   <v>      -0.15000000       0.45000000       0.05000000 </v>
   <v>      -0.10000000       0.45000000       0.05000000 </v>
   <v>      -0.05000000       0.45000000       0.05000000 </v>
   <v>       0.00000000       0.50000000       0.05000000 </v>
   <v>       0.05000000       0.50000000       0.05000000 </v>
   <v>       0.10000000       0.50000000       0.05000000 </v>
   <v>       0.15000000       0.50000000       0.05000000 </v>
   <v>       0.20000000       0.50000000       0.05000000 </v>
   <v>       0.25000000       0.50000000       0.05000000 </v>
   <v>       0.30000000       0.50000000       0.05000000 </v>
   <v>       0.35000000       0.50000000       0.05000000 </v>
   <v>       0.40000000       0.50000000       0.05000000 </v>
   <v>       0.45000000       0.50000000       0.05000000 </v>
   <v>       0.50000000       0.50000000       0.05000000 </v>
   <v>      -0.45000000       0.50000000       0.05000000 </v>
   <v>      -0.40000000       0.50000000       0.05000000 </v>
   <v>      -0.35000000       0.50000000       0.05000000 </v>
   <v>      -0.30000000       0.50000000       0.05000000 </v>
   <v>      -0.25000000       0.50000000       0.05000000 </v>
   <v>      -0.20000000       0.50000000       0.05000000 </v>
   <v>      -0.15000000       0.50000000       0.05000000 </v>
   <v>      -0.10000000       0.50000000       0.05000000 </v>
   <v>      -0.05000000       0.50000000       0.05000000 </v>
   <v>       0.00000000       0.00000000       0.10000000 </v>
   <v>       0.05000000       0.00000000       0.10000000 </v>
   <v>       0.10000000       0.00000000       0.10000000 </v>
   <v>       0.15000000       0.00000000       0.10000000 </v>
   <v>       0.20000000       0.00000000       0.10000000 </v>
   <v>       0.25000000       0.00000000       0.10000000 </v>
   <v>       0.30000000       0.00000000       0.10000000 </v>
   <v>       0.35000000       0.00000000       0.10000000 </v>
   <v>       0.40000000       0.00000000       0.10000000 </v>
   <v>       0.45000000       0.00000000       0.10000000 </v>
   <v>       0.50000000       0.00000000       0.10000000 </v>
   <v>      -0.45000000       0.00000000       0.10000000 </v>
   <v>      -0.40000000       0.00000000       0.10000000 </v>
   <v>      -0.35000000       0.00000000       0.10000000 </v>
   <v>      -0.30000000       0.00000000       0.10000000 </v>
   <v>      -0.25000000       0.00000000       0.10000000 </v>
   <v>      -0.20000000       0.00000000       0.10000000 </v>
   <v>      -0.15000000       0.00000000       0.10000000 </v>
   <v>      -0.10000000       0.00000000       0.10000000 </v>
   <v>      -0.05000000       0.00000000       0.10000000 </v>
   <v>       0.00000000       0.05000000       0.10000000 </v>
   <v>       0.05000000       0.05000000       0.10000000 </v>
   <v>       0.10000000       0.05000000       0.10000000 </v>
   <v>       0.15000000       0.05000000       0.10000000 </v>
   <v>       0.20000000       0.05000000       0.10000000 </v>
   <v>       0.25000000       0.05000000       0.10000000 </v>
   <v>       0.30000000       0.05000000       0.10000000 </v>
   <v>       0.35000000       0.05000000       0.10000000 </v>
   <v>       0.40000000       0.05000000       0.10000000 </v>
   <v>       0.45000000       0.05000000       0.10000000 </v>
   <v>       0.50000000       0.05000000       0.10000000 </v>
   <v>      -0.45000000       0.05000000       0.10000000 </v>
   <v>      -0.40000000       0.05000000       0.10000000 </v>
   <v>      -0.35000000       0.05000000       0.10000000 </v>
   <v>      -0.30000000       0.05000000       0.10000000 </v>
   <v>      -0.25000000       0.05000000       0.10000000 </v>
   <v>      -0.20000000       0.05000000       0.10000000 </v>
   <v>      -0.15000000       0.05000000       0.10000000 </v>
   <v>      -0.10000000       0.05000000       0.10000000 </v>
   <v>      -0.05000000       0.05000000       0.10000000 </v>
   <v>       0.00000000       0.10000000       0.10000000 </v>
   <v>       0.05000000       0.10000000       0.10000000 </v>
   <v>       0.10000000       0.10000000       0.10000000 </v>
   <v>       0.15000000       0.10000000       0.10000000 </v>
   <v>       0.20000000       0.10000000       0.10000000 </v>
   <v>       0.25000000       0.10000000       0.10000000 </v>
   <v>       0.30000000       0.10000000       0.10000000 </v>
   <v>       0.35000000       0.10000000       0.10000000 </v>
   <v>       0.40000000       0.10000000       0.10000000 </v>
   <v>       0.45000000       0.10000000       0.10000000 </v>
   <v>       0.50000000       0.10000000       0.10000000 </v>
   <v>      -0.45000000       0.10000000       0.10000000 </v>
   <v>      -0.40000000       0.10000000       0.10000000 </v>
   <v>      -0.35000000       0.10000000       0.10000000 </v>
   <v>      -0.30000000       0.10000000       0.10000000 </v>
   <v>      -0.25000000       0.10000000       0.10000000 </v>
   <v>      -0.20000000       0.10000000       0.10000000 </v>
   <v>      -0.15000000       0.10000000       0.10000000 </v>
   <v>      -0.10000000       0.10000000       0.10000000 </v>
   <v>      -0.05000000       0.10000000       0.10000000 </v>
   <v>       0.00000000       0.15000000       0.10000000 </v>
   <v>       0.05000000       0.15000000       0.10000000 </v>
   <v>       0.10000000       0.15000000       0.10000000 </v>
   <v>       0.15000000       0.15000000       0.10000000 </v>
   <v>       0.20000000       0.15000000       0.10000000 </v>
   <v>       0.25000000       0.15000000       0.10000000 </v>
   <v>       0.30000000       0.15000000       0.10000000 </v>
   <v>       0.35000000       0.15000000       0.10000000 </v>
   <v>       0.40000000       0.15000000       0.10000000 </v>
   <v>       0.45000000       0.15000000       0.10000000 </v>
   <v>       0.50000000       0.15000000       0.10000000 </v>
   <v>      -0.45000000       0.15000000       0.10000000 </v>
   <v>      -0.40000000       0.15000000       0.10000000 </v>
   <v>      -0.35000000       0.15000000       0.10000000 </v>
   <v>      -0.30000000       0.15000000       0.10000000 </v>
   <v>      -0.25000000       0.15000000       0.10000000 </v>
   <v>      -0.20000000       0.15000000       0.10000000 </v>
   <v>      -0.15000000       0.15000000       0.10000000 </v>
   <v>      -0.10000000       0.15000000       0.10000000 </v>
   <v>      -0.05000000       0.15000000       0.10000000 </v>
   <v>       0.00000000       0.20000000       0.10000000 </v>
   <v>       0.05000000       0.20000000       0.10000000 </v>
   <v>       0.10000000       0.20000000       0.10000000 </v>
   <v>       0.15000000       0.20000000       0.10000000 </v>
   <v>       0.20000000       0.20000000       0.10000000 </v>
   <v>       0.25000000       0.20000000       0.10000000 </v>
   <v>       0.30000000       0.20000000       0.10000000 </v>
   <v>       0.35000000       0.20000000       0.10000000 </v>
   <v>       0.40000000       0.20000000       0.10000000 </v>
   <v>       0.45000000       0.20000000       0.10000000 </v>
   <v>       0.50000000       0.20000000       0.10000000 </v>
   <v>      -0.45000000       0.20000000       0.10000000 </v>
   <v>      -0.40000000       0.20000000       0.10000000 </v>
   <v>      -0.35000000       0.20000000       0.10000000 </v>
   <v>      -0.30000000       0.20000000       0.10000000 </v>
   <v>      -0.25000000       0.20000000       0.10000000 </v>
   <v>      -0.20000000       0.20000000       0.10000000 </v>
   <v>      -0.15000000       0.20000000       0.10000000 </v>
   <v>      -0.10000000       0.20000000       0.10000000 </v>
   <v>      -0.05000000       0.20000000       0.10000000 </v>
   <v>       0.00000000       0.25000000       0.10000000 </v>
   <v>       0.05000000       0.25000000       0.10000000 </v>
   <v>       0.10000000       0.25000000       0.10000000 </v>
   <v>       0.15000000       0.25000000       0.10000000 </v>
   <v>       0.20000000       0.25000000       0.10000000 </v>
   <v>       0.25000000       0.25000000       0.10000000 </v>
   <v>       0.30000000       0.25000000       0.10000000 </v>
   <v>       0.35000000       0.25000000       0.10000000 </v>
   <v>       0.40000000       0.25000000       0.10000000 </v>
   <v>       0.45000000       0.25000000       0.10000000 </v>
   <v>       0.50000000       0.25000000       0.10000000 </v>
   <v>      -0.45000000       0.25000000       0.10000000 </v>
   <v>      -0.40000000       0.25000000       0.10000000 </v>
   <v>      -0.35000000       0.25000000       0.10000000 </v>
   <v>      -0.30000000       0.25000000       0.10000000 </v>
   <v>      -0.25000000       0.25000000       0.10000000 </v>
   <v>      -0.20000000       0.25000000       0.10000000 </v>
   <v>      -0.15000000       0.25000000       0.10000000 </v>
   <v>      -0.10000000       0.25000000       0.10000000 </v>
   <v>      -0.05000000       0.25000000       0.10000000 </v>
   <v>       0.00000000       0.30000000       0.10000000 </v>
   <v>       0.05000000       0.30000000       0.10000000 </v>
   <v>       0.10000000       0.30000000       0.10000000 </v>
   <v>       0.15000000       0.30000000       0.10000000 </v>
   <v>       0.20000000       0.30000000       0.10000000 </v>
   <v>       0.25000000       0.30000000       0.10000000 </v>
   <v>       0.30000000       0.30000000       0.10000000 </v>
   <v>       0.35000000       0.30000000       0.10000000 </v>
   <v>       0.40000000       0.30000000       0.10000000 </v>
   <v>       0.45000000       0.30000000       0.10000000 </v>
   <v>       0.50000000       0.30000000       0.10000000 </v>
   <v>      -0.45000000       0.30000000       0.10000000 </v>
   <v>      -0.40000000       0.30000000       0.10000000 </v>
   <v>      -0.35000000       0.30000000       0.10000000 </v>
   <v>      -0.30000000       0.30000000       0.10000000 </v>
   <v>      -0.25000000       0.30000000       0.10000000 </v>
   <v>      -0.20000000       0.30000000       0.10000000 </v>
   <v>      -0.15000000       0.30000000       0.10000000 </v>
   <v>      -0.10000000       0.30000000       0.10000000 </v>
   <v>      -0.05000000       0.30000000       0.10000000 </v>
   <v>       0.00000000       0.35000000       0.10000000 </v>
   <v>       0.05000000       0.35000000       0.10000000 </v>
   <v>       0.10000000       0.35000000       0.10000000 </v>
   <v>       0.15000000       0.35000000       0.10000000 </v>
   <v>       0.20000000       0.35000000       0.10000000 </v>
   <v>       0.25000000       0.35000000       0.10000000 </v>
   <v>       0.30000000       0.35000000       0.10000000 </v>
   <v>       0.35000000       0.35000000       0.10000000 </v>
   <v>       0.40000000       0.35000000       0.10000000 </v>
   <v>       0.45000000       0.35000000       0.10000000 </v>
   <v>       0.50000000       0.35000000       0.10000000 </v>
   <v>      -0.45000000       0.35000000       0.10000000 </v>
   <v>      -0.40000000       0.35000000       0.10000000 </v>
   <v>      -0.35000000       0.35000000       0.10000000 </v>
   <v>      -0.30000000       0.35000000       0.10000000 </v>
   <v>      -0.25000000       0.35000000       0.10000000 </v>
   <v>      -0.20000000       0.35000000       0.10000000 </v>
   <v>      -0.15000000       0.35000000       0.10000000 </v>
   <v>      -0.10000000       0.35000000       0.10000000 </v>
   <v>      -0.05000000       0.35000000       0.10000000 </v>
   <v>       0.00000000       0.40000000       0.10000000 </v>
   <v>       0.05000000       0.40000000       0.10000000 </v>
   <v>       0.10000000       0.40000000       0.10000000 </v>
   <v>       0.15000000       0.40000000       0.10000000 </v>
   <v>       0.20000000       0.40000000       0.10000000 </v>
   <v>       0.25000000       0.40000000       0.10000000 </v>
   <v>       0.30000000       0.40000000       0.10000000 </v>
   <v>       0.35000000       0.40000000       0.10000000 </v>
   <v>       0.40000000       0.40000000       0.10000000 </v>
   <v>       0.45000000       0.40000000       0.10000000 </v>
   <v>       0.50000000       0.40000000       0.10000000 </v>
   <v>      -0.45000000       0.40000000       0.10000000 </v>
   <v>      -0.40000000       0.40000000       0.10000000 </v>
   <v>      -0.35000000       0.40000000       0.10000000 </v>
   <v>      -0.30000000       0.40000000       0.10000000 </v>
   <v>      -0.25000000       0.40000000       0.10000000 </v>
   <v>      -0.20000000       0.40000000       0.10000000 </v>
   <v>      -0.15000000       0.40000000       0.10000000 </v>
   <v>      -0.10000000       0.40000000       0.10000000 </v>
   <v>      -0.05000000       0.40000000       0.10000000 </v>
   <v>       0.00000000       0.45000000       0.10000000 </v>
   <v>       0.05000000       0.45000000       0.10000000 </v>
   <v>       0.10000000       0.45000000       0.10000000 </v>
   <v>       0.15000000       0.45000000       0.10000000 </v>
   <v>       0.20000000       0.45000000       0.10000000 </v>
   <v>       0.25000000       0.45000000       0.10000000 </v>
   <v>       0.30000000       0.45000000       0.10000000 </v>
   <v>       0.35000000       0.45000000       0.10000000 </v>
   <v>       0.40000000       0.45000000       0.10000000 </v>
   <v>       0.45000000       0.45000000       0.10000000 </v>
   <v>       0.50000000       0.45000000       0.10000000 </v>
   <v>      -0.45000000       0.45000000       0.10000000 </v>
   <v>      -0.40000000       0.45000000       0.10000000 </v>
   <v>      -0.35000000       0.45000000       0.10000000 </v>
   <v>      -0.30000000       0.45000000       0.10000000 </v>
   <v>      -0.25000000       0.45000000       0.10000000 </v>
   <v>      -0.20000000       0.45000000       0.10000000 </v>
   <v>      -0.15000000       0.45000000       0.10000000 </v>
   <v>      -0.10000000       0.45000000       0.10000000 </v>
   <v>      -0.05000000       0.45000000       0.10000000 </v>
   <v>       0.00000000       0.50000000       0.10000000 </v>
   <v>       0.05000000       0.50000000       0.10000000 </v>
   <v>       0.10000000       0.50000000       0.10000000 </v>
   <v>       0.15000000       0.50000000       0.10000000 </v>
   <v>       0.20000000       0.50000000       0.10000000 </v>
   <v>       0.25000000       0.50000000       0.10000000 </v>
   <v>       0.30000000       0.50000000       0.10000000 </v>
   <v>       0.35000000       0.50000000       0.10000000 </v>
   <v>       0.40000000       0.50000000       0.10000000 </v>
   <v>       0.45000000       0.50000000       0.10000000 </v>
   <v>       0.50000000       0.50000000       0.10000000 </v>
   <v>      -0.45000000       0.50000000       0.10000000 </v>
   <v>      -0.40000000       0.50000000       0.10000000 </v>
   <v>      -0.35000000       0.50000000       0.10000000 </v>
   <v>      -0.30000000       0.50000000       0.10000000 </v>
   <v>      -0.25000000       0.50000000       0.10000000 </v>
   <v>      -0.20000000       0.50000000       0.10000000 </v>
   <v>      -0.15000000       0.50000000       0.10000000 </v>
   <v>      -0.10000000       0.50000000       0.10000000 </v>
   <v>      -0.05000000       0.50000000       0.10000000 </v>
   <v>       0.00000000       0.00000000       0.15000000 </v>
   <v>       0.05000000       0.00000000       0.15000000 </v>
   <v>       0.10000000       0.00000000       0.15000000 </v>
   <v>       0.15000000       0.00000000       0.15000000 </v>
   <v>       0.20000000       0.00000000       0.15000000 </v>
   <v>       0.25000000       0.00000000       0.15000000 </v>
   <v>       0.30000000       0.00000000       0.15000000 </v>
   <v>       0.35000000       0.00000000       0.15000000 </v>
   <v>       0.40000000       0.00000000       0.15000000 </v>
   <v>       0.45000000       0.00000000       0.15000000 </v>
   <v>       0.50000000       0.00000000       0.15000000 </v>
   <v>      -0.45000000       0.00000000       0.15000000 </v>
   <v>      -0.40000000       0.00000000       0.15000000 </v>
   <v>      -0.35000000       0.00000000       0.15000000 </v>
   <v>      -0.30000000       0.00000000       0.15000000 </v>
   <v>      -0.25000000       0.00000000       0.15000000 </v>
   <v>      -0.20000000       0.00000000       0.15000000 </v>
   <v>      -0.15000000       0.00000000       0.15000000 </v>
   <v>      -0.10000000       0.00000000       0.15000000 </v>
   <v>      -0.05000000       0.00000000       0.15000000 </v>
   <v>       0.00000000       0.05000000       0.15000000 </v>
   <v>       0.05000000       0.05000000       0.15000000 </v>
   <v>       0.10000000       0.05000000       0.15000000 </v>
   <v>       0.15000000       0.05000000       0.15000000 </v>
   <v>       0.20000000       0.05000000       0.15000000 </v>
   <v>       0.25000000       0.05000000       0.15000000 </v>
   <v>       0.30000000       0.05000000       0.15000000 </v>
   <v>       0.35000000       0.05000000       0.15000000 </v>
   <v>       0.40000000       0.05000000       0.15000000 </v>
   <v>       0.45000000       0.05000000       0.15000000 </v>
   <v>       0.50000000       0.05000000       0.15000000 </v>
   <v>      -0.45000000       0.05000000       0.15000000 </v>
   <v>      -0.40000000       0.05000000       0.15000000 </v>
   <v>      -0.35000000       0.05000000       0.15000000 </v>
   <v>      -0.30000000       0.05000000       0.15000000 </v>
   <v>      -0.25000000       0.05000000       0.15000000 </v>
   <v>      -0.20000000       0.05000000       0.15000000 </v>
   <v>      -0.15000000       0.05000000       0.15000000 </v>
   <v>      -0.10000000       0.05000000       0.15000000 </v>
   <v>      -0.05000000       0.05000000       0.15000000 </v>
   <v>       0.00000000       0.10000000       0.15000000 </v>
   <v>       0.05000000       0.10000000       0.15000000 </v>
   <v>       0.10000000       0.10000000       0.15000000 </v>
   <v>       0.15000000       0.10000000       0.15000000 </v>
   <v>       0.20000000       0.10000000       0.15000000 </v>
   <v>       0.25000000       0.10000000       0.15000000 </v>
   <v>       0.30000000       0.10000000       0.15000000 </v>
   <v>       0.35000000       0.10000000       0.15000000 </v>
   <v>       0.40000000       0.10000000       0.15000000 </v>
   <v>       0.45000000       0.10000000       0.15000000 </v>
   <v>       0.50000000       0.10000000       0.15000000 </v>
   <v>      -0.45000000       0.10000000       0.15000000 </v>
   <v>      -0.40000000       0.10000000       0.15000000 </v>
   <v>      -0.35000000       0.10000000       0.15000000 </v>
   <v>      -0.30000000       0.10000000       0.15000000 </v>
   <v>      -0.25000000       0.10000000       0.15000000 </v>
   <v>      -0.20000000       0.10000000       0.15000000 </v>
   <v>      -0.15000000       0.10000000       0.15000000 </v>
   <v>      -0.10000000       0.10000000       0.15000000 </v>
   <v>      -0.05000000       0.10000000       0.15000000 </v>
   <v>       0.00000000       0.15000000       0.15000000 </v>
   <v>       0.05000000       0.15000000       0.15000000 </v>
   <v>       0.10000000       0.15000000       0.15000000 </v>
   <v>       0.15000000       0.15000000       0.15000000 </v>
   <v>       0.20000000       0.15000000       0.15000000 </v>
   <v>       0.25000000       0.15000000       0.15000000 </v>
   <v>       0.30000000       0.15000000       0.15000000 </v>
   <v>       0.35000000       0.15000000       0.15000000 </v>
   <v>       0.40000000       0.15000000       0.15000000 </v>
   <v>       0.45000000       0.15000000       0.15000000 </v>
   <v>       0.50000000       0.15000000       0.15000000 </v>
   <v>      -0.45000000       0.15000000       0.15000000 </v>
   <v>      -0.40000000       0.15000000       0.15000000 </v>
   <v>      -0.35000000       0.15000000       0.15000000 </v>
   <v>      -0.30000000       0.15000000       0.15000000 </v>
   <v>      -0.25000000       0.15000000       0.15000000 </v>
   <v>      -0.20000000       0.15000000       0.15000000 </v>
   <v>      -0.15000000       0.15000000       0.15000000 </v>
   <v>      -0.10000000       0.15000000       0.15000000 </v>
   <v>      -0.05000000       0.15000000       0.15000000 </v>
   <v>       0.00000000       0.20000000       0.15000000 </v>
   <v>       0.05000000       0.20000000       0.15000000 </v>
   <v>       0.10000000       0.20000000       0.15000000 </v>
   <v>       0.15000000       0.20000000       0.15000000 </v>
   <v>       0.20000000       0.20000000       0.15000000 </v>
   <v>       0.25000000       0.20000000       0.15000000 </v>
   <v>       0.30000000       0.20000000       0.15000000 </v>
   <v>       0.35000000       0.20000000       0.15000000 </v>
   <v>       0.40000000       0.20000000       0.15000000 </v>
   <v>       0.45000000       0.20000000       0.15000000 </v>
   <v>       0.50000000       0.20000000       0.15000000 </v>
   <v>      -0.45000000       0.20000000       0.15000000 </v>
   <v>      -0.40000000       0.20000000       0.15000000 </v>
   <v>      -0.35000000       0.20000000       0.15000000 </v>
   <v>      -0.30000000       0.20000000       0.15000000 </v>
   <v>      -0.25000000       0.20000000       0.15000000 </v>
   <v>      -0.20000000       0.20000000       0.15000000 </v>
   <v>      -0.15000000       0.20000000       0.15000000 </v>
   <v>      -0.10000000       0.20000000       0.15000000 </v>
   <v>      -0.05000000       0.20000000       0.15000000 </v>
   <v>       0.00000000       0.25000000       0.15000000 </v>
   <v>       0.05000000       0.25000000       0.15000000 </v>
   <v>       0.10000000       0.25000000       0.15000000 </v>
   <v>       0.15000000       0.25000000       0.15000000 </v>
   <v>       0.20000000       0.25000000       0.15000000 </v>
   <v>       0.25000000       0.25000000       0.15000000 </v>
   <v>       0.30000000       0.25000000       0.15000000 </v>
   <v>       0.35000000       0.25000000       0.15000000 </v>
   <v>       0.40000000       0.25000000       0.15000000 </v>
   <v>       0.45000000       0.25000000       0.15000000 </v>
   <v>       0.50000000       0.25000000       0.15000000 </v>
   <v>      -0.45000000       0.25000000       0.15000000 </v>
   <v>      -0.40000000       0.25000000       0.15000000 </v>
   <v>      -0.35000000       0.25000000       0.15000000 </v>
   <v>      -0.30000000       0.25000000       0.15000000 </v>
   <v>      -0.25000000       0.25000000       0.15000000 </v>
   <v>      -0.20000000       0.25000000       0.15000000 </v>
   <v>      -0.15000000       0.25000000       0.15000000 </v>
   <v>      -0.10000000       0.25000000       0.15000000 </v>
   <v>      -0.05000000       0.25000000       0.15000000 </v>
   <v>       0.00000000       0.30000000       0.15000000 </v>
   <v>       0.05000000       0.30000000       0.15000000 </v>
   <v>       0.10000000       0.30000000       0.15000000 </v>
   <v>       0.15000000       0.30000000       0.15000000 </v>
   <v>       0.20000000       0.30000000       0.15000000 </v>
   <v>       0.25000000       0.30000000       0.15000000 </v>
   <v>       0.30000000       0.30000000       0.15000000 </v>
   <v>       0.35000000       0.30000000       0.15000000 </v>
   <v>       0.40000000       0.30000000       0.15000000 </v>
   <v>       0.45000000       0.30000000       0.15000000 </v>
   <v>       0.50000000       0.30000000       0.15000000 </v>
   <v>      -0.45000000       0.30000000       0.15000000 </v>
   <v>      -0.40000000       0.30000000       0.15000000 </v>
   <v>      -0.35000000       0.30000000       0.15000000 </v>
   <v>      -0.30000000       0.30000000       0.15000000 </v>
   <v>      -0.25000000       0.30000000       0.15000000 </v>
   <v>      -0.20000000       0.30000000       0.15000000 </v>
   <v>      -0.15000000       0.30000000       0.15000000 </v>
   <v>      -0.10000000       0.30000000       0.15000000 </v>
   <v>      -0.05000000       0.30000000       0.15000000 </v>
   <v>       0.00000000       0.35000000       0.15000000 </v>
   <v>       0.05000000       0.35000000       0.15000000 </v>
   <v>       0.10000000       0.35000000       0.15000000 </v>
   <v>       0.15000000       0.35000000       0.15000000 </v>
   <v>       0.20000000       0.35000000       0.15000000 </v>
   <v>       0.25000000       0.35000000       0.15000000 </v>
   <v>       0.30000000       0.35000000       0.15000000 </v>
   <v>       0.35000000       0.35000000       0.15000000 </v>
   <v>       0.40000000       0.35000000       0.15000000 </v>
   <v>       0.45000000       0.35000000       0.15000000 </v>
   <v>       0.50000000       0.35000000       0.15000000 </v>
   <v>      -0.45000000       0.35000000       0.15000000 </v>
   <v>      -0.40000000       0.35000000       0.15000000 </v>
   <v>      -0.35000000       0.35000000       0.15000000 </v>
   <v>      -0.30000000       0.35000000       0.15000000 </v>
   <v>      -0.25000000       0.35000000       0.15000000 </v>
   <v>      -0.20000000       0.35000000       0.15000000 </v>
   <v>      -0.15000000       0.35000000       0.15000000 </v>
   <v>      -0.10000000       0.35000000       0.15000000 </v>
   <v>      -0.05000000       0.35000000       0.15000000 </v>
   <v>       0.00000000       0.40000000       0.15000000 </v>
   <v>       0.05000000       0.40000000       0.15000000 </v>
   <v>       0.10000000       0.40000000       0.15000000 </v>
   <v>       0.15000000       0.40000000       0.15000000 </v>
   <v>       0.20000000       0.40000000       0.15000000 </v>
   <v>       0.25000000       0.40000000       0.15000000 </v>
   <v>       0.30000000       0.40000000       0.15000000 </v>
   <v>       0.35000000       0.40000000       0.15000000 </v>
   <v>       0.40000000       0.40000000       0.15000000 </v>
   <v>       0.45000000       0.40000000       0.15000000 </v>
   <v>       0.50000000       0.40000000       0.15000000 </v>
   <v>      -0.45000000       0.40000000       0.15000000 </v>
   <v>      -0.40000000       0.40000000       0.15000000 </v>
   <v>      -0.35000000       0.40000000       0.15000000 </v>
   <v>      -0.30000000       0.40000000       0.15000000 </v>
   <v>      -0.25000000       0.40000000       0.15000000 </v>
   <v>      -0.20000000       0.40000000       0.15000000 </v>
   <v>      -0.15000000       0.40000000       0.15000000 </v>
   <v>      -0.10000000       0.40000000       0.15000000 </v>
   <v>      -0.05000000       0.40000000       0.15000000 </v>
   <v>       0.00000000       0.45000000       0.15000000 </v>
   <v>       0.05000000       0.45000000       0.15000000 </v>
   <v>       0.10000000       0.45000000       0.15000000 </v>
   <v>       0.15000000       0.45000000       0.15000000 </v>
   <v>       0.20000000       0.45000000       0.15000000 </v>
   <v>       0.25000000       0.45000000       0.15000000 </v>
   <v>       0.30000000       0.45000000       0.15000000 </v>
   <v>       0.35000000       0.45000000       0.15000000 </v>
   <v>       0.40000000       0.45000000       0.15000000 </v>
   <v>       0.45000000       0.45000000       0.15000000 </v>
   <v>       0.50000000       0.45000000       0.15000000 </v>
   <v>      -0.45000000       0.45000000       0.15000000 </v>
   <v>      -0.40000000       0.45000000       0.15000000 </v>
   <v>      -0.35000000       0.45000000       0.15000000 </v>
   <v>      -0.30000000       0.45000000       0.15000000 </v>
   <v>      -0.25000000       0.45000000       0.15000000 </v>
   <v>      -0.20000000       0.45000000       0.15000000 </v>
   <v>      -0.15000000       0.45000000       0.15000000 </v>
   <v>      -0.10000000       0.45000000       0.15000000 </v>
   <v>      -0.05000000       0.45000000       0.15000000 </v>
   <v>       0.00000000       0.50000000       0.15000000 </v>
   <v>       0.05000000       0.50000000       0.15000000 </v>
   <v>       0.10000000       0.50000000       0.15000000 </v>
   <v>       0.15000000       0.50000000       0.15000000 </v>
   <v>       0.20000000       0.50000000       0.15000000 </v>
   <v>       0.25000000       0.50000000       0.15000000 </v>
   <v>       0.30000000       0.50000000       0.15000000 </v>
   <v>       0.35000000       0.50000000       0.15000000 </v>
   <v>       0.40000000       0.50000000       0.15000000 </v>
   <v>       0.45000000       0.50000000       0.15000000 </v>
   <v>       0.50000000       0.50000000       0.15000000 </v>
   <v>      -0.45000000       0.50000000       0.15000000 </v>
   <v>      -0.40000000       0.50000000       0.15000000 </v>
   <v>      -0.35000000       0.50000000       0.15000000 </v>
   <v>      -0.30000000       0.50000000       0.15000000 </v>
   <v>      -0.25000000       0.50000000       0.15000000 </v>
   <v>      -0.20000000       0.50000000       0.15000000 </v>
   <v>      -0.15000000       0.50000000       0.15000000 </v>
   <v>      -0.10000000       0.50000000       0.15000000 </v>
   <v>      -0.05000000       0.50000000       0.15000000 </v>
   <v>       0.00000000       0.00000000       0.20000000 </v>
   <v>       0.05000000       0.00000000       0.20000000 </v>
   <v>       0.10000000       0.00000000       0.20000000 </v>
   <v>       0.15000000       0.00000000       0.20000000 </v>
   <v>       0.20000000       0.00000000       0.20000000 </v>
   <v>       0.25000000       0.00000000       0.20000000 </v>
   <v>       0.30000000       0.00000000       0.20000000 </v>
   <v>       0.35000000       0.00000000       0.20000000 </v>
   <v>       0.40000000       0.00000000       0.20000000 </v>
   <v>       0.45000000       0.00000000       0.20000000 </v>
   <v>       0.50000000       0.00000000       0.20000000 </v>
   <v>      -0.45000000       0.00000000       0.20000000 </v>
   <v>      -0.40000000       0.00000000       0.20000000 </v>
   <v>      -0.35000000       0.00000000       0.20000000 </v>
   <v>      -0.30000000       0.00000000       0.20000000 </v>
   <v>      -0.25000000       0.00000000       0.20000000 </v>
   <v>      -0.20000000       0.00000000       0.20000000 </v>
   <v>      -0.15000000       0.00000000       0.20000000 </v>
   <v>      -0.10000000       0.00000000       0.20000000 </v>
   <v>      -0.05000000       0.00000000       0.20000000 </v>
   <v>       0.00000000       0.05000000       0.20000000 </v>
   <v>       0.05000000       0.05000000       0.20000000 </v>
   <v>       0.10000000       0.05000000       0.20000000 </v>
   <v>       0.15000000       0.05000000       0.20000000 </v>
   <v>       0.20000000       0.05000000       0.20000000 </v>
   <v>       0.25000000       0.05000000       0.20000000 </v>
   <v>       0.30000000       0.05000000       0.20000000 </v>
   <v>       0.35000000       0.05000000       0.20000000 </v>
   <v>       0.40000000       0.05000000       0.20000000 </v>
   <v>       0.45000000       0.05000000       0.20000000 </v>
   <v>       0.50000000       0.05000000       0.20000000 </v>
   <v>      -0.45000000       0.05000000       0.20000000 </v>
   <v>      -0.40000000       0.05000000       0.20000000 </v>
   <v>      -0.35000000       0.05000000       0.20000000 </v>
   <v>      -0.30000000       0.05000000       0.20000000 </v>
   <v>      -0.25000000       0.05000000       0.20000000 </v>
   <v>      -0.20000000       0.05000000       0.20000000 </v>
   <v>      -0.15000000       0.05000000       0.20000000 </v>
   <v>      -0.10000000       0.05000000       0.20000000 </v>
   <v>      -0.05000000       0.05000000       0.20000000 </v>
   <v>       0.00000000       0.10000000       0.20000000 </v>
   <v>       0.05000000       0.10000000       0.20000000 </v>
   <v>       0.10000000       0.10000000       0.20000000 </v>
   <v>       0.15000000       0.10000000       0.20000000 </v>
   <v>       0.20000000       0.10000000       0.20000000 </v>
   <v>       0.25000000       0.10000000       0.20000000 </v>
   <v>       0.30000000       0.10000000       0.20000000 </v>
   <v>       0.35000000       0.10000000       0.20000000 </v>
   <v>       0.40000000       0.10000000       0.20000000 </v>
   <v>       0.45000000       0.10000000       0.20000000 </v>
   <v>       0.50000000       0.10000000       0.20000000 </v>
   <v>      -0.45000000       0.10000000       0.20000000 </v>
   <v>      -0.40000000       0.10000000       0.20000000 </v>
   <v>      -0.35000000       0.10000000       0.20000000 </v>
   <v>      -0.30000000       0.10000000       0.20000000 </v>
   <v>      -0.25000000       0.10000000       0.20000000 </v>
   <v>      -0.20000000       0.10000000       0.20000000 </v>
   <v>      -0.15000000       0.10000000       0.20000000 </v>
   <v>      -0.10000000       0.10000000       0.20000000 </v>
   <v>      -0.05000000       0.10000000       0.20000000 </v>
   <v>       0.00000000       0.15000000       0.20000000 </v>
   <v>       0.05000000       0.15000000       0.20000000 </v>
   <v>       0.10000000       0.15000000       0.20000000 </v>
   <v>       0.15000000       0.15000000       0.20000000 </v>
   <v>       0.20000000       0.15000000       0.20000000 </v>
   <v>       0.25000000       0.15000000       0.20000000 </v>
   <v>       0.30000000       0.15000000       0.20000000 </v>
   <v>       0.35000000       0.15000000       0.20000000 </v>
   <v>       0.40000000       0.15000000       0.20000000 </v>
   <v>       0.45000000       0.15000000       0.20000000 </v>
   <v>       0.50000000       0.15000000       0.20000000 </v>
   <v>      -0.45000000       0.15000000       0.20000000 </v>
   <v>      -0.40000000       0.15000000       0.20000000 </v>
   <v>      -0.35000000       0.15000000       0.20000000 </v>
   <v>      -0.30000000       0.15000000       0.20000000 </v>
   <v>      -0.25000000       0.15000000       0.20000000 </v>
   <v>      -0.20000000       0.15000000       0.20000000 </v>
   <v>      -0.15000000       0.15000000       0.20000000 </v>
   <v>      -0.10000000       0.15000000       0.20000000 </v>
   <v>      -0.05000000       0.15000000       0.20000000 </v>
   <v>       0.00000000       0.20000000       0.20000000 </v>
   <v>       0.05000000       0.20000000       0.20000000 </v>
   <v>       0.10000000       0.20000000       0.20000000 </v>
   <v>       0.15000000       0.20000000       0.20000000 </v>
   <v>       0.20000000       0.20000000       0.20000000 </v>
   <v>       0.25000000       0.20000000       0.20000000 </v>
   <v>       0.30000000       0.20000000       0.20000000 </v>
   <v>       0.35000000       0.20000000       0.20000000 </v>
   <v>       0.40000000       0.20000000       0.20000000 </v>
   <v>       0.45000000       0.20000000       0.20000000 </v>
   <v>       0.50000000       0.20000000       0.20000000 </v>
   <v>      -0.45000000       0.20000000       0.20000000 </v>
   <v>      -0.40000000       0.20000000       0.20000000 </v>
   <v>      -0.35000000       0.20000000       0.20000000 </v>
   <v>      -0.30000000       0.20000000       0.20000000 </v>
   <v>      -0.25000000       0.20000000       0.20000000 </v>
   <v>      -0.20000000       0.20000000       0.20000000 </v>
   <v>      -0.15000000       0.20000000       0.20000000 </v>
   <v>      -0.10000000       0.20000000       0.20000000 </v>
   <v>      -0.05000000       0.20000000       0.20000000 </v>
   <v>       0.00000000       0.25000000       0.20000000 </v>
   <v>       0.05000000       0.25000000       0.20000000 </v>
   <v>       0.10000000       0.25000000       0.20000000 </v>
   <v>       0.15000000       0.25000000       0.20000000 </v>
   <v>       0.20000000       0.25000000       0.20000000 </v>
   <v>       0.25000000       0.25000000       0.20000000 </v>
   <v>       0.30000000       0.25000000       0.20000000 </v>
   <v>       0.35000000       0.25000000       0.20000000 </v>
   <v>       0.40000000       0.25000000       0.20000000 </v>
   <v>       0.45000000       0.25000000       0.20000000 </v>
   <v>       0.50000000       0.25000000       0.20000000 </v>
   <v>      -0.45000000       0.25000000       0.20000000 </v>
   <v>      -0.40000000       0.25000000       0.20000000 </v>
   <v>      -0.35000000       0.25000000       0.20000000 </v>
   <v>      -0.30000000       0.25000000       0.20000000 </v>
   <v>      -0.25000000       0.25000000       0.20000000 </v>
   <v>      -0.20000000       0.25000000       0.20000000 </v>
   <v>      -0.15000000       0.25000000       0.20000000 </v>
   <v>      -0.10000000       0.25000000       0.20000000 </v>
   <v>      -0.05000000       0.25000000       0.20000000 </v>
   <v>       0.00000000       0.30000000       0.20000000 </v>
   <v>       0.05000000       0.30000000       0.20000000 </v>
   <v>       0.10000000       0.30000000       0.20000000 </v>
   <v>       0.15000000       0.30000000       0.20000000 </v>
   <v>       0.20000000       0.30000000       0.20000000 </v>
   <v>       0.25000000       0.30000000       0.20000000 </v>
   <v>       0.30000000       0.30000000       0.20000000 </v>
   <v>       0.35000000       0.30000000       0.20000000 </v>
   <v>       0.40000000       0.30000000       0.20000000 </v>
   <v>       0.45000000       0.30000000       0.20000000 </v>
   <v>       0.50000000       0.30000000       0.20000000 </v>
   <v>      -0.45000000       0.30000000       0.20000000 </v>
   <v>      -0.40000000       0.30000000       0.20000000 </v>
   <v>      -0.35000000       0.30000000       0.20000000 </v>
   <v>      -0.30000000       0.30000000       0.20000000 </v>
   <v>      -0.25000000       0.30000000       0.20000000 </v>
   <v>      -0.20000000       0.30000000       0.20000000 </v>
   <v>      -0.15000000       0.30000000       0.20000000 </v>
   <v>      -0.10000000       0.30000000       0.20000000 </v>
   <v>      -0.05000000       0.30000000       0.20000000 </v>
   <v>       0.00000000       0.35000000       0.20000000 </v>
   <v>       0.05000000       0.35000000       0.20000000 </v>
   <v>       0.10000000       0.35000000       0.20000000 </v>
   <v>       0.15000000       0.35000000       0.20000000 </v>
   <v>       0.20000000       0.35000000       0.20000000 </v>
   <v>       0.25000000       0.35000000       0.20000000 </v>
   <v>       0.30000000       0.35000000       0.20000000 </v>
   <v>       0.35000000       0.35000000       0.20000000 </v>
   <v>       0.40000000       0.35000000       0.20000000 </v>
   <v>       0.45000000       0.35000000       0.20000000 </v>
   <v>       0.50000000       0.35000000       0.20000000 </v>
   <v>      -0.45000000       0.35000000       0.20000000 </v>
   <v>      -0.40000000       0.35000000       0.20000000 </v>
   <v>      -0.35000000       0.35000000       0.20000000 </v>
   <v>      -0.30000000       0.35000000       0.20000000 </v>
   <v>      -0.25000000       0.35000000       0.20000000 </v>
   <v>      -0.20000000       0.35000000       0.20000000 </v>
   <v>      -0.15000000       0.35000000       0.20000000 </v>
   <v>      -0.10000000       0.35000000       0.20000000 </v>
   <v>      -0.05000000       0.35000000       0.20000000 </v>
   <v>       0.00000000       0.40000000       0.20000000 </v>
   <v>       0.05000000       0.40000000       0.20000000 </v>
   <v>       0.10000000       0.40000000       0.20000000 </v>
   <v>       0.15000000       0.40000000       0.20000000 </v>
   <v>       0.20000000       0.40000000       0.20000000 </v>
   <v>       0.25000000       0.40000000       0.20000000 </v>
   <v>       0.30000000       0.40000000       0.20000000 </v>
   <v>       0.35000000       0.40000000       0.20000000 </v>
   <v>       0.40000000       0.40000000       0.20000000 </v>
   <v>       0.45000000       0.40000000       0.20000000 </v>
   <v>       0.50000000       0.40000000       0.20000000 </v>
   <v>      -0.45000000       0.40000000       0.20000000 </v>
   <v>      -0.40000000       0.40000000       0.20000000 </v>
   <v>      -0.35000000       0.40000000       0.20000000 </v>
   <v>      -0.30000000       0.40000000       0.20000000 </v>
   <v>      -0.25000000       0.40000000       0.20000000 </v>
   <v>      -0.20000000       0.40000000       0.20000000 </v>
   <v>      -0.15000000       0.40000000       0.20000000 </v>
   <v>      -0.10000000       0.40000000       0.20000000 </v>
   <v>      -0.05000000       0.40000000       0.20000000 </v>
   <v>       0.00000000       0.45000000       0.20000000 </v>
   <v>       0.05000000       0.45000000       0.20000000 </v>
   <v>       0.10000000       0.45000000       0.20000000 </v>
   <v>       0.15000000       0.45000000       0.20000000 </v>
   <v>       0.20000000       0.45000000       0.20000000 </v>
   <v>       0.25000000       0.45000000       0.20000000 </v>
   <v>       0.30000000       0.45000000       0.20000000 </v>
   <v>       0.35000000       0.45000000       0.20000000 </v>
   <v>       0.40000000       0.45000000       0.20000000 </v>
   <v>       0.45000000       0.45000000       0.20000000 </v>
   <v>       0.50000000       0.45000000       0.20000000 </v>
   <v>      -0.45000000       0.45000000       0.20000000 </v>
   <v>      -0.40000000       0.45000000       0.20000000 </v>
   <v>      -0.35000000       0.45000000       0.20000000 </v>
   <v>      -0.30000000       0.45000000       0.20000000 </v>
   <v>      -0.25000000       0.45000000       0.20000000 </v>
   <v>      -0.20000000       0.45000000       0.20000000 </v>
   <v>      -0.15000000       0.45000000       0.20000000 </v>
   <v>      -0.10000000       0.45000000       0.20000000 </v>
   <v>      -0.05000000       0.45000000       0.20000000 </v>
   <v>       0.00000000       0.50000000       0.20000000 </v>
   <v>       0.05000000       0.50000000       0.20000000 </v>
   <v>       0.10000000       0.50000000       0.20000000 </v>
   <v>       0.15000000       0.50000000       0.20000000 </v>
   <v>       0.20000000       0.50000000       0.20000000 </v>
   <v>       0.25000000       0.50000000       0.20000000 </v>
   <v>       0.30000000       0.50000000       0.20000000 </v>
   <v>       0.35000000       0.50000000       0.20000000 </v>
   <v>       0.40000000       0.50000000       0.20000000 </v>
   <v>       0.45000000       0.50000000       0.20000000 </v>
   <v>       0.50000000       0.50000000       0.20000000 </v>
   <v>      -0.45000000       0.50000000       0.20000000 </v>
   <v>      -0.40000000       0.50000000       0.20000000 </v>
   <v>      -0.35000000       0.50000000       0.20000000 </v>
   <v>      -0.30000000       0.50000000       0.20000000 </v>
   <v>      -0.25000000       0.50000000       0.20000000 </v>
   <v>      -0.20000000       0.50000000       0.20000000 </v>
   <v>      -0.15000000       0.50000000       0.20000000 </v>
   <v>      -0.10000000       0.50000000       0.20000000 </v>
   <v>      -0.05000000       0.50000000       0.20000000 </v>
   <v>       0.00000000       0.00000000       0.25000000 </v>
   <v>       0.05000000       0.00000000       0.25000000 </v>
   <v>       0.10000000       0.00000000       0.25000000 </v>
   <v>       0.15000000       0.00000000       0.25000000 </v>
   <v>       0.20000000       0.00000000       0.25000000 </v>
   <v>       0.25000000       0.00000000       0.25000000 </v>
   <v>       0.30000000       0.00000000       0.25000000 </v>
   <v>       0.35000000       0.00000000       0.25000000 </v>
   <v>       0.40000000       0.00000000       0.25000000 </v>
   <v>       0.45000000       0.00000000       0.25000000 </v>
   <v>       0.50000000       0.00000000       0.25000000 </v>
   <v>      -0.45000000       0.00000000       0.25000000 </v>
   <v>      -0.40000000       0.00000000       0.25000000 </v>
   <v>      -0.35000000       0.00000000       0.25000000 </v>
   <v>      -0.30000000       0.00000000       0.25000000 </v>
   <v>      -0.25000000       0.00000000       0.25000000 </v>
   <v>      -0.20000000       0.00000000       0.25000000 </v>
   <v>      -0.15000000       0.00000000       0.25000000 </v>
   <v>      -0.10000000       0.00000000       0.25000000 </v>
   <v>      -0.05000000       0.00000000       0.25000000 </v>
   <v>       0.00000000       0.05000000       0.25000000 </v>
   <v>       0.05000000       0.05000000       0.25000000 </v>
   <v>       0.10000000       0.05000000       0.25000000 </v>
   <v>       0.15000000       0.05000000       0.25000000 </v>
   <v>       0.20000000       0.05000000       0.25000000 </v>
   <v>       0.25000000       0.05000000       0.25000000 </v>
   <v>       0.30000000       0.05000000       0.25000000 </v>
   <v>       0.35000000       0.05000000       0.25000000 </v>
   <v>       0.40000000       0.05000000       0.25000000 </v>
   <v>       0.45000000       0.05000000       0.25000000 </v>
   <v>       0.50000000       0.05000000       0.25000000 </v>
   <v>      -0.45000000       0.05000000       0.25000000 </v>
   <v>      -0.40000000       0.05000000       0.25000000 </v>
   <v>      -0.35000000       0.05000000       0.25000000 </v>
   <v>      -0.30000000       0.05000000       0.25000000 </v>
   <v>      -0.25000000       0.05000000       0.25000000 </v>
   <v>      -0.20000000       0.05000000       0.25000000 </v>
   <v>      -0.15000000       0.05000000       0.25000000 </v>
   <v>      -0.10000000       0.05000000       0.25000000 </v>
   <v>      -0.05000000       0.05000000       0.25000000 </v>
   <v>       0.00000000       0.10000000       0.25000000 </v>
   <v>       0.05000000       0.10000000       0.25000000 </v>
   <v>       0.10000000       0.10000000       0.25000000 </v>
   <v>       0.15000000       0.10000000       0.25000000 </v>
   <v>       0.20000000       0.10000000       0.25000000 </v>
   <v>       0.25000000       0.10000000       0.25000000 </v>
   <v>       0.30000000       0.10000000       0.25000000 </v>
   <v>       0.35000000       0.10000000       0.25000000 </v>
   <v>       0.40000000       0.10000000       0.25000000 </v>
   <v>       0.45000000       0.10000000       0.25000000 </v>
   <v>       0.50000000       0.10000000       0.25000000 </v>
   <v>      -0.45000000       0.10000000       0.25000000 </v>
   <v>      -0.40000000       0.10000000       0.25000000 </v>
   <v>      -0.35000000       0.10000000       0.25000000 </v>
   <v>      -0.30000000       0.10000000       0.25000000 </v>
   <v>      -0.25000000       0.10000000       0.25000000 </v>
   <v>      -0.20000000       0.10000000       0.25000000 </v>
   <v>      -0.15000000       0.10000000       0.25000000 </v>
   <v>      -0.10000000       0.10000000       0.25000000 </v>
   <v>      -0.05000000       0.10000000       0.25000000 </v>
   <v>       0.00000000       0.15000000       0.25000000 </v>
   <v>       0.05000000       0.15000000       0.25000000 </v>
   <v>       0.10000000       0.15000000       0.25000000 </v>
   <v>       0.15000000       0.15000000       0.25000000 </v>
   <v>       0.20000000       0.15000000       0.25000000 </v>
   <v>       0.25000000       0.15000000       0.25000000 </v>
   <v>       0.30000000       0.15000000       0.25000000 </v>
   <v>       0.35000000       0.15000000       0.25000000 </v>
   <v>       0.40000000       0.15000000       0.25000000 </v>
   <v>       0.45000000       0.15000000       0.25000000 </v>
   <v>       0.50000000       0.15000000       0.25000000 </v>
   <v>      -0.45000000       0.15000000       0.25000000 </v>
   <v>      -0.40000000       0.15000000       0.25000000 </v>
   <v>      -0.35000000       0.15000000       0.25000000 </v>
   <v>      -0.30000000       0.15000000       0.25000000 </v>
   <v>      -0.25000000       0.15000000       0.25000000 </v>
   <v>      -0.20000000       0.15000000       0.25000000 </v>
   <v>      -0.15000000       0.15000000       0.25000000 </v>
   <v>      -0.10000000       0.15000000       0.25000000 </v>
   <v>      -0.05000000       0.15000000       0.25000000 </v>
   <v>       0.00000000       0.20000000       0.25000000 </v>
   <v>       0.05000000       0.20000000       0.25000000 </v>
   <v>       0.10000000       0.20000000       0.25000000 </v>
   <v>       0.15000000       0.20000000       0.25000000 </v>
   <v>       0.20000000       0.20000000       0.25000000 </v>
   <v>       0.25000000       0.20000000       0.25000000 </v>
   <v>       0.30000000       0.20000000       0.25000000 </v>
   <v>       0.35000000       0.20000000       0.25000000 </v>
   <v>       0.40000000       0.20000000       0.25000000 </v>
   <v>       0.45000000       0.20000000       0.25000000 </v>
   <v>       0.50000000       0.20000000       0.25000000 </v>
   <v>      -0.45000000       0.20000000       0.25000000 </v>
   <v>      -0.40000000       0.20000000       0.25000000 </v>
   <v>      -0.35000000       0.20000000       0.25000000 </v>
   <v>      -0.30000000       0.20000000       0.25000000 </v>
   <v>      -0.25000000       0.20000000       0.25000000 </v>
   <v>      -0.20000000       0.20000000       0.25000000 </v>
   <v>      -0.15000000       0.20000000       0.25000000 </v>
   <v>      -0.10000000       0.20000000       0.25000000 </v>
   <v>      -0.05000000       0.20000000       0.25000000 </v>
   <v>       0.00000000       0.25000000       0.25000000 </v>
   <v>       0.05000000       0.25000000       0.25000000 </v>
   <v>       0.10000000       0.25000000       0.25000000 </v>
   <v>       0.15000000       0.25000000       0.25000000 </v>
   <v>       0.20000000       0.25000000       0.25000000 </v>
   <v>       0.25000000       0.25000000       0.25000000 </v>
   <v>       0.30000000       0.25000000       0.25000000 </v>
   <v>       0.35000000       0.25000000       0.25000000 </v>
   <v>       0.40000000       0.25000000       0.25000000 </v>
   <v>       0.45000000       0.25000000       0.25000000 </v>
   <v>       0.50000000       0.25000000       0.25000000 </v>
   <v>      -0.45000000       0.25000000       0.25000000 </v>
   <v>      -0.40000000       0.25000000       0.25000000 </v>
   <v>      -0.35000000       0.25000000       0.25000000 </v>
   <v>      -0.30000000       0.25000000       0.25000000 </v>
   <v>      -0.25000000       0.25000000       0.25000000 </v>
   <v>      -0.20000000       0.25000000       0.25000000 </v>
   <v>      -0.15000000       0.25000000       0.25000000 </v>
   <v>      -0.10000000       0.25000000       0.25000000 </v>
   <v>      -0.05000000       0.25000000       0.25000000 </v>
   <v>       0.00000000       0.30000000       0.25000000 </v>
   <v>       0.05000000       0.30000000       0.25000000 </v>
   <v>       0.10000000       0.30000000       0.25000000 </v>
   <v>       0.15000000       0.30000000       0.25000000 </v>
   <v>       0.20000000       0.30000000       0.25000000 </v>
   <v>       0.25000000       0.30000000       0.25000000 </v>
   <v>       0.30000000       0.30000000       0.25000000 </v>
   <v>       0.35000000       0.30000000       0.25000000 </v>
   <v>       0.40000000       0.30000000       0.25000000 </v>
   <v>       0.45000000       0.30000000       0.25000000 </v>
   <v>       0.50000000       0.30000000       0.25000000 </v>
   <v>      -0.45000000       0.30000000       0.25000000 </v>
   <v>      -0.40000000       0.30000000       0.25000000 </v>
   <v>      -0.35000000       0.30000000       0.25000000 </v>
   <v>      -0.30000000       0.30000000       0.25000000 </v>
   <v>      -0.25000000       0.30000000       0.25000000 </v>
   <v>      -0.20000000       0.30000000       0.25000000 </v>
   <v>      -0.15000000       0.30000000       0.25000000 </v>
   <v>      -0.10000000       0.30000000       0.25000000 </v>
   <v>      -0.05000000       0.30000000       0.25000000 </v>
   <v>       0.00000000       0.35000000       0.25000000 </v>
   <v>       0.05000000       0.35000000       0.25000000 </v>
   <v>       0.10000000       0.35000000       0.25000000 </v>
   <v>       0.15000000       0.35000000       0.25000000 </v>
   <v>       0.20000000       0.35000000       0.25000000 </v>
   <v>       0.25000000       0.35000000       0.25000000 </v>
   <v>       0.30000000       0.35000000       0.25000000 </v>
   <v>       0.35000000       0.35000000       0.25000000 </v>
   <v>       0.40000000       0.35000000       0.25000000 </v>
   <v>       0.45000000       0.35000000       0.25000000 </v>
   <v>       0.50000000       0.35000000       0.25000000 </v>
   <v>      -0.45000000       0.35000000       0.25000000 </v>
   <v>      -0.40000000       0.35000000       0.25000000 </v>
   <v>      -0.35000000       0.35000000       0.25000000 </v>
   <v>      -0.30000000       0.35000000       0.25000000 </v>
   <v>      -0.25000000       0.35000000       0.25000000 </v>
   <v>      -0.20000000       0.35000000       0.25000000 </v>
   <v>      -0.15000000       0.35000000       0.25000000 </v>
   <v>      -0.10000000       0.35000000       0.25000000 </v>
   <v>      -0.05000000       0.35000000       0.25000000 </v>
   <v>       0.00000000       0.40000000       0.25000000 </v>
   <v>       0.05000000       0.40000000       0.25000000 </v>
   <v>       0.10000000       0.40000000       0.25000000 </v>
   <v>       0.15000000       0.40000000       0.25000000 </v>
   <v>       0.20000000       0.40000000       0.25000000 </v>
   <v>       0.25000000       0.40000000       0.25000000 </v>
   <v>       0.30000000       0.40000000       0.25000000 </v>
   <v>       0.35000000       0.40000000       0.25000000 </v>
   <v>       0.40000000       0.40000000       0.25000000 </v>
   <v>       0.45000000       0.40000000       0.25000000 </v>
   <v>       0.50000000       0.40000000       0.25000000 </v>
   <v>      -0.45000000       0.40000000       0.25000000 </v>
   <v>      -0.40000000       0.40000000       0.25000000 </v>
   <v>      -0.35000000       0.40000000       0.25000000 </v>
   <v>      -0.30000000       0.40000000       0.25000000 </v>
   <v>      -0.25000000       0.40000000       0.25000000 </v>
   <v>      -0.20000000       0.40000000       0.25000000 </v>
   <v>      -0.15000000       0.40000000       0.25000000 </v>
   <v>      -0.10000000       0.40000000       0.25000000 </v>
   <v>      -0.05000000       0.40000000       0.25000000 </v>
   <v>       0.00000000       0.45000000       0.25000000 </v>
   <v>       0.05000000       0.45000000       0.25000000 </v>
   <v>       0.10000000       0.45000000       0.25000000 </v>
   <v>       0.15000000       0.45000000       0.25000000 </v>
   <v>       0.20000000       0.45000000       0.25000000 </v>
   <v>       0.25000000       0.45000000       0.25000000 </v>
   <v>       0.30000000       0.45000000       0.25000000 </v>
   <v>       0.35000000       0.45000000       0.25000000 </v>
   <v>       0.40000000       0.45000000       0.25000000 </v>
   <v>       0.45000000       0.45000000       0.25000000 </v>
   <v>       0.50000000       0.45000000       0.25000000 </v>
   <v>      -0.45000000       0.45000000       0.25000000 </v>
   <v>      -0.40000000       0.45000000       0.25000000 </v>
   <v>      -0.35000000       0.45000000       0.25000000 </v>
   <v>      -0.30000000       0.45000000       0.25000000 </v>
   <v>      -0.25000000       0.45000000       0.25000000 </v>
   <v>      -0.20000000       0.45000000       0.25000000 </v>
   <v>      -0.15000000       0.45000000       0.25000000 </v>
   <v>      -0.10000000       0.45000000       0.25000000 </v>
   <v>      -0.05000000       0.45000000       0.25000000 </v>
   <v>       0.00000000       0.50000000       0.25000000 </v>
   <v>       0.05000000       0.50000000       0.25000000 </v>
   <v>       0.10000000       0.50000000       0.25000000 </v>
   <v>       0.15000000       0.50000000       0.25000000 </v>
   <v>       0.20000000       0.50000000       0.25000000 </v>
   <v>       0.25000000       0.50000000       0.25000000 </v>
   <v>       0.30000000       0.50000000       0.25000000 </v>
   <v>       0.35000000       0.50000000       0.25000000 </v>
   <v>       0.40000000       0.50000000       0.25000000 </v>
   <v>       0.45000000       0.50000000       0.25000000 </v>
   <v>       0.50000000       0.50000000       0.25000000 </v>
   <v>      -0.45000000       0.50000000       0.25000000 </v>
   <v>      -0.40000000       0.50000000       0.25000000 </v>
   <v>      -0.35000000       0.50000000       0.25000000 </v>
   <v>      -0.30000000       0.50000000       0.25000000 </v>
   <v>      -0.25000000       0.50000000       0.25000000 </v>
   <v>      -0.20000000       0.50000000       0.25000000 </v>
   <v>      -0.15000000       0.50000000       0.25000000 </v>
   <v>      -0.10000000       0.50000000       0.25000000 </v>
   <v>      -0.05000000       0.50000000       0.25000000 </v>
   <v>       0.00000000       0.00000000       0.30000000 </v>
   <v>       0.05000000       0.00000000       0.30000000 </v>
   <v>       0.10000000       0.00000000       0.30000000 </v>
   <v>       0.15000000       0.00000000       0.30000000 </v>
   <v>       0.20000000       0.00000000       0.30000000 </v>
   <v>       0.25000000       0.00000000       0.30000000 </v>
   <v>       0.30000000       0.00000000       0.30000000 </v>
   <v>       0.35000000       0.00000000       0.30000000 </v>
   <v>       0.40000000       0.00000000       0.30000000 </v>
   <v>       0.45000000       0.00000000       0.30000000 </v>
   <v>       0.50000000       0.00000000       0.30000000 </v>
   <v>      -0.45000000       0.00000000       0.30000000 </v>
   <v>      -0.40000000       0.00000000       0.30000000 </v>
   <v>      -0.35000000       0.00000000       0.30000000 </v>
   <v>      -0.30000000       0.00000000       0.30000000 </v>
   <v>      -0.25000000       0.00000000       0.30000000 </v>
   <v>      -0.20000000       0.00000000       0.30000000 </v>
   <v>      -0.15000000       0.00000000       0.30000000 </v>
[...]
      </set>
      <set comment="kpoint 2214">
       <r>    1.4056    1.0000 </r>
       <r>    1.4056    1.0000 </r>
       <r>    1.4317    1.0000 </r>
       <r>    1.4317    1.0000 </r>
       <r>    8.1215   -0.0510 </r>
       <r>    8.1215   -0.0510 </r>
       <r>    8.3331    0.0002 </r>
       <r>    8.3331    0.0002 </r>
       <r>   11.7975    0.0000 </r>
       <r>   11.7975    0.0000 </r>
       <r>   12.0564    0.0000 </r>
       <r>   12.0564    0.0000 </r>
       <r>   17.5588    0.0000 </r>
       <r>   17.5588    0.0000 </r>
       <r>   17.5810    0.0000 </r>
       <r>   17.5810    0.0000 </r>
      </set>
      <set comment="kpoint 2215">
       <r>    1.5088    1.0000 </r>
       <r>    1.5088    1.0000 </r>
       <r>    1.5479    1.0000 </r>
       <r>    1.5479    1.0000 </r>
       <r>    7.4260    1.0000 </r>
       <r>    7.4260    1.0000 </r>
       <r>    7.6376    1.0000 </r>
       <r>    7.6376    1.0000 </r>
       <r>   12.6667    0.0000 </r>
       <r>   12.6667    0.0000 </r>
       <r>   12.9490    0.0000 </r>
       <r>   12.9490    0.0000 </r>
       <r>   17.6504    0.0000 </r>
       <r>   17.6504    0.0000 </r>
       <r>   17.6837    0.0000 </r>
       <r>   17.6837    0.0000 </r>
      </set>
      <set comment="kpoint 2216">
       <r>    1.6559    1.0000 </r>
       <r>    1.6559    1.0000 </r>
       <r>    1.7079    1.0000 </r>
       <r>    1.7079    1.0000 </r>
       <r>    6.7495    1.0000 </r>
       <r>    6.7495    1.0000 </r>
       <r>    6.9537    1.0000 </r>
       <r>    6.9537    1.0000 </r>
       <r>   13.5960    0.0000 </r>
       <r>   13.5960    0.0000 </r>
       <r>   13.8941    0.0000 </r>
       <r>   13.8941    0.0000 </r>
       <r>   17.7809    0.0000 </r>
       <r>   17.7809    0.0000 </r>
       <r>   17.8254    0.0000 </r>
       <r>   17.8254    0.0000 </r>
      </set>
      <set comment="kpoint 2217">
       <r>    1.8467    1.0000 </r>
       <r>    1.8467    1.0000 </r>
       <r>    1.9113    1.0000 </r>
       <r>    1.9113    1.0000 </r>
       <r>    6.1042    1.0000 </r>
       <r>    6.1042    1.0000 </r>
       <r>    6.2986    1.0000 </r>
       <r>    6.2986    1.0000 </r>
       <r>   14.5645    0.0000 </r>
       <r>   14.5645    0.0000 </r>
       <r>   14.8757    0.0000 </r>
       <r>   14.8757    0.0000 </r>
       <r>   17.9504    0.0000 </r>
       <r>   17.9504    0.0000 </r>
       <r>   18.0061    0.0000 </r>
       <r>   18.0061    0.0000 </r>
      </set>
      <set comment="kpoint 2218">
       <r>    2.0809    1.0000 </r>
       <r>    2.0809    1.0000 </r>
       <r>    2.1580    1.0000 </r>
       <r>    2.1580    1.0000 </r>
       <r>    5.4950    1.0000 </r>
       <r>    5.4950    1.0000 </r>
       <r>    5.6789    1.0000 </r>
       <r>    5.6789    1.0000 </r>
       <r>   15.5598    0.0000 </r>
       <r>   15.5598    0.0000 </r>
       <r>   15.8821    0.0000 </r>
       <r>   15.8821    0.0000 </r>
       <r>   18.1586    0.0000 </r>
       <r>   18.1586    0.0000 </r>
       <r>   18.2257    0.0000 </r>
       <r>   18.2257    0.0000 </r>
      </set>
      <set comment="kpoint 2219">
       <r>    2.3582    1.0000 </r>
       <r>    2.3582    1.0000 </r>
       <r>    2.4473    1.0000 </r>
       <r>    2.4473    1.0000 </r>
       <r>    4.9247    1.0000 </r>
       <r>    4.9247    1.0000 </r>
       <r>    5.0977    1.0000 </r>
       <r>    5.0977    1.0000 </r>
       <r>   16.5673    0.0000 </r>
       <r>   16.5673    0.0000 </r>
       <r>   16.8984    0.0000 </r>
       <r>   16.8984    0.0000 </r>
       <r>   18.4057    0.0000 </r>
       <r>   18.4057    0.0000 </r>
       <r>   18.4844    0.0000 </r>
       <r>   18.4844    0.0000 </r>
      </set>
      <set comment="kpoint 2220">
       <r>    2.6780    1.0000 </r>
       <r>    2.6780    1.0000 </r>
       <r>    2.7780    1.0000 </r>
       <r>    2.7780    1.0000 </r>
       <r>    4.3949    1.0000 </r>
       <r>    4.3949    1.0000 </r>
       <r>    4.5579    1.0000 </r>
       <r>    4.5579    1.0000 </r>
       <r>   17.5630    0.0000 </r>
       <r>   17.5630    0.0000 </r>
       <r>   17.8981    0.0000 </r>
       <r>   17.8981    0.0000 </r>
       <r>   18.6910    0.0000 </r>
       <r>   18.6910    0.0000 </r>
       <r>   18.7820    0.0000 </r>
       <r>   18.7820    0.0000 </r>
      </set>
      <set comment="kpoint 2221">
       <r>    3.0382    1.0000 </r>
       <r>    3.0382    1.0000 </r>
       <r>    3.1450    1.0000 </r>
       <r>    3.1450    1.0000 </r>
       <r>    3.9085    1.0000 </r>
       <r>    3.9085    1.0000 </r>
       <r>    4.0650    1.0000 </r>
       <r>    4.0650    1.0000 </r>
       <r>   18.4986    0.0000 </r>
       <r>   18.4986    0.0000 </r>
       <r>   18.8250    0.0000 </r>
       <r>   18.8250    0.0000 </r>
       <r>   19.0117    0.0000 </r>
       <r>   19.0117    0.0000 </r>
       <r>   19.1185    0.0000 </r>
       <r>   19.1185    0.0000 </r>
      </set>
      <set comment="kpoint 2222">
       <r>    3.3715    1.0000 </r>
       <r>    3.3715    1.0000 </r>
       <r>    3.4505    1.0000 </r>
       <r>    3.4505    1.0000 </r>
       <r>    3.5331    1.0000 </r>
       <r>    3.5331    1.0000 </r>
       <r>    3.7176    1.0000 </r>
       <r>    3.7176    1.0000 </r>
       <r>   19.2388    0.0000 </r>
       <r>   19.2388    0.0000 </r>
       <r>   19.2603    0.0000 </r>
       <r>   19.2603    0.0000 </r>
       <r>   19.3556    0.0000 </r>
       <r>   19.3559    0.0000 </r>
       <r>   19.4237    0.0000 </r>
       <r>   19.4284    0.0000 </r>
      </set>
     </set>
    </set>
   </array>
  </eigenvalues>
  <separator name="orbital magnetization" >
   <v name="MAGDIPOLOUT">      0.00000000      0.00000000      0.00000000</v>
  </separator>
  <dos>
   <i name="efermi">      8.02123854 </i>
   <total>
    <array>
     <dimension dim="1">gridpoints</dimension>
     <dimension dim="2">spin</dimension>
     <field>energy</field>
     <field>total</field>
     <field>integrated</field>
     <set>
      <set comment="spin 1">
       <r>  -4.2711   0.0000   0.0000 </r>
       <r>  -4.1876   0.0000   0.0000 </r>
       <r>  -4.1041   0.0000   0.0000 </r>
       <r>  -4.0206   0.0000   0.0000 </r>
       <r>  -3.9372   0.0000   0.0000 </r>
       <r>  -3.8537   0.0000   0.0000 </r>
       <r>  -3.7702   0.0000   0.0000 </r>
       <r>  -3.6867   0.0000   0.0000 </r>
       <r>  -3.6033   0.0000   0.0000 </r>
       <r>  -3.5198   0.0000   0.0000 </r>
       <r>  -3.4363   0.0000   0.0000 </r>
       <r>  -3.3528   0.0001   0.0000 </r>
       <r>  -3.2694   0.0002   0.0000 </r>
       <r>  -3.1859  -0.0033  -0.0002 </r>
       <r>  -3.1024   0.0257   0.0019 </r>
       <r>  -3.0189   0.1182   0.0118 </r>
       <r>  -2.9355   0.1794   0.0267 </r>
       <r>  -2.8520   0.2323   0.0461 </r>
       <r>  -2.7685   0.2463   0.0667 </r>
       <r>  -2.6850   0.3211   0.0935 </r>
       <r>  -2.6016   0.2909   0.1178 </r>
       <r>  -2.5181   0.3682   0.1485 </r>
       <r>  -2.4346   0.3882   0.1809 </r>
       <r>  -2.3512   0.3685   0.2117 </r>
       <r>  -2.2677   0.4226   0.2469 </r>
       <r>  -2.1842   0.4759   0.2867 </r>
       <r>  -2.1007   0.4615   0.3252 </r>
       <r>  -2.0173   0.3934   0.3580 </r>
       <r>  -1.9338   0.5953   0.4077 </r>
       <r>  -1.8503   0.5315   0.4521 </r>
       <r>  -1.7668   0.4689   0.4912 </r>
       <r>  -1.6834   0.5330   0.5357 </r>
       <r>  -1.5999   0.6491   0.5899 </r>
       <r>  -1.5164   0.5469   0.6356 </r>
       <r>  -1.4329   0.6367   0.6887 </r>
       <r>  -1.3495   0.5754   0.7367 </r>
       <r>  -1.2660   0.5804   0.7852 </r>
       <r>  -1.1825   0.6865   0.8425 </r>
       <r>  -1.0990   0.7897   0.9084 </r>
       <r>  -1.0156   0.5996   0.9585 </r>
       <r>  -0.9321   0.5323   1.0029 </r>
       <r>  -0.8486   0.8198   1.0713 </r>
       <r>  -0.7651   0.7524   1.1341 </r>
       <r>  -0.6817   0.7571   1.1973 </r>
       <r>  -0.5982   0.6724   1.2535 </r>
       <r>  -0.5147   0.7770   1.3183 </r>
       <r>  -0.4313   0.7336   1.3795 </r>
       <r>  -0.3478   0.7611   1.4431 </r>
       <r>  -0.2643   0.8405   1.5132 </r>
       <r>  -0.1808   0.8457   1.5838 </r>
       <r>  -0.0974   0.8434   1.6542 </r>
       <r>  -0.0139   0.8174   1.7225 </r>
       <r>   0.0696   0.6683   1.7783 </r>
       <r>   0.1531   0.8408   1.8484 </r>
       <r>   0.2365   1.0609   1.9370 </r>
       <r>   0.3200   0.9585   2.0170 </r>
       <r>   0.4035   0.7593   2.0804 </r>
       <r>   0.4870   0.8285   2.1495 </r>
       <r>   0.5704   0.9362   2.2277 </r>
       <r>   0.6539   0.8606   2.2995 </r>
       <r>   0.7374   1.0870   2.3903 </r>
       <r>   0.8209   0.8677   2.4627 </r>
       <r>   0.9043   0.9171   2.5393 </r>
       <r>   0.9878   1.0857   2.6299 </r>
       <r>   1.0713   1.0298   2.7158 </r>
       <r>   1.1547   0.7566   2.7790 </r>
       <r>   1.2382   0.9986   2.8624 </r>
       <r>   1.3217   1.0570   2.9506 </r>
       <r>   1.4052   1.0029   3.0343 </r>
       <r>   1.4886   1.1562   3.1308 </r>
       <r>   1.5721   1.1416   3.2261 </r>
       <r>   1.6556   0.9269   3.3035 </r>
       <r>   1.7391   0.8982   3.3784 </r>
       <r>   1.8225   1.0677   3.4676 </r>
       <r>   1.9060   1.0849   3.5581 </r>
       <r>   1.9895   1.1756   3.6563 </r>
       <r>   2.0730   1.2356   3.7594 </r>
       <r>   2.1564   1.0777   3.8494 </r>
       <r>   2.2399   0.9492   3.9286 </r>
       <r>   2.3234   1.1616   4.0256 </r>
       <r>   2.4069   1.2321   4.1284 </r>
       <r>   2.4903   1.1171   4.2217 </r>
       <r>   2.5738   1.0099   4.3060 </r>
       <r>   2.6573   1.1928   4.4055 </r>
       <r>   2.7408   1.2265   4.5079 </r>
       <r>   2.8242   1.2857   4.6152 </r>
       <r>   2.9077   1.2651   4.7208 </r>
       <r>   2.9912   1.1832   4.8196 </r>
       <r>   3.0746   1.1526   4.9158 </r>
       <r>   3.1581   1.1211   5.0094 </r>
       <r>   3.2416   1.0799   5.0995 </r>
       <r>   3.3251   1.3531   5.2125 </r>
       <r>   3.4085   1.4593   5.3343 </r>
       <r>   3.4920   1.3762   5.4492 </r>
       <r>   3.5755   1.1729   5.5471 </r>
       <r>   3.6590   1.2770   5.6537 </r>
       <r>   3.7424   1.2270   5.7561 </r>
       <r>   3.8259   1.2060   5.8568 </r>
       <r>   3.9094   1.2354   5.9599 </r>
       <r>   3.9929   1.3129   6.0695 </r>
       <r>   4.0763   1.5021   6.1949 </r>
       <r>   4.1598   1.4213   6.3135 </r>
       <r>   4.2433   1.1649   6.4108 </r>
       <r>   4.3268   1.3505   6.5235 </r>
       <r>   4.4102   1.4730   6.6464 </r>
       <r>   4.4937   1.3405   6.7583 </r>
       <r>   4.5772   1.4200   6.8769 </r>
       <r>   4.6607   1.3352   6.9883 </r>
       <r>   4.7441   1.3989   7.1051 </r>
       <r>   4.8276   1.4017   7.2221 </r>
       <r>   4.9111   1.3884   7.3380 </r>
       <r>   4.9945   1.6253   7.4737 </r>
       <r>   5.0780   1.6920   7.6149 </r>
       <r>   5.1615   1.5041   7.7405 </r>
       <r>   5.2450   1.4104   7.8582 </r>
       <r>   5.3284   1.3703   7.9726 </r>
       <r>   5.4119   1.5862   8.1050 </r>
       <r>   5.4954   1.7261   8.2491 </r>
       <r>   5.5789   1.4368   8.3690 </r>
       <r>   5.6623   1.3436   8.4812 </r>
       <r>   5.7458   1.4662   8.6035 </r>
       <r>   5.8293   1.6288   8.7395 </r>
       <r>   5.9128   1.3858   8.8552 </r>
       <r>   5.9962   1.2892   8.9628 </r>
       <r>   6.0797   1.3567   9.0760 </r>
       <r>   6.1632   1.6096   9.2104 </r>
       <r>   6.2467   1.2914   9.3182 </r>
       <r>   6.3301   1.2675   9.4240 </r>
       <r>   6.4136   1.5460   9.5530 </r>
       <r>   6.4971   1.5072   9.6789 </r>
       <r>   6.5806   1.3677   9.7930 </r>
       <r>   6.6640   1.3426   9.9051 </r>
       <r>   6.7475   1.3444  10.0173 </r>
       <r>   6.8310   1.6896  10.1584 </r>
       <r>   6.9144   1.5144  10.2848 </r>
       <r>   6.9979   1.6365  10.4214 </r>
       <r>   7.0814   1.6118  10.5559 </r>
       <r>   7.1649   1.5778  10.6876 </r>
       <r>   7.2483   1.6687  10.8269 </r>
       <r>   7.3318   1.4400  10.9471 </r>
       <r>   7.4153   1.4968  11.0721 </r>
       <r>   7.4988   1.5911  11.2049 </r>
       <r>   7.5822   1.3751  11.3197 </r>
       <r>   7.6657   1.5446  11.4486 </r>
       <r>   7.7492   1.5714  11.5798 </r>
       <r>   7.8327   1.4929  11.7044 </r>
       <r>   7.9161   1.5772  11.8360 </r>
       <r>   7.9996   1.5498  11.9654 </r>
       <r>   8.0831   1.6623  12.1042 </r>
       <r>   8.1666   1.9244  12.2648 </r>
       <r>   8.2500   1.8344  12.4179 </r>
       <r>   8.3335   1.5288  12.5455 </r>
       <r>   8.4170   1.6372  12.6822 </r>
       <r>   8.5004   1.3104  12.7916 </r>
       <r>   8.5839   1.4353  12.9114 </r>
       <r>   8.6674   1.8073  13.0623 </r>
       <r>   8.7509   1.7592  13.2091 </r>
       <r>   8.8343   1.9859  13.3749 </r>
       <r>   8.9178   1.9507  13.5377 </r>
       <r>   9.0013   1.8603  13.6930 </r>
       <r>   9.0848   1.4985  13.8181 </r>
       <r>   9.1682   1.3817  13.9334 </r>
       <r>   9.2517   1.5301  14.0611 </r>
       <r>   9.3352   1.6021  14.1949 </r>
       <r>   9.4187   1.7554  14.3414 </r>
       <r>   9.5021   1.7763  14.4897 </r>
       <r>   9.5856   1.6574  14.6280 </r>
       <r>   9.6691   2.0778  14.8015 </r>
       <r>   9.7526   1.9638  14.9654 </r>
       <r>   9.8360   1.7273  15.1096 </r>
       <r>   9.9195   1.6823  15.2500 </r>
       <r>  10.0030   1.4833  15.3738 </r>
       <r>  10.0865   1.7465  15.5196 </r>
       <r>  10.1699   1.9421  15.6817 </r>
       <r>  10.2534   1.9574  15.8451 </r>
       <r>  10.3369   1.7405  15.9904 </r>
       <r>  10.4203   1.6958  16.1319 </r>
       <r>  10.5038   1.8538  16.2867 </r>
       <r>  10.5873   1.7757  16.4349 </r>
       <r>  10.6708   1.7702  16.5827 </r>
       <r>  10.7542   1.8842  16.7400 </r>
       <r>  10.8377   2.0034  16.9072 </r>
       <r>  10.9212   1.8861  17.0646 </r>
       <r>  11.0047   1.8384  17.2181 </r>
       <r>  11.0881   1.7747  17.3662 </r>
       <r>  11.1716   2.1112  17.5425 </r>
       <r>  11.2551   1.8926  17.7004 </r>
       <r>  11.3386   1.8791  17.8573 </r>
       <r>  11.4220   1.9163  18.0173 </r>
       <r>  11.5055   1.7330  18.1619 </r>
       <r>  11.5890   1.6552  18.3001 </r>
       <r>  11.6725   1.8675  18.4560 </r>
       <r>  11.7559   2.1076  18.6319 </r>
       <r>  11.8394   2.0783  18.8054 </r>
       <r>  11.9229   2.2399  18.9924 </r>
       <r>  12.0064   2.0302  19.1618 </r>
       <r>  12.0898   1.9167  19.3218 </r>
       <r>  12.1733   1.7751  19.4700 </r>
       <r>  12.2568   2.1716  19.6513 </r>
       <r>  12.3402   1.9564  19.8146 </r>
       <r>  12.4237   1.8268  19.9671 </r>
       <r>  12.5072   2.0145  20.1352 </r>
       <r>  12.5907   1.9711  20.2998 </r>
       <r>  12.6741   2.0123  20.4677 </r>
       <r>  12.7576   2.0876  20.6420 </r>
       <r>  12.8411   2.1611  20.8224 </r>
       <r>  12.9246   2.1669  21.0033 </r>
       <r>  13.0080   2.2088  21.1876 </r>
       <r>  13.0915   2.1364  21.3660 </r>
       <r>  13.1750   2.2049  21.5500 </r>
       <r>  13.2585   2.0945  21.7249 </r>
       <r>  13.3419   1.9603  21.8885 </r>
       <r>  13.4254   2.2327  22.0749 </r>
       <r>  13.5089   2.1248  22.2522 </r>
       <r>  13.5924   2.5776  22.4674 </r>
       <r>  13.6758   2.4623  22.6729 </r>
       <r>  13.7593   2.0697  22.8457 </r>
       <r>  13.8428   2.2573  23.0341 </r>
       <r>  13.9263   2.4532  23.2389 </r>
       <r>  14.0097   2.2921  23.4302 </r>
       <r>  14.0932   2.2289  23.6163 </r>
       <r>  14.1767   2.2944  23.8078 </r>
       <r>  14.2601   2.2056  23.9919 </r>
       <r>  14.3436   2.3354  24.1869 </r>
       <r>  14.4271   2.3023  24.3791 </r>
       <r>  14.5106   2.3078  24.5717 </r>
       <r>  14.5940   2.2333  24.7581 </r>
       <r>  14.6775   2.1432  24.9370 </r>
       <r>  14.7610   1.9859  25.1028 </r>
       <r>  14.8445   2.0383  25.2729 </r>
       <r>  14.9279   2.1706  25.4541 </r>
       <r>  15.0114   2.1454  25.6332 </r>
       <r>  15.0949   1.9656  25.7973 </r>
       <r>  15.1784   2.1086  25.9733 </r>
       <r>  15.2618   2.4887  26.1810 </r>
       <r>  15.3453   2.1193  26.3579 </r>
       <r>  15.4288   2.0648  26.5303 </r>
       <r>  15.5123   2.2734  26.7201 </r>
       <r>  15.5957   2.2435  26.9073 </r>
       <r>  15.6792   1.9166  27.0673 </r>
       <r>  15.7627   2.1397  27.2459 </r>
       <r>  15.8461   2.0826  27.4198 </r>
       <r>  15.9296   2.1199  27.5967 </r>
       <r>  16.0131   2.0511  27.7680 </r>
       <r>  16.0966   1.7912  27.9175 </r>
       <r>  16.1800   2.1648  28.0982 </r>
       <r>  16.2635   2.2602  28.2868 </r>
       <r>  16.3470   2.0927  28.4615 </r>
       <r>  16.4305   2.0523  28.6328 </r>
       <r>  16.5139   1.9634  28.7967 </r>
       <r>  16.5974   1.9780  28.9618 </r>
       <r>  16.6809   1.9522  29.1248 </r>
       <r>  16.7644   1.8928  29.2828 </r>
       <r>  16.8478   2.2031  29.4667 </r>
       <r>  16.9313   2.1320  29.6447 </r>
       <r>  17.0148   1.7055  29.7870 </r>
       <r>  17.0983   1.7803  29.9357 </r>
       <r>  17.1817   1.6964  30.0773 </r>
       <r>  17.2652   1.5569  30.2072 </r>
       <r>  17.3487   1.6078  30.3414 </r>
       <r>  17.4322   1.5469  30.4706 </r>
       <r>  17.5156   1.5477  30.5997 </r>
       <r>  17.5991   1.3830  30.7152 </r>
       <r>  17.6826   1.2337  30.8182 </r>
       <r>  17.7660   1.2646  30.9237 </r>
       <r>  17.8495   1.2714  31.0299 </r>
       <r>  17.9330   1.0950  31.1213 </r>
       <r>  18.0165   1.2037  31.2217 </r>
       <r>  18.0999   1.0284  31.3076 </r>
       <r>  18.1834   0.8765  31.3808 </r>
       <r>  18.2669   0.9399  31.4592 </r>
       <r>  18.3504   1.0133  31.5438 </r>
       <r>  18.4338   0.9776  31.6254 </r>
       <r>  18.5173   0.9085  31.7012 </r>
       <r>  18.6008   0.7637  31.7650 </r>
       <r>  18.6843   0.5858  31.8139 </r>
       <r>  18.7677   0.4392  31.8505 </r>
       <r>  18.8512   0.4734  31.8901 </r>
       <r>  18.9347   0.3231  31.9170 </r>
       <r>  19.0182   0.2479  31.9377 </r>
       <r>  19.1016   0.1716  31.9520 </r>
       <r>  19.1851   0.1869  31.9676 </r>
       <r>  19.2686   0.1513  31.9803 </r>
       <r>  19.3521   0.1130  31.9897 </r>
       <r>  19.4355   0.0701  31.9956 </r>
       <r>  19.5190   0.0236  31.9975 </r>
       <r>  19.6025   0.0191  31.9991 </r>
       <r>  19.6859   0.0103  32.0000 </r>
       <r>  19.7694   0.0003  32.0000 </r>
       <r>  19.8529  -0.0002  32.0000 </r>
       <r>  19.9364   0.0001  32.0000 </r>
       <r>  20.0198   0.0000  32.0000 </r>
       <r>  20.1033   0.0000  32.0000 </r>
       <r>  20.1868   0.0000  32.0000 </r>
       <r>  20.2703   0.0000  32.0000 </r>
       <r>  20.3537   0.0000  32.0000 </r>
       <r>  20.4372   0.0000  32.0000 </r>
       <r>  20.5207   0.0000  32.0000 </r>
       <r>  20.6042   0.0000  32.0000 </r>
       <r>  20.6876   0.0000  32.0000 </r>
       <r>  20.7711   0.0000  32.0000 </r>
      </set>
     </set>
    </array>
   </total>
  </dos>
 </calculation>
 <structure name="finalpos" >
  <crystal>
   <varray name="basis" >
    <v>       4.04053900       0.00000000      -0.06060800 </v>
    <v>       0.00000000       4.04053900       0.00000000 </v>
    <v>       0.00000000       0.00000000       4.04053900 </v>
   </varray>
   <i name="volume">     65.96565955 </i>
   <varray name="rec_basis" >
    <v>       0.24749173       0.00000000       0.00000000 </v>
    <v>       0.00000000       0.24749173       0.00000000 </v>
    <v>       0.00371237       0.00000000       0.24749173 </v>
   </varray>
  </crystal>
  <varray name="positions" >
   <v>       0.00000000       0.00000000       0.00000000 </v>
   <v>       0.50000000       0.50000000       0.00000000 </v>
   <v>       0.50000000       0.00000000       0.50000000 </v>
   <v>       0.00000000       0.50000000       0.50000000 </v>
  </varray>
 </structure>
</modeling>
