
Running Job 1 of 1 mol.qin
qchem mol.qin_1116.0 /tmp/qchem1116/ 0
/global/common/cori_cle7/software/qchem/5.4.1/exe/qcprog.exe_s mol.qin_1116.0 /tmp/qchem1116/
                  Welcome to Q-Chem
     A Quantum Leap Into The Future Of Chemistry


 Q-Chem 5.4, Q-Chem, Inc., Pleasanton, CA (2021)

 License issued to: National Energy Research Scientific Computing Center

 E. Epifanovsky,  A. T. B. Gilbert,  Xintian Feng,  Joonho Lee,  Yuezhi Mao,  
 N. Mardirossian,  P. Pokhilko,  A. White,  M. Wormit,  M. P. Coons,  
 A. L. Dempwolff,  Zhengting Gan,  D. Hait,  P. R. Horn,  L. D. Jacobson,  
 I. Kaliman,  J. Kussmann,  A. W. Lange,  Ka Un Lao,  D. S. Levine,  Jie Liu,  
 S. C. McKenzie,  A. F. Morrison,  K. Nanda,  F. Plasser,  D. R. Rehn,  
 M. L. Vidal,  Zhi-Qiang You,  Ying Zhu,  B. Alam,  B. Albrecht,  
 A. Aldossary,  E. Alguire,  J. H. Andersen,  D. Barton,  K. Begam,  A. Behn,  
 Y. A. Bernard,  E. J. Berquist,  H. Burton,  A. Carreras,  K. Carter-Fenk,  
 R. Chakraborty,  A. D. Chien,  K. D. Closser,  V. Cofer-Shabica,  
 S. Dasgupta,  Jia Deng,  M. de Wergifosse,  M. Diedenhofen,  Hainam Do,  
 S. Ehlert,  Po-Tung Fang,  S. Fatehi,  Qingguo Feng,  T. Friedhoff,  
 J. Gayvert,  Qinghui Ge,  G. Gidofalvi,  M. Goldey,  J. Gomes,  
 C. Gonzalez-Espinoza,  S. Gulania,  A. Gunina,  M. W. D. Hanson-Heine,  
 P. H. P. Harbach,  A. W. Hauser,  M. F. Herbst,  M. Hernandez Vera,  
 M. Hodecker,  Z. C. Holden,  S. Houck,  Xunkun Huang,  Kerwin Hui,  
 B. C. Huynh,  M. Ivanov,  Hyunjun Ji,  Hanjie Jiang,  B. Kaduk,  S. Kaehler,  
 K. Khistyaev,  Jaehoon Kim,  P. Klunzinger,  Z. Koczor-Benda,  
 Joong Hoon Koh,  D. Kosenkov,  L. Koulias,  T. Kowalczyk,  C. M. Krauter,  
 K. Kue,  A. Kunitsa,  T. Kus,  A. Landau,  K. V. Lawler,  D. Lefrancois,  
 S. Lehtola,  Rain Li,  Yi-Pei Li,  Jiashu Liang,  M. Liebenthal,  
 Hung-Hsuan Lin,  You-Sheng Lin,  Fenglai Liu,  Kuan-Yu Liu,  
 M. Loipersberger,  A. Luenser,  A. Manjanath,  P. Manohar,  E. Mansoor,  
 S. F. Manzer,  Shan-Ping Mao,  A. V. Marenich,  T. Markovich,  S. Mason,  
 S. A. Maurer,  P. F. McLaughlin,  M. F. S. J. Menger,  J.-M. Mewes,  
 S. A. Mewes,  P. Morgante,  J. W. Mullinax,  K. J. Oosterbaan,  G. Paran,  
 Alexander C. Paul,  Suranjan K. Paul,  F. Pavosevic,  Zheng Pei,  S. Prager,  
 E. I. Proynov,  E. Ramos,  B. Rana,  A. E. Rask,  A. Rettig,  R. M. Richard,  
 F. Rob,  E. Rossomme,  T. Scheele,  M. Scheurer,  M. Schneider,  
 N. Sergueev,  S. M. Sharada,  W. Skomorowski,  D. W. Small,  C. J. Stein,  
 Yu-Chuan Su,  E. J. Sundstrom,  Zhen Tao,  J. Thirman,  T. Tsuchimochi,  
 N. M. Tubman,  S. P. Veccham,  O. Vydrov,  J. Wenzel,  J. Witte,  A. Yamada,  
 Kun Yao,  S. Yeganeh,  S. R. Yost,  A. Zech,  Igor Ying Zhang,  Xing Zhang,  
 Yu Zhang,  D. Zuev,  A. Aspuru-Guzik,  A. T. Bell,  N. A. Besley,  
 K. B. Bravaya,  B. R. Brooks,  D. Casanova,  Jeng-Da Chai,  S. Coriani,  
 C. J. Cramer,  A. E. DePrince, III,  R. A. DiStasio Jr.,  A. Dreuw,  
 B. D. Dunietz,  T. R. Furlani,  W. A. Goddard III,  S. Grimme,  
 S. Hammes-Schiffer,  T. Head-Gordon,  W. J. Hehre,  Chao-Ping Hsu,  
 T.-C. Jagau,  Yousung Jung,  A. Klamt,  Jing Kong,  D. S. Lambrecht,  
 WanZhen Liang,  N. J. Mayhall,  C. W. McCurdy,  J. B. Neaton,  
 C. Ochsenfeld,  J. A. Parkhill,  R. Peverati,  V. A. Rassolov,  Yihan Shao,  
 L. V. Slipchenko,  T. Stauch,  R. P. Steele,  J. E. Subotnik,  
 A. J. W. Thom,  A. Tkatchenko,  D. G. Truhlar,  T. Van Voorhis,  
 T. A. Wesolowski,  K. B. Whaley,  H. L. Woodcock III,  P. M. Zimmerman,  
 S. Faraji,  P. M. W. Gill,  M. Head-Gordon,  J. M. Herbert,  A. I. Krylov

 Additional authors for Version 5.4.1: 
 S. Kotaru,  Shaozhi Li,  Xiangyuan Li,  F. Matz,  A. Molle,  Haisheng Ren,  
 Yingli Su,  Hung-Yi Tsai,  C. Utku,  Fang Wang

 Contributors to earlier versions of Q-Chem not listed above: 
 R. D. Adamson,  B. Austin,  R. Baer,  J. Baker,  G. J. O. Beran,  
 K. Brandhorst,  S. T. Brown,  E. F. C. Byrd,  A. K. Chakraborty,  
 G. K. L. Chan,  Chun-Min Chang,  Yunqing Chen,  C.-L. Cheng,  
 Siu Hung Chien,  D. M. Chipman,  D. L. Crittenden,  H. Dachsel,  
 R. J. Doerksen,  A. D. Dutoi,  R. G. Edgar,  J. Fosso-Tande,  
 L. Fusti-Molnar,  D. Ghosh,  A. Ghysels,  A. Golubeva-Zadorozhnaya,  
 J. Gonthier,  M. S. Gordon,  S. R. Gwaltney,  G. Hawkins,  J. E. Herr,  
 A. Heyden,  S. Hirata,  E. G. Hohenstein,  G. Kedziora,  F. J. Keil,  
 C. Kelley,  Jihan Kim,  R. A. King,  R. Z. Khaliullin,  P. P. Korambath,  
 W. Kurlancheek,  A. Laurent,  A. M. Lee,  M. S. Lee,  S. V. Levchenko,  
 Ching Yeh Lin,  D. Liotard,  E. Livshits,  R. C. Lochan,  I. Lotan,  
 L. A. Martinez-Martinez,  P. E. Maslen,  N. Nair,  D. P. O'Neill,  
 D. Neuhauser,  E. Neuscamman,  C. M. Oana,  R. Olivares-Amaya,  R. Olson,  
 T. M. Perrine,  B. Peters,  P. A. Pieniazek,  A. Prociuk,  Y. M. Rhee,  
 J. Ritchie,  M. A. Rohrdanz,  E. Rosta,  N. J. Russ,  H. F. Schaefer III,  
 M. W. Schmidt,  N. E. Schultz,  S. Sharma,  N. Shenvi,  C. D. Sherrill,  
 A. C. Simmonett,  A. Sodt,  T. Stein,  D. Stuck,  K. S. Thanthiriwatte,  
 V. Vanovschi,  L. Vogt,  Tao Wang,  A. Warshel,  M. A. Watson,  
 C. F. Williams,  Q. Wu,  X. Xu,  Jun Yang,  W. Zhang,  Yan Zhao

 Please cite Q-Chem as follows:
 Y. Shao et al., Mol. Phys. 113, 184-215 (2015)
 DOI: 10.1080/00268976.2014.952696

 Q-Chem 5.4.1 for Intel X86 EM64T Linux

 Parts of Q-Chem use Armadillo 9.800.1 (Horizon Scraper).
 http://arma.sourceforge.net/

 Q-Chem begins on Fri Oct 29 07:16:07 2021  

 Host: cori02
0

     Scratch files written to /tmp/qchem1116//
 Aug1521 |scratch|qcdevops|jenkins|workspace|build_RNUM 7470   
 Processing $rem in /global/common/cori_cle7/software/qchem/5.4.1/config/preferences:
 Processing $rem in /global/homes/s/sblau/.qchemrc:

 Checking the input file for inconsistencies... 	...done.

--------------------------------------------------------------
User input:
--------------------------------------------------------------
$molecule
-1 2
Mg     -1.8899640000     -5.5514950000      6.0064290000
O     -1.9766010000     -2.2672820000      2.9701770000
C     -1.9231030000     -4.0883210000      4.6582500000
C     -1.9492720000     -3.1622380000      3.7986710000
$end

$rem
job_type = sp
basis = def2-tzvpd
max_scf_cycles = 200
gen_scfman = true
xc_grid = 3
scf_algorithm = diis
resp_charges = true
symmetry = false
sym_ignore = true
method = wb97mv
nbo = true
run_nbo6 = true
$end

$nbo
$end
--------------------------------------------------------------
 ----------------------------------------------------------------
             Standard Nuclear Orientation (Angstroms)
    I     Atom           X                Y                Z
 ----------------------------------------------------------------
    1      Mg     -1.8899640000    -5.5514950000     6.0064290000
    2      O      -1.9766010000    -2.2672820000     2.9701770000
    3      C      -1.9231030000    -4.0883210000     4.6582500000
    4      C      -1.9492720000    -3.1622380000     3.7986710000
 ----------------------------------------------------------------
 Nuclear Repulsion Energy =          88.33658447 hartrees
 There are       17 alpha and       16 beta electrons
 Requested basis set is def2-TZVPD
 There are 53 shells and 149 basis functions

 Total QAlloc Memory Limit  96000 MB
 Mega-Array Size       188 MB
 MEM_STATIC part       192 MB

                       Distance Matrix (Angstroms)
             Mg(  1)   O (  2)   C (  3)
   O (  2)  4.473521
   C (  3)  1.989865  2.483674
   C (  4)  3.253654  1.219875  1.263800
 
 A cutoff of  1.0D-08 yielded   1324 shell pairs
 There are     10750 function pairs (     14061 Cartesian)
 Smallest overlap matrix eigenvalue = 2.10E-06

 Q-Chem warning in module stvman/mkSTV.C, line 323:

 Overlap eigenvalue is smaller than square root of threshold
 Use THRESH >= 12 to get rid of this warning


 Scale SEOQF with 1.000000e-01/1.000000e-02/1.000000e-02

 Standard Electronic Orientation quadrupole field applied
 Nucleus-field energy     =     0.0000000006 hartrees
 Guess from superposition of atomic densities
 Warning:  Energy on first SCF cycle will be non-variational
 SAD guess density has 32.000000 electrons

 -----------------------------------------------------------------------
  General SCF calculation program by
  Eric Jon Sundstrom, Paul Horn, Yuezhi Mao, Dmitri Zuev, Alec White,
  David Stuck, Shaama M.S., Shane Yost, Joonho Lee, David Small,
  Daniel Levine, Susi Lehtola, Hugh Burton, Evgeny Epifanovsky,
  Bang C. Huynh
 -----------------------------------------------------------------------
 Exchange:     0.1500 Hartree-Fock + 1.0000 wB97M-V + LR-HF
 Correlation:  1.0000 wB97M-V
 Using SG-3 standard quadrature grid
 Nonlocal Correlation:  VV10 with C = 0.0100 and b = 6.00 and scale = 1.00000
 Grid used for NLC:  SG-1 standard quadrature
 using 24 threads for integral computing
 -------------------------------------------------------
 OpenMP Integral computing Module                
 Release: version 1.0, May 2013, Q-Chem Inc. Pittsburgh 
 -------------------------------------------------------
 -------------------------------------------------------
 OpenMP BLAS3 based DFT computing Module                
 Release: version 1.0, May 2013, Q-Chem Inc. Pittsburgh 
 -------------------------------------------------------
 A unrestricted SCF calculation will be
 performed using DIIS
 SCF converges when DIIS error is below 1.0e-05
 ---------------------------------------
  Cycle       Energy         DIIS error
 ---------------------------------------
    1    -351.9515427898      1.74e-02  
    2    -351.2916808692      3.63e-03  
    3    -351.2256170923      4.52e-03  
    4    -351.4704968716      4.38e-04  
    5    -351.4733759000      3.56e-04  
    6    -351.4750757703      8.99e-05  
    7    -351.4753397604      6.00e-05  
    8    -351.4754419592      1.72e-05  
    9    -351.4754681044      6.06e-06  Convergence criterion met
 ---------------------------------------
 SCF time:   CPU 100.73s  wall 4.00s 
<S^2> =          0.751743972
 SCF   energy in the final basis set =     -351.4754681044
 Total energy in the final basis set =     -351.4754681044
 
 --------------------------------------------------------------
 
                    Orbital Energies (a.u.)
 --------------------------------------------------------------
 
 Alpha MOs
 -- Occupied --
-46.9139 -19.1150 -10.1901 -10.0865  -3.0947  -1.8055  -1.8048  -1.8018
 -0.9489  -0.6106  -0.3692  -0.2898  -0.2898  -0.2570  -0.0961  -0.0906
 -0.0906
 -- Virtual --
  0.1305   0.1305   0.1396   0.1710   0.1979   0.2056   0.2056   0.2347
  0.2347   0.2497   0.2806   0.2893   0.2893   0.3022   0.3022   0.3194
  0.3804   0.3919   0.3919   0.3945   0.4328   0.4328   0.4839   0.4973
  0.4973   0.5335   0.5336   0.5409   0.5409   0.5487   0.5807   0.6044
  0.6045   0.6513   0.6738   0.6739   0.6876   0.7666   0.7666   0.7676
  0.7677   0.8321   0.8323   0.8425   0.8912   0.9179   0.9282   0.9283
  0.9712   0.9712   1.0395   1.0753   1.0754   1.1252   1.1412   1.1745
  1.1746   1.3227   1.3228   1.3587   1.3742   1.3742   1.4267   1.7543
  1.7543   1.7763   1.8581   1.8582   1.9714   2.1007   2.1007   2.1416
  2.1418   2.1673   2.2547   2.2974   2.2977   2.4670   2.5079   2.5960
  2.5960   2.6440   2.8377   2.8377   2.8777   2.8777   3.0438   3.1420
  3.1423   3.2002   3.2002   3.3521   3.3521   3.3683   3.3688   3.4949
  3.4953   3.5601   3.5604   3.5718   3.7087   3.8505   3.8506   4.1537
  4.1649   4.1649   4.4532   4.9580   4.9585   5.0704   5.3862   5.4870
  5.4870   5.8384   5.8725   5.8725   6.7131   6.7471   6.7671   6.7975
  6.7980   6.8008   6.8062   6.8192   6.9002   6.9671   7.2778   7.2783
  7.5815  23.0599  24.1126  44.8514
 
 Beta MOs
 -- Occupied --
-46.9121 -19.1152 -10.1899 -10.0833  -3.0916  -1.8031  -1.8028  -1.7968
 -0.9491  -0.6083  -0.3686  -0.2901  -0.2901  -0.2390  -0.0884  -0.0884
 -- Virtual --
  0.1019   0.1382   0.1382   0.1565   0.1750   0.2007   0.2144   0.2144
  0.2353   0.2353   0.2536   0.2915   0.2915   0.3035   0.3276   0.3276
  0.3529   0.3892   0.3932   0.3932   0.4229   0.4333   0.4333   0.4895
  0.5086   0.5086   0.5351   0.5351   0.5455   0.5455   0.5647   0.5944
  0.6068   0.6068   0.6576   0.6940   0.7025   0.7026   0.7692   0.7692
  0.7705   0.7705   0.8415   0.8416   0.8529   0.9145   0.9375   0.9378
  0.9394   0.9772   0.9773   1.0469   1.0758   1.0758   1.1352   1.1539
  1.1747   1.1748   1.3239   1.3240   1.3692   1.3785   1.3786   1.4292
  1.7582   1.7583   1.7883   1.8599   1.8601   1.9861   2.1005   2.1005
  2.1497   2.1498   2.1819   2.2554   2.3082   2.3084   2.4777   2.5448
  2.5963   2.5963   2.6448   2.8389   2.8389   2.8789   2.8789   3.0465
  3.1454   3.1456   3.2026   3.2026   3.3522   3.3522   3.3688   3.3693
  3.5037   3.5041   3.5680   3.5684   3.5751   3.7124   3.8519   3.8520
  4.1626   4.1685   4.1685   4.4557   4.9602   4.9608   5.0732   5.3900
  5.4864   5.4864   5.8413   5.8722   5.8722   6.7148   6.7509   6.7686
  6.7965   6.7971   6.8018   6.8061   6.8217   6.9029   6.9695   7.2775
  7.2780   7.5815  23.0636  24.1131  44.8512
 --------------------------------------------------------------
 
          Ground-State Mulliken Net Atomic Charges

     Atom                 Charge (a.u.)    Spin (a.u.)
  --------------------------------------------------------
      1 Mg                   -0.001479       0.867106
      2 O                    -0.705911      -0.011218
      3 C                    -0.395312       0.030246
      4 C                     0.102702       0.113866
  --------------------------------------------------------
  Sum of atomic charges =    -1.000000
  Sum of spin   charges =     1.000000

  Building new vdw surfaces
         Merz-Kollman RESP Net Atomic Charges

     Atom                 Charge (a.u.)
  ----------------------------------------
      1 Mg                   -0.073821
      2 O                    -0.505913
      3 C                    -0.456511
      4 C                     0.036244
  ----------------------------------------
  Sum of atomic charges =    -1.000000

  Related Dipole Moment =    26.4047 (X  9.3508 Y 15.8919 Z -18.9002)

 -----------------------------------------------------------------
                    Cartesian Multipole Moments
 -----------------------------------------------------------------
    Charge (ESU x 10^10)
                -4.8032
    Dipole Moment (Debye)
         X       9.3212      Y      16.8504      Z     -19.7877
       Tot      27.6111
    Quadrupole Moments (Debye-Ang)
        XX     -52.0754     XY     -32.4317     YY    -103.2584
        XZ      38.1522     YZ      78.8154     ZZ    -124.1834
    Octopole Moments (Debye-Ang^2)
       XXX     231.1050    XXY     206.9590    XYY     197.4668
       YYY     766.6470    XXZ    -236.9312    XYZ    -150.5933
       YYZ    -531.9571    XZZ     237.9769    YZZ     554.3038
       ZZZ    -947.8450
    Hexadecapole Moments (Debye-Ang^3)
      XXXX    -901.0449   XXXY    -948.9180   XXYY   -1081.1849
      XYYY   -1458.3776   YYYY   -5982.6265   XXXZ    1079.5794
      XXYZ    1040.2305   XYYZ    1010.4408   YYYZ    4250.5789
      XXZZ   -1321.0892   XYZZ   -1053.2973   YYZZ   -3707.1098
      XZZZ    1807.1655   YZZZ    4617.0872   ZZZZ   -7692.0827
 -----------------------------------------------------------------

 Begin NBO analysis for the ground state 

 i=           1 atno=          12 znuc=          12
 i=           2 atno=           8 znuc=           8
 i=           3 atno=           6 znuc=           6
 i=           4 atno=           6 znuc=           6
 Carts
             1             2             3             4
    1   -3.57151435   -3.73523455   -3.63413798   -3.68359022
    2  -10.49080513   -4.28454203   -7.72580700   -5.97576376
    3   11.35050580    5.61282107    8.80281672    7.17844783
 Carts
             1             2             3             4
    1   -1.88996400   -1.97660100   -1.92310300   -1.94927200
    2   -5.55149500   -2.26728200   -4.08832100   -3.16223800
    3    6.00642900    2.97017700    4.65825000    3.79867100
 Sao
             1             2             3             4             5
    1    1.00000000   -0.21443664    0.23953231    0.04432919    0.02092361
    2   -0.21443664    1.00000000   -0.84379861   -0.22794070   -0.11077888
    3    0.23953231   -0.84379861    1.00000000    0.45511915    0.23704022
    4    0.04432919   -0.22794070    0.45511915    1.00000000    0.83287936
    5    0.02092361   -0.11077888    0.23704022    0.83287936    1.00000000
    6    0.00000000    0.00000000   -0.00000000   -0.00000000   -0.00000000
    7    0.00000000    0.00000000   -0.00000000    0.00000000    0.00000000
    8   -0.00000000   -0.00000000    0.00000000    0.00000000   -0.00000000
    9   -0.00000000   -0.00000000    0.00000000    0.00000000    0.00000000
   10    0.00000000    0.00000000    0.00000000    0.00000000   -0.00000000
   11   -0.00000000   -0.00000000    0.00000000    0.00000000    0.00000000
   12    0.00000000    0.00000000    0.00000000    0.00000000   -0.00000000
   13    0.00000000    0.00000000   -0.00000000    0.00000000    0.00000000
   14   -0.00000000   -0.00000000    0.00000000    0.00000000    0.00000000
   15    0.00000000   -0.00000000    0.00000000    0.00000000    0.00000000
   16    0.00000000    0.00000000   -0.00000000    0.00000000    0.00000000
   17   -0.00000000    0.00000000    0.00000000    0.00000000    0.00000000
   18   -0.00000000    0.00000000   -0.00000000    0.00000000    0.00000000
   19   -0.00000000    0.00000000    0.00000000    0.00000000    0.00000000
   20    0.00000000    0.00000000    0.00000000    0.00000000   -0.00000000
   21    0.00000000   -0.00000000    0.00000000    0.00000000    0.00000000
   22   -0.00000000    0.00000000    0.00000000    0.00000000    0.00000000
   23    0.00000000    0.00000000    0.00000000    0.00000000    0.00000000
   24   -0.00000000    0.00000000    0.00000000   -0.00000000   -0.00000000
   25    0.00000000    0.00000000    0.00000000    0.00000000    0.00000000
   26    0.00000000    0.00000000    0.00000000    0.00000000    0.00000000
   27    0.00000000    0.00000000    0.00000000    0.00000000    0.00000000
   28    0.00000000    0.00000000    0.00000000    0.00000000    0.00000000
   29    0.00000000   -0.00000000    0.00000000    0.00000000    0.00000000
   30    0.00000000    0.00000000    0.00000000    0.00000000    0.00000000
   31    0.00000000   -0.00000000    0.00000000    0.00000000    0.00000000
   32   -0.00000000    0.00000000    0.00000000    0.00000000   -0.00000000
   33    0.00000000    0.00000000    0.00000000    0.00000000    0.00000000
   34    0.00000000    0.00000000    0.00000000    0.00000000   -0.00000000
   35    0.00000000    0.00000000    0.00000000    0.00000000    0.00000000
   36    0.00000000   -0.00000000    0.00000000    0.00002392    0.00108194
   37    0.00000000   -0.00000000    0.00000000    0.00008718    0.00370489
   38    0.00000000   -0.00000000    0.00000000    0.00051778    0.01569711
   39    0.00000000   -0.00000000    0.00000000    0.00178369    0.03282912
   40    0.00000014   -0.00000142    0.00001484    0.00876606    0.07138095
   41    0.00022710   -0.00131754    0.00353534    0.05047379    0.16448085
   42    0.00000000   -0.00000000    0.00000000    0.00000754    0.00009685
   43   -0.00000000    0.00000000   -0.00000000   -0.00028573   -0.00367145
   44    0.00000000   -0.00000000    0.00000000    0.00026416    0.00339425
   45    0.00000000   -0.00000000    0.00000000    0.00005593    0.00045791
   46   -0.00000000    0.00000000   -0.00000001   -0.00212014   -0.01735845
   47    0.00000000   -0.00000000    0.00000000    0.00196006    0.01604787
   48    0.00000004   -0.00000034    0.00000250    0.00048900    0.00178832
   49   -0.00000144    0.00001276   -0.00009475   -0.01853696   -0.06779118
   50    0.00000133   -0.00001180    0.00008760    0.01713740    0.06267289
   51    0.00005160   -0.00028285    0.00065875    0.00399192    0.00658022
   52   -0.00195618    0.01072233   -0.02497190   -0.15132457   -0.24944127
   53    0.00180848   -0.00991279    0.02308650    0.13989943    0.23060823
   54   -0.00000000    0.00000000   -0.00000000   -0.00000413   -0.00002142
   55   -0.00000000    0.00000000   -0.00000000   -0.00014487   -0.00075069
   56    0.00000000   -0.00000000    0.00000000    0.00003206    0.00016612
   57    0.00000000   -0.00000000    0.00000000    0.00000382    0.00001980
   58   -0.00000000    0.00000000   -0.00000000   -0.00007830   -0.00040572
   59   -0.00000000    0.00000000   -0.00000000   -0.00005301   -0.00019284
   60   -0.00000000    0.00000000   -0.00000000   -0.00185773   -0.00675812
   61    0.00000000   -0.00000000    0.00000000    0.00041110    0.00149552
   62    0.00000000   -0.00000000    0.00000000    0.00004901    0.00017828
   63   -0.00000000    0.00000000   -0.00000000   -0.00100402   -0.00365247
   64   -0.00000102    0.00000742   -0.00003277   -0.00133910   -0.00209492
   65   -0.00003592    0.00025995   -0.00114831   -0.04692958   -0.07341800
   66    0.00000795   -0.00005753    0.00025411    0.01038515    0.01624683
   67    0.00000095   -0.00000686    0.00003029    0.00123799    0.00193675
   68   -0.00001941    0.00014049   -0.00062061   -0.02536342   -0.03967928
   69    0.00000000   -0.00000000    0.00000000    0.00007926    0.00014243
   70   -0.00000000    0.00000000   -0.00000000   -0.00000949   -0.00001705
   71   -0.00000000    0.00000000   -0.00000000   -0.00014877   -0.00026733
   72   -0.00000000    0.00000000   -0.00000000   -0.00006003   -0.00010788
   73    0.00000000   -0.00000000    0.00000000    0.00000392    0.00000705
   74   -0.00000000    0.00000000   -0.00000000   -0.00017974   -0.00032298
   75   -0.00000000    0.00000000   -0.00000000   -0.00000628   -0.00001129
   76    0.00000000   -0.00000000    0.00002516    0.01278192    0.01484055
   77    0.00000000   -0.00000000    0.00016234    0.04261152    0.04918529
   78    0.00005771   -0.00078041    0.00748984    0.17824982    0.20068331
   79    0.00328208   -0.01972673    0.05368786    0.32785905    0.36607139
   80    0.01111871   -0.05957172    0.13073931    0.49984722    0.58369149
   81    0.01295659   -0.06892959    0.14924205    0.57009420    0.73337016
   82    0.00000026   -0.00000669    0.00011985    0.00142271    0.00063054
   83   -0.00001135    0.00029551   -0.00529173   -0.06281651   -0.02783980
   84    0.00001046   -0.00027228    0.00487583    0.05787958    0.02565179
   85    0.00011398   -0.00068936    0.00179252    0.00496460    0.00242016
   86   -0.00503240    0.03043711   -0.07914464   -0.21920008   -0.10685637
   87    0.00463689   -0.02804498    0.07292444    0.20197252    0.09845822
   88    0.00042434   -0.00220906    0.00451411    0.00975982    0.00606853
   89   -0.01873589    0.09753584   -0.19930966   -0.43092168   -0.26794160
   90    0.01726339   -0.08987022    0.18364535    0.39705432    0.24688331
   91   -0.00000007    0.00000489   -0.00015710   -0.00060492   -0.00010248
   92   -0.00000302    0.00019913   -0.00639105   -0.02460973   -0.00416896
   93    0.00000066   -0.00004351    0.00139655    0.00537762    0.00091098
   94    0.00000007   -0.00000451    0.00014475    0.00055738    0.00009442
   95   -0.00000164    0.00010800   -0.00346632   -0.01334758   -0.00226112
   96   -0.00026348    0.00151956   -0.00343188   -0.00342497   -0.00071024
   97   -0.01071898    0.06181974   -0.13961771   -0.13933668   -0.02889439
   98    0.00234227   -0.01350859    0.03050868    0.03044727    0.00631388
   99    0.00024277   -0.00140014    0.00316216    0.00315580    0.00065442
  100   -0.00581365    0.03352917   -0.07572444   -0.07557202   -0.01567145
  101   -0.00071170    0.00360131   -0.00688138   -0.00884554   -0.00311801
  102   -0.02895366    0.14651027   -0.27995220   -0.35985894   -0.12684839
  103    0.00632683   -0.03201481    0.06117399    0.07863488    0.02771838
  104    0.00065576   -0.00331827    0.00634056    0.00815034    0.00287295
  105   -0.01570360    0.07946276   -0.15183765   -0.19517666   -0.06879875
  106    0.00012570   -0.00181453    0.00987264    0.00538079    0.00037350
  107   -0.00001287    0.00018579   -0.00101089   -0.00055095   -0.00003824
  108   -0.00023359    0.00337206   -0.01834700   -0.00999950   -0.00069409
  109   -0.00009563    0.00138052   -0.00751127   -0.00409380   -0.00028416
  110    0.00000529   -0.00007637    0.00041554    0.00022648    0.00001572
  111   -0.00028399    0.00409955   -0.02230521   -0.01215681   -0.00084384
  112   -0.00000855    0.00012346   -0.00067173   -0.00036610   -0.00002541
  113    0.00000000   -0.00000000    0.00000000    0.00118709    0.00621363
  114    0.00000000   -0.00000000    0.00000000    0.00417064    0.02074062
  115    0.00000000   -0.00000001    0.00000643    0.02331985    0.08838650
  116    0.00001527   -0.00013021    0.00080772    0.06233291    0.17261502
  117    0.00118279   -0.00675718    0.01729512    0.15678138    0.31123951
  118    0.00412634   -0.02232846    0.05043275    0.26261932    0.44679871
  119    0.00000000   -0.00000000    0.00000006    0.00029843    0.00048848
  120   -0.00000000    0.00000000   -0.00000252   -0.01202238   -0.01967873
  121    0.00000000   -0.00000000    0.00000233    0.01110911    0.01818385
  122    0.00000024   -0.00000252    0.00002218    0.00151218    0.00199810
  123   -0.00000980    0.00010155   -0.00089337   -0.06091911   -0.08049459
  124    0.00000905   -0.00009384    0.00082550    0.05629141    0.07437985
  125    0.00007118   -0.00039809    0.00096117    0.00530086    0.00573600
  126   -0.00286762    0.01603712   -0.03872128   -0.21354820   -0.23107809
  127    0.00264978   -0.01481886    0.03577983    0.19732610    0.21352433
  128   -0.00000000    0.00000000   -0.00000006   -0.00019816   -0.00012877
  129   -0.00000000    0.00000000   -0.00000217   -0.00737664   -0.00479333
  130    0.00000000   -0.00000000    0.00000048    0.00162944    0.00105881
  131    0.00000000   -0.00000000    0.00000005    0.00018311    0.00011898
  132   -0.00000000    0.00000000   -0.00000117   -0.00398908   -0.00259210
  133   -0.00000047    0.00000518   -0.00004709   -0.00163176   -0.00094979
  134   -0.00001754    0.00019290   -0.00175312   -0.06074259   -0.03535611
  135    0.00000387   -0.00004261    0.00038725    0.01341759    0.00780990
  136    0.00000044   -0.00000479    0.00004352    0.00150780    0.00087764
  137   -0.00000948    0.00010431   -0.00094804   -0.03284786   -0.01911957
  138   -0.00024401    0.00130978   -0.00286496   -0.00832827   -0.00489764
  139   -0.00908338    0.04875686   -0.10664884   -0.31002234   -0.18231617
  140    0.00200645   -0.01077003    0.02355794    0.06848163    0.04027229
  141    0.00022547   -0.00121028    0.00264732    0.00769562    0.00452559
  142   -0.00491203    0.02636631   -0.05767265   -0.16765122   -0.09859137
  143    0.00000000   -0.00000001    0.00001102    0.00283987    0.00070742
  144   -0.00000000    0.00000000   -0.00000124   -0.00031970   -0.00007964
  145   -0.00000000    0.00000001   -0.00002064   -0.00532170   -0.00132565
  146   -0.00000000    0.00000000   -0.00000835   -0.00215184   -0.00053603
  147    0.00000000   -0.00000000    0.00000051    0.00013210    0.00003291
  148   -0.00000000    0.00000001   -0.00002496   -0.00643575   -0.00160316
  149   -0.00000000    0.00000000   -0.00000082   -0.00021183   -0.00005277
             6             7             8             9            10
    1    0.00000000    0.00000000   -0.00000000   -0.00000000    0.00000000
    2    0.00000000    0.00000000   -0.00000000   -0.00000000    0.00000000
    3   -0.00000000   -0.00000000    0.00000000    0.00000000    0.00000000
    4   -0.00000000    0.00000000    0.00000000    0.00000000    0.00000000
    5   -0.00000000    0.00000000   -0.00000000    0.00000000   -0.00000000
    6    1.00000000    0.00000000   -0.00000000    0.53027386    0.00000000
    7    0.00000000    1.00000000   -0.00000000    0.00000000    0.53027386
    8   -0.00000000   -0.00000000    1.00000000   -0.00000000    0.00000000
    9    0.53027386    0.00000000   -0.00000000    1.00000000    0.00000000
   10    0.00000000    0.53027386    0.00000000    0.00000000    1.00000000
   11   -0.00000000    0.00000000    0.53027386    0.00000000    0.00000000
   12    0.19380692    0.00000000   -0.00000000    0.68425809    0.00000000
   13    0.00000000    0.19380692   -0.00000000    0.00000000    0.68425809
   14   -0.00000000   -0.00000000    0.19380692   -0.00000000    0.00000000
   15    0.04731283    0.00000000    0.00000000    0.22957764    0.00000000
   16    0.00000000    0.04731283    0.00000000    0.00000000    0.22957764
   17    0.00000000    0.00000000    0.04731283    0.00000000    0.00000000
   18    0.01845057    0.00000000   -0.00000000    0.09697824    0.00000000
   19    0.00000000    0.01845057    0.00000000    0.00000000    0.09697824
   20   -0.00000000    0.00000000    0.01845057    0.00000000    0.00000000
   21   -0.00000000   -0.00000000    0.00000000    0.00000000    0.00000000
   22    0.00000000    0.00000000   -0.00000000    0.00000000    0.00000000
   23    0.00000000    0.00000000    0.00000000   -0.00000000   -0.00000000
   24    0.00000000    0.00000000   -0.00000000    0.00000000    0.00000000
   25   -0.00000000    0.00000000    0.00000000    0.00000000   -0.00000000
   26    0.00000000   -0.00000000    0.00000000    0.00000000    0.00000000
   27    0.00000000    0.00000000    0.00000000    0.00000000   -0.00000000
   28    0.00000000   -0.00000000    0.00000000    0.00000000   -0.00000000
   29    0.00000000    0.00000000   -0.00000000   -0.00000000    0.00000000
   30   -0.00000000   -0.00000000    0.00000000    0.00000000   -0.00000000
   31    0.00000000    0.00000000    0.00000000    0.00000000    0.00000000
   32    0.00000000   -0.00000000    0.00000000    0.00000000    0.00000000
   33   -0.00000000   -0.00000000   -0.00000000   -0.00000000    0.00000000
   34   -0.00000000    0.00000000    0.00000000    0.00000000    0.00000000
   35    0.00000000   -0.00000000    0.00000000    0.00000000    0.00000000
   36   -0.00000000    0.00000000   -0.00000000   -0.00000000    0.00000000
   37   -0.00000000    0.00000000   -0.00000000   -0.00000000    0.00000000
   38   -0.00000000    0.00000000   -0.00000000   -0.00000000    0.00000000
   39   -0.00000000    0.00000000   -0.00000000   -0.00000000    0.00000004
   40   -0.00000008    0.00000297   -0.00000275   -0.00000205    0.00007789
   41   -0.00002208    0.00083717   -0.00077396   -0.00014740    0.00558753
   42    0.00000000    0.00000000   -0.00000000    0.00000000    0.00000000
   43    0.00000000   -0.00000000    0.00000000    0.00000000   -0.00000000
   44   -0.00000000    0.00000000   -0.00000000   -0.00000000    0.00000000
   45    0.00000000    0.00000000   -0.00000000    0.00000000    0.00000000
   46    0.00000000   -0.00000000    0.00000000    0.00000000   -0.00000005
   47   -0.00000000    0.00000000   -0.00000000   -0.00000000    0.00000005
   48    0.00000191    0.00000063   -0.00000058    0.00004284    0.00001180
   49    0.00000063   -0.00002177    0.00002191    0.00001180   -0.00040428
   50   -0.00000058    0.00002191   -0.00001832   -0.00001091    0.00041365
   51    0.00126544    0.00012838   -0.00011869    0.00754796    0.00072288
   52    0.00012838   -0.00359789    0.00449927    0.00072288   -0.01983591
   53   -0.00011869    0.00449927   -0.00289075   -0.00066831    0.02533399
   54   -0.00000000   -0.00000000    0.00000000   -0.00000000   -0.00000000
   55    0.00000000   -0.00000000    0.00000000    0.00000000   -0.00000000
   56   -0.00000000    0.00000000   -0.00000000   -0.00000000    0.00000000
   57    0.00000000    0.00000000   -0.00000000    0.00000000    0.00000000
   58    0.00000000   -0.00000000    0.00000000    0.00000000   -0.00000000
   59   -0.00000000   -0.00000000    0.00000000   -0.00000000   -0.00000000
   60    0.00000000   -0.00000000    0.00000000    0.00000000   -0.00000003
   61   -0.00000000    0.00000000   -0.00000000   -0.00000000    0.00000001
   62    0.00000000    0.00000000   -0.00000000    0.00000000    0.00000000
   63    0.00000000   -0.00000000    0.00000000    0.00000000   -0.00000002
   64   -0.00003782   -0.00000954    0.00000975   -0.00049015   -0.00010475
   65    0.00000975   -0.00033434    0.00030356    0.00010887   -0.00367091
   66   -0.00000274    0.00010378   -0.00003494   -0.00003160    0.00119804
   67    0.00003496    0.00000975   -0.00000801    0.00045315    0.00010887
   68    0.00000627   -0.00016164    0.00018465    0.00007185   -0.00173717
   69   -0.00000000    0.00000000   -0.00000000   -0.00000000    0.00000000
   70   -0.00000000   -0.00000000    0.00000000   -0.00000000   -0.00000000
   71    0.00000000   -0.00000000    0.00000000    0.00000000   -0.00000000
   72    0.00000000   -0.00000000    0.00000000    0.00000000   -0.00000000
   73    0.00000000    0.00000000   -0.00000000    0.00000000    0.00000000
   74    0.00000000   -0.00000000    0.00000000    0.00000000   -0.00000000
   75   -0.00000000   -0.00000000    0.00000000   -0.00000000   -0.00000000
   76   -0.00000000    0.00000000   -0.00000000   -0.00000581    0.00025667
   77   -0.00000001    0.00000051   -0.00000047   -0.00003614    0.00159582
   78   -0.00004629    0.00204387   -0.00188323   -0.00078115    0.03448966
   79   -0.00038633    0.01705758   -0.01571698   -0.00223588    0.09872005
   80   -0.00049144    0.02169848   -0.01999314   -0.00243234    0.10739433
   81   -0.00029558    0.01305077   -0.01202507   -0.00150756    0.06656291
   82    0.00014946    0.00002887   -0.00002660    0.00591053    0.00070949
   83    0.00002887   -0.00112468    0.00117461    0.00070949   -0.02539906
   84   -0.00002660    0.00117461   -0.00093218   -0.00065373    0.02886369
   85    0.00833896    0.00072657   -0.00066947    0.05560165    0.00373037
   86    0.00072657   -0.02372470    0.02955885    0.00373037   -0.10901965
   87   -0.00066947    0.02955885   -0.01888032   -0.00343719    0.15176109
   88    0.02524608    0.00083666   -0.00077091    0.12496647    0.00371681
   89    0.00083666   -0.01167573    0.03403749    0.00371681   -0.03905637
   90   -0.00077091    0.03403749   -0.00609735   -0.00342470    0.15120938
   91   -0.00015287   -0.00003207    0.00003275   -0.00805680   -0.00088532
   92    0.00003275   -0.00130450    0.00117877    0.00098438   -0.03601709
   93   -0.00000917    0.00040472   -0.00012765   -0.00032077    0.01416291
   94    0.00014086    0.00003275   -0.00002670    0.00742359    0.00098438
   95    0.00002124   -0.00063064    0.00072268    0.00071692   -0.01549202
   96   -0.01788516   -0.00128970    0.00156238   -0.09762122   -0.00476355
   97    0.00156238   -0.05246846    0.04563820    0.00642969   -0.19379317
   98   -0.00057578    0.02542213    0.00518051   -0.00268357    0.11848684
   99    0.01647951    0.00156238   -0.00103365    0.08994889    0.00642969
  100    0.00125334   -0.01949094    0.03447399    0.00570184   -0.05619287
  101   -0.04062313   -0.00030317    0.00112767   -0.18225299   -0.00084298
  102    0.00112767   -0.01233375    0.00522577    0.00458246   -0.03429463
  103   -0.00077797    0.03434963    0.03322568   -0.00338600    0.14950064
  104    0.03743044    0.00112767   -0.00011836    0.16792921    0.00458246
  105    0.00153231    0.01364640    0.02488210    0.00661573    0.07262922
  106   -0.00021298    0.00343287   -0.00499632   -0.00204405    0.01676884
  107   -0.00298264   -0.00048739    0.00043796   -0.03676514   -0.00338928
  108    0.00025151   -0.00987373    0.00549633    0.00202290   -0.07416411
  109    0.00004089   -0.00180544    0.00467939    0.00006420   -0.00283463
  110    0.00122552    0.00025151   -0.00012448    0.01510621    0.00202290
  111    0.00034531   -0.00925580    0.00966365    0.00294583   -0.05634461
  112   -0.00198126   -0.00027877    0.00033995   -0.02442177   -0.00169721
  113   -0.00000000    0.00000000   -0.00000000   -0.00000000    0.00000000
  114   -0.00000000    0.00000000   -0.00000000   -0.00000000    0.00000002
  115   -0.00000000    0.00000012   -0.00000011   -0.00000144    0.00005808
  116   -0.00000543    0.00021874   -0.00020213   -0.00008064    0.00324858
  117   -0.00010282    0.00414207   -0.00382742   -0.00062734    0.02527273
  118   -0.00017276    0.00695956   -0.00643088   -0.00093529    0.03767866
  119    0.00000000    0.00000000   -0.00000000    0.00000179    0.00000062
  120    0.00000000   -0.00000001    0.00000001    0.00000062   -0.00002325
  121   -0.00000000    0.00000001   -0.00000001   -0.00000057    0.00002315
  122    0.00002239    0.00000568   -0.00000525    0.00056965    0.00011207
  123    0.00000568   -0.00020622    0.00021137    0.00011207   -0.00394217
  124   -0.00000525    0.00021137   -0.00017278   -0.00010355    0.00417166
  125    0.00262420    0.00025443   -0.00023510    0.01637130    0.00142510
  126    0.00025443   -0.00761935    0.00947124    0.00142510   -0.04100438
  127   -0.00023510    0.00947124   -0.00612124   -0.00131684    0.05304984
  128   -0.00000000   -0.00000000    0.00000000   -0.00000156   -0.00000057
  129    0.00000000   -0.00000000    0.00000000    0.00000056   -0.00002118
  130   -0.00000000    0.00000000   -0.00000000   -0.00000015    0.00000591
  131    0.00000000    0.00000000   -0.00000000    0.00000144    0.00000056
  132    0.00000000   -0.00000000    0.00000000    0.00000034   -0.00001067
  133   -0.00004702   -0.00001177    0.00001196   -0.00121073   -0.00022362
  134    0.00001196   -0.00043825    0.00039804    0.00023454   -0.00832414
  135   -0.00000332    0.00013380   -0.00004787   -0.00006925    0.00278981
  136    0.00004344    0.00001196   -0.00000988    0.00111876    0.00023454
  137    0.00000765   -0.00021331    0.00024085    0.00015704   -0.00389256
  138   -0.00846865   -0.00053574    0.00068971   -0.04610308   -0.00253491
  139    0.00068971   -0.01994303    0.01718759    0.00340191   -0.09436277
  140   -0.00027399    0.01103768    0.00338432   -0.00141349    0.05694330
  141    0.00782533    0.00068971   -0.00042664    0.04260088    0.00340191
  142    0.00058365   -0.00653841    0.01388418    0.00298633   -0.02791722
  143   -0.00000000    0.00000013   -0.00000013   -0.00000418    0.00009057
  144   -0.00000003   -0.00000002    0.00000001   -0.00003884   -0.00001214
  145    0.00000001   -0.00000027    0.00000021    0.00000575   -0.00021554
  146    0.00000000   -0.00000009    0.00000011    0.00000144   -0.00005794
  147    0.00000001    0.00000001   -0.00000001    0.00001604    0.00000575
  148    0.00000001   -0.00000030    0.00000029    0.00000753   -0.00022486
  149   -0.00000002   -0.00000001    0.00000001   -0.00002572   -0.00000740
            11            12            13            14            15
    1   -0.00000000    0.00000000    0.00000000   -0.00000000    0.00000000
    2   -0.00000000    0.00000000    0.00000000   -0.00000000   -0.00000000
    3    0.00000000    0.00000000   -0.00000000    0.00000000    0.00000000
    4    0.00000000    0.00000000    0.00000000    0.00000000    0.00000000
    5    0.00000000   -0.00000000    0.00000000    0.00000000    0.00000000
    6   -0.00000000    0.19380692    0.00000000   -0.00000000    0.04731283
    7    0.00000000    0.00000000    0.19380692   -0.00000000    0.00000000
    8    0.53027386   -0.00000000   -0.00000000    0.19380692    0.00000000
    9    0.00000000    0.68425809    0.00000000   -0.00000000    0.22957764
   10    0.00000000    0.00000000    0.68425809    0.00000000    0.00000000
   11    1.00000000   -0.00000000    0.00000000    0.68425809    0.00000000
   12   -0.00000000    1.00000000    0.00000000    0.00000000    0.62819727
   13    0.00000000    0.00000000    1.00000000    0.00000000    0.00000000
   14    0.68425809    0.00000000    0.00000000    1.00000000    0.00000000
   15    0.00000000    0.62819727    0.00000000    0.00000000    1.00000000
   16    0.00000000    0.00000000    0.62819727    0.00000000    0.00000000
   17    0.22957764    0.00000000    0.00000000    0.62819727    0.00000000
   18    0.00000000    0.32516210    0.00000000    0.00000000    0.82958295
   19    0.00000000    0.00000000    0.32516210    0.00000000    0.00000000
   20    0.09697824    0.00000000    0.00000000    0.32516210    0.00000000
   21    0.00000000    0.00000000   -0.00000000    0.00000000    0.00000000
   22    0.00000000    0.00000000    0.00000000    0.00000000    0.00000000
   23    0.00000000    0.00000000    0.00000000    0.00000000   -0.00000000
   24    0.00000000    0.00000000    0.00000000   -0.00000000    0.00000000
   25    0.00000000   -0.00000000    0.00000000    0.00000000    0.00000000
   26    0.00000000    0.00000000    0.00000000    0.00000000    0.00000000
   27    0.00000000    0.00000000    0.00000000    0.00000000    0.00000000
   28   -0.00000000    0.00000000    0.00000000    0.00000000    0.00000000
   29    0.00000000    0.00000000    0.00000000    0.00000000   -0.00000000
   30    0.00000000    0.00000000    0.00000000    0.00000000    0.00000000
   31    0.00000000   -0.00000000    0.00000000    0.00000000    0.00000000
   32    0.00000000    0.00000000   -0.00000000   -0.00000000    0.00000000
   33    0.00000000    0.00000000    0.00000000   -0.00000000    0.00000000
   34    0.00000000   -0.00000000    0.00000000    0.00000000    0.00000000
   35    0.00000000    0.00000000    0.00000000    0.00000000   -0.00000000
   36   -0.00000000   -0.00000001    0.00000040   -0.00000037   -0.00003260
   37   -0.00000000   -0.00000005    0.00000172   -0.00000159   -0.00011204
   38   -0.00000000   -0.00000062    0.00002364   -0.00002186   -0.00048342
   39   -0.00000003   -0.00000588    0.00022275   -0.00020593   -0.00103464
   40   -0.00007201   -0.00008802    0.00333646   -0.00308455   -0.00228737
   41   -0.00516567   -0.00083013    0.03146834   -0.02909245   -0.00481181
   42   -0.00000000    0.00000138    0.00000048   -0.00000044    0.00152947
   43    0.00000000    0.00000048   -0.00001668    0.00001671    0.00016230
   44   -0.00000000   -0.00000044    0.00001671   -0.00001406   -0.00015005
   45   -0.00000000    0.00003418    0.00000975   -0.00000902    0.00776139
   46    0.00000005    0.00000975   -0.00033527    0.00034180    0.00077189
   47   -0.00000004   -0.00000902    0.00034180   -0.00028155   -0.00071361
   48   -0.00001091    0.00150516    0.00027922   -0.00025814    0.03501205
   49    0.00041365    0.00027922   -0.00907215    0.00978553    0.00293213
   50   -0.00033927   -0.00025814    0.00978553   -0.00753418   -0.00271075
   51   -0.00066831    0.03409493    0.00279408   -0.00258312    0.15337660
   52    0.02533399    0.00279408   -0.07174848    0.09792028    0.00817885
   53   -0.01585422   -0.00258312    0.09792028   -0.05635858   -0.00756134
   54    0.00000000   -0.00000107   -0.00000036    0.00000036   -0.00048464
   55    0.00000000    0.00000036   -0.00001250    0.00001140    0.00004798
   56   -0.00000000   -0.00000010    0.00000361   -0.00000161   -0.00001802
   57   -0.00000000    0.00000099    0.00000036   -0.00000030    0.00044805
   58    0.00000000    0.00000022   -0.00000621    0.00000675    0.00003875
   59    0.00000000   -0.00004157   -0.00001135    0.00001151   -0.00457214
   60    0.00000003    0.00001151   -0.00039770    0.00036159    0.00042747
   61   -0.00000000   -0.00000319    0.00012077   -0.00004456   -0.00016442
   62   -0.00000000    0.00003843    0.00001151   -0.00000954    0.00422694
   63    0.00000002    0.00000733   -0.00019398    0.00021807    0.00035196
   64    0.00010887   -0.00708473   -0.00100831    0.00110574   -0.05634456
   65    0.00332208    0.00110574   -0.03533702    0.03163504    0.00417601
   66   -0.00031774   -0.00035308    0.01338428   -0.00097859   -0.00178408
   67   -0.00008764    0.00654983    0.00110574   -0.00083453    0.05209049
   68    0.00206203    0.00078533   -0.01553753    0.02094343    0.00374646
   69   -0.00000000   -0.00000066    0.00001311   -0.00001582   -0.00003283
   70    0.00000000   -0.00000598   -0.00000189    0.00000172   -0.00056308
   71    0.00000000    0.00000090   -0.00003168    0.00002205    0.00002969
   72    0.00000000    0.00000022   -0.00000828    0.00001377   -0.00000162
   73   -0.00000000    0.00000247    0.00000090   -0.00000058    0.00023273
   74    0.00000000    0.00000118   -0.00003276    0.00003260    0.00004460
   75    0.00000000   -0.00000396   -0.00000115    0.00000125   -0.00037272
   76   -0.00023650   -0.00032115    0.01417952   -0.01306511   -0.00044898
   77   -0.00147040   -0.00107655    0.04753231   -0.04379661   -0.00146915
   78   -0.03177902   -0.00438367    0.19355073   -0.17833903   -0.00553139
   79   -0.09096136   -0.00684221    0.30210169   -0.27835866   -0.00882404
   80   -0.09895390   -0.00682922    0.30152811   -0.27783016   -0.01074848
   81   -0.06133154   -0.00465909    0.20571122   -0.18954379   -0.00958288
   82   -0.00065373    0.05017810    0.00271127   -0.00249819    0.06466182
   83    0.02886369    0.00271127   -0.06947029    0.11030147    0.00113531
   84   -0.02066861   -0.00249819    0.11030147   -0.05139305   -0.00104609
   85   -0.00343719    0.18772629    0.00743774   -0.00685319    0.23767866
   86    0.15176109    0.00743774   -0.14050095    0.30258615    0.00373254
   87   -0.08414762   -0.00685319    0.30258615   -0.09091030   -0.00343919
   88   -0.00342470    0.34938065    0.00794832   -0.00732364    0.53996392
   89    0.15120938    0.00794832   -0.00137860    0.32335796    0.00655342
   90   -0.01427476   -0.00732364    0.32335796    0.05161633   -0.00603837
   91    0.00098438   -0.03670175   -0.00122083    0.00189177   -0.01516919
   92    0.03196610    0.00189177   -0.04966659    0.04021384    0.00024820
   93   -0.00015316   -0.00089391    0.03946852    0.02228084   -0.00025267
   94   -0.00072399    0.03381725    0.00189177   -0.00091079    0.01397700
   95    0.02172034    0.00185834   -0.00855411    0.04174192    0.00047832
   96    0.00642969   -0.19982669   -0.00368511    0.00756949   -0.09765539
   97    0.16379688    0.00756949   -0.14991960    0.10793330    0.00143368
   98    0.04687366   -0.00426947    0.18850820    0.14551235   -0.00159071
   99   -0.00370979    0.18412174    0.00756949   -0.00244455    0.08998037
  100    0.14187103    0.00863549    0.01874580    0.16702067    0.00299015
  101    0.00458246   -0.40092244    0.00055098    0.00786308   -0.35263879
  102    0.00406049    0.00786308    0.02241523   -0.08122557    0.00380391
  103    0.15329073   -0.00696329    0.30744765    0.35686574   -0.00544363
  104   -0.00009196    0.36941280    0.00786308    0.00183965    0.32492391
  105    0.10111192    0.01334945    0.21281808    0.17349879    0.01005206
  106   -0.03801190   -0.00237175   -0.00863693   -0.02684565   -0.00027079
  107    0.00298609   -0.05679594   -0.00169538    0.00135106   -0.00797245
  108    0.02401447    0.00166831   -0.05028575   -0.02203816    0.00011901
  109    0.03972658   -0.00049554    0.02187950    0.03709529   -0.00011658
  110   -0.00054390    0.02333656    0.00166831    0.00049914    0.00327576
  111    0.06588795    0.00277875   -0.00896221    0.02981123    0.00024996
  112    0.00258630   -0.03772753   -0.00027048    0.00182656   -0.00529582
  113   -0.00000000   -0.00000685    0.00027605   -0.00025508   -0.00022597
  114   -0.00000002   -0.00002752    0.00110876   -0.00102453   -0.00075060
  115   -0.00005367   -0.00026954    0.01085861   -0.01003374   -0.00309114
  116   -0.00300180   -0.00105158    0.04236343   -0.03914531   -0.00563184
  117   -0.02335290   -0.00273197    0.11005914   -0.10169854   -0.00853150
  118   -0.03481642   -0.00334589    0.13479101   -0.12455166   -0.00938156
  119   -0.00000057    0.00126695    0.00019944   -0.00018429    0.01947493
  120    0.00002315    0.00019944   -0.00676252    0.00742409    0.00099993
  121   -0.00001959   -0.00018429    0.00742409   -0.00558822   -0.00092397
  122   -0.00010355    0.01252922    0.00145358   -0.00134316    0.08123948
  123    0.00417166    0.00145358   -0.04599313    0.05411006    0.00373133
  124   -0.00328232   -0.00134316    0.05411006   -0.03743431   -0.00344788
  125   -0.00131684    0.07379298    0.00491163   -0.00453852    0.23551620
  126    0.05304984    0.00491163   -0.12395293    0.18283687    0.00835849
  127   -0.03261326   -0.00453852    0.18283687   -0.09503284   -0.00772354
  128    0.00000056   -0.00131339   -0.00018258    0.00019896   -0.00735810
  129    0.00001935    0.00019896   -0.00679669    0.00608763    0.00035316
  130   -0.00000294   -0.00006285    0.00253188   -0.00022894   -0.00018360
  131   -0.00000048    0.00121362    0.00019896   -0.00015111    0.00679915
  132    0.00001131    0.00014033   -0.00301568    0.00400515    0.00037386
  133    0.00023454   -0.01967043   -0.00187841    0.00218825   -0.05365890
  134    0.00751392    0.00218825   -0.06992429    0.06172892    0.00231058
  135   -0.00063005   -0.00076612    0.03086340    0.00305726   -0.00128029
  136   -0.00018652    0.01817617    0.00218825   -0.00153228    0.04958272
  137    0.00472145    0.00167308   -0.02794237    0.04405023    0.00258300
  138    0.00340191   -0.15282361   -0.00571705    0.00879351   -0.25864686
  139    0.08044281    0.00879351   -0.21281874    0.17428104    0.00818162
  140    0.02131553   -0.00413599    0.16662064    0.09100525   -0.00551719
  141   -0.00199681    0.14121442    0.00879351   -0.00432614    0.23899885
  142    0.06848182    0.00855465   -0.03850922    0.17701658    0.01085017
  143   -0.00010765   -0.00028134    0.00295061   -0.00530756   -0.00028663
  144    0.00001107   -0.00420145   -0.00054194    0.00048421   -0.00649015
  145    0.00015220    0.00030301   -0.01046429    0.00461118    0.00019167
  146    0.00009318    0.00002694   -0.00108543    0.00527157   -0.00006977
  147   -0.00000378    0.00173512    0.00030301   -0.00011446    0.00268032
  148    0.00022279    0.00042780   -0.00879936    0.00974734    0.00032635
  149    0.00000803   -0.00278265   -0.00028968    0.00039590   -0.00429847
            16            17            18            19            20
    1    0.00000000   -0.00000000   -0.00000000   -0.00000000    0.00000000
    2    0.00000000    0.00000000    0.00000000    0.00000000    0.00000000
    3   -0.00000000    0.00000000   -0.00000000    0.00000000    0.00000000
    4    0.00000000    0.00000000    0.00000000    0.00000000    0.00000000
    5    0.00000000    0.00000000    0.00000000    0.00000000   -0.00000000
    6    0.00000000    0.00000000    0.01845057    0.00000000   -0.00000000
    7    0.04731283    0.00000000    0.00000000    0.01845057    0.00000000
    8    0.00000000    0.04731283   -0.00000000    0.00000000    0.01845057
    9    0.00000000    0.00000000    0.09697824    0.00000000    0.00000000
   10    0.22957764    0.00000000    0.00000000    0.09697824    0.00000000
   11    0.00000000    0.22957764    0.00000000    0.00000000    0.09697824
   12    0.00000000    0.00000000    0.32516210    0.00000000    0.00000000
   13    0.62819727    0.00000000    0.00000000    0.32516210    0.00000000
   14    0.00000000    0.62819727    0.00000000    0.00000000    0.32516210
   15    0.00000000    0.00000000    0.82958295    0.00000000    0.00000000
   16    1.00000000    0.00000000    0.00000000    0.82958295   -0.00000000
   17    0.00000000    1.00000000    0.00000000   -0.00000000    0.82958295
   18    0.00000000    0.00000000    1.00000000    0.00000000    0.00000000
   19    0.82958295   -0.00000000    0.00000000    1.00000000    0.00000000
   20   -0.00000000    0.82958295    0.00000000    0.00000000    1.00000000
   21    0.00000000    0.00000000    0.00000000    0.00000000    0.00000000
   22    0.00000000    0.00000000    0.00000000    0.00000000    0.00000000
   23   -0.00000000    0.00000000    0.00000000   -0.00000000    0.00000000
   24    0.00000000    0.00000000    0.00000000    0.00000000    0.00000000
   25   -0.00000000    0.00000000    0.00000000   -0.00000000    0.00000000
   26    0.00000000    0.00000000   -0.00000000   -0.00000000    0.00000000
   27   -0.00000000    0.00000000    0.00000000    0.00000000   -0.00000000
   28    0.00000000   -0.00000000    0.00000000    0.00000000    0.00000000
   29    0.00000000    0.00000000    0.00000000    0.00000000   -0.00000000
   30    0.00000000    0.00000000   -0.00000000    0.00000000    0.00000000
   31   -0.00000000    0.00000000    0.00000000    0.00000000    0.00000000
   32    0.00000000    0.00000000    0.00000000    0.00000000    0.00000000
   33    0.00000000    0.00000000   -0.00000000    0.00000000    0.00000000
   34    0.00000000   -0.00000000    0.00000000    0.00000000    0.00000000
   35    0.00000000    0.00000000    0.00000000    0.00000000    0.00000000
   36    0.00123596   -0.00114265   -0.00009845    0.00373189   -0.00345013
   37    0.00424709   -0.00392643   -0.00033474    0.01268919   -0.01173114
   38    0.01832524   -0.01694167   -0.00136125    0.05160202   -0.04770603
   39    0.03922102   -0.03625980   -0.00265454    0.10062780   -0.09303031
   40    0.08670884   -0.08016225   -0.00496154    0.18808075   -0.17388049
   41    0.18240488   -0.16863315   -0.00849059    0.32185897   -0.29755833
   42    0.00016230   -0.00015005    0.00440116    0.00021688   -0.00020050
   43   -0.00461879    0.00568802    0.00021688   -0.00381447    0.00760063
   44    0.00568802   -0.00372482   -0.00020050    0.00760063   -0.00261990
   45    0.00077189   -0.00071361    0.02028995    0.00096964   -0.00089643
   46   -0.02147888    0.02705143    0.00096964   -0.01644127    0.03398163
   47    0.02705143   -0.01722727   -0.00089643    0.03398163   -0.01110046
   48    0.00293213   -0.00271075    0.07507557    0.00329119   -0.00304270
   49   -0.07606115    0.10275859    0.00329119   -0.04959930    0.11534207
   50    0.10275859   -0.05991082   -0.00304270    0.11534207   -0.03147125
   51    0.00817885   -0.00756134    0.25900377    0.00874331   -0.00808319
   52   -0.15644945    0.28663337    0.00874331   -0.07220486    0.30641531
   53    0.28663337   -0.11139994   -0.00808319    0.30641531   -0.02404627
   54   -0.00003908    0.00004798   -0.00065476   -0.00001511    0.00002995
   55   -0.00136954    0.00119552    0.00002995   -0.00052938    0.00039415
   56    0.00068310    0.00014672   -0.00001661    0.00062980    0.00046758
   57    0.00004798   -0.00003154    0.00060532    0.00002995   -0.00001040
   58   -0.00049700    0.00090879    0.00003348    0.00004193    0.00056735
   59   -0.00034144    0.00042747   -0.00583716   -0.00012701    0.00025996
   60   -0.01196607    0.01039651    0.00025996   -0.00445127    0.00326597
   61    0.00623265    0.00157873   -0.00014654    0.00555511    0.00422311
   62    0.00042747   -0.00027426    0.00539645    0.00025996   -0.00008616
   63   -0.00417338    0.00809651    0.00029468    0.00051860    0.00492386
   64   -0.00302755    0.00417601   -0.06215152   -0.00102102    0.00246141
   65   -0.10610252    0.08988743    0.00246141   -0.03578240    0.02403989
   66    0.06763060    0.02788976   -0.00149235    0.05657171    0.04733391
   67    0.00417601   -0.00237122    0.05745902    0.00246141   -0.00063417
   68   -0.02909235    0.07909651    0.00297168    0.01179368    0.04662071
   69    0.00012287   -0.00045913   -0.00001602   -0.00008813   -0.00013269
   70   -0.00004456    0.00003886   -0.00034952   -0.00000795    0.00000590
   71   -0.00089178    0.00014754    0.00001026   -0.00024437   -0.00019364
   72    0.00006122    0.00051540   -0.00000428    0.00016238    0.00020441
   73    0.00002969   -0.00000389    0.00014447    0.00001026    0.00000511
   74   -0.00056155    0.00073601    0.00001782    0.00002450    0.00011175
   75   -0.00001964    0.00003640   -0.00023136    0.00000085    0.00001052
   76    0.01982366   -0.01826567   -0.00025555    0.01128303   -0.01039627
   77    0.06486676   -0.05976869   -0.00084377    0.03725479   -0.03432683
   78    0.24422530   -0.22503094   -0.00336174    0.14842963   -0.13676412
   79    0.38960435   -0.35898424   -0.00588671    0.25991393   -0.23948655
   80    0.47457372   -0.43727562   -0.00859502    0.37949290   -0.34966748
   81    0.42310919   -0.38985584   -0.00950390    0.41962222   -0.38664291
   82    0.00113531   -0.00104609    0.03842235    0.00031818   -0.00029317
   83    0.01456047    0.04618743    0.00031818    0.02438100    0.01294444
   84    0.04618743    0.02213010   -0.00029317    0.01294444    0.02650246
   85    0.00373254   -0.00343919    0.15382521    0.00120680   -0.00111195
   86    0.07296155    0.15184941    0.00120680    0.10056912    0.04909572
   87    0.15184941    0.09784806   -0.00111195    0.04909572    0.10861539
   88    0.00655342   -0.00603837    0.42552456    0.00291092   -0.00268214
   89    0.25076162    0.26660983    0.00291092    0.29706571    0.11842366
   90    0.26660983    0.29445614   -0.00268214    0.11842366    0.31647409
   91    0.00007433    0.00024820   -0.00419035    0.00006003    0.00003215
   92    0.00302398   -0.00507792    0.00003215    0.00244233   -0.00288328
   93    0.01115609    0.01393930   -0.00006183    0.00272992    0.00417338
   94    0.00024820    0.00011501    0.00386102    0.00003215    0.00006530
   95    0.00923165    0.00547651    0.00011236    0.00342129    0.00070934
   96    0.00065660    0.00143368   -0.03100339    0.00045732    0.00022574
   97    0.02671216   -0.03936493    0.00022574    0.01860506   -0.02182546
   98    0.07023391    0.09119279   -0.00045481    0.02008092    0.03098520
   99    0.00143368    0.00089156    0.02856674    0.00022574    0.00049432
  100    0.06335824    0.03163410    0.00082474    0.02560324    0.00498084
  101    0.00386056    0.00380391   -0.16347076    0.00260736    0.00100950
  102    0.15705735   -0.19797946    0.00100950    0.10607409   -0.12242671
  103    0.24035041    0.34147335   -0.00235850    0.10413388    0.16497681
  104    0.00380391    0.00448398    0.15062313    0.00100950    0.00277281
  105    0.26163979    0.08393328    0.00425048    0.13932112    0.02227452
  106   -0.00394322   -0.00124821   -0.00003423   -0.00062586   -0.00007955
  107    0.00004193   -0.00006824   -0.00107196    0.00001544   -0.00001821
  108   -0.00197627   -0.00776878    0.00001197   -0.00008768   -0.00120835
  109    0.00514720    0.00328786   -0.00001732    0.00076481    0.00037485
  110    0.00011901    0.00017595    0.00044045    0.00001197    0.00002737
  111    0.00491497   -0.00150564    0.00002870    0.00087711   -0.00040178
  112    0.00014793    0.00008493   -0.00071206    0.00002640    0.00000541
  113    0.00910335   -0.00841181   -0.00025586    0.01030748   -0.00952448
  114    0.03023835   -0.02794130   -0.00084750    0.03414186   -0.03154828
  115    0.12452816   -0.11506842   -0.00344407    0.13874650   -0.12820667
  116    0.22688190   -0.20964690   -0.00622977    0.25097007   -0.23190523
  117    0.34369630   -0.31758754   -0.00968900    0.39032695   -0.36067591
  118    0.37794173   -0.34923153   -0.01156292    0.46581908   -0.43043331
  119    0.00099993   -0.00092397    0.02181199    0.00052808   -0.00048796
  120   -0.02078313    0.03722280    0.00052808    0.00055121    0.01965783
  121    0.03722280   -0.01489544   -0.00048796    0.01965783    0.00366058
  122    0.00373133   -0.00344788    0.08996566    0.00206346   -0.00190671
  123   -0.06898649    0.13889970    0.00206346    0.00688930    0.07681283
  124    0.13889970   -0.04701613   -0.00190671    0.07681283    0.01903911
  125    0.00835849   -0.00772354    0.26656048    0.00533078   -0.00492583
  126   -0.10100295    0.31114732    0.00533078    0.05193941    0.19843974
  127    0.31114732   -0.05178745   -0.00492583    0.19843974    0.08332747
  128   -0.00019930    0.00035316   -0.00387246    0.00000192    0.00008711
  129   -0.00741918    0.00577875    0.00008711    0.00007134   -0.00063225
  130    0.00739634    0.00495718   -0.00007477    0.00301225    0.00341809
  131    0.00035316   -0.00014344    0.00357829    0.00008711    0.00001569
  132   -0.00032601    0.00710916    0.00014329    0.00197717    0.00175348
  133   -0.00116703    0.00231058   -0.02949446    0.00005117    0.00062962
  134   -0.04344287    0.03229097    0.00062962    0.00190489   -0.00607352
  135    0.05157715    0.03832003   -0.00056202    0.02264126    0.02631092
  136    0.00231058   -0.00080155    0.02725392    0.00062962    0.00015076
  137    0.00338437    0.04651280    0.00107304    0.01579488    0.01267452
  138   -0.00242843    0.00818162   -0.16880858    0.00088489    0.00305620
  139   -0.09039920    0.04569646    0.00305620    0.03294011   -0.05512266
  140    0.22226317    0.20893088   -0.00309554    0.12470556    0.15507317
  141    0.00818162   -0.00113431    0.15598510    0.00305620    0.00136830
  142    0.08062777    0.16469902    0.00584504    0.10231045    0.06152250
  143   -0.00137005   -0.00271099   -0.00006237   -0.00073163   -0.00032279
  144   -0.00016898    0.00013063   -0.00163112    0.00000119   -0.00000751
  145   -0.00503664   -0.00313966    0.00003011   -0.00053877   -0.00145958
  146    0.00281054    0.00398003   -0.00002481    0.00099953    0.00072827
  147    0.00019167    0.00007794    0.00067362    0.00003011    0.00003623
  148   -0.00015039    0.00262955    0.00006016    0.00084046   -0.00015109
  149   -0.00000504    0.00020222   -0.00108030    0.00002764    0.00002408
            21            22            23            24            25
    1    0.00000000   -0.00000000    0.00000000   -0.00000000    0.00000000
    2   -0.00000000    0.00000000    0.00000000    0.00000000    0.00000000
    3    0.00000000    0.00000000    0.00000000    0.00000000    0.00000000
    4    0.00000000    0.00000000    0.00000000   -0.00000000    0.00000000
    5    0.00000000    0.00000000    0.00000000   -0.00000000    0.00000000
    6   -0.00000000    0.00000000    0.00000000    0.00000000   -0.00000000
    7   -0.00000000    0.00000000    0.00000000    0.00000000    0.00000000
    8    0.00000000   -0.00000000    0.00000000   -0.00000000    0.00000000
    9    0.00000000    0.00000000   -0.00000000    0.00000000    0.00000000
   10    0.00000000    0.00000000   -0.00000000    0.00000000   -0.00000000
   11    0.00000000    0.00000000    0.00000000    0.00000000    0.00000000
   12    0.00000000    0.00000000    0.00000000    0.00000000   -0.00000000
   13   -0.00000000    0.00000000    0.00000000    0.00000000    0.00000000
   14    0.00000000    0.00000000    0.00000000   -0.00000000    0.00000000
   15    0.00000000    0.00000000   -0.00000000    0.00000000    0.00000000
   16    0.00000000    0.00000000   -0.00000000    0.00000000   -0.00000000
   17    0.00000000    0.00000000    0.00000000    0.00000000    0.00000000
   18    0.00000000    0.00000000    0.00000000    0.00000000    0.00000000
   19    0.00000000    0.00000000   -0.00000000    0.00000000   -0.00000000
   20    0.00000000    0.00000000    0.00000000    0.00000000    0.00000000
   21    1.00000000    0.00000000    0.00000000    0.00000000    0.00000000
   22    0.00000000    1.00000000    0.00000000    0.00000000    0.00000000
   23    0.00000000    0.00000000    1.00000000    0.00000000    0.00000000
   24    0.00000000    0.00000000    0.00000000    1.00000000    0.00000000
   25    0.00000000    0.00000000    0.00000000    0.00000000    1.00000000
   26    0.11221525    0.00000000    0.00000000    0.00000000    0.00000000
   27    0.00000000    0.11221525    0.00000000    0.00000000    0.00000000
   28    0.00000000    0.00000000    0.11221525    0.00000000    0.00000000
   29    0.00000000    0.00000000    0.00000000    0.11221525    0.00000000
   30    0.00000000    0.00000000    0.00000000    0.00000000    0.11221525
   31    0.01153668    0.00000000    0.00000000    0.00000000    0.00000000
   32    0.00000000    0.01153668    0.00000000    0.00000000   -0.00000000
   33    0.00000000    0.00000000    0.01153668    0.00000000   -0.00000000
   34    0.00000000    0.00000000    0.00000000    0.01153668    0.00000000
   35    0.00000000   -0.00000000    0.00000000    0.00000000    0.01153668
   36   -0.00000000   -0.00000000    0.00000000    0.00000000   -0.00000000
   37   -0.00000000   -0.00000000    0.00000000    0.00000000   -0.00000000
   38   -0.00000000   -0.00000000    0.00000000    0.00000000   -0.00000000
   39   -0.00000000   -0.00000000    0.00000000    0.00000000   -0.00000000
   40   -0.00000004   -0.00000132    0.00000029    0.00000003   -0.00000071
   41   -0.00000604   -0.00021165    0.00004684    0.00000558   -0.00011439
   42    0.00000000   -0.00000000    0.00000000   -0.00000000   -0.00000000
   43    0.00000000    0.00000000   -0.00000000   -0.00000000    0.00000000
   44   -0.00000000   -0.00000000    0.00000000    0.00000000   -0.00000000
   45    0.00000000   -0.00000000    0.00000000   -0.00000000   -0.00000000
   46    0.00000000    0.00000000   -0.00000000   -0.00000000    0.00000000
   47   -0.00000000   -0.00000000    0.00000000    0.00000000   -0.00000000
   48    0.00000091   -0.00000029    0.00000008   -0.00000084   -0.00000018
   49    0.00000029    0.00001006   -0.00000295   -0.00000029    0.00000497
   50   -0.00000029   -0.00000916    0.00000125    0.00000024   -0.00000545
   51    0.00025942   -0.00002461    0.00000941   -0.00023984   -0.00002016
   52    0.00001976    0.00069257   -0.00035666   -0.00002461    0.00024415
   53   -0.00002461   -0.00060249   -0.00008680    0.00001589   -0.00046620
   54   -0.00000000    0.00000000   -0.00000000    0.00000000    0.00000000
   55    0.00000000    0.00000000   -0.00000000   -0.00000000    0.00000000
   56   -0.00000000   -0.00000000    0.00000000    0.00000000   -0.00000000
   57    0.00000000   -0.00000000    0.00000000   -0.00000000   -0.00000000
   58    0.00000000    0.00000000   -0.00000000   -0.00000000    0.00000000
   59   -0.00000000    0.00000000   -0.00000000    0.00000000    0.00000000
   60    0.00000000    0.00000000   -0.00000000   -0.00000000    0.00000000
   61   -0.00000000   -0.00000000    0.00000000    0.00000000   -0.00000000
   62    0.00000000   -0.00000000    0.00000000   -0.00000000   -0.00000000
   63    0.00000000    0.00000000   -0.00000000   -0.00000000    0.00000000
   64   -0.00001617    0.00000431   -0.00000160    0.00001646    0.00000257
   65    0.00000431    0.00013490   -0.00002727   -0.00000392    0.00007341
   66   -0.00000160   -0.00002727   -0.00001663    0.00000072   -0.00003027
   67    0.00001646   -0.00000392    0.00000072   -0.00001358   -0.00000281
   68    0.00000257    0.00007341   -0.00003027   -0.00000281    0.00003234
   69   -0.00000000   -0.00000000    0.00000000    0.00000000   -0.00000000
   70   -0.00000000    0.00000000   -0.00000000    0.00000000    0.00000000
   71    0.00000000    0.00000000   -0.00000000   -0.00000000    0.00000000
   72    0.00000000    0.00000000   -0.00000000   -0.00000000    0.00000000
   73    0.00000000   -0.00000000    0.00000000   -0.00000000   -0.00000000
   74    0.00000000    0.00000000   -0.00000000   -0.00000000    0.00000000
   75   -0.00000000    0.00000000   -0.00000000    0.00000000    0.00000000
   76   -0.00000000   -0.00000000    0.00000000    0.00000000   -0.00000000
   77   -0.00000000   -0.00000001    0.00000000    0.00000000   -0.00000000
   78   -0.00002662   -0.00108304    0.00023666    0.00002453   -0.00058741
   79   -0.00014957   -0.00608498    0.00132966    0.00013782   -0.00330031
   80   -0.00008568   -0.00348563    0.00076167    0.00007895   -0.00189050
   81   -0.00002646   -0.00107640    0.00023521    0.00002438   -0.00058381
   82    0.00007039   -0.00001487    0.00000417   -0.00006486   -0.00000967
   83    0.00001454    0.00059140   -0.00018433   -0.00001487    0.00028536
   84   -0.00001487   -0.00053423    0.00005692    0.00001210   -0.00032813
   85    0.00381974   -0.00032553    0.00012119   -0.00351954   -0.00026325
   86    0.00026660    0.01084599   -0.00535065   -0.00032553    0.00396768
   87   -0.00032553   -0.00941555   -0.00117866    0.00021325   -0.00718276
   88    0.00464343   -0.00014489    0.00009243   -0.00427849   -0.00018383
   89    0.00005200    0.00211563   -0.00408088   -0.00014489   -0.00117723
   90   -0.00014489   -0.00124762   -0.00365610    0.00002826   -0.00319706
   91   -0.00005258    0.00001405   -0.00000483    0.00005258    0.00000827
   92    0.00001405    0.00051867   -0.00010500   -0.00001275    0.00028354
   93   -0.00000483   -0.00010500   -0.00005004    0.00000238   -0.00010667
   94    0.00005258   -0.00001275    0.00000238   -0.00004396   -0.00000882
   95    0.00000827    0.00028354   -0.00010667   -0.00000882    0.00012953
   96   -0.00721136    0.00067142   -0.00043302    0.00856982    0.00046967
   97    0.00067142    0.02008734   -0.00273911   -0.00058677    0.01051803
   98   -0.00043302   -0.00273911   -0.00988505    0.00006204   -0.00955463
   99    0.00856982   -0.00058677    0.00006204   -0.00580686   -0.00062730
  100    0.00046967    0.01051803   -0.00955463   -0.00062730    0.00313066
  101   -0.00181290    0.00005131   -0.00022371    0.00637056    0.00010614
  102    0.00005131    0.00027343    0.00194088   -0.00002362   -0.00205688
  103   -0.00022371    0.00194088   -0.00465463   -0.00004396   -0.00493607
  104    0.00637056   -0.00002362   -0.00004396   -0.00076883   -0.00024218
  105    0.00010614   -0.00205688   -0.00493607   -0.00024218    0.00052430
  106   -0.00012334   -0.00275079    0.00166987    0.00014833   -0.00109180
  107   -0.00184179    0.00032260   -0.00008986    0.00166165    0.00022305
  108    0.00019468    0.00499354    0.00081311   -0.00012462    0.00383308
  109    0.00000256    0.00236854   -0.00194684   -0.00005364    0.00005645
  110    0.00091958   -0.00012462   -0.00001842   -0.00050592   -0.00012869
  111    0.00022305    0.00628293   -0.00198287   -0.00021794    0.00306971
  112   -0.00107986    0.00021591   -0.00011362    0.00125943    0.00012361
  113   -0.00000000   -0.00000000    0.00000000    0.00000000   -0.00000000
  114   -0.00000000   -0.00000000    0.00000000    0.00000000   -0.00000000
  115   -0.00000000   -0.00000002    0.00000001    0.00000000   -0.00000001
  116   -0.00000267   -0.00009956    0.00002199    0.00000247   -0.00005384
  117   -0.00002798   -0.00104164    0.00023009    0.00002586   -0.00056329
  118   -0.00002495   -0.00092868    0.00020514    0.00002305   -0.00050220
  119    0.00000000   -0.00000000    0.00000000   -0.00000000   -0.00000000
  120    0.00000000    0.00000000   -0.00000000   -0.00000000    0.00000000
  121   -0.00000000   -0.00000000    0.00000000    0.00000000   -0.00000000
  122    0.00001132   -0.00000284    0.00000079   -0.00001046   -0.00000182
  123    0.00000279    0.00010391   -0.00003186   -0.00000284    0.00005049
  124   -0.00000284   -0.00009435    0.00001120    0.00000234   -0.00005718
  125    0.00074959   -0.00006867    0.00002594   -0.00069265   -0.00005579
  126    0.00005566    0.00207192   -0.00104489   -0.00006867    0.00074449
  127   -0.00006867   -0.00180470   -0.00023714    0.00004480   -0.00138229
  128   -0.00000000    0.00000000   -0.00000000    0.00000000    0.00000000
  129    0.00000000    0.00000000   -0.00000000   -0.00000000    0.00000000
  130   -0.00000000   -0.00000000   -0.00000000    0.00000000   -0.00000000
  131    0.00000000   -0.00000000    0.00000000   -0.00000000   -0.00000000
  132    0.00000000    0.00000000   -0.00000000   -0.00000000    0.00000000
  133   -0.00002302    0.00000631   -0.00000225    0.00002323    0.00000373
  134    0.00000631    0.00021183   -0.00004318   -0.00000574    0.00011538
  135   -0.00000225   -0.00004318   -0.00002262    0.00000107   -0.00004527
  136    0.00002323   -0.00000574    0.00000107   -0.00001935   -0.00000403
  137    0.00000373    0.00011538   -0.00004527   -0.00000403    0.00005184
  138   -0.00163418    0.00013577   -0.00010637    0.00208769    0.00010151
  139    0.00013577    0.00341629   -0.00033547   -0.00011724    0.00168630
  140   -0.00010637   -0.00033547   -0.00236564    0.00000833   -0.00214120
  141    0.00208769   -0.00011724    0.00000833   -0.00130396   -0.00014573
  142    0.00010151    0.00168630   -0.00214120   -0.00014573    0.00040417
  143   -0.00000000   -0.00000002    0.00000001    0.00000000   -0.00000001
  144   -0.00000000    0.00000000   -0.00000000    0.00000000    0.00000000
  145    0.00000000    0.00000003   -0.00000000   -0.00000000    0.00000002
  146    0.00000000    0.00000001   -0.00000001   -0.00000000    0.00000000
  147    0.00000000   -0.00000000    0.00000000   -0.00000000   -0.00000000
  148    0.00000000    0.00000004   -0.00000001   -0.00000000    0.00000002
  149   -0.00000000    0.00000000   -0.00000000    0.00000000    0.00000000
            26            27            28            29            30
    1    0.00000000    0.00000000    0.00000000    0.00000000    0.00000000
    2    0.00000000    0.00000000    0.00000000   -0.00000000    0.00000000
    3    0.00000000    0.00000000    0.00000000    0.00000000    0.00000000
    4    0.00000000    0.00000000    0.00000000    0.00000000    0.00000000
    5    0.00000000    0.00000000    0.00000000    0.00000000    0.00000000
    6    0.00000000    0.00000000    0.00000000    0.00000000   -0.00000000
    7   -0.00000000    0.00000000   -0.00000000    0.00000000   -0.00000000
    8    0.00000000    0.00000000    0.00000000   -0.00000000    0.00000000
    9    0.00000000    0.00000000    0.00000000   -0.00000000    0.00000000
   10    0.00000000   -0.00000000   -0.00000000    0.00000000   -0.00000000
   11    0.00000000    0.00000000   -0.00000000    0.00000000    0.00000000
   12    0.00000000    0.00000000    0.00000000    0.00000000    0.00000000
   13    0.00000000    0.00000000    0.00000000    0.00000000    0.00000000
   14    0.00000000    0.00000000    0.00000000    0.00000000    0.00000000
   15    0.00000000    0.00000000    0.00000000   -0.00000000    0.00000000
   16    0.00000000   -0.00000000    0.00000000    0.00000000    0.00000000
   17    0.00000000    0.00000000   -0.00000000    0.00000000    0.00000000
   18   -0.00000000    0.00000000    0.00000000    0.00000000   -0.00000000
   19   -0.00000000    0.00000000    0.00000000    0.00000000    0.00000000
   20    0.00000000   -0.00000000    0.00000000   -0.00000000    0.00000000
   21    0.11221525    0.00000000    0.00000000    0.00000000    0.00000000
   22    0.00000000    0.11221525    0.00000000    0.00000000    0.00000000
   23    0.00000000    0.00000000    0.11221525    0.00000000    0.00000000
   24    0.00000000    0.00000000    0.00000000    0.11221525    0.00000000
   25    0.00000000    0.00000000    0.00000000    0.00000000    0.11221525
   26    1.00000000    0.00000000    0.00000000    0.00000000    0.00000000
   27    0.00000000    1.00000000    0.00000000    0.00000000    0.00000000
   28    0.00000000    0.00000000    1.00000000    0.00000000    0.00000000
   29    0.00000000    0.00000000    0.00000000    1.00000000    0.00000000
   30    0.00000000    0.00000000    0.00000000    0.00000000    1.00000000
   31    0.44122925    0.00000000    0.00000000    0.00000000    0.00000000
   32    0.00000000    0.44122925    0.00000000    0.00000000    0.00000000
   33    0.00000000    0.00000000    0.44122925    0.00000000    0.00000000
   34    0.00000000    0.00000000    0.00000000    0.44122925    0.00000000
   35    0.00000000    0.00000000    0.00000000    0.00000000    0.44122925
   36   -0.00000000   -0.00000000    0.00000000    0.00000000   -0.00000000
   37   -0.00000000   -0.00000002    0.00000000    0.00000000   -0.00000001
   38   -0.00000003   -0.00000116    0.00000026    0.00000003   -0.00000063
   39   -0.00000123   -0.00004311    0.00000954    0.00000114   -0.00002330
   40   -0.00005371   -0.00188247    0.00041658    0.00004966   -0.00101740
   41   -0.00055519   -0.01945694    0.00430567    0.00051327   -0.01051564
   42    0.00000005   -0.00000002    0.00000001   -0.00000005   -0.00000001
   43    0.00000002    0.00000084   -0.00000023   -0.00000002    0.00000043
   44   -0.00000002   -0.00000077    0.00000013    0.00000002   -0.00000044
   45    0.00000585   -0.00000208    0.00000055   -0.00000541   -0.00000128
   46    0.00000210    0.00007344   -0.00002088   -0.00000208    0.00003673
   47   -0.00000208   -0.00006704    0.00000983    0.00000177   -0.00003943
   48    0.00095183   -0.00019617    0.00005799   -0.00087997   -0.00013128
   49    0.00018693    0.00655109   -0.00219835   -0.00019617    0.00306153
   50   -0.00019617   -0.00591736    0.00049926    0.00015610   -0.00371553
   51    0.01927448   -0.00157723    0.00064327   -0.01781924   -0.00136207
   52    0.00119639    0.04192821   -0.02438496   -0.00157723    0.01299393
   53   -0.00157723   -0.03595544   -0.00839202    0.00094850   -0.02987372
   54   -0.00000004    0.00000002   -0.00000001    0.00000004    0.00000001
   55    0.00000002    0.00000060   -0.00000013   -0.00000002    0.00000032
   56   -0.00000001   -0.00000013   -0.00000002    0.00000000   -0.00000010
   57    0.00000004   -0.00000002    0.00000000   -0.00000003   -0.00000001
   58    0.00000001    0.00000032   -0.00000010   -0.00000001    0.00000016
   59   -0.00000671    0.00000255   -0.00000082    0.00000663    0.00000147
   60    0.00000255    0.00008254   -0.00001727   -0.00000233    0.00004492
   61   -0.00000082   -0.00001727   -0.00000553    0.00000046   -0.00001561
   62    0.00000663   -0.00000233    0.00000046   -0.00000567   -0.00000154
   63    0.00000147    0.00004492   -0.00001561   -0.00000154    0.00002111
   64   -0.00499094    0.00091938   -0.00041097    0.00532249    0.00057317
   65    0.00091938    0.02720295   -0.00513559   -0.00082778    0.01473650
   66   -0.00041097   -0.00513559   -0.00593551    0.00013548   -0.00778413
   67    0.00532249   -0.00082778    0.00013548   -0.00415442   -0.00067104
   68    0.00057317    0.01473650   -0.00778413   -0.00067104    0.00583494
   69   -0.00000006   -0.00000164    0.00000063    0.00000007   -0.00000075
   70   -0.00000048    0.00000021   -0.00000005    0.00000044    0.00000013
   71    0.00000011    0.00000301   -0.00000017   -0.00000008    0.00000193
   72    0.00000002    0.00000129   -0.00000068   -0.00000003    0.00000040
   73    0.00000022   -0.00000008    0.00000000   -0.00000016   -0.00000006
   74    0.00000013    0.00000370   -0.00000098   -0.00000012    0.00000190
   75   -0.00000030    0.00000014   -0.00000005    0.00000031    0.00000008
   76   -0.00039492   -0.01606634    0.00351075    0.00036388   -0.00871390
   77   -0.00135131   -0.05497490    0.01201289    0.00124511   -0.02981673
   78   -0.00532397   -0.21659268    0.04732893    0.00490554   -0.11747335
   79   -0.00634151   -0.25798887    0.05637465    0.00584311   -0.13992540
   80   -0.00356677   -0.14510532    0.03170781    0.00328645   -0.07870076
   81   -0.00134284   -0.05463034    0.01193760    0.00123731   -0.02962985
   82    0.06304950   -0.00440736    0.00178894   -0.05809426   -0.00382086
   83    0.00335284    0.13640224   -0.07898657   -0.00440736    0.04238535
   84   -0.00440736   -0.11614461   -0.02801631    0.00263053   -0.09724825
   85    0.19180455   -0.00886728    0.00444857   -0.17673008   -0.00915841
   86    0.00527456    0.21458275   -0.19641618   -0.00886728    0.02032272
   87   -0.00886728   -0.16872098   -0.12547406    0.00382131   -0.19565642
   88    0.19067106   -0.00454586    0.00348806   -0.17568568   -0.00678652
   89    0.00061262    0.02492293   -0.15400715   -0.00454586   -0.08192289
   90   -0.00454586    0.00584573   -0.16257155   -0.00013240   -0.10030430
[...]
                                        -0.0008 -0.0012  0.0009  0.0007  0.0011
                                        -0.0009 -0.0617 -0.0419  0.0312 -0.0341
                                        -0.0229  0.0168  0.0125  0.0089 -0.0071
                                        -0.0200  0.0014 -0.0497 -0.0601 -0.0034
                                        -0.0022  0.0266
 119. (0.00176) RY ( 2) C  4            s(  0.10%)p27.07(  2.76%)d99.99( 97.13%)
                                                  f 0.04(  0.00%)
                                         0.0000 -0.0002  0.0316 -0.0046 -0.0010
                                        -0.0005 -0.0176 -0.0721  0.0176 -0.0227
                                        -0.0958  0.0203 -0.0253 -0.1017  0.0269
                                        -0.3191 -0.0083  0.0006  0.3212  0.0082
                                        -0.0009 -0.0600 -0.0024 -0.0011  0.4501
                                         0.0113 -0.0024  0.7480  0.0189 -0.0013
                                         0.0034  0.0010 -0.0038  0.0018 -0.0024
                                        -0.0016 -0.0025
 120. (0.00176) RY ( 3) C  4            s(  0.04%)p65.02(  2.76%)d99.99( 97.19%)
                                                  f 0.10(  0.00%)
                                         0.0000  0.0000  0.0194 -0.0066  0.0017
                                         0.0001 -0.0340 -0.1394  0.0339  0.0118
                                         0.0468 -0.0130  0.0131  0.0554 -0.0117
                                        -0.6483 -0.0169  0.0019  0.5867  0.0149
                                        -0.0012  0.0525  0.0009 -0.0014 -0.1976
                                        -0.0054 -0.0001 -0.4062 -0.0101  0.0014
                                        -0.0018  0.0017  0.0021 -0.0007 -0.0046
                                        -0.0032  0.0011
 121. (0.00144) RY ( 4) C  4            s( 96.48%)p 0.01(  1.33%)d 0.02(  2.13%)
                                                  f 0.00(  0.06%)
                                         0.0000 -0.0061  0.9700 -0.1542  0.0109
                                        -0.0030  0.0001  0.0078  0.0011  0.0193
                                        -0.0304 -0.0748 -0.0174  0.0375  0.0683
                                         0.0208 -0.0019 -0.0025 -0.0198  0.0018
                                         0.0023 -0.0825 -0.0404 -0.0790 -0.0551
                                        -0.0212 -0.0427  0.0032  0.0099  0.0179
                                         0.0062 -0.0001  0.0144  0.0180  0.0002
                                         0.0002 -0.0081
 122. (0.00000) RY ( 5) C  4            s( 44.73%)p 0.13(  5.95%)d 1.10( 49.32%)
                                                  f 0.00(  0.00%)
 123. (0.00000) RY ( 6) C  4            s( 51.19%)p 0.12(  6.31%)d 0.83( 42.49%)
                                                  f 0.00(  0.00%)
 124. (0.00000) RY ( 7) C  4            s( 38.38%)p 0.58( 22.39%)d 0.77( 29.70%)
                                                  f 0.25(  9.52%)
 125. (0.00000) RY ( 8) C  4            s(  0.09%)p99.99( 25.95%)d99.99( 72.26%)
                                                  f19.44(  1.70%)
 126. (0.00000) RY ( 9) C  4            s(  0.00%)p 1.00( 16.41%)d 2.64( 43.38%)
                                                  f 2.45( 40.21%)
 127. (0.00000) RY (10) C  4            s(  0.01%)p 1.00( 18.62%)d 0.49(  9.18%)
                                                  f 3.88( 72.19%)
 128. (0.00000) RY (11) C  4            s(  0.00%)p 1.00( 28.45%)d 0.86( 24.55%)
                                                  f 1.65( 47.00%)
 129. (0.00000) RY (12) C  4            s(  0.00%)p 1.00(  0.79%)d40.12( 31.60%)
                                                  f85.85( 67.61%)
 130. (0.00000) RY (13) C  4            s(  0.00%)p 1.00(  2.19%)d21.27( 46.56%)
                                                  f23.40( 51.25%)
 131. (0.00000) RY (14) C  4            s(  0.00%)p 1.00(  3.10%)d 6.64( 20.56%)
                                                  f24.65( 76.34%)
 132. (0.00000) RY (15) C  4            s(  0.00%)p 1.00(  0.31%)d 0.48(  0.15%)
                                                  f99.99( 99.54%)
 133. (0.00000) RY (16) C  4            s(  0.00%)p 1.00(  4.77%)d19.75( 94.25%)
                                                  f 0.20(  0.97%)
 134. (0.00000) RY (17) C  4            s(  0.00%)p 1.00(  2.33%)d 0.50(  1.16%)
                                                  f41.35( 96.50%)
 135. (0.00000) RY (18) C  4            s(  0.01%)p 1.00( 35.84%)d 1.77( 63.61%)
                                                  f 0.02(  0.54%)
 136. (0.00000) RY (19) C  4            s(  0.01%)p99.99( 47.02%)d99.99( 48.97%)
                                                  f99.99(  4.00%)
 137. (0.00000) RY (20) C  4            s(  0.01%)p 1.00(  5.61%)d15.66( 87.83%)
                                                  f 1.17(  6.55%)
 138. (0.00000) RY (21) C  4            s(  0.00%)p 1.00(  4.70%)d20.12( 94.62%)
                                                  f 0.14(  0.67%)
 139. (0.00000) RY (22) C  4            s(  0.44%)p99.99( 81.59%)d29.13( 12.86%)
                                                  f11.56(  5.10%)
 140. (0.00000) RY (23) C  4            s(  0.09%)p16.07(  1.45%)d99.99( 98.20%)
                                                  f 2.85(  0.26%)
 141. (0.00000) RY (24) C  4            s( 59.75%)p 0.09(  5.25%)d 0.36( 21.49%)
                                                  f 0.23( 13.51%)
 142. (0.00000) RY (25) C  4            s(  1.14%)p43.92( 49.88%)d31.05( 35.27%)
                                                  f12.08( 13.72%)
 143. (0.00000) RY (26) C  4            s(  1.91%)p23.05( 43.93%)d21.09( 40.19%)
                                                  f 7.34( 13.98%)
 144. (0.00000) RY (27) C  4            s( 24.58%)p 0.81( 19.82%)d 2.26( 55.58%)
                                                  f 0.00(  0.02%)
 145. (0.00000) RY (28) C  4            s(  9.35%)p 0.12(  1.10%)d 2.42( 22.66%)
                                                  f 7.15( 66.88%)
 146. (0.00000) RY (29) C  4            s( 67.03%)p 0.19( 12.48%)d 0.31( 20.49%)
                                                  f 0.00(  0.01%)
 147. (0.00000) RY (30) C  4            s(  4.35%)p 8.15( 35.47%)d12.13( 52.79%)
                                                  f 1.70(  7.40%)
 148. (0.00000) RY (31) C  4            s(  0.11%)p19.80(  2.21%)d99.99( 97.13%)
                                                  f 4.91(  0.55%)
 149. (0.00000) RY (32) C  4            s(  0.01%)p 1.00( 11.87%)d 7.19( 85.30%)
                                                  f 0.24(  2.83%)


 NHO DIRECTIONALITY AND BOND BENDING (deviation from line of nuclear centers at
                                      the position of maximum hybrid amplitude)

         [Thresholds for printing:  angular deviation  >  1.0 degree]
                                    p- or d-character  > 25.0%
                                    orbital occupancy  >  0.10e

                        Line of Centers        Hybrid 1             Hybrid 2
                        ---------------  -------------------  ------------------
           NBO            Theta   Phi    Theta   Phi    Dev   Theta   Phi    Dev
 ===============================================================================
   9. LP ( 1) O  2          --     --    132.8   91.7   --      --     --    --
  10. LP ( 2) O  2          --     --     86.1  179.3   --      --     --    --
  11. LP ( 3) O  2          --     --     42.2   85.0   --      --     --    --
  15. BD ( 2) C  3- C  4  132.9   91.6    43.7   83.8  89.4    41.0   83.4  87.8
  16. BD ( 3) C  3- C  4  132.9   91.6    94.3  358.4  89.5    84.7  179.5  87.9


 SECOND ORDER PERTURBATION THEORY ANALYSIS OF FOCK MATRIX IN NBO BASIS

     Threshold for printing:   0.25 kcal/mol
                                                          E(2) E(NL)-E(L) F(L,NL)
      Donor (L) NBO              Acceptor (NL) NBO      kcal/mol   a.u.    a.u.
 ===============================================================================

 within unit  1
    9. LP ( 1) O  2            19. BD*( 1) C  3- C  4      7.45    1.50   0.133
    9. LP ( 1) O  2           118. RY ( 1) C  4            5.43    1.78   0.124
    9. LP ( 1) O  2           121. RY ( 4) C  4            0.29    2.31   0.032
    9. LP ( 1) O  2           146. RY (29) C  4            0.28    7.42   0.058
   10. LP ( 2) O  2            21. BD*( 3) C  3- C  4     59.15    0.50   0.218
   10. LP ( 2) O  2           119. RY ( 2) C  4            0.27    3.07   0.036
   10. LP ( 2) O  2           120. RY ( 3) C  4            1.34    3.07   0.081
   10. LP ( 2) O  2           142. RY (25) C  4            0.40    1.67   0.032
   11. LP ( 3) O  2            20. BD*( 2) C  3- C  4     59.16    0.50   0.218
   11. LP ( 3) O  2           119. RY ( 2) C  4            1.34    3.07   0.081
   11. LP ( 3) O  2           120. RY ( 3) C  4            0.27    3.07   0.036
   11. LP ( 3) O  2           143. RY (26) C  4            0.34    1.76   0.031
   12. BD ( 1)Mg  1- C  3      18. BD*( 1) O  2- C  4      4.74    1.17   0.094
   12. BD ( 1)Mg  1- C  3     118. RY ( 1) C  4            1.87    1.56   0.068
   12. BD ( 1)Mg  1- C  3     121. RY ( 4) C  4            2.31    2.08   0.088
   13. BD ( 1) O  2- C  4      17. BD*( 1)Mg  1- C  3      0.26    0.98   0.020
   13. BD ( 1) O  2- C  4      19. BD*( 1) C  3- C  4      2.21    1.83   0.080
   13. BD ( 1) O  2- C  4      88. RY ( 3) C  3            0.48    2.54   0.044
   14. BD ( 1) C  3- C  4      18. BD*( 1) O  2- C  4      1.33    1.51   0.057
   14. BD ( 1) C  3- C  4      24. RY ( 3)Mg  1            0.50    1.79   0.038
   14. BD ( 1) C  3- C  4      53. RY ( 3) O  2            0.48    1.50   0.034
   15. BD ( 2) C  3- C  4      20. BD*( 2) C  3- C  4      1.66    0.51   0.037
   15. BD ( 2) C  3- C  4      23. RY ( 2)Mg  1            2.34    0.40   0.039
   15. BD ( 2) C  3- C  4      25. RY ( 4)Mg  1            0.39    0.98   0.025
   15. BD ( 2) C  3- C  4      51. RY ( 1) O  2            1.22    1.04   0.045
   16. BD ( 3) C  3- C  4      21. BD*( 3) C  3- C  4      1.66    0.51   0.037
   16. BD ( 3) C  3- C  4      22. RY ( 1)Mg  1            2.34    0.40   0.039
   16. BD ( 3) C  3- C  4      26. RY ( 5)Mg  1            0.39    0.98   0.025
   16. BD ( 3) C  3- C  4      52. RY ( 2) O  2            1.22    1.04   0.045


 NATURAL BOND ORBITALS (Summary):

                                                     Principal Delocalizations
           NBO                 Occupancy    Energy   (geminal,vicinal,remote)
 ===============================================================================
 Molecular unit  1  (C2OMg)
 ------ Lewis --------------------------------------
    1. CR ( 1)Mg  1             1.00000   -45.91107
    2. CR ( 2)Mg  1             0.99999    -4.09238
    3. CR ( 3)Mg  1             0.99999    -1.80278
    4. CR ( 4)Mg  1             0.99997    -1.79968
    5. CR ( 5)Mg  1             0.99997    -1.80014
    6. CR ( 1) O  2             1.00000   -19.11501
    7. CR ( 1) C  3             1.00000   -10.08329
    8. CR ( 1) C  4             1.00000   -10.18981
    9. LP ( 1) O  2             0.98535    -0.47611  19(v),118(v),121(v),146(v)
   10. LP ( 2) O  2             0.86151    -0.13887  21(v),120(v),142(v),119(v)
   11. LP ( 3) O  2             0.86149    -0.13885  20(v),119(v),143(v),120(v)
   12. BD ( 1)Mg  1- C  3       0.99025    -0.25036  18(v),121(v),118(v)
   13. BD ( 1) O  2- C  4       0.99806    -0.81096  19(g),88(v),17(v)
   14. BD ( 1) C  3- C  4       0.99803    -0.58388  18(g),24(v),53(v)
   15. BD ( 2) C  3- C  4       0.98612    -0.14488  23(v),20(g),51(v),25(v)
   16. BD ( 3) C  3- C  4       0.98611    -0.14486  22(v),21(g),52(v),26(v)
 ------ non-Lewis ----------------------------------
   17. BD*( 1)Mg  1- C  3       0.00047     0.17247
   18. BD*( 1) O  2- C  4       0.00738     0.92213
   19. BD*( 1) C  3- C  4       0.00916     1.01940
   20. BD*( 2) C  3- C  4       0.13159     0.36550
   21. BD*( 3) C  3- C  4       0.13157     0.36551
   22. RY ( 1)Mg  1             0.01647     0.25385
   23. RY ( 2)Mg  1             0.01646     0.25392
   24. RY ( 3)Mg  1             0.00044     1.20309
   25. RY ( 4)Mg  1             0.00004     0.83337
   26. RY ( 5)Mg  1             0.00004     0.83762
   27. RY ( 6)Mg  1             0.00001     0.92457
   28. RY ( 7)Mg  1             0.00001     1.93773
   29. RY ( 8)Mg  1             0.00001     1.19155
   30. RY ( 9)Mg  1             0.00001     1.24007
   31. RY (10)Mg  1             0.00001     2.30004
   32. RY (11)Mg  1             0.00000     1.15970
   33. RY (12)Mg  1             0.00000     2.11676
   34. RY (13)Mg  1             0.00000     1.62953
   35. RY (14)Mg  1             0.00000     3.52386
   36. RY (15)Mg  1             0.00000     1.54054
   37. RY (16)Mg  1             0.00000     2.10343
   38. RY (17)Mg  1             0.00000     1.82336
   39. RY (18)Mg  1             0.00000     1.52241
   40. RY (19)Mg  1             0.00000     3.99450
   41. RY (20)Mg  1             0.00000     2.27416
   42. RY (21)Mg  1             0.00000     3.17446
   43. RY (22)Mg  1             0.00000     1.61419
   44. RY (23)Mg  1             0.00000     3.07647
   45. RY (24)Mg  1             0.00000     4.71883
   46. RY (25)Mg  1             0.00000     2.80850
   47. RY (26)Mg  1             0.00000     1.29968
   48. RY (27)Mg  1             0.00000     1.71053
   49. RY (28)Mg  1             0.00000     2.86946
   50. RY (29)Mg  1             0.00000     3.73031
   51. RY ( 1) O  2             0.00188     0.89239
   52. RY ( 2) O  2             0.00188     0.89207
   53. RY ( 3) O  2             0.00051     0.91685
   54. RY ( 4) O  2             0.00015     2.60342
   55. RY ( 5) O  2             0.00000     3.91937
   56. RY ( 6) O  2             0.00000     2.07978
   57. RY ( 7) O  2             0.00000     5.17964
   58. RY ( 8) O  2             0.00000     4.56402
   59. RY ( 9) O  2             0.00000     4.99513
   60. RY (10) O  2             0.00000     3.71442
   61. RY (11) O  2             0.00000     5.59845
   62. RY (12) O  2             0.00000     4.87909
   63. RY (13) O  2             0.00000     3.33006
   64. RY (14) O  2             0.00000     5.00365
   65. RY (15) O  2             0.00000     5.62749
   66. RY (16) O  2             0.00000     3.14319
   67. RY (17) O  2             0.00000     3.46982
   68. RY (18) O  2             0.00000     6.10267
   69. RY (19) O  2             0.00000     3.78374
   70. RY (20) O  2             0.00000     3.33794
   71. RY (21) O  2             0.00000     3.95181
   72. RY (22) O  2             0.00000     2.94782
   73. RY (23) O  2             0.00000     4.68341
   74. RY (24) O  2             0.00000     7.45566
   75. RY (25) O  2             0.00000     1.52041
   76. RY (26) O  2             0.00000     1.43943
   77. RY (27) O  2             0.00000     7.28244
   78. RY (28) O  2             0.00000     2.14044
   79. RY (29) O  2             0.00000     1.97407
   80. RY (30) O  2             0.00000     3.43812
   81. RY (31) O  2             0.00000     3.99446
   82. RY (32) O  2             0.00000    32.74345
   83. RY (33) O  2             0.00000     3.50527
   84. RY (34) O  2             0.00000     4.53081
   85. RY (35) O  2             0.00000     3.80074
   86. RY ( 1) C  3             0.00066     1.12760
   87. RY ( 2) C  3             0.00066     1.12782
   88. RY ( 3) C  3             0.00044     1.73104
   89. RY ( 4) C  3             0.00006     1.88692
   90. RY ( 5) C  3             0.00000     2.98727
   91. RY ( 6) C  3             0.00000     2.86716
   92. RY ( 7) C  3             0.00000     3.10887
   93. RY ( 8) C  3             0.00000     2.11756
   94. RY ( 9) C  3             0.00000     1.77623
   95. RY (10) C  3             0.00000     2.40646
   96. RY (11) C  3             0.00000     1.78930
   97. RY (12) C  3             0.00000     3.17510
   98. RY (13) C  3             0.00000     3.14918
   99. RY (14) C  3             0.00000     3.18276
  100. RY (15) C  3             0.00000     2.83829
  101. RY (16) C  3             0.00000     2.59639
  102. RY (17) C  3             0.00000     1.39065
  103. RY (18) C  3             0.00000     2.73178
  104. RY (19) C  3             0.00000     2.20514
  105. RY (20) C  3             0.00000     1.95644
  106. RY (21) C  3             0.00000     1.79676
  107. RY (22) C  3             0.00000     4.95903
  108. RY (23) C  3             0.00000     5.57252
  109. RY (24) C  3             0.00000     5.09355
  110. RY (25) C  3             0.00000     1.98026
  111. RY (26) C  3             0.00000     1.93029
  112. RY (27) C  3             0.00000     3.33066
  113. RY (28) C  3             0.00000     3.93697
  114. RY (29) C  3             0.00000     3.58154
  115. RY (30) C  3             0.00000     3.03553
  116. RY (31) C  3             0.00000    10.76662
  117. RY (32) C  3             0.00000     2.11244
  118. RY ( 1) C  4             0.00828     1.30860
  119. RY ( 2) C  4             0.00176     2.93300
  120. RY ( 3) C  4             0.00176     2.93348
  121. RY ( 4) C  4             0.00144     1.83232
  122. RY ( 5) C  4             0.00000     4.56988
  123. RY ( 6) C  4             0.00000     3.71534
  124. RY ( 7) C  4             0.00000     1.83570
  125. RY ( 8) C  4             0.00000     1.47741
  126. RY ( 9) C  4             0.00000     3.01283
  127. RY (10) C  4             0.00000     3.32799
  128. RY (11) C  4             0.00000     2.68386
  129. RY (12) C  4             0.00000     3.16823
  130. RY (13) C  4             0.00000     3.29516
  131. RY (14) C  4             0.00000     3.07686
  132. RY (15) C  4             0.00000     3.14998
  133. RY (16) C  4             0.00000     1.21352
  134. RY (17) C  4             0.00000     3.15887
  135. RY (18) C  4             0.00000     2.44775
  136. RY (19) C  4             0.00000     2.31033
  137. RY (20) C  4             0.00000     2.48468
  138. RY (21) C  4             0.00000     1.00656
  139. RY (22) C  4             0.00000     1.88476
  140. RY (23) C  4             0.00000     1.52265
  141. RY (24) C  4             0.00000     3.20277
  142. RY (25) C  4             0.00000     1.52775
  143. RY (26) C  4             0.00000     1.61842
  144. RY (27) C  4             0.00000     3.75241
  145. RY (28) C  4             0.00000     5.31123
  146. RY (29) C  4             0.00000     6.94173
  147. RY (30) C  4             0.00000     4.13545
  148. RY (31) C  4             0.00000     1.30791
  149. RY (32) C  4             0.00000     1.35178
          -------------------------------
                 Total Lewis   15.66683  ( 97.9177%)
           Valence non-Lewis    0.28017  (  1.7510%)
           Rydberg non-Lewis    0.05301  (  0.3313%)
          -------------------------------
               Total unit  1   16.00000  (100.0000%)
              Charge unit  1    0.00000

 $CHOOSE
  ALPHA
   LONE 1 1 2 3 3 1 END
   BOND S 2 4 T 3 4 END
  END
  BETA
   LONE 2 3 END
   BOND S 1 3 S 2 4 T 3 4 END
  END
 $END

 NBO analysis completed in 0.55 CPU seconds (9 wall seconds)
 Maximum scratch memory used by NBO was 686607 words (5.24 MB)
 Total job time:  13.87s(wall), 123.64s(cpu) 
 Fri Oct 29 07:16:21 2021

        *************************************************************
        *                                                           *
        *  Thank you very much for using Q-Chem.  Have a nice day.  *
        *                                                           *
        *************************************************************


