srun --cpu_bind=cores --ntasks=16 --nodes=1-1 --cpus-per-task 4 --nodelist nid12948 /global/project/projectdirs/jcesr/qchem/qc5.x/qc5.0.1/dist/exe/qcprog.cori.haswell.exe .pt_n2_gs_rimp2_pvqz_90.0.in.52543.qcin.1 /global/cscratch1/sd/bwood/qchem/chain_dp/qchem52543/

Process 0 of 16 is on nid12948 - thread support 0
Process 1 of 16 is on nid12948 - thread support 0
Process 2 of 16 is on nid12948 - thread support 0
Process 15 of 16 is on nid12948 - thread support 0
Process 3 of 16 is on nid12948 - thread support 0
Process 5 of 16 is on nid12948 - thread support 0
Process 4 of 16 is on nid12948 - thread support 0
Process 6 of 16 is on nid12948 - thread support 0
initial socket setup ...start
initial socket setup ...done 
now start server 0 ... 
nid12948 10.128.50
Q-Chem Developer Version! Running on 10.128.50.*
                  Welcome to Q-Chem
     A Quantum Leap Into The Future Of Chemistry


 Q-Chem 5.0, Q-Chem, Inc., Pleasanton, CA (2017)

 Yihan Shao,  Zhengting Gan,  E. Epifanovsky,  A. T. B. Gilbert,  M. Wormit,  
 J. Kussmann,  A. W. Lange,  A. Behn,  Jia Deng,  Xintian Feng,  D. Ghosh,  
 M. Goldey,  P. R. Horn,  L. D. Jacobson,  I. Kaliman,  T. Kus,  A. Landau,  
 Jie Liu,  E. I. Proynov,  R. M. Richard,  R. P. Steele,  E. J. Sundstrom,  
 H. L. Woodcock III,  P. M. Zimmerman,  D. Zuev,  B. Albrecht,  E. Alguire,  
 S. A. Baeppler,  Z. Benda,  Y. A. Bernard,  E. J. Berquist,  K. B. Bravaya,  
 D. Casanova,  Chun-Min Chang,  Yunqing Chen,  A. Chien,  K. D. Closser,  
 M. P. Coons,  S. Dasgupta,  M. Diedenhofen,  Hainam Do,  R. G. Edgar,  
 Po-Tung Fang,  S. Fatehi,  Qingguo Feng,  Qinghui Ge,  A. Ghysels,  
 J. Gomes,  J. Gonthier,  A. Gunina,  M. W. D. Hanson-Heine,  
 P. H. P. Harbach,  A. W. Hauser,  J. E. Herr,  E. G. Hohenstein,  
 Z. C. Holden,  Kerwin Hui,  T.-C. Jagau,  Hyunjun Ji,  B. Kaduk,  
 K. Khistyaev,  Jaehoon Kim,  P. Klunzinger,  K. Koh,  D. Kosenkov,  
 T. Kowalczyk,  C. M. Krauter,  A. Kunitsa,  Ka Un Lao,  A. Laurent,  
 K. V. Lawler,  Joonho Lee,  D. Lefrancois,  S. Lehtola,  D. S. Levine,  
 Yi-Pei Li,  You-Sheng Lin,  Fenglai Liu,  E. Livshits,  A. Luenser,  
 P. Manohar,  E. Mansoor,  S. F. Manzer,  Shan-Ping Mao,  Yuezhi Mao,  
 N. Mardirossian,  A. V. Marenich,  L. A. Martinez-Martinez,  S. A. Maurer,  
 N. J. Mayhall,  S. C. McKenzie,  J.-M. Mewes,  A. F. Morrison,  K. Nanda,  
 T. S. Nguyen-Beck,  R. Olivares-Amaya,  J. A. Parkhill,  T. M. Perrine,  
 F. Plasser,  S. Prager,  A. Prociuk,  D. R. Rehn,  F. Rob,  M. Schneider,  
 N. Sergueev,  S. M. Sharada,  S. Sharma,  D. W. Small,  T. Stauch,  
 T. Stein,  Yu-Chuan Su,  A. J. W. Thom,  T. Tsuchimochi,  L. Vogt,  
 O. Vydrov,  M. A. Watson,  J. Wenzel,  M. de Wergifosse,  T. A. Wesolowski,  
 A. White,  J. Witte,  A. Yamada,  Jun Yang,  K. Yao,  S. Yeganeh,  
 S. R. Yost,  Zhi-Qiang You,  A. Zech,  Igor Ying Zhang,  Xing Zhang,  
 Yan Zhao,  Ying Zhu,  B. R. Brooks,  G. K. L. Chan,  C. J. Cramer,  
 M. S. Gordon,  W. J. Hehre,  A. Klamt,  M. W. Schmidt,  C. D. Sherrill,  
 D. G. Truhlar,  A. Aspuru-Guzik,  R. Baer,  A. T. Bell,  N. A. Besley,  
 Jeng-Da Chai,  A. Dreuw,  B. D. Dunietz,  T. R. Furlani,  Chao-Ping Hsu,  
 Yousung Jung,  Jing Kong,  D. S. Lambrecht,  WanZhen Liang,  C. Ochsenfeld,  
 V. A. Rassolov,  L. V. Slipchenko,  J. E. Subotnik,  T. Van Voorhis,  
 J. M. Herbert,  A. I. Krylov,  P. M. W. Gill,  M. Head-Gordon

 Contributors to earlier versions of Q-Chem not listed above: 
 R. D. Adamson,  B. Austin,  J. Baker,  G. J. O. Beran,  K. Brandhorst,  
 S. T. Brown,  E. F. C. Byrd,  A. K. Chakraborty,  C.-L. Cheng,  
 Siu Hung Chien,  D. M. Chipman,  D. L. Crittenden,  H. Dachsel,  
 R. A. DiStasio Jr.,  R. J. Doerksen,  A. D. Dutoi,  L. Fusti-Molnar,  
 W. A. Goddard III,  A. Golubeva-Zadorozhnaya,  S. R. Gwaltney,  G. Hawkins,  
 A. Heyden,  S. Hirata,  G. Kedziora,  F. J. Keil,  C. Kelley,  Jihan Kim,  
 R. A. King,  R. Z. Khaliullin,  P. P. Korambath,  W. Kurlancheek,  
 A. M. Lee,  M. S. Lee,  S. V. Levchenko,  Ching Yeh Lin,  D. Liotard,  
 R. C. Lochan,  I. Lotan,  P. E. Maslen,  N. Nair,  D. P. O'Neill,  
 D. Neuhauser,  E. Neuscamman,  C. M. Oana,  R. Olson,  B. Peters,  
 R. Peverati,  P. A. Pieniazek,  Y. M. Rhee,  J. Ritchie,  M. A. Rohrdanz,  
 E. Rosta,  N. J. Russ,  H. F. Schaefer III,  N. E. Schultz,  N. Shenvi,  
 A. C. Simmonett,  A. Sodt,  D. Stuck,  K. S. Thanthiriwatte,  V. Vanovschi,  
 Tao Wang,  A. Warshel,  C. F. Williams,  Q. Wu,  X. Xu,  W. Zhang

 Please cite Q-Chem as follows:
 Y. Shao et al., Mol. Phys. 113, 184-215 (2015)
 DOI: 10.1080/00268976.2014.952696

 Q-Chem 5.0.1 for Intel X86 EM64T Linux

 Parts of Q-Chem use Armadillo 5.200.1 (Boston Tea Smuggler).
 http://arma.sourceforge.net/

 Q-Chem begins on Tue Jan 16 09:36:19 2018  

Host: nid12937
0

     Scratch files written to /global/cscratch1/sd/bwood/qchem/chain_dp/qchem52543.0//
 Parallel job on  16  processors
Core orbitals will be frozen
RIMP2 parallel execution is limited to SCF only

Checking the input file for inconsistencies... 	...done.

--------------------------------------------------------------
User input:
--------------------------------------------------------------
$molecule
 0  1
 S           1.82712954       -1.15940433        0.24334363
 C           3.17804106       -0.14208920        0.04686023
 C           2.79673169        1.14528478       -0.26025652
 C           1.39859048        1.29014448       -0.33222598
 C           0.71976264        0.11176878       -0.08196326
 H           0.88171534        2.21108237       -0.55570723
 C          -0.71785977       -0.12324417       -0.07990619
 S          -1.64799865        0.07914348        1.34902630
 C          -1.52827405       -0.50807908       -1.13211279
 C          -3.09834566       -0.33851919        0.56127688
 C          -2.88231821       -0.62914951       -0.76760063
 H          -3.67306200       -0.91582194       -1.44322809
 H           4.17538937       -0.53129995        0.16250008
 H           3.50251388        1.94432388       -0.42559646
 H          -4.02935639       -0.34936163        1.10225997
 H          -1.13379556       -0.69089574       -2.12013869
$end


$rem
         jobtype = opt
          method = rimp2
           basis = cc-pvqz
       aux_basis = rimp2-cc-pvqz
  max_scf_cycles = 150
      mem_static = 3000
       mem_total = 25000
   scf_algorithm = diis
       scf_guess = sad
      sym_ignore = true
        symmetry = false
          thresh = 14
$end


$opt
CONSTRAINT
tors 4 5 7 9 90.0
ENDCONSTRAINT
$end

--------------------------------------------------------------
 ----------------------------------------------------------------
             Standard Nuclear Orientation (Angstroms)
    I     Atom           X                Y                Z
 ----------------------------------------------------------------
    1      S       1.8271295400    -1.1594043300     0.2433436300
    2      C       3.1780410600    -0.1420892000     0.0468602300
    3      C       2.7967316900     1.1452847800    -0.2602565200
    4      C       1.3985904800     1.2901444800    -0.3322259800
    5      C       0.7197626400     0.1117687800    -0.0819632600
    6      H       0.8817153400     2.2110823700    -0.5557072300
    7      C      -0.7178597700    -0.1232441700    -0.0799061900
    8      S      -1.6479986500     0.0791434800     1.3490263000
    9      C      -1.5282740500    -0.5080790800    -1.1321127900
   10      C      -3.0983456600    -0.3385191900     0.5612768800
   11      C      -2.8823182100    -0.6291495100    -0.7676006300
   12      H      -3.6730620000    -0.9158219400    -1.4432280900
   13      H       4.1753893700    -0.5312999500     0.1625000800
   14      H       3.5025138800     1.9443238800    -0.4255964600
   15      H      -4.0293563900    -0.3493616300     1.1022599700
   16      H      -1.1337955600    -0.6908957400    -2.1201386900
 ----------------------------------------------------------------
 Nuclear Repulsion Energy =   634.5400720771 hartrees
 There are       43 alpha and       43 beta electrons
 Requested basis set is cc-pVQZ
 There are 214 shells and 738 basis functions

 Total QAlloc Memory Limit  25000 MB
 Mega-Array Size      2933 MB
 MEM_STATIC part      3000 MB
 Requested basis set is rimp2-cc-pVQZ
 There are 406 shells and 1702 basis functions
 A cutoff of  1.0D-14 yielded  18539 shell pairs
 There are    217371 function pairs (    335478 Cartesian)
 Smallest overlap matrix eigenvalue = 1.54E-05

 Scale SEOQF with 1.000000e-01/1.000000e-01/1.000000e-01

 Standard Electronic Orientation quadrupole field applied
 Nucleus-field energy     =     0.0000000127 hartrees
 Guess from superposition of atomic densities
 Warning:  Energy on first SCF cycle will be non-variational
 A restricted Hartree-Fock SCF calculation will be
 performed using Pulay DIIS extrapolation
 SCF converges when DIIS error is below 1.0E-08
 ---------------------------------------
  Cycle       Energy         DIIS Error
 ---------------------------------------
    1   -1105.9583205839      1.59E-02
    2   -1101.5037691142      1.05E-03
    3   -1101.6045635061      4.64E-04
    4   -1101.6188014930      2.42E-04
    5   -1101.6239834364      5.35E-05
    6   -1101.6242734337      2.42E-05
    7   -1101.6243593013      8.66E-06
    8   -1101.6243848286      3.20E-06
    9   -1101.6243885936      1.09E-06
   10   -1101.6243889484      3.94E-07
   11   -1101.6243889905      1.16E-07
   12   -1101.6243889934      4.34E-08
   13   -1101.6243889938      1.17E-08
   14   -1101.6243889938      4.64E-09 Convergence criterion met
 ---------------------------------------
 SCF time:  CPU 1099.01 s  wall 1094.83 s
 SCF   energy in the final basis set = -1101.62438899
 Total energy in the final basis set = -1101.62438899
Now performing a force calculation at the RI-MP2 level of theory.

 

 Components of the RI-MP2 Correlation Energy:
 RI-MP2 ENERGY (aa|aa)   	=              -0.2182647799 au
 RI-MP2 ENERGY (aa|bb)   	=              -0.6442614629 au
 RI-MP2 ENERGY (bb|aa)   	=              -0.6442614629 au
 RI-MP2 ENERGY (bb|bb)   	=              -0.2182647799 au
 RI-MP2 SINGLES ENERGY          =              -0.0000000000 au

 RI-MP2 CORRELATION ENERGY	=              -1.7250524856 au
 RI-MP2 TOTAL ENERGY		=           -1103.3494414794 au

  Entering Z-vector solver.
   1         0           1      0.000193    0.000193
   2         0           1      0.000082    0.000082
   3         0           1      0.000036    0.000036
   4         0           1      0.000017    0.000017
   5         0           1      0.000005    0.000005
   6         0           1      0.000002    0.000002
   7         1           0      0.000000    0.000000    Roots Converged
 
 --------------------------------------------------------------
 
                    Orbital Energies (a.u.)
 --------------------------------------------------------------
 
 Alpha MOs
 -- Occupied --
-91.983 -91.983 -11.272 -11.271 -11.262 -11.262 -11.240 -11.240
-11.238 -11.238  -8.986  -8.986  -6.667  -6.667  -6.666  -6.666
 -6.666  -6.666  -1.193  -1.166  -1.031  -0.991  -0.991  -0.948
 -0.804  -0.763  -0.761  -0.718  -0.702  -0.646  -0.570  -0.568
 -0.564  -0.555  -0.538  -0.514  -0.512  -0.477  -0.476  -0.355
 -0.344  -0.324  -0.323
 -- Virtual --
  0.103   0.105   0.122   0.122   0.136   0.142   0.154   0.160
  0.168   0.175   0.182   0.186   0.190   0.203   0.256   0.257
  0.276   0.279   0.293   0.301   0.302   0.309   0.324   0.346
  0.346   0.353   0.359   0.367   0.368   0.381   0.398   0.401
  0.409   0.425   0.436   0.439   0.443   0.459   0.461   0.468
  0.474   0.479   0.483   0.486   0.489   0.491   0.506   0.521
  0.522   0.525   0.553   0.554   0.569   0.569   0.586   0.611
  0.620   0.621   0.621   0.643   0.661   0.670   0.689   0.696
  0.720   0.723   0.730   0.741   0.745   0.749   0.765   0.782
  0.790   0.799   0.817   0.818   0.822   0.828   0.847   0.860
  0.863   0.888   0.891   0.903   0.907   0.921   0.927   0.932
  0.938   0.947   0.951   0.959   0.976   0.993   0.994   1.006
  1.020   1.030   1.031   1.042   1.067   1.067   1.086   1.095
  1.115   1.125   1.127   1.140   1.149   1.150   1.162   1.168
  1.171   1.172   1.183   1.195   1.203   1.210   1.211   1.233
  1.235   1.249   1.251   1.260   1.285   1.292   1.302   1.311
  1.336   1.367   1.369   1.378   1.381   1.410   1.415   1.417
  1.429   1.432   1.449   1.463   1.483   1.487   1.499   1.531
  1.531   1.539   1.569   1.570   1.580   1.587   1.593   1.603
  1.618   1.643   1.649   1.657   1.665   1.704   1.716   1.721
  1.734   1.738   1.750   1.754   1.778   1.786   1.811   1.822
  1.848   1.862   1.869   1.874   1.883   1.904   1.911   1.922
  1.928   1.935   1.944   1.953   1.954   1.958   1.987   1.997
  2.007   2.018   2.030   2.040   2.050   2.059   2.073   2.078
  2.080   2.086   2.088   2.105   2.110   2.112   2.136   2.139
  2.146   2.153   2.156   2.161   2.181   2.186   2.218   2.225
  2.229   2.235   2.245   2.256   2.274   2.278   2.292   2.295
  2.310   2.315   2.324   2.330   2.335   2.353   2.364   2.377
  2.393   2.393   2.406   2.409   2.433   2.435   2.442   2.454
  2.457   2.467   2.474   2.485   2.503   2.505   2.516   2.527
  2.558   2.559   2.584   2.588   2.602   2.606   2.615   2.629
  2.632   2.638   2.663   2.700   2.702   2.709   2.727   2.732
  2.755   2.758   2.768   2.785   2.810   2.810   2.823   2.845
  2.849   2.852   2.860   2.881   2.911   2.913   2.920   2.920
  2.940   2.949   2.957   2.968   2.971   2.992   2.994   3.009
  3.021   3.030   3.050   3.082   3.090   3.104   3.125   3.144
  3.152   3.182   3.197   3.230   3.244   3.300   3.321   3.322
  3.334   3.358   3.362   3.371   3.372   3.398   3.414   3.426
  3.441   3.445   3.453   3.460   3.470   3.471   3.491   3.502
  3.528   3.555   3.557   3.570   3.577   3.589   3.593   3.619
  3.623   3.641   3.643   3.649   3.695   3.715   3.721   3.746
  3.756   3.761   3.770   3.773   3.796   3.804   3.811   3.841
  3.854   3.868   3.879   3.885   3.891   3.907   3.918   3.934
  3.957   3.963   3.967   3.989   3.995   4.023   4.037   4.045
  4.056   4.091   4.093   4.124   4.169   4.175   4.197   4.227
  4.234   4.246   4.251   4.267   4.274   4.291   4.318   4.340
  4.383   4.389   4.418   4.442   4.472   4.475   4.482   4.506
  4.545   4.583   4.600   4.657   4.792   4.799   4.800   4.823
  4.823   4.903   4.916   4.934   4.958   5.057   5.059   5.164
  5.171   5.183   5.213   5.240   5.244   5.265   5.275   5.332
  5.341   5.371   5.409   5.420   5.430   5.456   5.462   5.501
  5.527   5.527   5.548   5.574   5.593   5.601   5.619   5.625
  5.642   5.651   5.669   5.691   5.694   5.732   5.733   5.763
  5.808   5.840   5.859   5.867   5.878   5.892   5.895   5.910
  5.912   5.930   5.951   5.984   6.005   6.011   6.033   6.050
  6.052   6.062   6.074   6.078   6.085   6.085   6.110   6.114
  6.121   6.128   6.141   6.162   6.165   6.195   6.209   6.215
  6.229   6.231   6.242   6.247   6.258   6.279   6.292   6.307
  6.317   6.327   6.338   6.352   6.353   6.365   6.368   6.371
  6.382   6.395   6.395   6.416   6.417   6.425   6.442   6.443
  6.459   6.463   6.463   6.482   6.493   6.502   6.511   6.518
  6.542   6.543   6.577   6.594   6.597   6.607   6.612   6.630
  6.632   6.643   6.653   6.656   6.671   6.693   6.700   6.710
  6.735   6.761   6.762   6.787   6.794   6.799   6.812   6.831
  6.839   6.866   6.875   6.897   6.904   6.917   6.942   6.959
  6.969   6.975   6.995   7.006   7.020   7.033   7.078   7.080
  7.082   7.099   7.129   7.134   7.148   7.163   7.186   7.213
  7.223   7.244   7.261   7.288   7.304   7.309   7.324   7.352
  7.398   7.410   7.416   7.434   7.444   7.463   7.490   7.516
  7.519   7.532   7.601   7.608   7.623   7.635   7.647   7.649
  7.666   7.687   7.713   7.741   7.779   7.837   7.842   7.868
  7.883   7.892   7.899   7.927   7.955   7.972   8.019   8.019
  8.031   8.045   8.055   8.088   8.094   8.101   8.124   8.126
  8.159   8.176   8.225   8.232   8.239   8.267   8.282   8.299
  8.346   8.359   8.364   8.386   8.389   8.415   8.432   8.433
  8.479   8.498   8.530   8.540   8.565   8.597   8.599   8.612
  8.615   8.617   8.679   8.681   8.703   8.705   8.724   8.725
  8.773   8.803   8.831   8.841   8.863   8.874   8.879   8.929
  8.929   9.022   9.039   9.039   9.043   9.047   9.057   9.069
  9.143   9.170   9.180   9.209   9.239   9.283   9.311   9.320
  9.404   9.466   9.475   9.540   9.545   9.600   9.614   9.674
  9.736   9.819   9.870   9.940   9.952   9.977  10.002  10.112
 10.114  10.175  10.180  10.181  10.195  10.326  10.326  10.360
 10.367  10.439  10.455  10.480  10.491  10.665  10.669  10.709
 10.714  10.770  10.873  11.104  11.125  11.730  11.734  12.513
 12.513  12.576  12.613  12.803  12.838  20.423  20.494  23.743
 24.598  24.680  24.733  25.156  25.373  25.486  25.576
 --------------------------------------------------------------
 
          Ground-State Mulliken Net Atomic Charges

     Atom                 Charge (a.u.)
  ----------------------------------------
      1 S                     0.292661
      2 C                    -0.291504
      3 C                    -0.138447
      4 C                    -0.172788
      5 C                    -0.161296
      6 H                     0.152504
      7 C                    -0.161296
      8 S                     0.292661
      9 C                    -0.172788
     10 C                    -0.291504
     11 C                    -0.138447
     12 H                     0.150049
     13 H                     0.168821
     14 H                     0.150049
     15 H                     0.168821
     16 H                     0.152504
  ----------------------------------------
  Sum of atomic charges =    -0.000000

 -----------------------------------------------------------------
                    Cartesian Multipole Moments
 -----------------------------------------------------------------
    Charge (ESU x 10^10)
                -0.0000
    Dipole Moment (Debye)
         X      -0.0490      Y       0.2956      Z      -0.4852
       Tot       0.5703
    Quadrupole Moments (Debye-Ang)
        XX     -61.4362     XY       1.7186     YY     -72.7836
        XZ      -0.1304     YZ       0.0136     ZZ     -73.0088
    Octopole Moments (Debye-Ang^2)
       XXX      -2.0416    XXY       2.3566    XYY       8.6227
       YYY      34.6517    XXZ      -2.4090    XYZ      -5.2981
       YYZ     -10.1578    XZZ     -13.6067    YZZ       5.5003
       ZZZ     -25.2837
    Hexadecapole Moments (Debye-Ang^3)
      XXXX   -1834.6964   XXXY     -51.5751   XXYY    -406.3640
      XYYY     -67.5546   YYYY    -350.6157   XXXZ      31.1556
      XXYZ       0.1213   XYYZ      14.6948   YYYZ      -3.6343
      XXZZ    -404.6110   XYZZ     -20.3526   YYZZ    -121.2526
      XZZZ      50.2320   YZZZ      12.0779   ZZZZ    -338.6552
 -----------------------------------------------------------------
 DrvMan is completing analytic gradient of the MP2 energy
 MP2 relaxed dipole moment
            1
    1  -0.0192859
    2   0.1163055
    3  -0.1908970
	Magnitude:	 0.224 au	 0.570 Debye
 MP2 energy read as -1103.349441
 Full Analytical Gradient of MP2 Energy (in au.)
             1             2             3             4             5
    1   -0.00001228    0.00004146   -0.00003189    0.00003524   -0.00014216
    2    0.00000371    0.00003028   -0.00000280   -0.00001924    0.00004980
    3    0.00002137    0.00002330    0.00004224   -0.00023583    0.00018737
             6             7             8             9            10
    1    0.00000339    0.00016303    0.00001487   -0.00006751   -0.00004013
    2    0.00001293   -0.00017566   -0.00001948    0.00021378   -0.00003824
    3    0.00004547    0.00001919    0.00000449   -0.00008347   -0.00001021
            11            12            13            14            15
    1    0.00003785   -0.00001100   -0.00000083    0.00000862   -0.00000085
    2   -0.00003311    0.00002318   -0.00000128   -0.00000887    0.00001138
    3    0.00001673   -0.00000101   -0.00001215   -0.00002251   -0.00000443
            16
    1    0.00000216
    2   -0.00004639
    3    0.00000945
 Gradient time:  CPU 45.79 s  wall 45.93 s
 Geometry Optimization Parameters
   NAtoms,    NIC,     NZ,  NCons,   NDum,   NFix, NCnnct, MaxDiis
       16     111       0       1       0       0       0       0


** CONSTRAINED OPTIMIZATION IN DELOCALIZED INTERNAL COORDINATES **
   Searching for a Minimum

   Optimization Cycle:   1

                       Coordinates (Angstroms)
     ATOM                X               Y               Z
      1  S         1.8271295400   -1.1594043300    0.2433436300
      2  C         3.1780410600   -0.1420892000    0.0468602300
      3  C         2.7967316900    1.1452847800   -0.2602565200
      4  C         1.3985904800    1.2901444800   -0.3322259800
      5  C         0.7197626400    0.1117687800   -0.0819632600
      6  H         0.8817153400    2.2110823700   -0.5557072300
      7  C        -0.7178597700   -0.1232441700   -0.0799061900
      8  S        -1.6479986500    0.0791434800    1.3490263000
      9  C        -1.5282740500   -0.5080790800   -1.1321127900
     10  C        -3.0983456600   -0.3385191900    0.5612768800
     11  C        -2.8823182100   -0.6291495100   -0.7676006300
     12  H        -3.6730620000   -0.9158219400   -1.4432280900
     13  H         4.1753893700   -0.5312999500    0.1625000800
     14  H         3.5025138800    1.9443238800   -0.4255964600
     15  H        -4.0293563900   -0.3493616300    1.1022599700
     16  H        -1.1337955600   -0.6908957400   -2.1201386900
   Point Group: c1    Number of degrees of freedom:    42


   Energy is  -1103.349441479

              Constraints and their Current Values
                                        Value     Constraint
   Dihedral:        4   5   7   9       90.000       90.000

 Attempting to Generate Delocalized Internal Coordinates

 41 Hessian modes will be used to form the next step
  Hessian Eigenvalues:
     0.045000    0.045000    0.045000    0.045000    0.045000    0.045000
     0.045000    0.045000    0.045000    0.045000    0.045001    0.045001
     0.160000    0.160000    0.160000    0.160000    0.160000    0.160000
     0.221322    0.221322    0.238115    0.238116    0.249994    0.249994
     0.329586    0.329586    0.344467    0.344467    0.360598    0.360598
     0.361330    0.361330    0.363802    0.363802    0.373797    0.430109
     0.430109    0.457260    0.457260    0.487885    0.487885

 Minimum Search - Taking Simple RFO Step
 Searching for Lamda that Minimizes Along All modes
 Value Taken    Lamda =   0.00000000
 Step Taken.  Stepsize is  0.001756

                             Maximum     Tolerance    Cnvgd?
         Gradient           0.000085      0.000300     YES
         Displacement       0.001215      0.001200      NO
         Energy change     *********      0.000001      NO


 New Cartesian Coordinates Obtained by Inverse Iteration

 Displacement from previous Coordinates is:  0.001516
 ----------------------------------------------------------------
             Standard Nuclear Orientation (Angstroms)
    I     Atom           X                Y                Z
 ----------------------------------------------------------------
    1      S       1.8271818538    -1.1594755108     0.2431387225
    2      C       3.1780202063    -0.1421330529     0.0466412426
    3      C       2.7967251961     1.1453167962    -0.2602359966
    4      C       1.3985611233     1.2901754142    -0.3319790027
    5      C       0.7198217807     0.1117889869    -0.0817943370
    6      H       0.8816165710     2.2110281881    -0.5556509584
    7      C      -0.7178951236    -0.1234077941    -0.0798397364
    8      S      -1.6480737868     0.0793525001     1.3490049725
    9      C      -1.5282117618    -0.5083086371    -1.1320337888
   10      C      -3.0983532318    -0.3383038825     0.5612144453
   11      C      -2.8823116715    -0.6291818423    -0.7676206420
   12      H      -3.6729816639    -0.9160225082    -1.4432572722
   13      H       4.1753736256    -0.5313442146     0.1622568114
   14      H       3.5024483118     1.9444352660    -0.4254208384
   15      H      -4.0293725111    -0.3491251549     1.1021877782
   16      H      -1.1336852082    -0.6909115241    -2.1200801501
 ----------------------------------------------------------------
 Nuclear Repulsion Energy =   634.5393483167 hartrees
 There are       43 alpha and       43 beta electrons
 Applying Cartesian multipole field
    Component          Value
    ---------          -----
     (2,0,0)        1.00000E-11
     (0,2,0)        2.00000E-11
     (0,0,2)       -3.00000E-11
 Nucleus-field energy     =     0.0000000127 hartrees
 Requested basis set is cc-pVQZ
 There are 214 shells and 738 basis functions
 Requested basis set is rimp2-cc-pVQZ
 There are 406 shells and 1702 basis functions
 A cutoff of  1.0D-14 yielded  18539 shell pairs
 There are    217371 function pairs (    335478 Cartesian)
 Smallest overlap matrix eigenvalue = 1.54E-05
 Guess MOs from SCF MO coefficient file
 Reading MOs from coefficient file
 Reading MOs from coefficient file
 A restricted Hartree-Fock SCF calculation will be
 performed using Pulay DIIS extrapolation
 SCF converges when DIIS error is below 1.0E-08
 Geometry optimization detected.  Setting ReadMinima to 0
 Setting SaveMinima to 0
 ---------------------------------------
  Cycle       Energy         DIIS Error
 ---------------------------------------
    1   -1101.6243521616      2.60E-06
    2   -1101.6243942971      2.91E-07
    3   -1101.6243943084      1.52E-07
    4   -1101.6243943106      8.11E-08
    5   -1101.6243943115      2.12E-08
    6   -1101.6243943115      9.07E-09 Convergence criterion met
 ---------------------------------------
 SCF time:  CPU 483.96 s  wall 482.53 s
 SCF   energy in the final basis set = -1101.62439431
 Total energy in the final basis set = -1101.62439431
Now performing a force calculation at the RI-MP2 level of theory.

 

 Components of the RI-MP2 Correlation Energy:
 RI-MP2 ENERGY (aa|aa)   	=              -0.2182636823 au
 RI-MP2 ENERGY (aa|bb)   	=              -0.6442600170 au
 RI-MP2 ENERGY (bb|aa)   	=              -0.6442600170 au
 RI-MP2 ENERGY (bb|bb)   	=              -0.2182636823 au
 RI-MP2 SINGLES ENERGY          =              -0.0000000000 au

 RI-MP2 CORRELATION ENERGY	=              -1.7250473987 au
 RI-MP2 TOTAL ENERGY		=           -1103.3494417103 au

  Entering Z-vector solver.
   1         0           1      0.000193    0.000193
   2         0           1      0.000082    0.000082
   3         0           1      0.000036    0.000036
   4         0           1      0.000017    0.000017
   5         0           1      0.000005    0.000005
   6         0           1      0.000002    0.000002
   7         1           0      0.000000    0.000000    Roots Converged
 
 --------------------------------------------------------------
 
                    Orbital Energies (a.u.)
 --------------------------------------------------------------
 
 Alpha MOs
 -- Occupied --
-91.983 -91.983 -11.272 -11.271 -11.262 -11.262 -11.240 -11.240
-11.238 -11.238  -8.986  -8.986  -6.667  -6.667  -6.666  -6.666
 -6.666  -6.666  -1.193  -1.166  -1.031  -0.991  -0.991  -0.948
 -0.804  -0.763  -0.761  -0.718  -0.702  -0.646  -0.570  -0.568
 -0.564  -0.555  -0.538  -0.514  -0.512  -0.477  -0.476  -0.355
 -0.344  -0.324  -0.323
 -- Virtual --
  0.103   0.105   0.122   0.122   0.136   0.142   0.154   0.160
  0.168   0.175   0.182   0.186   0.190   0.203   0.256   0.257
  0.276   0.278   0.293   0.301   0.302   0.309   0.324   0.346
  0.346   0.353   0.359   0.367   0.368   0.381   0.398   0.401
  0.409   0.425   0.436   0.439   0.443   0.459   0.461   0.468
  0.474   0.479   0.483   0.486   0.489   0.491   0.506   0.521
  0.522   0.525   0.553   0.554   0.569   0.569   0.586   0.611
  0.620   0.621   0.621   0.643   0.661   0.670   0.689   0.696
  0.720   0.723   0.730   0.741   0.745   0.749   0.765   0.782
  0.790   0.799   0.817   0.818   0.822   0.828   0.847   0.860
  0.863   0.888   0.891   0.903   0.907   0.921   0.927   0.932
  0.938   0.947   0.951   0.959   0.976   0.993   0.994   1.006
  1.020   1.030   1.031   1.042   1.067   1.067   1.086   1.095
  1.115   1.125   1.127   1.140   1.149   1.150   1.162   1.168
  1.171   1.172   1.183   1.195   1.203   1.210   1.211   1.233
  1.235   1.249   1.251   1.260   1.285   1.292   1.302   1.311
  1.336   1.367   1.369   1.378   1.381   1.410   1.415   1.417
  1.429   1.432   1.449   1.463   1.483   1.487   1.499   1.531
  1.531   1.539   1.569   1.570   1.580   1.587   1.593   1.603
  1.618   1.643   1.649   1.657   1.665   1.704   1.716   1.721
  1.735   1.738   1.751   1.754   1.778   1.786   1.811   1.822
  1.848   1.862   1.869   1.874   1.883   1.904   1.911   1.922
  1.928   1.935   1.944   1.953   1.954   1.959   1.987   1.997
  2.007   2.018   2.030   2.040   2.050   2.059   2.073   2.078
  2.080   2.086   2.088   2.105   2.110   2.112   2.136   2.139
  2.146   2.153   2.156   2.161   2.181   2.186   2.218   2.225
  2.229   2.235   2.245   2.256   2.274   2.278   2.292   2.295
  2.310   2.315   2.324   2.330   2.335   2.353   2.364   2.377
  2.393   2.393   2.406   2.409   2.433   2.435   2.442   2.454
  2.457   2.467   2.474   2.485   2.503   2.505   2.516   2.527
  2.558   2.559   2.584   2.588   2.602   2.606   2.615   2.629
  2.632   2.638   2.663   2.700   2.702   2.709   2.727   2.732
  2.755   2.758   2.768   2.785   2.810   2.810   2.823   2.845
  2.849   2.852   2.860   2.881   2.911   2.913   2.920   2.920
  2.940   2.949   2.957   2.968   2.971   2.992   2.994   3.009
  3.021   3.030   3.050   3.082   3.090   3.104   3.125   3.144
  3.152   3.182   3.197   3.230   3.244   3.300   3.321   3.322
  3.334   3.358   3.363   3.371   3.372   3.398   3.414   3.426
  3.441   3.445   3.453   3.460   3.470   3.471   3.491   3.502
  3.528   3.555   3.557   3.570   3.577   3.589   3.593   3.619
  3.623   3.641   3.643   3.649   3.695   3.715   3.721   3.746
  3.756   3.761   3.770   3.773   3.796   3.804   3.811   3.841
  3.854   3.868   3.879   3.885   3.891   3.907   3.918   3.934
  3.957   3.963   3.967   3.989   3.995   4.023   4.037   4.045
  4.056   4.091   4.093   4.124   4.169   4.175   4.198   4.227
  4.234   4.246   4.251   4.267   4.274   4.291   4.318   4.340
  4.383   4.389   4.418   4.442   4.472   4.475   4.482   4.506
  4.545   4.583   4.600   4.657   4.792   4.799   4.800   4.823
  4.823   4.903   4.916   4.934   4.958   5.057   5.059   5.164
  5.171   5.183   5.213   5.240   5.244   5.265   5.275   5.332
  5.341   5.371   5.409   5.420   5.430   5.456   5.462   5.501
  5.527   5.527   5.548   5.574   5.593   5.601   5.619   5.625
  5.642   5.651   5.669   5.691   5.693   5.732   5.733   5.763
  5.808   5.840   5.859   5.868   5.878   5.892   5.895   5.910
  5.912   5.930   5.951   5.984   6.005   6.011   6.033   6.050
  6.052   6.062   6.074   6.078   6.085   6.085   6.110   6.114
  6.121   6.128   6.141   6.162   6.165   6.195   6.209   6.215
  6.229   6.231   6.242   6.247   6.258   6.279   6.292   6.307
  6.317   6.327   6.338   6.352   6.353   6.365   6.368   6.371
  6.382   6.395   6.395   6.416   6.417   6.425   6.442   6.443
  6.459   6.463   6.463   6.482   6.493   6.502   6.511   6.518
  6.542   6.543   6.577   6.594   6.597   6.607   6.612   6.630
  6.632   6.643   6.653   6.656   6.671   6.693   6.700   6.710
  6.735   6.762   6.762   6.787   6.794   6.798   6.812   6.831
  6.839   6.866   6.876   6.897   6.904   6.917   6.941   6.959
  6.969   6.975   6.995   7.006   7.020   7.033   7.078   7.080
  7.082   7.099   7.129   7.134   7.148   7.163   7.186   7.213
  7.223   7.244   7.261   7.288   7.304   7.309   7.324   7.352
  7.398   7.410   7.416   7.434   7.444   7.462   7.490   7.516
  7.519   7.532   7.601   7.608   7.623   7.635   7.648   7.649
  7.666   7.687   7.713   7.741   7.779   7.837   7.842   7.868
  7.883   7.892   7.899   7.927   7.955   7.972   8.019   8.019
  8.031   8.045   8.055   8.088   8.094   8.101   8.124   8.126
  8.159   8.176   8.225   8.232   8.239   8.267   8.282   8.299
  8.346   8.359   8.364   8.386   8.389   8.415   8.431   8.433
  8.479   8.498   8.530   8.540   8.565   8.597   8.599   8.612
  8.615   8.617   8.679   8.681   8.703   8.705   8.724   8.725
  8.773   8.803   8.831   8.841   8.863   8.874   8.879   8.929
  8.929   9.022   9.039   9.039   9.043   9.047   9.057   9.069
  9.143   9.170   9.180   9.209   9.239   9.283   9.311   9.320
  9.404   9.466   9.475   9.540   9.545   9.599   9.614   9.674
  9.736   9.819   9.870   9.940   9.952   9.977  10.002  10.112
 10.114  10.175  10.180  10.181  10.195  10.326  10.326  10.360
 10.367  10.439  10.455  10.480  10.491  10.665  10.668  10.709
 10.714  10.770  10.873  11.104  11.125  11.730  11.734  12.513
 12.513  12.576  12.613  12.803  12.838  20.423  20.494  23.743
 24.598  24.680  24.733  25.156  25.373  25.486  25.576
 --------------------------------------------------------------
 
          Ground-State Mulliken Net Atomic Charges

     Atom                 Charge (a.u.)
  ----------------------------------------
      1 S                     0.292689
      2 C                    -0.291514
      3 C                    -0.138455
      4 C                    -0.172788
      5 C                    -0.161299
      6 H                     0.152504
      7 C                    -0.161299
      8 S                     0.292689
      9 C                    -0.172788
     10 C                    -0.291514
     11 C                    -0.138455
     12 H                     0.150053
     13 H                     0.168810
     14 H                     0.150053
     15 H                     0.168810
     16 H                     0.152504
  ----------------------------------------
  Sum of atomic charges =     0.000000

 -----------------------------------------------------------------
                    Cartesian Multipole Moments
 -----------------------------------------------------------------
    Charge (ESU x 10^10)
                -0.0000
    Dipole Moment (Debye)
         X      -0.0490      Y       0.2957      Z      -0.4854
       Tot       0.5705
    Quadrupole Moments (Debye-Ang)
        XX     -61.4381     XY       1.7181     YY     -72.7829
        XZ      -0.1305     YZ       0.0140     ZZ     -73.0085
    Octopole Moments (Debye-Ang^2)
       XXX      -2.0415    XXY       2.3563    XYY       8.6237
       YYY      34.6482    XXZ      -2.4086    XYZ      -5.2985
       YYZ     -10.1568    XZZ     -13.6073    YZZ       5.5007
       ZZZ     -25.2798
    Hexadecapole Moments (Debye-Ang^3)
      XXXX   -1834.7638   XXXY     -51.5554   XXYY    -406.3625
      XYYY     -67.5277   YYYY    -350.6410   XXXZ      31.1730
      XXYZ       0.1246   XYYZ      14.7028   YYYZ      -3.6695
      XXZZ    -404.6139   XYZZ     -20.3463   YYZZ    -121.2518
      XZZZ      50.2537   YZZZ      12.0431   ZZZZ    -338.6220
 -----------------------------------------------------------------
 DrvMan is completing analytic gradient of the MP2 energy
 MP2 relaxed dipole moment
            1
    1  -0.0192922
    2   0.1163432
    3  -0.1909585
	Magnitude:	 0.224 au	 0.570 Debye
 MP2 energy read as -1103.349442
 Full Analytical Gradient of MP2 Energy (in au.)
             1             2             3             4             5
    1   -0.00000024    0.00000781   -0.00001778    0.00002145   -0.00003990
    2   -0.00000042    0.00001042    0.00000842   -0.00003880    0.00011033
    3    0.00001734    0.00002017    0.00002733   -0.00020899    0.00019742
             6             7             8             9            10
    1   -0.00000018    0.00005836    0.00000281   -0.00004825   -0.00000567
    2    0.00000716   -0.00022163   -0.00001507    0.00020038   -0.00002330
    3    0.00002982   -0.00001475    0.00000810   -0.00005623    0.00000098
            11            12            13            14            15
    1    0.00002076   -0.00000496   -0.00000159    0.00000286    0.00000062
    2   -0.00002641    0.00001700   -0.00000295   -0.00000429    0.00000877
    3    0.00000221   -0.00000354   -0.00000824   -0.00001731   -0.00000132
            16
    1    0.00000390
    2   -0.00002960
    3    0.00000702
 Gradient time:  CPU 71.59 s  wall 71.71 s
 Geometry Optimization Parameters
   NAtoms,    NIC,     NZ,  NCons,   NDum,   NFix, NCnnct, MaxDiis
       16     111       0       1       0       0       0       0

 Cartesian Hessian Update
 Hessian Updated using BFGS Update


** CONSTRAINED OPTIMIZATION IN DELOCALIZED INTERNAL COORDINATES **
   Searching for a Minimum

   Optimization Cycle:   2

                       Coordinates (Angstroms)
     ATOM                X               Y               Z
      1  S         1.8271818538   -1.1594755108    0.2431387225
      2  C         3.1780202063   -0.1421330529    0.0466412426
      3  C         2.7967251961    1.1453167962   -0.2602359966
      4  C         1.3985611233    1.2901754142   -0.3319790027
      5  C         0.7198217807    0.1117889869   -0.0817943370
      6  H         0.8816165710    2.2110281881   -0.5556509584
      7  C        -0.7178951236   -0.1234077941   -0.0798397364
      8  S        -1.6480737868    0.0793525001    1.3490049725
      9  C        -1.5282117618   -0.5083086371   -1.1320337888
     10  C        -3.0983532318   -0.3383038825    0.5612144453
     11  C        -2.8823116715   -0.6291818423   -0.7676206420
     12  H        -3.6729816639   -0.9160225082   -1.4432572722
     13  H         4.1753736256   -0.5313442146    0.1622568114
     14  H         3.5024483118    1.9444352660   -0.4254208384
     15  H        -4.0293725111   -0.3491251549    1.1021877782
     16  H        -1.1336852082   -0.6909115241   -2.1200801501
   Point Group: c1    Number of degrees of freedom:    42


   Energy is  -1103.349441710

              Constraints and their Current Values
                                        Value     Constraint
   Dihedral:        4   5   7   9       90.000       90.000
 Hessian Updated using BFGS Update

 24 Hessian modes will be used to form the next step
  Hessian Eigenvalues:
     0.015849    0.045653    0.159755    0.161260    0.221322    0.223247
     0.238116    0.245100    0.248434    0.249994    0.329319    0.344467
     0.345011    0.360598    0.360598    0.361302    0.363772    0.399167
     0.430109    0.431736    0.457260    0.480326    0.486679    0.487885

 Minimum Search - Taking Simple RFO Step
 Searching for Lamda that Minimizes Along All modes
 Value Taken    Lamda =   0.00000000
 Step Taken.  Stepsize is  0.003717

                             Maximum     Tolerance    Cnvgd?
         Gradient           0.000041      0.000300     YES
         Displacement       0.002544      0.001200      NO
         Energy change     -0.000000      0.000001     YES

 Final energy is   -1103.34944171027     


 ******************************
 **  OPTIMIZATION CONVERGED  **
 ******************************

                       Coordinates (Angstroms)
     ATOM                X               Y               Z
      1  S         1.8271818538   -1.1594755108    0.2431387225
      2  C         3.1780202063   -0.1421330529    0.0466412426
      3  C         2.7967251961    1.1453167962   -0.2602359966
      4  C         1.3985611233    1.2901754142   -0.3319790027
      5  C         0.7198217807    0.1117889869   -0.0817943370
      6  H         0.8816165710    2.2110281881   -0.5556509584
      7  C        -0.7178951236   -0.1234077941   -0.0798397364
      8  S        -1.6480737868    0.0793525001    1.3490049725
      9  C        -1.5282117618   -0.5083086371   -1.1320337888
     10  C        -3.0983532318   -0.3383038825    0.5612144453
     11  C        -2.8823116715   -0.6291818423   -0.7676206420
     12  H        -3.6729816639   -0.9160225082   -1.4432572722
     13  H         4.1753736256   -0.5313442146    0.1622568114
     14  H         3.5024483118    1.9444352660   -0.4254208384
     15  H        -4.0293725111   -0.3491251549    1.1021877782
     16  H        -1.1336852082   -0.6909115241   -2.1200801501

Z-matrix Print:
$molecule
0 1
S 
C  1 1.702457
H  2 1.076832 1 120.432352
C  2 1.377348 1 111.384762 3 179.896906 0
H  4 1.078852 2 123.051464 1 -179.941764 0
C  4 1.407478 2 112.492406 1 0.022197 0
H  6 1.079458 4 125.035503 2 179.840285 0
C  6 1.382705 4 112.997700 2 -0.108551 0
C  8 1.456829 6 128.482002 4 -179.414665 0
C  9 1.382705 8 128.482003 6 90.000001 0
H  10 1.079458 9 121.966776 8 0.634720 0
C  10 1.407478 9 112.997700 8 -179.414660 0
H  12 1.078852 10 124.456119 9 179.854816 0
C  12 1.377348 10 112.492406 9 -0.108551 0
H  14 1.076832 12 128.182791 10 179.909114 0
S  14 1.702457 12 111.384763 10 0.022197 0
$end

 
 --------------------------------------------------------------
 
                    Orbital Energies (a.u.)
 --------------------------------------------------------------
 
 Alpha MOs
 -- Occupied --
-91.983 -91.983 -11.272 -11.271 -11.262 -11.262 -11.240 -11.240
-11.238 -11.238  -8.986  -8.986  -6.667  -6.667  -6.666  -6.666
 -6.666  -6.666  -1.193  -1.166  -1.031  -0.991  -0.991  -0.948
 -0.804  -0.763  -0.761  -0.718  -0.702  -0.646  -0.570  -0.568
 -0.564  -0.555  -0.538  -0.514  -0.512  -0.477  -0.476  -0.355
 -0.344  -0.324  -0.323
 -- Virtual --
  0.103   0.105   0.122   0.122   0.136   0.142   0.154   0.160
  0.168   0.175   0.182   0.186   0.190   0.203   0.256   0.257
  0.276   0.278   0.293   0.301   0.302   0.309   0.324   0.346
  0.346   0.353   0.359   0.367   0.368   0.381   0.398   0.401
  0.409   0.425   0.436   0.439   0.443   0.459   0.461   0.468
  0.474   0.479   0.483   0.486   0.489   0.491   0.506   0.521
  0.522   0.525   0.553   0.554   0.569   0.569   0.586   0.611
  0.620   0.621   0.621   0.643   0.661   0.670   0.689   0.696
  0.720   0.723   0.730   0.741   0.745   0.749   0.765   0.782
  0.790   0.799   0.817   0.818   0.822   0.828   0.847   0.860
  0.863   0.888   0.891   0.903   0.907   0.921   0.927   0.932
  0.938   0.947   0.951   0.959   0.976   0.993   0.994   1.006
  1.020   1.030   1.031   1.042   1.067   1.067   1.086   1.095
  1.115   1.125   1.127   1.140   1.149   1.150   1.162   1.168
  1.171   1.172   1.183   1.195   1.203   1.210   1.211   1.233
  1.235   1.249   1.251   1.260   1.285   1.292   1.302   1.311
  1.336   1.367   1.369   1.378   1.381   1.410   1.415   1.417
  1.429   1.432   1.449   1.463   1.483   1.487   1.499   1.531
  1.531   1.539   1.569   1.570   1.580   1.587   1.593   1.603
  1.618   1.643   1.649   1.657   1.665   1.704   1.716   1.721
  1.735   1.738   1.751   1.754   1.778   1.786   1.811   1.822
  1.848   1.862   1.869   1.874   1.883   1.904   1.911   1.922
  1.928   1.935   1.944   1.953   1.954   1.959   1.987   1.997
  2.007   2.018   2.030   2.040   2.050   2.059   2.073   2.078
  2.080   2.086   2.088   2.105   2.110   2.112   2.136   2.139
  2.146   2.153   2.156   2.161   2.181   2.186   2.218   2.225
  2.229   2.235   2.245   2.256   2.274   2.278   2.292   2.295
  2.310   2.315   2.324   2.330   2.335   2.353   2.364   2.377
  2.393   2.393   2.406   2.409   2.433   2.435   2.442   2.454
  2.457   2.467   2.474   2.485   2.503   2.505   2.516   2.527
  2.558   2.559   2.584   2.588   2.602   2.606   2.615   2.629
  2.632   2.638   2.663   2.700   2.702   2.709   2.727   2.732
  2.755   2.758   2.768   2.785   2.810   2.810   2.823   2.845
  2.849   2.852   2.860   2.881   2.911   2.913   2.920   2.920
  2.940   2.949   2.957   2.968   2.971   2.992   2.994   3.009
  3.021   3.030   3.050   3.082   3.090   3.104   3.125   3.144
  3.152   3.182   3.197   3.230   3.244   3.300   3.321   3.322
  3.334   3.358   3.363   3.371   3.372   3.398   3.414   3.426
  3.441   3.445   3.453   3.460   3.470   3.471   3.491   3.502
  3.528   3.555   3.557   3.570   3.577   3.589   3.593   3.619
  3.623   3.641   3.643   3.649   3.695   3.715   3.721   3.746
  3.756   3.761   3.770   3.773   3.796   3.804   3.811   3.841
  3.854   3.868   3.879   3.885   3.891   3.907   3.918   3.934
  3.957   3.963   3.967   3.989   3.995   4.023   4.037   4.045
  4.056   4.091   4.093   4.124   4.169   4.175   4.198   4.227
  4.234   4.246   4.251   4.267   4.274   4.291   4.318   4.340
  4.383   4.389   4.418   4.442   4.472   4.475   4.482   4.506
  4.545   4.583   4.600   4.657   4.792   4.799   4.800   4.823
  4.823   4.903   4.916   4.934   4.958   5.057   5.059   5.164
  5.171   5.183   5.213   5.240   5.244   5.265   5.275   5.332
  5.341   5.371   5.409   5.420   5.430   5.456   5.462   5.501
  5.527   5.527   5.548   5.574   5.593   5.601   5.619   5.625
  5.642   5.651   5.669   5.691   5.693   5.732   5.733   5.763
  5.808   5.840   5.859   5.868   5.878   5.892   5.895   5.910
  5.912   5.930   5.951   5.984   6.005   6.011   6.033   6.050
  6.052   6.062   6.074   6.078   6.085   6.085   6.110   6.114
  6.121   6.128   6.141   6.162   6.165   6.195   6.209   6.215
  6.229   6.231   6.242   6.247   6.258   6.279   6.292   6.307
  6.317   6.327   6.338   6.352   6.353   6.365   6.368   6.371
  6.382   6.395   6.395   6.416   6.417   6.425   6.442   6.443
  6.459   6.463   6.463   6.482   6.493   6.502   6.511   6.518
  6.542   6.543   6.577   6.594   6.597   6.607   6.612   6.630
  6.632   6.643   6.653   6.656   6.671   6.693   6.700   6.710
  6.735   6.762   6.762   6.787   6.794   6.798   6.812   6.831
  6.839   6.866   6.876   6.897   6.904   6.917   6.941   6.959
  6.969   6.975   6.995   7.006   7.020   7.033   7.078   7.080
  7.082   7.099   7.129   7.134   7.148   7.163   7.186   7.213
  7.223   7.244   7.261   7.288   7.304   7.309   7.324   7.352
  7.398   7.410   7.416   7.434   7.444   7.462   7.490   7.516
  7.519   7.532   7.601   7.608   7.623   7.635   7.648   7.649
  7.666   7.687   7.713   7.741   7.779   7.837   7.842   7.868
  7.883   7.892   7.899   7.927   7.955   7.972   8.019   8.019
  8.031   8.045   8.055   8.088   8.094   8.101   8.124   8.126
  8.159   8.176   8.225   8.232   8.239   8.267   8.282   8.299
  8.346   8.359   8.364   8.386   8.389   8.415   8.431   8.433
  8.479   8.498   8.530   8.540   8.565   8.597   8.599   8.612
  8.615   8.617   8.679   8.681   8.703   8.705   8.724   8.725
  8.773   8.803   8.831   8.841   8.863   8.874   8.879   8.929
  8.929   9.022   9.039   9.039   9.043   9.047   9.057   9.069
  9.143   9.170   9.180   9.209   9.239   9.283   9.311   9.320
  9.404   9.466   9.475   9.540   9.545   9.599   9.614   9.674
  9.736   9.819   9.870   9.940   9.952   9.977  10.002  10.112
 10.114  10.175  10.180  10.181  10.195  10.326  10.326  10.360
 10.367  10.439  10.455  10.480  10.491  10.665  10.668  10.709
 10.714  10.770  10.873  11.104  11.125  11.730  11.734  12.513
 12.513  12.576  12.613  12.803  12.838  20.423  20.494  23.743
 24.598  24.680  24.733  25.156  25.373  25.486  25.576
 --------------------------------------------------------------
 
          Ground-State Mulliken Net Atomic Charges

     Atom                 Charge (a.u.)
  ----------------------------------------
      1 S                     0.292689
      2 C                    -0.291514
      3 C                    -0.138455
      4 C                    -0.172788
      5 C                    -0.161299
      6 H                     0.152504
      7 C                    -0.161299
      8 S                     0.292689
      9 C                    -0.172788
     10 C                    -0.291514
     11 C                    -0.138455
     12 H                     0.150053
     13 H                     0.168810
     14 H                     0.150053
     15 H                     0.168810
     16 H                     0.152504
  ----------------------------------------
  Sum of atomic charges =     0.000000

 -----------------------------------------------------------------
                    Cartesian Multipole Moments
 -----------------------------------------------------------------
    Charge (ESU x 10^10)
                -0.0000
    Dipole Moment (Debye)
         X      -0.0490      Y       0.2957      Z      -0.4854
       Tot       0.5705
    Quadrupole Moments (Debye-Ang)
        XX     -61.4381     XY       1.7181     YY     -72.7829
        XZ      -0.1305     YZ       0.0140     ZZ     -73.0085
    Octopole Moments (Debye-Ang^2)
       XXX      -2.0415    XXY       2.3563    XYY       8.6237
       YYY      34.6482    XXZ      -2.4086    XYZ      -5.2985
       YYZ     -10.1568    XZZ     -13.6073    YZZ       5.5007
       ZZZ     -25.2798
    Hexadecapole Moments (Debye-Ang^3)
      XXXX   -1834.7638   XXXY     -51.5554   XXYY    -406.3625
      XYYY     -67.5277   YYYY    -350.6410   XXXZ      31.1730
      XXYZ       0.1246   XYYZ      14.7028   YYYZ      -3.6695
      XXZZ    -404.6139   XYZZ     -20.3463   YYZZ    -121.2518
      XZZZ      50.2537   YZZZ      12.0431   ZZZZ    -338.6220
 -----------------------------------------------------------------
Archival summary:
1\1\nid12948\OPT\ProcedureUnspecified\BasisUnspecified\286\bwood\TueJan1616:34:292018TueJan1616:34:292018\0\\#,OPT,ProcedureUnspecified,BasisUnspecified,\\0,1\S\C,1,1.70246\H,2,1.07683,1,120.432\C,2,1.37735,1,111.385,3,179.897,0\H,4,1.07885,2,123.051,1,-179.942,0\C,4,1.40748,2,112.492,1,0.0221969,0\H,6,1.07946,4,125.036,2,179.84,0\C,6,1.38271,4,112.998,2,-0.108551,0\C,8,1.45683,6,128.482,4,-179.415,0\C,9,1.38271,8,128.482,6,90,0\H,10,1.07946,9,121.967,8,0.63472,0\C,10,1.40748,9,112.998,8,-179.415,0\H,12,1.07885,10,124.456,9,179.855,0\C,12,1.37735,10,112.492,9,-0.108551,0\H,14,1.07683,12,128.183,10,179.909,0\S,14,1.70246,12,111.385,10,0.0221969,0\\HF=-1101.62439\\@

 Total job time:  25090.74s(wall), 25093.30s(cpu) 
 Tue Jan 16 16:34:30 2018

        *************************************************************
        *                                                           *
        *  Thank you very much for using Q-Chem.  Have a nice day.  *
        *                                                           *
        *************************************************************


0 sent ACK to 0 
now end server 0 ... 
