srun --cpu_bind=cores --ntasks=16 --nodes=1-1 --cpus-per-task 4 --nodelist nid00734 /global/project/projectdirs/jcesr/qchem/qc5.x/qc5.0.0.b/dist/exe/qcprog.cori.haswell.exe .pt_n2_trip_wb_90.0.in.32841.qcin.1 /global/cscratch1/sd/bwood/qchem/chain_dp/qchem32841/

Process 1 of 16 is on nid00734 - thread support 0
Process 3 of 16 is on nid00734 - thread support 0
Process 4 of 16 is on nid00734 - thread support 0
Process 5 of 16 is on nid00734 - thread support 0
Process 6 of 16 is on nid00734 - thread support 0
Process 15 of 16 is on nid00734 - thread support 0
Process 0 of 16 is on nid00734 - thread support 0
Process 2 of 16 is on nid00734 - thread support 0
initial socket setup ...start
initial socket setup ...done 
now start server 0 ... 
nid00734 10.128.2
Q-Chem Developer Version! Running on 10.128.2.*
                  Welcome to Q-Chem
     A Quantum Leap Into The Future Of Chemistry


 Q-Chem 5.0 (beta), Q-Chem, Inc., Pleasanton, CA (2017)

 Yihan Shao,  Zhengting Gan,  E. Epifanovsky,  A. T. B. Gilbert,  M. Wormit,  
 J. Kussmann,  A. W. Lange,  A. Behn,  Jia Deng,  Xintian Feng,  D. Ghosh,  
 M. Goldey,  P. R. Horn,  L. D. Jacobson,  I. Kaliman,  R. Z. Khaliullin,  
 T. Kus,  A. Landau,  Jie Liu,  E. I. Proynov,  Y. M. Rhee,  R. M. Richard,  
 M. A. Rohrdanz,  R. P. Steele,  E. J. Sundstrom,  H. L. Woodcock III,  
 P. M. Zimmerman,  D. Zuev,  B. Albrecht,  E. Alguire,  B. Austin,  
 S. A. Baeppler,  Z. Benda,  G. J. O. Beran,  Y. A. Bernard,  E. J. Berquist,  
 K. Brandhorst,  K. B. Bravaya,  S. T. Brown,  D. Casanova,  Chun-Min Chang,  
 Yunqing Chen,  Siu Hung Chien,  K. D. Closser,  M. P. Coons,  
 D. L. Crittenden,  S. Dasgupta,  M. Diedenhofen,  R. A. DiStasio Jr.,  
 Hainam Do,  A. D. Dutoi,  R. G. Edgar,  Po-Tung Fang,  S. Fatehi,  
 Qingguo Feng,  L. Fusti-Molnar,  Qinghui Ge,  A. Ghysels,  
 A. Golubeva-Zadorozhnaya,  J. Gomes,  J. Gonthier,  A. Gunina,  
 M. W. D. Hanson-Heine,  P. H. P. Harbach,  A. W. Hauser,  J. E. Herr,  
 E. G. Hohenstein,  Z. C. Holden,  Kerwin Hui,  T.-C. Jagau,  Hyunjun Ji,  
 B. Kaduk,  K. Khistyaev,  Jaehoon Kim,  Jihan Kim,  R. A. King,  
 P. Klunzinger,  K. Koh,  D. Kosenkov,  T. Kowalczyk,  C. M. Krauter,  
 A. Kunitsa,  Ka Un Lao,  A. Laurent,  K. V. Lawler,  Joonho Lee,  
 D. Lefrancois,  S. Lehtola,  S. V. Levchenko,  D. S. Levine,  Yi-Pei Li,  
 Ching Yeh Lin,  You-Sheng Lin,  Fenglai Liu,  E. Livshits,  R. C. Lochan,  
 A. Luenser,  P. Manohar,  E. Mansoor,  S. F. Manzer,  Shan-Ping Mao,  
 Yuezhi Mao,  N. Mardirossian,  A. V. Marenich,  L. A. Martinez-Martinez,  
 S. A. Maurer,  N. J. Mayhall,  J.-M. Mewes,  A. F. Morrison,  K. Nanda,  
 T. S. Nguyen-Beck,  C. M. Oana,  R. Olivares-Amaya,  D. P. O'Neill,  
 J. A. Parkhill,  T. M. Perrine,  R. Peverati,  P. A. Pieniazek,  F. Plasser,  
 S. Prager,  A. Prociuk,  D. R. Rehn,  F. Rob,  E. Rosta,  N. J. Russ,  
 N. Sergueev,  S. M. Sharada,  S. Sharma,  D. W. Small,  A. Sodt,  T. Stauch,  
 T. Stein,  D. Stuck,  Yu-Chuan Su,  A. J. W. Thom,  T. Tsuchimochi,  
 V. Vanovschi,  L. Vogt,  O. Vydrov,  Tao Wang,  M. A. Watson,  J. Wenzel,  
 T. A. Wesolowski,  A. White,  C. F. Williams,  J. Witte,  Jun Yang,  K. Yao,  
 S. Yeganeh,  S. R. Yost,  Zhi-Qiang You,  A. Zech,  Igor Ying Zhang,  
 Xing Zhang,  Yan Zhao,  Ying Zhu,  B. R. Brooks,  G. K. L. Chan,  
 D. M. Chipman,  C. J. Cramer,  W. A. Goddard III,  M. S. Gordon,  
 W. J. Hehre,  A. Klamt,  H. F. Schaefer III,  M. W. Schmidt,  
 C. D. Sherrill,  D. G. Truhlar,  A. Warshel,  X. Xu,  A. Aspuru-Guzik,  
 R. Baer,  A. T. Bell,  N. A. Besley,  J.-D. Chai,  A. Dreuw,  B. D. Dunietz,  
 T. R. Furlani,  S. R. Gwaltney,  C.-P. Hsu,  Y. Jung,  J. Kong,  
 D. S. Lambrecht,  W. Liang,  C. Ochsenfeld,  V. A. Rassolov,  
 L. V. Slipchenko,  J. E. Subotnik,  T. Van Voorhis,  J. M. Herbert,  
 A. I. Krylov,  P. M. W. Gill,  M. Head-Gordon

 Contributors to earlier versions of Q-Chem not listed above: 
 R. D. Adamson,  J. Baker,  E. F. C. Byrd,  A. K. Chakraborty,  C.-L. Cheng,  
 H. Dachsel,  R. J. Doerksen,  G. Hawkins,  A. Heyden,  S. Hirata,  
 G. Kedziora,  F. J. Keil,  C. Kelley,  P. P. Korambath,  W. Kurlancheek,  
 A. M. Lee,  M. S. Lee,  D. Liotard,  I. Lotan,  P. E. Maslen,  N. Nair,  
 D. Neuhauser,  R. Olson,  B. Peters,  J. Ritchie,  N. E. Schultz,  
 N. Shenvi,  A. C. Simmonett,  K. S. Thanthiriwatte,  Q. Wu,  W. Zhang

 Please cite Q-Chem as follows:
 Y. Shao et al., Mol. Phys. 113, 184-215 (2015)
 DOI: 10.1080/00268976.2014.952696

 Q-Chem 4.4.2 for Intel X86 EM64T Linux

 Parts of Q-Chem use Armadillo 5.200.1 (Boston Tea Smuggler).
 http://arma.sourceforge.net/

 Q-Chem begins on Mon Dec  4 18:10:41 2017  

Host: nid00600
0

     Scratch files written to /global/cscratch1/sd/bwood/qchem/chain_dp/qchem32841.0//
 Parallel job on  16  processors

Checking the input file for inconsistencies... 	...done.

--------------------------------------------------------------
User input:
--------------------------------------------------------------
$molecule
 0  3
 S          -0.00889000        0.44706000       -0.02909000
 C           1.71286000        0.21793000       -0.03354000
 H           2.27445000        0.32963000        0.88302000
 C           2.21021000       -0.11151000       -1.29378000
 H           3.26388000       -0.28907000       -1.47300000
 C           1.23784000       -0.18827000       -2.27414000
 H           1.42420000       -0.42902000       -3.31323000
 C          -0.08862000        0.09193000       -1.77244000
 C          -1.27448000        0.10391000       -2.46020000
 C          -2.19632894       -0.98767545       -2.67998826
 H          -2.01714441       -1.98284106       -2.29272808
 C          -3.30118021       -0.61609619       -3.42415005
 H          -4.10398156       -1.29243023       -3.69233269
 C          -3.29662226        0.72500383       -3.80557274
 H          -4.04879988        1.24392417       -4.38253251
 S          -1.89389376        1.57979151       -3.24109939
$end


$rem
         jobtype = opt
        exchange = omegab97x-d
           basis = 6-31++g**
      gen_scfman = true
  max_scf_cycles = 300
   scf_algorithm = gdm_ls
       scf_guess = sad
      sym_ignore = true
        symmetry = false
          thresh = 14
$end


$opt
CONSTRAINT
tors 6 8 9 10 90.0
ENDCONSTRAINT
$end

--------------------------------------------------------------
 ----------------------------------------------------------------
             Standard Nuclear Orientation (Angstroms)
    I     Atom           X                Y                Z
 ----------------------------------------------------------------
    1      S      -0.0088900000     0.4470600000    -0.0290900000
    2      C       1.7128600000     0.2179300000    -0.0335400000
    3      H       2.2744500000     0.3296300000     0.8830200000
    4      C       2.2102100000    -0.1115100000    -1.2937800000
    5      H       3.2638800000    -0.2890700000    -1.4730000000
    6      C       1.2378400000    -0.1882700000    -2.2741400000
    7      H       1.4242000000    -0.4290200000    -3.3132300000
    8      C      -0.0886200000     0.0919300000    -1.7724400000
    9      C      -1.2744800000     0.1039100000    -2.4602000000
   10      C      -2.1963289400    -0.9876754500    -2.6799882600
   11      H      -2.0171444100    -1.9828410600    -2.2927280800
   12      C      -3.3011802100    -0.6160961900    -3.4241500500
   13      H      -4.1039815600    -1.2924302300    -3.6923326900
   14      C      -3.2966222600     0.7250038300    -3.8055727400
   15      H      -4.0487998800     1.2439241700    -4.3825325100
   16      S      -1.8938937600     1.5797915100    -3.2410993900
 ----------------------------------------------------------------
 Nuclear Repulsion Energy =   627.3606996584 hartrees
 There are       44 alpha and       42 beta electrons
 Requested basis set is 6-31++G(d,p)
 There are 76 shells and 234 basis functions

 Total QAlloc Memory Limit   2000 MB
 Mega-Array Size        61 MB
 MEM_STATIC part        62 MB
 A cutoff of  1.0D-14 yielded   2615 shell pairs
 There are     25599 function pairs
 Smallest overlap matrix eigenvalue = 6.93E-07
 Linear dependence detected in AO basis
 Number of orthogonalized atomic orbitals = 233
 Maximum deviation from orthogonality = 1.730E-11

 Scale SEOQF with 1.000000e-01/1.000000e-01/1.000000e-01

 Standard Electronic Orientation quadrupole field applied
 Nucleus-field energy     =    -0.0000000388 hartrees
 Guess from superposition of atomic densities
 Warning:  Energy on first SCF cycle will be non-variational

 ==================================================
    GEN_SCFMAN: A general SCF calculation manager  
                                                   
    Authors:                                       
        -- Eric Jon Sundstrom 2008-2014            
        -- Paul Horn 2010-2015                     
        -- Yuezhi Mao 2012-                        
        -- Dmitri Zuev 2014                        
        -- Alec White 2015-                        
        -- David Stuck 2015                        
        -- Shaama M.S. 2015                        
        -- Shane Yost 2015-                         
        -- Joonho Lee 2016-                        
        -- David Small 2016-                       
        -- Daniel Levine 2016-                     
 ==================================================
 Exchange:     0.2220 Hartree-Fock + 1.0000 wB97X-D + LR-HF
 Correlation:  1.0000 wB97X-D
 Using SG-2 standard quadrature grid
 Dispersion:   Grimme D
 A unrestricted SCF calculation will be
 performed using Roothaan-Hall, GDM with line-search
 ---------------------------------------
  Cycle       Energy         DIIS error
 ---------------------------------------
 -------------------------------------------------------
 OpenMP Integral computing Module                
 -------------------------------------------------------
 -------------------------------------------------------
 OpenMP Integral computing Module                
 -------------------------------------------------------
    1   -1107.5328073043      2.18e-02  Roothaan Step
GDM subspace size: 20
 ---------------------------------------
  Cycle       Energy          Error
 ---------------------------------------
 -------------------------------------------------------
 OpenMP Integral computing Module                
 -------------------------------------------------------
 -------------------------------------------------------
 OpenMP Integral computing Module                
 -------------------------------------------------------
    1   -1104.3555692682      6.67e-03  Preconditoned Steepest Descent
    2   -1104.3006015553      9.13e-03  LineSearch Step
    3   -1104.4308406671      4.75e-03  BFGS Step
    4   -1104.3984803719      4.76e-03  LineSearch Step
    5   -1104.4966784930      2.12e-03  BFGS Step
    6   -1104.5236126975      1.64e-03  BFGS Step
    7   -1104.5285044716      1.12e-03  BFGS Step
    8   -1104.5333347857      6.30e-04  BFGS Step
    9   -1104.5344137202      5.60e-04  BFGS Step
   10   -1104.5352853318      1.50e-04  BFGS Step
   11   -1104.5354217350      1.07e-04  BFGS Step
   12   -1104.5354809087      6.82e-05  BFGS Step
   13   -1104.5355029217      4.72e-05  BFGS Step
   14   -1104.5355162256      2.60e-05  BFGS Step
   15   -1104.5355235813      1.76e-05  BFGS Step
   16   -1104.5355276989      1.32e-05  BFGS Step
   17   -1104.5355293584      1.00e-05  BFGS Step
   18   -1104.5355300242      4.97e-06  BFGS Step
   19   -1104.5355301862      2.90e-06  BFGS Step
   20   -1104.5355302191      1.16e-06  BFGS Step
   21   -1104.5355302258      5.19e-07  BFGS Step
   22   -1104.5355302276      2.72e-07  BFGS Step
   23   -1104.5355302282      1.69e-07  BFGS Step
   24   -1104.5355302285      9.78e-08  BFGS Step
   25   -1104.5355302286      6.12e-08  BFGS Step
   26   -1104.5355302287      3.81e-08  BFGS Step
   27   -1104.5355302287      2.04e-08  BFGS Step
   28   -1104.5355302287      1.06e-08  BFGS Step
   29   -1104.5355302287      5.86e-09  Convergence criterion met
 ---------------------------------------
 SCF time:   CPU 41.85s  wall 40.00s 
<S^2> =          2.014566460
Wall 1 = 40
Clock 1 = 41.851566315
 ==================================================
                  Done GEN_SCFMAN                  
 ==================================================

 
 --------------------------------------------------------------
 
                    Orbital Energies (a.u.)
 --------------------------------------------------------------
 
 Alpha MOs
 -- Occupied --
-89.080 -89.056 -10.351 -10.347 -10.344 -10.340 -10.324 -10.323
-10.321 -10.314  -8.101  -8.079  -6.052  -6.048  -6.044  -6.030
 -6.026  -6.022  -1.004  -0.976  -0.884  -0.845  -0.845  -0.797
 -0.712  -0.663  -0.656  -0.629  -0.615  -0.564  -0.515  -0.506
 -0.497  -0.490  -0.489  -0.467  -0.456  -0.438  -0.431  -0.358
 -0.351  -0.340  -0.304  -0.189
 -- Virtual --
  0.022   0.039   0.045   0.055   0.058   0.069   0.072   0.078
  0.088   0.089   0.094   0.100   0.111   0.122   0.124   0.127
  0.130   0.136   0.158   0.159   0.161   0.165   0.168   0.171
  0.176   0.180   0.185   0.185   0.189   0.194   0.202   0.209
  0.212   0.215   0.220   0.226   0.234   0.240   0.243   0.245
  0.247   0.259   0.269   0.276   0.283   0.284   0.287   0.302
  0.306   0.327   0.332   0.337   0.339   0.349   0.351   0.388
  0.389   0.403   0.418   0.423   0.444   0.471   0.484   0.531
  0.554   0.558   0.597   0.617   0.631   0.657   0.660   0.666
  0.695   0.716   0.728   0.740   0.749   0.758   0.770   0.775
  0.802   0.809   0.824   0.846   0.852   0.860   0.869   0.886
  0.900   0.912   0.926   0.976   0.981   1.016   1.020   1.038
  1.048   1.052   1.057   1.074   1.078   1.080   1.100   1.104
  1.122   1.145   1.160   1.174   1.182   1.194   1.215   1.250
  1.268   1.311   1.322   1.356   1.404   1.412   1.430   1.434
  1.446   1.472   1.539   1.546   1.563   1.597   1.646   1.752
  1.774   1.858   1.876   1.925   1.980   1.991   2.005   2.010
  2.037   2.054   2.092   2.105   2.141   2.149   2.193   2.225
  2.249   2.266   2.271   2.333   2.362   2.426   2.451   2.460
  2.502   2.509   2.549   2.550   2.570   2.587   2.599   2.605
  2.659   2.671   2.681   2.731   2.781   2.789   2.862   2.915
  2.937   2.959   3.032   3.255   3.263   3.364   3.371   3.491
  3.512   3.816   3.832   4.061   4.074   4.357   4.383   4.405
  4.417   4.537   4.599   4.758   4.802
 
 Beta MOs
 -- Occupied --
-89.079 -89.055 -10.348 -10.340 -10.340 -10.335 -10.324 -10.321
-10.320 -10.314  -8.101  -8.079  -6.050  -6.047  -6.044  -6.030
 -6.026  -6.018  -0.990  -0.967  -0.866  -0.842  -0.835  -0.782
 -0.699  -0.651  -0.649  -0.621  -0.611  -0.557  -0.499  -0.493
 -0.489  -0.483  -0.480  -0.453  -0.438  -0.425  -0.422  -0.340
 -0.326  -0.304
 -- Virtual --
 -0.083   0.022   0.043   0.048   0.058   0.059   0.063   0.072
  0.077   0.084   0.092   0.098   0.102   0.108   0.121   0.127
  0.130   0.131   0.134   0.139   0.160   0.163   0.164   0.169
  0.173   0.174   0.179   0.183   0.188   0.189   0.192   0.196
  0.203   0.216   0.217   0.220   0.226   0.233   0.237   0.242
  0.245   0.252   0.253   0.262   0.272   0.277   0.284   0.286
  0.289   0.304   0.309   0.328   0.334   0.339   0.344   0.355
  0.358   0.394   0.395   0.406   0.423   0.427   0.450   0.475
  0.492   0.539   0.560   0.565   0.601   0.623   0.638   0.658
  0.666   0.670   0.700   0.724   0.735   0.753   0.766   0.773
  0.776   0.788   0.808   0.810   0.831   0.856   0.859   0.869
  0.874   0.891   0.905   0.919   0.936   0.980   0.985   1.023
  1.028   1.046   1.052   1.056   1.060   1.078   1.081   1.082
  1.105   1.111   1.128   1.150   1.164   1.177   1.189   1.200
  1.220   1.256   1.273   1.317   1.326   1.361   1.409   1.431
  1.439   1.440   1.450   1.478   1.551   1.553   1.571   1.605
  1.658   1.774   1.789   1.873   1.890   1.936   1.988   1.997
  2.013   2.017   2.051   2.062   2.100   2.112   2.146   2.163
  2.205   2.241   2.269   2.271   2.290   2.344   2.374   2.436
  2.457   2.461   2.513   2.517   2.554   2.558   2.576   2.599
  2.603   2.610   2.668   2.676   2.689   2.740   2.788   2.794
  2.871   2.922   2.942   2.964   3.039   3.260   3.265   3.366
  3.371   3.494   3.516   3.820   3.835   4.063   4.081   4.376
  4.395   4.415   4.420   4.553   4.616   4.766   4.810
 --------------------------------------------------------------
 
          Ground-State Mulliken Net Atomic Charges

     Atom                 Charge (a.u.)    Spin (a.u.)
  --------------------------------------------------------
      1 S                     0.008557       0.070150
      2 C                    -0.036692       0.006215
      3 H                     0.205675       0.003228
      4 C                    -0.378592       0.007092
      5 H                     0.138283       0.002019
      6 C                     0.229627       0.026590
      7 H                     0.154242      -0.004292
      8 C                    -0.243625      -0.038695
      9 C                    -0.389991       0.746005
     10 C                     0.196085       0.347852
     11 H                     0.163562      -0.019840
     12 C                    -0.362863      -0.037040
     13 H                     0.144121       0.000557
     14 C                     0.031427       0.788761
     15 H                     0.211901      -0.045080
     16 S                    -0.071716       0.146479
  --------------------------------------------------------
  Sum of atomic charges =    -0.000000
  Sum of spin   charges =     2.000000

 -----------------------------------------------------------------
                    Cartesian Multipole Moments
 -----------------------------------------------------------------
    Charge (ESU x 10^10)
                -0.0000
    Dipole Moment (Debye)
         X      -0.0613      Y      -1.2701      Z      -0.3594
       Tot       1.3214
    Quadrupole Moments (Debye-Ang)
        XX     -61.3146     XY       1.0789     YY     -75.3266
        XZ       6.3977     YZ       3.4706     ZZ     -68.2258
    Octopole Moments (Debye-Ang^2)
       XXX     139.4068    XXY     -23.5736    XYY      45.9115
       YYY     -69.0545    XXZ     102.3260    XYZ       3.4752
       YYZ     148.5936    XZZ      28.8151    YZZ     -24.5981
       ZZZ     430.1530
    Hexadecapole Moments (Debye-Ang^3)
      XXXX   -1580.5086   XXXY      74.5478   XXYY    -350.6652
      XYYY      96.2783   YYYY    -402.0259   XXXZ    -555.9663
      XXYZ      45.2504   XYYZ    -220.4537   YYYZ     163.5188
      XXZZ    -539.4632   XYZZ      -1.4604   YYZZ    -517.4802
      XZZZ    -619.2270   YZZZ     151.3925   ZZZZ   -2677.0966
 -----------------------------------------------------------------
 Calculating analytic gradient of the SCF energy
 Gradient of SCF Energy
            1           2           3           4           5           6
    1  -0.0188934   0.0013787  -0.0003056  -0.0096026  -0.0002411   0.0631789
    2   0.0056381   0.0030708  -0.0000508  -0.0064759  -0.0001211  -0.0098037
    3   0.0163610   0.0147003  -0.0003151  -0.0380518  -0.0007880  -0.0064742
            7           8           9          10          11          12
    1   0.0022455  -0.0896048   0.0290840   0.0461767  -0.0004537  -0.0200724
    2  -0.0005105   0.0089691  -0.0163444   0.0181981  -0.0003180   0.0443094
    3   0.0004482  -0.0177701   0.0246914   0.0204493  -0.0000972  -0.0245660
           13          14          15          16
    1  -0.0005193   0.0097368   0.0005803  -0.0126882
    2   0.0008593  -0.0241001   0.0004975  -0.0238178
    3  -0.0003679   0.0124565   0.0000043  -0.0006808
 Max gradient component =       8.960E-02
 RMS gradient           =       2.244E-02
 Gradient time:  CPU 3.75 s  wall 4.15 s
 Geometry Optimization Parameters
   NAtoms,    NIC,     NZ,  NCons,   NDum,   NFix, NCnnct, MaxDiis
       16     111       0       1       0       0       0       0


** CONSTRAINED OPTIMIZATION IN DELOCALIZED INTERNAL COORDINATES **
   Searching for a Minimum

   Optimization Cycle:   1

                       Coordinates (Angstroms)
     ATOM                X               Y               Z
      1  S        -0.0088900000    0.4470600000   -0.0290900000
      2  C         1.7128600000    0.2179300000   -0.0335400000
      3  H         2.2744500000    0.3296300000    0.8830200000
      4  C         2.2102100000   -0.1115100000   -1.2937800000
      5  H         3.2638800000   -0.2890700000   -1.4730000000
      6  C         1.2378400000   -0.1882700000   -2.2741400000
      7  H         1.4242000000   -0.4290200000   -3.3132300000
      8  C        -0.0886200000    0.0919300000   -1.7724400000
      9  C        -1.2744800000    0.1039100000   -2.4602000000
     10  C        -2.1963289400   -0.9876754500   -2.6799882600
     11  H        -2.0171444100   -1.9828410600   -2.2927280800
     12  C        -3.3011802100   -0.6160961900   -3.4241500500
     13  H        -4.1039815600   -1.2924302300   -3.6923326900
     14  C        -3.2966222600    0.7250038300   -3.8055727400
     15  H        -4.0487998800    1.2439241700   -4.3825325100
     16  S        -1.8938937600    1.5797915100   -3.2410993900
   Point Group: c1    Number of degrees of freedom:    42


   Energy is  -1104.535530229

              Constraints and their Current Values
                                        Value     Constraint
   Dihedral:        6   8   9  10       90.000       90.000

 Attempting to Generate Delocalized Internal Coordinates

 41 Hessian modes will be used to form the next step
  Hessian Eigenvalues:
     0.045000    0.045000    0.045000    0.045000    0.045000    0.045000
     0.045000    0.045000    0.045000    0.045000    0.045001    0.045001
     0.159998    0.159998    0.160000    0.160000    0.160000    0.160000
     0.221203    0.221203    0.237547    0.237547    0.250000    0.250000
     0.273272    0.273281    0.310431    0.310432    0.355805    0.355820
     0.356594    0.356613    0.359082    0.359088    0.375798    0.375815
     0.447512    0.447530    0.472255    0.472277    0.508002

 Minimum Search - Taking Simple RFO Step
 Searching for Lamda that Minimizes Along All modes
 Value Taken    Lamda =  -0.02722971
 Step Taken.  Stepsize is  0.250632

                             Maximum     Tolerance    Cnvgd?
         Gradient           0.044649      0.000300      NO
         Displacement       0.120508      0.001200      NO
         Energy change     *********      0.000001      NO


 New Cartesian Coordinates Obtained by Inverse Iteration

 Displacement from previous Coordinates is:  0.341096
 ----------------------------------------------------------------
             Standard Nuclear Orientation (Angstroms)
    I     Atom           X                Y                Z
 ----------------------------------------------------------------
    1      S       0.0579370477     0.4491399006    -0.0496971501
    2      C       1.7567849155     0.2124488509    -0.0146383038
    3      H       2.3131809317     0.3185519705     0.9064387434
    4      C       2.2311424235    -0.1125710914    -1.2555480431
    5      H       3.2817407200    -0.3015887413    -1.4416650464
    6      C       1.2243849013    -0.1736975875    -2.2441070117
    7      H       1.3930160794    -0.4117383765    -3.2867456598
    8      C      -0.0461194397     0.1033783837    -1.7760778716
    9      C      -1.2845056607     0.1254242185    -2.4929484599
   10      C      -2.2350569572    -1.0008928502    -2.7095323110
   11      H      -2.0474651361    -1.9929705329    -2.3190411842
   12      C      -3.3227329562    -0.6457156233    -3.4283926296
   13      H      -4.1232546721    -1.3291316574    -3.6855528204
   14      C      -3.3206843478     0.7334411523    -3.8214304116
   15      H      -4.0848819730     1.2411810657    -4.3929434260
   16      S      -1.8999868963     1.6270074982    -3.2729221345
 ----------------------------------------------------------------
 Nuclear Repulsion Energy =   623.5499242213 hartrees
 There are       44 alpha and       42 beta electrons
 Applying Cartesian multipole field
    Component          Value
    ---------          -----
     (2,0,0)        1.00000E-11
     (0,2,0)        2.00000E-11
     (0,0,2)       -3.00000E-11
 Nucleus-field energy     =    -0.0000000389 hartrees
 Requested basis set is 6-31++G(d,p)
 There are 76 shells and 234 basis functions
 A cutoff of  1.0D-14 yielded   2608 shell pairs
 There are     25536 function pairs
 Smallest overlap matrix eigenvalue = 9.90E-07
 Linear dependence detected in AO basis
 Number of orthogonalized atomic orbitals = 233
 Maximum deviation from orthogonality = 6.367E-11
 Guess MOs from SCF MO coefficient file
 Reading MOs from coefficient file
 Reading MOs from coefficient file

 ==================================================
    GEN_SCFMAN: A general SCF calculation manager  
                                                   
    Authors:                                       
        -- Eric Jon Sundstrom 2008-2014            
        -- Paul Horn 2010-2015                     
        -- Yuezhi Mao 2012-                        
        -- Dmitri Zuev 2014                        
        -- Alec White 2015-                        
        -- David Stuck 2015                        
        -- Shaama M.S. 2015                        
        -- Shane Yost 2015-                         
        -- Joonho Lee 2016-                        
        -- David Small 2016-                       
        -- Daniel Levine 2016-                     
 ==================================================
 Exchange:     0.2220 Hartree-Fock + 1.0000 wB97X-D + LR-HF
 Correlation:  1.0000 wB97X-D
 Using SG-2 standard quadrature grid
 Dispersion:   Grimme D
 A unrestricted SCF calculation will be
 performed using Roothaan-Hall, GDM with line-search
 Inaccurate integrated density:
   Number of electrons =    86
   Numerical integral  =    86.013293176233
   Relative error      =     0.0154571817 %
 ---------------------------------------
  Cycle       Energy         DIIS error
 ---------------------------------------
 -------------------------------------------------------
 OpenMP Integral computing Module                
 -------------------------------------------------------
 -------------------------------------------------------
 OpenMP Integral computing Module                
 -------------------------------------------------------
    1   -1104.5376240375      1.35e-03  Roothaan Step
GDM subspace size: 20
 ---------------------------------------
  Cycle       Energy          Error
 ---------------------------------------
 -------------------------------------------------------
 OpenMP Integral computing Module                
 -------------------------------------------------------
 -------------------------------------------------------
 OpenMP Integral computing Module                
 -------------------------------------------------------
    1   -1104.5486114895      7.98e-04  Preconditoned Steepest Descent
    2   -1104.5492709296      7.23e-04  BFGS Step
    3   -1104.5503225510      9.59e-05  BFGS Step
    4   -1104.5503613678      7.12e-05  BFGS Step
    5   -1104.5503877681      3.81e-05  BFGS Step
    6   -1104.5503978545      2.35e-05  BFGS Step
    7   -1104.5504032110      2.34e-05  BFGS Step
    8   -1104.5504062332      1.12e-05  BFGS Step
    9   -1104.5504069738      7.48e-06  BFGS Step
   10   -1104.5504072093      3.05e-06  BFGS Step
   11   -1104.5504072736      1.44e-06  BFGS Step
   12   -1104.5504072917      1.15e-06  BFGS Step
   13   -1104.5504072956      5.30e-07  BFGS Step
   14   -1104.5504072966      2.07e-07  BFGS Step
   15   -1104.5504072967      8.14e-08  BFGS Step
   16   -1104.5504072968      4.68e-08  BFGS Step
   17   -1104.5504072968      1.89e-08  BFGS Step
   18   -1104.5504072968      1.32e-08  BFGS Step
   19   -1104.5504072968      7.46e-09  Convergence criterion met
 ---------------------------------------
 SCF time:   CPU 28.03s  wall 29.00s 
<S^2> =          2.012263154
Wall 1 = 29
Clock 1 = 28.026596069
 ==================================================
                  Done GEN_SCFMAN                  
 ==================================================

 
 --------------------------------------------------------------
 
                    Orbital Energies (a.u.)
 --------------------------------------------------------------
 
 Alpha MOs
 -- Occupied --
-89.074 -89.060 -10.361 -10.348 -10.347 -10.337 -10.326 -10.324
-10.316 -10.312  -8.097  -8.083  -6.047  -6.043  -6.040  -6.033
 -6.029  -6.025  -1.000  -0.976  -0.876  -0.847  -0.840  -0.800
 -0.706  -0.660  -0.657  -0.628  -0.614  -0.566  -0.509  -0.506
 -0.495  -0.490  -0.483  -0.467  -0.459  -0.436  -0.428  -0.359
 -0.350  -0.335  -0.315  -0.198
 -- Virtual --
  0.031   0.040   0.045   0.055   0.059   0.069   0.073   0.078
  0.087   0.091   0.094   0.101   0.112   0.123   0.124   0.126
  0.131   0.137   0.158   0.160   0.161   0.166   0.167   0.170
  0.175   0.180   0.184   0.186   0.188   0.194   0.202   0.206
  0.209   0.214   0.220   0.226   0.233   0.238   0.242   0.244
  0.247   0.257   0.268   0.275   0.279   0.283   0.286   0.300
  0.306   0.320   0.330   0.333   0.334   0.343   0.359   0.383
  0.394   0.400   0.416   0.425   0.439   0.472   0.482   0.533
  0.554   0.559   0.598   0.605   0.630   0.653   0.664   0.672
  0.695   0.716   0.725   0.742   0.748   0.758   0.771   0.773
  0.797   0.812   0.814   0.842   0.849   0.855   0.867   0.887
  0.898   0.911   0.926   0.971   0.990   1.014   1.026   1.035
  1.045   1.051   1.057   1.075   1.076   1.082   1.093   1.111
  1.117   1.139   1.157   1.170   1.193   1.195   1.209   1.246
  1.267   1.306   1.319   1.358   1.396   1.412   1.429   1.437
  1.445   1.469   1.539   1.547   1.554   1.598   1.641   1.738
  1.782   1.840   1.887   1.910   1.964   1.975   2.002   2.007
  2.044   2.045   2.081   2.100   2.132   2.141   2.191   2.219
  2.245   2.257   2.278   2.321   2.346   2.416   2.451   2.459
  2.493   2.506   2.540   2.558   2.576   2.584   2.600   2.606
  2.642   2.675   2.684   2.726   2.781   2.788   2.843   2.895
  2.925   2.964   3.018   3.242   3.275   3.362   3.371   3.486
  3.513   3.805   3.838   4.062   4.068   4.344   4.388   4.399
  4.421   4.524   4.603   4.754   4.798
 
 Beta MOs
 -- Occupied --
-89.073 -89.060 -10.351 -10.348 -10.338 -10.337 -10.324 -10.323
-10.315 -10.312  -8.096  -8.082  -6.046  -6.042  -6.039  -6.033
 -6.030  -6.021  -0.993  -0.962  -0.862  -0.838  -0.837  -0.781
 -0.692  -0.655  -0.647  -0.621  -0.610  -0.560  -0.500  -0.496
 -0.485  -0.483  -0.475  -0.455  -0.430  -0.427  -0.421  -0.337
 -0.329  -0.315
 -- Virtual --
 -0.073   0.032   0.043   0.049   0.056   0.059   0.063   0.072
  0.077   0.084   0.091   0.099   0.102   0.108   0.121   0.127
  0.129   0.131   0.134   0.140   0.160   0.162   0.164   0.168
  0.173   0.174   0.179   0.183   0.188   0.190   0.192   0.195
  0.203   0.214   0.216   0.218   0.226   0.233   0.236   0.242
  0.244   0.249   0.253   0.261   0.272   0.277   0.282   0.284
  0.287   0.302   0.310   0.328   0.334   0.335   0.335   0.348
  0.363   0.388   0.398   0.405   0.422   0.427   0.443   0.476
  0.489   0.539   0.560   0.565   0.602   0.610   0.636   0.659
  0.666   0.675   0.699   0.721   0.733   0.754   0.766   0.775
  0.777   0.786   0.803   0.814   0.819   0.847   0.855   0.868
  0.874   0.891   0.905   0.917   0.939   0.976   0.992   1.026
  1.031   1.040   1.049   1.055   1.063   1.077   1.081   1.085
  1.100   1.115   1.122   1.144   1.165   1.174   1.195   1.200
  1.215   1.250   1.274   1.313   1.324   1.363   1.402   1.430
  1.438   1.443   1.449   1.476   1.546   1.557   1.564   1.607
  1.652   1.777   1.784   1.851   1.905   1.932   1.968   1.978
  2.008   2.026   2.049   2.057   2.089   2.112   2.141   2.164
  2.199   2.235   2.260   2.273   2.285   2.332   2.357   2.425
  2.458   2.461   2.507   2.511   2.546   2.562   2.581   2.599
  2.604   2.609   2.655   2.682   2.685   2.733   2.787   2.791
  2.851   2.901   2.932   2.966   3.024   3.246   3.276   3.364
  3.371   3.491   3.515   3.810   3.839   4.068   4.069   4.376
  4.391   4.407   4.424   4.542   4.617   4.762   4.805
 --------------------------------------------------------------
 
          Ground-State Mulliken Net Atomic Charges

     Atom                 Charge (a.u.)    Spin (a.u.)
  --------------------------------------------------------
      1 S                    -0.016012       0.045596
      2 C                     0.009027       0.003469
      3 H                     0.211805       0.003290
      4 C                    -0.404001       0.008251
      5 H                     0.137824       0.001057
      6 C                     0.250940       0.001838
      7 H                     0.152324      -0.003974
      8 C                    -0.271140      -0.021217
      9 C                    -0.332877       0.798092
     10 C                     0.131265       0.254377
     11 H                     0.160736      -0.016376
     12 C                    -0.300987      -0.007326
     13 H                     0.146091      -0.001307
     14 C                    -0.033052       0.844174
     15 H                     0.205803      -0.047601
     16 S                    -0.047746       0.137657
  --------------------------------------------------------
  Sum of atomic charges =     0.000000
  Sum of spin   charges =     2.000000

 -----------------------------------------------------------------
                    Cartesian Multipole Moments
 -----------------------------------------------------------------
    Charge (ESU x 10^10)
                 0.0000
    Dipole Moment (Debye)
         X      -0.0273      Y      -1.3353      Z      -0.3409
       Tot       1.3784
    Quadrupole Moments (Debye-Ang)
        XX     -61.2908     XY       1.5297     YY     -74.8393
        XZ       6.7915     YZ       3.5176     ZZ     -68.6577
    Octopole Moments (Debye-Ang^2)
       XXX     137.1730    XXY     -25.7190    XYY      44.6626
       YYY     -71.0194    XXZ     104.2823    XYZ       2.1649
       YYZ     147.9257    XZZ      28.3463    YZZ     -25.7011
       ZZZ     435.8252
    Hexadecapole Moments (Debye-Ang^3)
      XXXX   -1605.7373   XXXY      81.4509   XXYY    -355.3320
      XYYY      98.1484   YYYY    -412.8515   XXXZ    -565.8646
      XXYZ      52.4228   XYYZ    -222.7165   YYYZ     171.3831
      XXZZ    -552.4523   XYZZ       3.5717   YYZZ    -520.1635
      XZZZ    -636.3972   YZZZ     162.0684   ZZZZ   -2723.3068
 -----------------------------------------------------------------
 Calculating analytic gradient of the SCF energy
 Gradient of SCF Energy
            1           2           3           4           5           6
    1   0.0063712   0.0034204   0.0004343  -0.0096227   0.0003115   0.0134840
    2  -0.0010159   0.0007529  -0.0000963   0.0002070   0.0002747  -0.0008240
    3  -0.0001609   0.0056068   0.0001230  -0.0060371   0.0014996   0.0048892
            7           8           9          10          11          12
    1  -0.0019010  -0.0214864   0.0097437   0.0051817  -0.0017941  -0.0065256
    2   0.0001564   0.0017113  -0.0015207  -0.0001407  -0.0005630   0.0102390
    3   0.0005362  -0.0120951   0.0073190   0.0022052  -0.0008160  -0.0068343
           13          14          15          16
    1   0.0003501   0.0045719   0.0003914  -0.0029303
    2  -0.0011435  -0.0089960   0.0001644   0.0007944
    3   0.0006910   0.0051690  -0.0000896  -0.0020061
 Max gradient component =       2.149E-02
 RMS gradient           =       5.706E-03
 Gradient time:  CPU 3.71 s  wall 3.58 s
 Geometry Optimization Parameters
   NAtoms,    NIC,     NZ,  NCons,   NDum,   NFix, NCnnct, MaxDiis
       16     111       0       1       0       0       0       0

 Cartesian Hessian Update
 Hessian Updated using BFGS Update


** CONSTRAINED OPTIMIZATION IN DELOCALIZED INTERNAL COORDINATES **
   Searching for a Minimum

   Optimization Cycle:   2

                       Coordinates (Angstroms)
     ATOM                X               Y               Z
      1  S         0.0579370477    0.4491399006   -0.0496971501
      2  C         1.7567849155    0.2124488509   -0.0146383038
      3  H         2.3131809317    0.3185519705    0.9064387434
      4  C         2.2311424235   -0.1125710914   -1.2555480431
      5  H         3.2817407200   -0.3015887413   -1.4416650464
      6  C         1.2243849013   -0.1736975875   -2.2441070117
      7  H         1.3930160794   -0.4117383765   -3.2867456598
      8  C        -0.0461194397    0.1033783837   -1.7760778716
      9  C        -1.2845056607    0.1254242185   -2.4929484599
     10  C        -2.2350569572   -1.0008928502   -2.7095323110
     11  H        -2.0474651361   -1.9929705329   -2.3190411842
     12  C        -3.3227329562   -0.6457156233   -3.4283926296
     13  H        -4.1232546721   -1.3291316574   -3.6855528204
     14  C        -3.3206843478    0.7334411523   -3.8214304116
     15  H        -4.0848819730    1.2411810657   -4.3929434260
     16  S        -1.8999868963    1.6270074982   -3.2729221345
   Point Group: c1    Number of degrees of freedom:    42


   Energy is  -1104.550407297

              Constraints and their Current Values
                                        Value     Constraint
   Dihedral:        6   8   9  10       90.000       90.000
 Hessian Updated using BFGS Update

 41 Hessian modes will be used to form the next step
  Hessian Eigenvalues:
     0.044968    0.045000    0.045000    0.045000    0.045000    0.045000
     0.045000    0.045000    0.045000    0.045001    0.045001    0.045002
     0.159487    0.159998    0.159999    0.160000    0.160000    0.160647
     0.219994    0.221650    0.236735    0.244061    0.249497    0.250061
     0.270252    0.276202    0.307294    0.314503    0.355776    0.355805
     0.356362    0.356595    0.359036    0.359087    0.366913    0.393753
     0.427169    0.452644    0.465182    0.473000    0.495419

 Minimum Search - Taking Simple RFO Step
 Searching for Lamda that Minimizes Along All modes
 Value Taken    Lamda =  -0.00192157
 Step Taken.  Stepsize is  0.089893

                             Maximum     Tolerance    Cnvgd?
         Gradient           0.010082      0.000300      NO
         Displacement       0.035416      0.001200      NO
         Energy change     -0.014877      0.000001      NO


 New Cartesian Coordinates Obtained by Inverse Iteration

 Displacement from previous Coordinates is:  0.132980
 ----------------------------------------------------------------
             Standard Nuclear Orientation (Angstroms)
    I     Atom           X                Y                Z
 ----------------------------------------------------------------
    1      S       0.0396153131     0.4558562540    -0.0579863346
    2      C       1.7380084790     0.2079524690    -0.0239995323
    3      H       2.2835733747     0.3137314568     0.9030095806
    4      C       2.2361369941    -0.1208805586    -1.2529834508
    5      H       3.2857345721    -0.3159495414    -1.4385788616
    6      C       1.2253652281    -0.1758446021    -2.2485400260
    7      H       1.4028376806    -0.4144767251    -3.2910003377
    8      C      -0.0286842167     0.1076972854    -1.7764203726
    9      C      -1.2792129252     0.1335508212    -2.5033714856
   10      C      -2.2264410679    -0.9986855525    -2.7106740512
   11      H      -2.0185671114    -1.9838512807    -2.3126652623
   12      C      -3.3149890593    -0.6512089936    -3.4183330285
   13      H      -4.1171669792    -1.3332757369    -3.6718589437
   14      C      -3.3299730002     0.7403301914    -3.8197631941
   15      H      -4.1035613454     1.2426701845    -4.3838545776
   16      S      -1.8991769565     1.6346509086    -3.2777838419
 ----------------------------------------------------------------
 Nuclear Repulsion Energy =   623.5429045117 hartrees
 There are       44 alpha and       42 beta electrons
 Applying Cartesian multipole field
    Component          Value
    ---------          -----
     (2,0,0)        1.00000E-11
     (0,2,0)        2.00000E-11
     (0,0,2)       -3.00000E-11
 Nucleus-field energy     =    -0.0000000389 hartrees
 Requested basis set is 6-31++G(d,p)
 There are 76 shells and 234 basis functions
 A cutoff of  1.0D-14 yielded   2607 shell pairs
 There are     25536 function pairs
 Smallest overlap matrix eigenvalue = 1.07E-06
 No. of orbitals has changed due to linear dependencies.  Generating new SCF guess.
 Guess from superposition of atomic densities
 Warning:  Energy on first SCF cycle will be non-variational

 ==================================================
    GEN_SCFMAN: A general SCF calculation manager  
                                                   
    Authors:                                       
        -- Eric Jon Sundstrom 2008-2014            
        -- Paul Horn 2010-2015                     
        -- Yuezhi Mao 2012-                        
        -- Dmitri Zuev 2014                        
        -- Alec White 2015-                        
        -- David Stuck 2015                        
        -- Shaama M.S. 2015                        
        -- Shane Yost 2015-                         
        -- Joonho Lee 2016-                        
        -- David Small 2016-                       
        -- Daniel Levine 2016-                     
 ==================================================
 Exchange:     0.2220 Hartree-Fock + 1.0000 wB97X-D + LR-HF
 Correlation:  1.0000 wB97X-D
 Using SG-2 standard quadrature grid
 Dispersion:   Grimme D
 A unrestricted SCF calculation will be
 performed using Roothaan-Hall, GDM with line-search
 ---------------------------------------
  Cycle       Energy         DIIS error
 ---------------------------------------
 -------------------------------------------------------
 OpenMP Integral computing Module                
 -------------------------------------------------------
 -------------------------------------------------------
 OpenMP Integral computing Module                
 -------------------------------------------------------
    1   -1107.4313715078      2.15e-02  Roothaan Step
GDM subspace size: 20
 ---------------------------------------
  Cycle       Energy          Error
 ---------------------------------------
 -------------------------------------------------------
 OpenMP Integral computing Module                
 -------------------------------------------------------
 -------------------------------------------------------
 OpenMP Integral computing Module                
 -------------------------------------------------------
    1   -1104.4796400487      5.09e-03  Preconditoned Steepest Descent
    2   -1104.5087118791      4.35e-03  BFGS Step
    3   -1104.5495599475      7.61e-04  BFGS Step
    4   -1104.5506340697      5.78e-04  BFGS Step
    5   -1104.5513968019      1.56e-04  BFGS Step
    6   -1104.5514497584      1.18e-04  BFGS Step
    7   -1104.5514834835      4.07e-05  BFGS Step
    8   -1104.5514882830      2.20e-05  BFGS Step
    9   -1104.5514900480      8.10e-06  BFGS Step
   10   -1104.5514907535      7.61e-06  BFGS Step
   11   -1104.5514910579      4.52e-06  BFGS Step
   12   -1104.5514911872      2.32e-06  BFGS Step
   13   -1104.5514912324      1.72e-06  BFGS Step
   14   -1104.5514912491      9.57e-07  BFGS Step
   15   -1104.5514912568      5.22e-07  BFGS Step
   16   -1104.5514912585      2.44e-07  BFGS Step
   17   -1104.5514912590      1.25e-07  BFGS Step
   18   -1104.5514912591      8.92e-08  BFGS Step
   19   -1104.5514912591      3.93e-08  BFGS Step
   20   -1104.5514912591      2.33e-08  BFGS Step
   21   -1104.5514912591      1.41e-08  BFGS Step
   22   -1104.5514912591      6.01e-09  Convergence criterion met
 ---------------------------------------
 SCF time:   CPU 31.98s  wall 33.00s 
<S^2> =          2.010917014
Wall 1 = 33
Clock 1 = 31.982162476
 ==================================================
                  Done GEN_SCFMAN                  
 ==================================================

 
 --------------------------------------------------------------
 
                    Orbital Energies (a.u.)
 --------------------------------------------------------------
 
 Alpha MOs
 -- Occupied --
-89.075 -89.060 -10.361 -10.349 -10.346 -10.336 -10.325 -10.324
-10.315 -10.313  -8.098  -8.082  -6.048  -6.044  -6.040  -6.033
 -6.029  -6.025  -1.000  -0.975  -0.873  -0.847  -0.842  -0.799
 -0.703  -0.661  -0.658  -0.628  -0.614  -0.565  -0.507  -0.507
 -0.494  -0.489  -0.480  -0.467  -0.459  -0.435  -0.432  -0.359
 -0.350  -0.336  -0.316  -0.199
 -- Virtual --
  0.033   0.040   0.044   0.055   0.059   0.069   0.073   0.078
  0.087   0.091   0.094   0.100   0.112   0.120   0.124   0.126
  0.131   0.137   0.156   0.158   0.161   0.166   0.167   0.170
  0.173   0.180   0.185   0.185   0.188   0.194   0.200   0.206
  0.210   0.214   0.220   0.226   0.232   0.234   0.238   0.245
  0.247   0.250   0.268   0.275   0.276   0.282   0.283   0.300
  0.305   0.317   0.319   0.333   0.334   0.341   0.359   0.379
  0.385   0.394   0.399   0.417   0.427   0.440   0.472   0.502
  0.535   0.554   0.565   0.598   0.611   0.630   0.653   0.662
  0.671   0.695   0.716   0.727   0.742   0.748   0.758   0.772
  0.775   0.797   0.812   0.813   0.842   0.851   0.855   0.868
  0.887   0.899   0.911   0.926   0.972   0.995   1.013   1.027
  1.035   1.053   1.055   1.065   1.076   1.082   1.092   1.104
  1.113   1.117   1.139   1.157   1.170   1.189   1.195   1.209
  1.267   1.304   1.308   1.332   1.360   1.396   1.411   1.432
  1.439   1.444   1.469   1.534   1.547   1.554   1.599   1.641
  1.737   1.780   1.843   1.879   1.916   1.960   1.971   2.004
  2.010   2.043   2.055   2.081   2.101   2.134   2.142   2.191
  2.215   2.249   2.254   2.286   2.322   2.347   2.413   2.451
  2.460   2.492   2.506   2.545   2.557   2.583   2.586   2.601
  2.605   2.643   2.673   2.681   2.725   2.781   2.789   2.843
  2.891   2.920   2.969   3.014   3.239   3.271   3.365   3.369
  3.484   3.515   3.807   3.839   4.060   4.068   4.352   4.396
  4.410   4.428   4.523   4.613   4.754   4.799
 
 Beta MOs
 -- Occupied --
-89.074 -89.059 -10.350 -10.347 -10.339 -10.336 -10.324 -10.322
-10.315 -10.313  -8.097  -8.082  -6.047  -6.043  -6.040  -6.033
 -6.029  -6.021  -0.994  -0.960  -0.859  -0.839  -0.837  -0.779
 -0.689  -0.656  -0.646  -0.621  -0.610  -0.559  -0.501  -0.493
 -0.486  -0.482  -0.472  -0.454  -0.432  -0.425  -0.423  -0.338
 -0.330  -0.317
 -- Virtual --
 -0.071   0.034   0.043   0.048   0.057   0.059   0.063   0.072
  0.076   0.083   0.090   0.098   0.102   0.108   0.119   0.127
  0.128   0.129   0.134   0.139   0.159   0.160   0.164   0.169
  0.173   0.174   0.177   0.183   0.188   0.191   0.192   0.195
  0.202   0.213   0.217   0.218   0.226   0.233   0.235   0.236
  0.243   0.248   0.252   0.255   0.272   0.277   0.279   0.283
  0.285   0.303   0.309   0.321   0.325   0.334   0.335   0.346
  0.362   0.387   0.388   0.398   0.404   0.423   0.429   0.443
  0.475   0.509   0.541   0.560   0.571   0.601   0.616   0.637
  0.659   0.663   0.674   0.700   0.722   0.734   0.754   0.766
  0.777   0.779   0.787   0.803   0.813   0.820   0.847   0.855
  0.869   0.876   0.890   0.905   0.917   0.940   0.977   0.997
  1.026   1.033   1.039   1.055   1.058   1.069   1.080   1.084
  1.099   1.107   1.118   1.122   1.144   1.165   1.174   1.191
  1.200   1.215   1.271   1.308   1.317   1.337   1.366   1.401
  1.433   1.438   1.443   1.450   1.476   1.542   1.557   1.563
  1.607   1.651   1.776   1.782   1.854   1.893   1.942   1.966
  1.973   2.009   2.029   2.049   2.066   2.089   2.114   2.145
  2.163   2.199   2.232   2.259   2.276   2.290   2.333   2.357
  2.421   2.458   2.462   2.507   2.512   2.549   2.561   2.589
  2.600   2.607   2.608   2.656   2.677   2.686   2.732   2.788
  2.791   2.851   2.897   2.928   2.971   3.021   3.244   3.273
  3.366   3.369   3.490   3.517   3.812   3.840   4.066   4.069
  4.380   4.407   4.415   4.431   4.541   4.627   4.762   4.806
 --------------------------------------------------------------
 
          Ground-State Mulliken Net Atomic Charges

     Atom                 Charge (a.u.)    Spin (a.u.)
  --------------------------------------------------------
      1 S                    -0.001573       0.038104
      2 C                    -0.053278       0.003735
      3 H                     0.206249       0.003159
      4 C                    -0.423966       0.008542
      5 H                     0.136585       0.001082
      6 C                     0.251194      -0.004007
      7 H                     0.151937      -0.003965
      8 C                    -0.502841      -0.078378
      9 C                     0.035320       0.865052
     10 C                     0.125447       0.212604
     11 H                     0.160754      -0.014189
     12 C                    -0.302229       0.020328
     13 H                     0.144745      -0.002908
     14 C                    -0.082192       0.863625
     15 H                     0.201950      -0.049216
     16 S                    -0.048101       0.136434
  --------------------------------------------------------
  Sum of atomic charges =     0.000000
  Sum of spin   charges =     2.000000

 -----------------------------------------------------------------
                    Cartesian Multipole Moments
 -----------------------------------------------------------------
    Charge (ESU x 10^10)
                 0.0000
    Dipole Moment (Debye)
         X      -0.0049      Y      -1.3534      Z      -0.2831
       Tot       1.3827
    Quadrupole Moments (Debye-Ang)
        XX     -61.3953     XY       1.4423     YY     -74.8613
        XZ       6.4397     YZ       3.6014     ZZ     -68.9213
    Octopole Moments (Debye-Ang^2)
       XXX     137.6028    XXY     -25.9016    XYY      45.0656
       YYY     -71.6538    XXZ     104.3173    XYZ       2.2799
       YYZ     148.3756    XZZ      29.5087    YZZ     -26.1723
       ZZZ     438.0082
    Hexadecapole Moments (Debye-Ang^3)
      XXXX   -1601.3361   XXXY      81.7981   XXYY    -355.7788
      XYYY     100.4608   YYYY    -416.1188   XXXZ    -566.0403
      XXYZ      52.3451   XYYZ    -223.0753   YYYZ     173.7782
      XXZZ    -553.3344   XYZZ       3.9937   YYZZ    -521.8530
      XZZZ    -639.9737   YZZZ     165.6447   ZZZZ   -2733.0104
 -----------------------------------------------------------------
 Calculating analytic gradient of the SCF energy
 Gradient of SCF Energy
            1           2           3           4           5           6
    1   0.0009828  -0.0018446  -0.0002653  -0.0019941   0.0004783   0.0007185
    2   0.0000667   0.0002222  -0.0000749  -0.0002780  -0.0000359   0.0008459
    3   0.0015928  -0.0005127  -0.0004013  -0.0029868   0.0001168   0.0045656
            7           8           9          10          11          12
    1  -0.0005029   0.0010495   0.0039848  -0.0022579  -0.0006244   0.0000125
    2  -0.0001380  -0.0003624   0.0011144  -0.0028700  -0.0001824   0.0036817
    3  -0.0002939  -0.0039569   0.0039003  -0.0011236  -0.0001424  -0.0013348
           13          14          15          16
    1   0.0004735   0.0005531   0.0000373  -0.0008012
    2  -0.0004907  -0.0035682   0.0002882   0.0017815
    3   0.0005414   0.0014551  -0.0003620  -0.0010576
 Max gradient component =       4.566E-03
 RMS gradient           =       1.731E-03
 Gradient time:  CPU 3.72 s  wall 3.54 s
 Geometry Optimization Parameters
   NAtoms,    NIC,     NZ,  NCons,   NDum,   NFix, NCnnct, MaxDiis
       16     111       0       1       0       0       0       0

 Cartesian Hessian Update
 Hessian Updated using BFGS Update


** CONSTRAINED OPTIMIZATION IN DELOCALIZED INTERNAL COORDINATES **
   Searching for a Minimum

   Optimization Cycle:   3

                       Coordinates (Angstroms)
     ATOM                X               Y               Z
      1  S         0.0396153131    0.4558562540   -0.0579863346
      2  C         1.7380084790    0.2079524690   -0.0239995323
      3  H         2.2835733747    0.3137314568    0.9030095806
      4  C         2.2361369941   -0.1208805586   -1.2529834508
      5  H         3.2857345721   -0.3159495414   -1.4385788616
      6  C         1.2253652281   -0.1758446021   -2.2485400260
      7  H         1.4028376806   -0.4144767251   -3.2910003377
      8  C        -0.0286842167    0.1076972854   -1.7764203726
      9  C        -1.2792129252    0.1335508212   -2.5033714856
     10  C        -2.2264410679   -0.9986855525   -2.7106740512
     11  H        -2.0185671114   -1.9838512807   -2.3126652623
     12  C        -3.3149890593   -0.6512089936   -3.4183330285
     13  H        -4.1171669792   -1.3332757369   -3.6718589437
     14  C        -3.3299730002    0.7403301914   -3.8197631941
     15  H        -4.1035613454    1.2426701845   -4.3838545776
     16  S        -1.8991769565    1.6346509086   -3.2777838419
   Point Group: c1    Number of degrees of freedom:    42


   Energy is  -1104.551491259

              Constraints and their Current Values
                                        Value     Constraint
   Dihedral:        6   8   9  10       90.000       90.000
 Hessian Updated using BFGS Update

 39 Hessian modes will be used to form the next step
  Hessian Eigenvalues:
     0.043849    0.045000    0.045000    0.045000    0.045000    0.045000
     0.045001    0.045001    0.045002    0.045010    0.146768    0.159998
     0.159999    0.160000    0.160107    0.160467    0.220338    0.225003
     0.234201    0.237863    0.249880    0.254047    0.273787    0.278989
     0.304385    0.314951    0.355378    0.355909    0.356487    0.356600
     0.359082    0.359711    0.360308    0.406714    0.413331    0.451635
     0.466571    0.483932    0.497254

 Minimum Search - Taking Simple RFO Step
 Searching for Lamda that Minimizes Along All modes
 Value Taken    Lamda =  -0.00023054
 Step Taken.  Stepsize is  0.038421

                             Maximum     Tolerance    Cnvgd?
         Gradient           0.002853      0.000300      NO
         Displacement       0.014163      0.001200      NO
         Energy change     -0.001084      0.000001      NO


 New Cartesian Coordinates Obtained by Inverse Iteration

 Displacement from previous Coordinates is:  0.084069
 ----------------------------------------------------------------
             Standard Nuclear Orientation (Angstroms)
    I     Atom           X                Y                Z
 ----------------------------------------------------------------
    1      S       0.0352737424     0.4605916213    -0.0684147645
    2      C       1.7351405764     0.2078287291    -0.0217071702
    3      H       2.2756641606     0.3147982045     0.9089699516
    4      C       2.2383934353    -0.1250646701    -1.2469296840
    5      H       3.2872324673    -0.3236845393    -1.4287345349
    6      C       1.2297871055    -0.1795372874    -2.2525651433
    7      H       1.4164458191    -0.4202453174    -3.2927077750
    8      C      -0.0261188819     0.1095477733    -1.7835631967
    9      C      -1.2789732440     0.1357809855    -2.5156454634
   10      C      -2.2208801860    -0.9958138879    -2.7156273204
   11      H      -2.0009652112    -1.9775129965    -2.3154679269
   12      C      -3.3162610068    -0.6537770343    -3.4149614259
   13      H      -4.1215388892    -1.3335027297    -3.6658818609
   14      C      -3.3387012131     0.7434030629    -3.8168697898
   15      H      -4.1190276849     1.2445156636    -4.3718381659
   16      S      -1.9019720095     1.6349390025    -3.2828594498
 ----------------------------------------------------------------
 Nuclear Repulsion Energy =   623.4295338645 hartrees
 There are       44 alpha and       42 beta electrons
 Applying Cartesian multipole field
    Component          Value
    ---------          -----
     (2,0,0)        1.00000E-11
     (0,2,0)        2.00000E-11
     (0,0,2)       -3.00000E-11
 Nucleus-field energy     =    -0.0000000390 hartrees
 Requested basis set is 6-31++G(d,p)
 There are 76 shells and 234 basis functions
 A cutoff of  1.0D-14 yielded   2607 shell pairs
 There are     25536 function pairs
 Smallest overlap matrix eigenvalue = 1.11E-06
 Guess MOs from SCF MO coefficient file
 Reading MOs from coefficient file
 Reading MOs from coefficient file

 ==================================================
    GEN_SCFMAN: A general SCF calculation manager  
                                                   
    Authors:                                       
        -- Eric Jon Sundstrom 2008-2014            
        -- Paul Horn 2010-2015                     
        -- Yuezhi Mao 2012-                        
        -- Dmitri Zuev 2014                        
        -- Alec White 2015-                        
        -- David Stuck 2015                        
        -- Shaama M.S. 2015                        
        -- Shane Yost 2015-                         
        -- Joonho Lee 2016-                        
        -- David Small 2016-                       
        -- Daniel Levine 2016-                     
 ==================================================
 Exchange:     0.2220 Hartree-Fock + 1.0000 wB97X-D + LR-HF
 Correlation:  1.0000 wB97X-D
 Using SG-2 standard quadrature grid
 Dispersion:   Grimme D
 A unrestricted SCF calculation will be
 performed using Roothaan-Hall, GDM with line-search
 Inaccurate integrated density:
   Number of electrons =    86
   Numerical integral  =    85.986890047630
   Relative error      =    -0.0152441307 %
 ---------------------------------------
  Cycle       Energy         DIIS error
 ---------------------------------------
 -------------------------------------------------------
 OpenMP Integral computing Module                
 -------------------------------------------------------
 -------------------------------------------------------
 OpenMP Integral computing Module                
 -------------------------------------------------------
    1   -1104.5448172103      2.06e-04  Roothaan Step
GDM subspace size: 20
 ---------------------------------------
  Cycle       Energy          Error
 ---------------------------------------
 -------------------------------------------------------
 OpenMP Integral computing Module                
 -------------------------------------------------------
 -------------------------------------------------------
 OpenMP Integral computing Module                
 -------------------------------------------------------
    1   -1104.5516029852      8.19e-05  Preconditoned Steepest Descent
    2   -1104.5516248282      5.36e-05  BFGS Step
    3   -1104.5516334837      2.08e-05  BFGS Step
    4   -1104.5516358260      1.34e-05  BFGS Step
    5   -1104.5516373552      1.01e-05  BFGS Step
    6   -1104.5516383171      6.25e-06  BFGS Step
    7   -1104.5516385381      3.44e-06  BFGS Step
    8   -1104.5516386228      1.67e-06  BFGS Step
    9   -1104.5516386400      1.16e-06  BFGS Step
   10   -1104.5516386450      7.14e-07  BFGS Step
   11   -1104.5516386467      3.91e-07  BFGS Step
   12   -1104.5516386471      1.74e-07  BFGS Step
   13   -1104.5516386472      4.87e-08  BFGS Step
   14   -1104.5516386472      2.65e-08  BFGS Step
   15   -1104.5516386472      1.00e-08  BFGS Step
   16   -1104.5516386472      5.73e-09  Convergence criterion met
 ---------------------------------------
 SCF time:   CPU 24.09s  wall 22.00s 
<S^2> =          2.010314599
Wall 1 = 22
Clock 1 = 24.094022751
 ==================================================
                  Done GEN_SCFMAN                  
 ==================================================

 
 --------------------------------------------------------------
 
                    Orbital Energies (a.u.)
 --------------------------------------------------------------
 
 Alpha MOs
 -- Occupied --
-89.075 -89.060 -10.361 -10.349 -10.347 -10.336 -10.325 -10.324
-10.316 -10.313  -8.098  -8.083  -6.048  -6.044  -6.040  -6.033
 -6.029  -6.025  -1.000  -0.975  -0.873  -0.847  -0.841  -0.799
 -0.702  -0.661  -0.658  -0.627  -0.614  -0.565  -0.507  -0.507
 -0.495  -0.488  -0.479  -0.467  -0.459  -0.435  -0.431  -0.359
 -0.350  -0.335  -0.317  -0.199
 -- Virtual --
  0.034   0.040   0.044   0.055   0.059   0.069   0.073   0.078
  0.087   0.091   0.094   0.100   0.111   0.120   0.124   0.126
  0.131   0.137   0.156   0.158   0.161   0.166   0.167   0.171
  0.173   0.180   0.185   0.185   0.188   0.194   0.200   0.206
  0.210   0.214   0.220   0.225   0.232   0.234   0.238   0.245
  0.246   0.250   0.268   0.275   0.276   0.282   0.283   0.301
  0.305   0.317   0.319   0.332   0.334   0.341   0.359   0.378
  0.384   0.394   0.398   0.417   0.426   0.440   0.472   0.501
  0.535   0.554   0.564   0.598   0.610   0.631   0.652   0.661
  0.670   0.695   0.716   0.727   0.742   0.748   0.758   0.771
  0.776   0.797   0.812   0.813   0.840   0.851   0.855   0.868
  0.886   0.899   0.911   0.926   0.972   0.995   1.013   1.026
  1.035   1.054   1.055   1.065   1.076   1.082   1.093   1.104
  1.114   1.118   1.138   1.157   1.170   1.189   1.194   1.209
  1.267   1.302   1.307   1.332   1.360   1.396   1.411   1.432
  1.439   1.444   1.468   1.532   1.547   1.554   1.599   1.640
  1.737   1.779   1.848   1.876   1.916   1.959   1.967   2.003
  2.011   2.041   2.054   2.080   2.100   2.134   2.140   2.189
  2.212   2.249   2.254   2.284   2.321   2.346   2.410   2.451
  2.460   2.491   2.505   2.543   2.554   2.582   2.585   2.601
  2.604   2.643   2.671   2.681   2.724   2.780   2.787   2.841
  2.889   2.918   2.965   3.011   3.238   3.268   3.365   3.369
  3.484   3.515   3.808   3.836   4.060   4.068   4.352   4.395
  4.411   4.427   4.522   4.613   4.753   4.797
 
 Beta MOs
 -- Occupied --
-89.074 -89.060 -10.350 -10.348 -10.339 -10.336 -10.325 -10.322
-10.315 -10.313  -8.097  -8.082  -6.047  -6.043  -6.040  -6.033
 -6.029  -6.021  -0.994  -0.960  -0.859  -0.839  -0.837  -0.780
 -0.688  -0.656  -0.647  -0.621  -0.610  -0.559  -0.501  -0.493
 -0.486  -0.482  -0.471  -0.454  -0.432  -0.425  -0.423  -0.338
 -0.330  -0.317
 -- Virtual --
 -0.071   0.034   0.043   0.048   0.058   0.059   0.063   0.072
  0.076   0.084   0.090   0.098   0.102   0.108   0.119   0.127
  0.128   0.129   0.134   0.139   0.159   0.160   0.163   0.169
  0.173   0.174   0.177   0.183   0.188   0.191   0.192   0.195
  0.202   0.213   0.217   0.218   0.226   0.233   0.235   0.236
  0.243   0.248   0.252   0.255   0.272   0.277   0.279   0.283
  0.284   0.303   0.309   0.321   0.325   0.334   0.335   0.345
  0.363   0.386   0.387   0.398   0.404   0.423   0.428   0.443
  0.475   0.508   0.541   0.560   0.570   0.601   0.616   0.637
  0.658   0.663   0.674   0.700   0.722   0.735   0.754   0.765
  0.777   0.780   0.787   0.804   0.813   0.819   0.846   0.855
  0.869   0.875   0.890   0.905   0.917   0.939   0.976   0.996
  1.025   1.033   1.039   1.055   1.059   1.069   1.080   1.085
  1.100   1.107   1.118   1.122   1.144   1.166   1.174   1.191
  1.200   1.214   1.271   1.308   1.315   1.336   1.365   1.401
  1.433   1.438   1.443   1.450   1.475   1.540   1.557   1.563
  1.607   1.651   1.777   1.781   1.859   1.890   1.941   1.965
  1.969   2.008   2.030   2.047   2.065   2.088   2.113   2.143
  2.162   2.198   2.230   2.258   2.275   2.289   2.333   2.356
  2.419   2.458   2.461   2.506   2.511   2.547   2.559   2.588
  2.599   2.607   2.608   2.656   2.675   2.685   2.730   2.788
  2.790   2.849   2.895   2.926   2.967   3.017   3.242   3.269
  3.367   3.370   3.489   3.516   3.812   3.838   4.066   4.069
  4.380   4.406   4.416   4.430   4.540   4.626   4.761   4.804
 --------------------------------------------------------------
 
          Ground-State Mulliken Net Atomic Charges

     Atom                 Charge (a.u.)    Spin (a.u.)
  --------------------------------------------------------
      1 S                    -0.003610       0.036054
      2 C                    -0.051339       0.004065
      3 H                     0.206359       0.003132
      4 C                    -0.431222       0.008087
      5 H                     0.136301       0.001053
      6 C                     0.256019      -0.004129
      7 H                     0.151778      -0.003881
      8 C                    -0.515903      -0.075244
      9 C                     0.050597       0.858496
     10 C                     0.125516       0.192911
     11 H                     0.161110      -0.013123
     12 C                    -0.301066       0.036979
     13 H                     0.145062      -0.003745
     14 C                    -0.083007       0.871349
     15 H                     0.201942      -0.049578
     16 S                    -0.048534       0.137576
  --------------------------------------------------------
  Sum of atomic charges =     0.000000
  Sum of spin   charges =     2.000000

 -----------------------------------------------------------------
                    Cartesian Multipole Moments
 -----------------------------------------------------------------
    Charge (ESU x 10^10)
                 0.0000
    Dipole Moment (Debye)
         X      -0.0057      Y      -1.3543      Z      -0.2665
       Tot       1.3803
    Quadrupole Moments (Debye-Ang)
        XX     -61.3271     XY       1.3843     YY     -74.8972
        XZ       6.4221     YZ       3.6253     ZZ     -69.0295
    Octopole Moments (Debye-Ang^2)
       XXX     137.1926    XXY     -25.8386    XYY      45.2178
       YYY     -71.7908    XXZ     104.3470    XYZ       2.4034
       YYZ     148.7441    XZZ      29.9028    YZZ     -26.3698
       ZZZ     439.5988
    Hexadecapole Moments (Debye-Ang^3)
      XXXX   -1600.6374   XXXY      81.7643   XXYY    -356.4449
      XYYY     101.2899   YYYY    -416.9368   XXXZ    -565.0628
      XXYZ      52.1085   XYYZ    -223.7105   YYYZ     174.2763
      XXZZ    -554.4199   XYZZ       4.2560   YYZZ    -523.1757
      XZZZ    -643.4812   YZZZ     167.1916   ZZZZ   -2742.3775
 -----------------------------------------------------------------
 Calculating analytic gradient of the SCF energy
 Gradient of SCF Energy
            1           2           3           4           5           6
    1   0.0001137  -0.0007846   0.0000847   0.0009822  -0.0000652  -0.0004325
    2  -0.0000546   0.0000807  -0.0000233  -0.0001466   0.0000319   0.0001595
    3   0.0003703  -0.0003021   0.0000492  -0.0000721   0.0000851   0.0004995
            7           8           9          10          11          12
    1  -0.0000785   0.0011082   0.0005930  -0.0013734  -0.0000461   0.0005115
    2  -0.0001114  -0.0000187   0.0011057  -0.0019919   0.0001038   0.0018388
    3  -0.0001751  -0.0010945   0.0020209  -0.0008444   0.0001794  -0.0005665
           13          14          15          16
    1   0.0000220  -0.0005913   0.0001620  -0.0002058
    2  -0.0001618  -0.0013642   0.0000580   0.0004941
    3   0.0001862   0.0003080  -0.0002863  -0.0003576
 Max gradient component =       2.021E-03
 RMS gradient           =       7.063E-04
 Gradient time:  CPU 3.74 s  wall 5.18 s
 Geometry Optimization Parameters
   NAtoms,    NIC,     NZ,  NCons,   NDum,   NFix, NCnnct, MaxDiis
       16     111       0       1       0       0       0       0

 Cartesian Hessian Update
 Hessian Updated using BFGS Update


** CONSTRAINED OPTIMIZATION IN DELOCALIZED INTERNAL COORDINATES **
   Searching for a Minimum

   Optimization Cycle:   4

                       Coordinates (Angstroms)
     ATOM                X               Y               Z
      1  S         0.0352737424    0.4605916213   -0.0684147645
      2  C         1.7351405764    0.2078287291   -0.0217071702
      3  H         2.2756641606    0.3147982045    0.9089699516
      4  C         2.2383934353   -0.1250646701   -1.2469296840
      5  H         3.2872324673   -0.3236845393   -1.4287345349
      6  C         1.2297871055   -0.1795372874   -2.2525651433
      7  H         1.4164458191   -0.4202453174   -3.2927077750
      8  C        -0.0261188819    0.1095477733   -1.7835631967
      9  C        -1.2789732440    0.1357809855   -2.5156454634
     10  C        -2.2208801860   -0.9958138879   -2.7156273204
     11  H        -2.0009652112   -1.9775129965   -2.3154679269
     12  C        -3.3162610068   -0.6537770343   -3.4149614259
     13  H        -4.1215388892   -1.3335027297   -3.6658818609
     14  C        -3.3387012131    0.7434030629   -3.8168697898
     15  H        -4.1190276849    1.2445156636   -4.3718381659
     16  S        -1.9019720095    1.6349390025   -3.2828594498
   Point Group: c1    Number of degrees of freedom:    42


   Energy is  -1104.551638647

              Constraints and their Current Values
                                        Value     Constraint
   Dihedral:        6   8   9  10       90.000       90.000
 Hessian Updated using BFGS Update

 39 Hessian modes will be used to form the next step
  Hessian Eigenvalues:
     0.033869    0.045000    0.045000    0.045000    0.045000    0.045000
     0.045001    0.045001    0.045002    0.045079    0.142568    0.159998
     0.159999    0.160022    0.160407    0.161024    0.211272    0.222914
     0.233266    0.242597    0.250775    0.253983    0.270484    0.273793
     0.302084    0.315290    0.336204    0.355829    0.356207    0.356609
     0.356819    0.359112    0.359921    0.390178    0.424034    0.456321
     0.466262    0.493554    0.534450

 Minimum Search - Taking Simple RFO Step
 Searching for Lamda that Minimizes Along All modes
 Value Taken    Lamda =  -0.00007387
 Step Taken.  Stepsize is  0.038508

                             Maximum     Tolerance    Cnvgd?
         Gradient           0.001285      0.000300      NO
         Displacement       0.020436      0.001200      NO
         Energy change     -0.000147      0.000001      NO


 New Cartesian Coordinates Obtained by Inverse Iteration

 Displacement from previous Coordinates is:  0.085378
 ----------------------------------------------------------------
             Standard Nuclear Orientation (Angstroms)
    I     Atom           X                Y                Z
 ----------------------------------------------------------------
    1      S       0.0298088228     0.4679866926    -0.0780403570
    2      C       1.7297054454     0.2103993537    -0.0210875650
    3      H       2.2659668602     0.3200447024     0.9117094615
    4      C       2.2358472826    -0.1287803021    -1.2428873039
    5      H       3.2845839078    -0.3313907887    -1.4209303639
    6      C       1.2319094690    -0.1844166127    -2.2546500243
    7      H       1.4249355850    -0.4289103868    -3.2923614412
    8      C      -0.0245994863     0.1106648583    -1.7907233504
    9      C      -1.2751699207     0.1359518597    -2.5286785921
   10      C      -2.2126601218    -0.9943671983    -2.7226259514
   11      H      -1.9853365458    -1.9753086719    -2.3245204457
   12      C      -3.3152369111    -0.6558028857    -3.4116426460
   13      H      -4.1230324883    -1.3338254229    -3.6588032129
   14      C      -3.3423154155     0.7461880989    -3.8101458348
   15      H      -4.1304780206     1.2482422886    -4.3526543958
   16      S      -1.9004294828     1.6355909949    -3.2867616970
 ----------------------------------------------------------------
 Nuclear Repulsion Energy =   623.7242230717 hartrees
 There are       44 alpha and       42 beta electrons
 Applying Cartesian multipole field
    Component          Value
    ---------          -----
     (2,0,0)        1.00000E-11
     (0,2,0)        2.00000E-11
     (0,0,2)       -3.00000E-11
 Nucleus-field energy     =    -0.0000000390 hartrees
 Requested basis set is 6-31++G(d,p)
 There are 76 shells and 234 basis functions
 A cutoff of  1.0D-14 yielded   2609 shell pairs
 There are     25538 function pairs
 Smallest overlap matrix eigenvalue = 1.14E-06
 Guess MOs from SCF MO coefficient file
 Reading MOs from coefficient file
 Reading MOs from coefficient file

 ==================================================
    GEN_SCFMAN: A general SCF calculation manager  
                                                   
    Authors:                                       
        -- Eric Jon Sundstrom 2008-2014            
        -- Paul Horn 2010-2015                     
        -- Yuezhi Mao 2012-                        
        -- Dmitri Zuev 2014                        
        -- Alec White 2015-                        
        -- David Stuck 2015                        
        -- Shaama M.S. 2015                        
        -- Shane Yost 2015-                         
        -- Joonho Lee 2016-                        
        -- David Small 2016-                       
        -- Daniel Levine 2016-                     
 ==================================================
 Exchange:     0.2220 Hartree-Fock + 1.0000 wB97X-D + LR-HF
 Correlation:  1.0000 wB97X-D
 Using SG-2 standard quadrature grid
 Dispersion:   Grimme D
 A unrestricted SCF calculation will be
 performed using Roothaan-Hall, GDM with line-search
 Inaccurate integrated density:
   Number of electrons =    86
   Numerical integral  =    85.989930647247
   Relative error      =    -0.0117085497 %
 ---------------------------------------
  Cycle       Energy         DIIS error
 ---------------------------------------
 -------------------------------------------------------
 OpenMP Integral computing Module                
 -------------------------------------------------------
 -------------------------------------------------------
 OpenMP Integral computing Module                
 -------------------------------------------------------
    1   -1104.5494150266      1.87e-04  Roothaan Step
GDM subspace size: 20
 ---------------------------------------
  Cycle       Energy          Error
 ---------------------------------------
 -------------------------------------------------------
 OpenMP Integral computing Module                
 -------------------------------------------------------
 -------------------------------------------------------
 OpenMP Integral computing Module                
 -------------------------------------------------------
    1   -1104.5516574410      7.41e-05  Preconditoned Steepest Descent
    2   -1104.5516775116      5.58e-05  BFGS Step
    3   -1104.5516864356      2.29e-05  BFGS Step
    4   -1104.5516881778      1.39e-05  BFGS Step
    5   -1104.5516891424      9.10e-06  BFGS Step
    6   -1104.5516898237      6.48e-06  BFGS Step
    7   -1104.5516900732      3.75e-06  BFGS Step
    8   -1104.5516901699      1.94e-06  BFGS Step
    9   -1104.5516901941      1.05e-06  BFGS Step
   10   -1104.5516902001      4.57e-07  BFGS Step
   11   -1104.5516902014      3.36e-07  BFGS Step
   12   -1104.5516902018      1.40e-07  BFGS Step
   13   -1104.5516902019      5.72e-08  BFGS Step
   14   -1104.5516902019      3.39e-08  BFGS Step
   15   -1104.5516902019      9.98e-09  Convergence criterion met
 ---------------------------------------
 SCF time:   CPU 22.53s  wall 21.00s 
<S^2> =          2.009910292
Wall 1 = 21
Clock 1 = 22.533027649
 ==================================================
                  Done GEN_SCFMAN                  
 ==================================================

 
 --------------------------------------------------------------
 
                    Orbital Energies (a.u.)
 --------------------------------------------------------------
 
 Alpha MOs
 -- Occupied --
-89.075 -89.060 -10.361 -10.349 -10.347 -10.336 -10.325 -10.324
-10.316 -10.313  -8.098  -8.083  -6.048  -6.044  -6.040  -6.033
 -6.029  -6.025  -1.000  -0.975  -0.872  -0.847  -0.841  -0.799
 -0.702  -0.661  -0.658  -0.627  -0.614  -0.565  -0.508  -0.507
 -0.495  -0.487  -0.479  -0.467  -0.460  -0.435  -0.431  -0.359
 -0.350  -0.335  -0.317  -0.199
 -- Virtual --
  0.034   0.040   0.044   0.055   0.058   0.069   0.073   0.078
  0.087   0.091   0.094   0.100   0.111   0.119   0.124   0.126
  0.131   0.137   0.156   0.158   0.161   0.166   0.167   0.171
  0.173   0.180   0.185   0.185   0.188   0.194   0.200   0.206
  0.210   0.214   0.220   0.225   0.232   0.233   0.239   0.245
  0.246   0.250   0.268   0.275   0.276   0.282   0.283   0.301
  0.305   0.317   0.318   0.332   0.334   0.341   0.360   0.378
  0.384   0.394   0.398   0.417   0.426   0.440   0.472   0.501
  0.535   0.554   0.564   0.598   0.611   0.631   0.652   0.661
  0.670   0.694   0.718   0.728   0.742   0.748   0.759   0.771
  0.776   0.797   0.812   0.813   0.840   0.851   0.854   0.868
  0.886   0.899   0.911   0.926   0.971   0.995   1.013   1.026
  1.036   1.054   1.055   1.065   1.076   1.082   1.093   1.104
  1.114   1.119   1.138   1.157   1.170   1.189   1.194   1.210
  1.266   1.302   1.306   1.332   1.360   1.396   1.412   1.432
  1.439   1.444   1.468   1.530   1.547   1.554   1.599   1.641
  1.737   1.779   1.851   1.875   1.916   1.958   1.967   2.002
  2.012   2.041   2.054   2.081   2.100   2.135   2.139   2.189
  2.212   2.250   2.254   2.284   2.322   2.346   2.410   2.450
  2.460   2.493   2.506   2.542   2.554   2.582   2.585   2.602
  2.604   2.643   2.671   2.681   2.724   2.780   2.788   2.841
  2.890   2.918   2.965   3.010   3.238   3.267   3.365   3.369
  3.484   3.515   3.808   3.836   4.060   4.068   4.352   4.396
  4.412   4.427   4.523   4.613   4.753   4.797
 
 Beta MOs
 -- Occupied --
-89.074 -89.060 -10.350 -10.348 -10.339 -10.336 -10.325 -10.322
-10.315 -10.313  -8.097  -8.082  -6.047  -6.043  -6.040  -6.033
 -6.029  -6.021  -0.994  -0.961  -0.859  -0.839  -0.837  -0.780
 -0.688  -0.656  -0.647  -0.621  -0.610  -0.559  -0.502  -0.493
 -0.486  -0.481  -0.471  -0.455  -0.431  -0.425  -0.423  -0.338
 -0.330  -0.317
 -- Virtual --
 -0.071   0.035   0.043   0.048   0.058   0.059   0.063   0.072
  0.076   0.084   0.091   0.098   0.102   0.108   0.119   0.127
  0.128   0.129   0.134   0.139   0.160   0.160   0.163   0.169
  0.173   0.174   0.177   0.183   0.188   0.191   0.192   0.195
  0.202   0.213   0.217   0.219   0.226   0.232   0.235   0.236
  0.243   0.248   0.252   0.255   0.272   0.277   0.279   0.283
  0.285   0.303   0.309   0.320   0.325   0.334   0.335   0.345
  0.363   0.386   0.387   0.398   0.404   0.424   0.428   0.443
  0.475   0.508   0.541   0.560   0.569   0.601   0.616   0.638
  0.658   0.662   0.673   0.699   0.723   0.736   0.754   0.764
  0.777   0.781   0.787   0.804   0.813   0.819   0.845   0.855
  0.869   0.875   0.890   0.905   0.917   0.939   0.976   0.997
  1.026   1.033   1.039   1.055   1.059   1.069   1.080   1.085
  1.100   1.107   1.118   1.123   1.143   1.166   1.174   1.191
  1.200   1.214   1.270   1.308   1.314   1.336   1.365   1.401
  1.433   1.439   1.444   1.451   1.475   1.538   1.556   1.563
  1.607   1.651   1.777   1.782   1.862   1.889   1.942   1.964
  1.969   2.008   2.031   2.047   2.064   2.088   2.113   2.143
  2.163   2.198   2.229   2.258   2.276   2.289   2.334   2.356
  2.419   2.457   2.461   2.507   2.512   2.546   2.559   2.587
  2.599   2.607   2.608   2.656   2.675   2.686   2.730   2.788
  2.791   2.849   2.896   2.926   2.967   3.016   3.242   3.269
  3.367   3.370   3.489   3.517   3.813   3.838   4.066   4.070
  4.380   4.406   4.416   4.430   4.540   4.627   4.761   4.804
 --------------------------------------------------------------
 
          Ground-State Mulliken Net Atomic Charges

     Atom                 Charge (a.u.)    Spin (a.u.)
  --------------------------------------------------------
      1 S                    -0.005029       0.035453
      2 C                    -0.050257       0.004363
[...]
 ---------------------------------------
 SCF time:   CPU 18.66s  wall 17.00s 
<S^2> =          2.026600704
Wall 1 = 17
Clock 1 = 18.663595200
 ==================================================
                  Done GEN_SCFMAN                  
 ==================================================

 
 --------------------------------------------------------------
 
                    Orbital Energies (a.u.)
 --------------------------------------------------------------
 
 Alpha MOs
 -- Occupied --
-89.074 -89.059 -10.364 -10.348 -10.347 -10.337 -10.325 -10.323
-10.317 -10.314  -8.097  -8.082  -6.047  -6.043  -6.040  -6.032
 -6.029  -6.025  -1.001  -0.976  -0.873  -0.847  -0.840  -0.800
 -0.703  -0.662  -0.653  -0.627  -0.613  -0.570  -0.512  -0.502
 -0.497  -0.489  -0.481  -0.460  -0.459  -0.434  -0.430  -0.357
 -0.351  -0.334  -0.311  -0.215
 -- Virtual --
  0.036   0.040   0.045   0.053   0.060   0.067   0.074   0.080
  0.091   0.093   0.094   0.099   0.111   0.113   0.118   0.129
  0.136   0.148   0.155   0.156   0.159   0.164   0.173   0.174
  0.177   0.181   0.184   0.186   0.191   0.193   0.196   0.202
  0.204   0.214   0.218   0.226   0.233   0.235   0.240   0.242
  0.252   0.258   0.265   0.271   0.274   0.286   0.291   0.298
  0.305   0.315   0.322   0.329   0.330   0.342   0.350   0.365
  0.377   0.392   0.402   0.414   0.420   0.439   0.477   0.481
  0.517   0.538   0.572   0.595   0.608   0.641   0.652   0.661
  0.680   0.686   0.707   0.719   0.740   0.746   0.750   0.776
  0.784   0.809   0.818   0.826   0.833   0.846   0.857   0.876
  0.882   0.894   0.907   0.921   0.970   0.977   0.990   1.037
  1.044   1.047   1.051   1.065   1.070   1.084   1.090   1.093
  1.110   1.126   1.130   1.164   1.185   1.190   1.199   1.208
  1.233   1.272   1.287   1.320   1.339   1.373   1.399   1.425
  1.433   1.441   1.448   1.521   1.545   1.558   1.629   1.687
  1.747   1.773   1.806   1.890   1.911   1.973   1.982   1.991
  2.006   2.024   2.056   2.070   2.104   2.118   2.153   2.188
  2.203   2.221   2.275   2.286   2.310   2.370   2.392   2.455
  2.463   2.485   2.514   2.536   2.554   2.574   2.592   2.601
  2.609   2.646   2.667   2.673   2.747   2.771   2.793   2.818
  2.861   2.914   2.975   2.980   3.229   3.266   3.361   3.369
  3.478   3.509   3.796   3.831   4.049   4.090   4.359   4.393
  4.428   4.434   4.525   4.612   4.750   4.783
 
 Beta MOs
 -- Occupied --
-89.074 -89.059 -10.353 -10.347 -10.339 -10.336 -10.324 -10.321
-10.315 -10.314  -8.097  -8.081  -6.046  -6.043  -6.039  -6.032
 -6.029  -6.021  -0.994  -0.962  -0.860  -0.840  -0.833  -0.782
 -0.688  -0.657  -0.643  -0.621  -0.608  -0.561  -0.501  -0.494
 -0.486  -0.482  -0.474  -0.452  -0.431  -0.423  -0.420  -0.338
 -0.327  -0.317
 -- Virtual --
 -0.067   0.029   0.043   0.045   0.051   0.059   0.064   0.070
  0.080   0.086   0.095   0.098   0.101   0.112   0.116   0.119
  0.122   0.134   0.139   0.151   0.158   0.159   0.162   0.167
  0.175   0.178   0.180   0.184   0.189   0.192   0.195   0.196
  0.201   0.206   0.211   0.219   0.222   0.231   0.236   0.240
  0.245   0.245   0.256   0.260   0.269   0.273   0.276   0.288
  0.294   0.299   0.307   0.318   0.324   0.332   0.334   0.346
  0.354   0.371   0.382   0.396   0.408   0.419   0.423   0.444
  0.480   0.488   0.527   0.543   0.577   0.598   0.614   0.647
  0.656   0.666   0.687   0.691   0.712   0.733   0.746   0.749
  0.763   0.788   0.791   0.810   0.823   0.829   0.841   0.853
  0.872   0.880   0.890   0.899   0.922   0.927   0.978   0.990
  0.993   1.039   1.047   1.053   1.054   1.069   1.076   1.089
  1.096   1.099   1.112   1.132   1.133   1.170   1.188   1.197
  1.202   1.215   1.242   1.274   1.293   1.324   1.350   1.379
  1.404   1.429   1.436   1.450   1.458   1.533   1.552   1.565
  1.637   1.704   1.770   1.790   1.820   1.909   1.925   1.976
  1.990   2.002   2.012   2.036   2.065   2.077   2.116   2.130
  2.177   2.195   2.214   2.237   2.289   2.298   2.319   2.378
  2.408   2.457   2.470   2.494   2.522   2.541   2.559   2.580
  2.599   2.607   2.622   2.657   2.674   2.676   2.757   2.778
  2.796   2.826   2.868   2.922   2.978   2.986   3.234   3.267
  3.363   3.369   3.485   3.510   3.801   3.833   4.053   4.093
  4.376   4.404   4.435   4.445   4.546   4.622   4.763   4.787
 --------------------------------------------------------------
 
          Ground-State Mulliken Net Atomic Charges

     Atom                 Charge (a.u.)    Spin (a.u.)
  --------------------------------------------------------
      1 S                     0.000844       0.066600
      2 C                    -0.066356       0.064983
      3 H                     0.209053      -0.000882
      4 C                    -0.365807      -0.013719
      5 H                     0.135541       0.002088
      6 C                     0.261754       0.054099
      7 H                     0.164770      -0.008600
      8 C                    -0.856446      -0.140134
      9 C                     0.419593       0.849041
     10 C                    -0.081461       0.411733
     11 H                     0.183148      -0.018253
     12 C                    -0.211073      -0.141705
     13 H                     0.150818       0.008390
     14 C                    -0.261348       0.794365
     15 H                     0.198861      -0.036229
     16 S                     0.118110       0.108224
  --------------------------------------------------------
  Sum of atomic charges =    -0.000000
  Sum of spin   charges =     2.000000

 -----------------------------------------------------------------
                    Cartesian Multipole Moments
 -----------------------------------------------------------------
    Charge (ESU x 10^10)
                -0.0000
    Dipole Moment (Debye)
         X      -0.1066      Y      -1.2813      Z       0.5208
       Tot       1.3872
    Quadrupole Moments (Debye-Ang)
        XX     -60.5163     XY      -0.2164     YY     -73.2447
        XZ       3.4737     YZ       6.0377     ZZ     -75.4431
    Octopole Moments (Debye-Ang^2)
       XXX     121.9869    XXY     -26.5524    XYY      45.7743
       YYY     -83.9150    XXZ     126.8764    XYZ       2.5527
       YYZ     155.7830    XZZ      55.0323    YZZ     -42.1388
       ZZZ     508.4107
    Hexadecapole Moments (Debye-Ang^3)
      XXXX   -1455.4033   XXXY      68.4239   XXYY    -337.5708
      XYYY     112.2043   YYYY    -476.6366   XXXZ    -574.1587
      XXYZ      53.6154   XYYZ    -221.0314   YYYZ     176.8844
      XXZZ    -684.4372   XYZZ      35.4288   YYZZ    -549.9508
      XZZZ    -787.1030   YZZZ     222.1014   ZZZZ   -3099.8755
 -----------------------------------------------------------------
 Calculating analytic gradient of the SCF energy
 Gradient of SCF Energy
            1           2           3           4           5           6
    1  -0.0000067  -0.0000254   0.0000201   0.0000514   0.0000009   0.0019286
    2  -0.0000460  -0.0000164  -0.0000102  -0.0000004   0.0000103   0.0055014
    3  -0.0000004  -0.0000152  -0.0000027   0.0000750  -0.0000156  -0.0019984
            7           8           9          10          11          12
    1   0.0000013  -0.0048010   0.0061295  -0.0033055   0.0000173   0.0000290
    2   0.0000196  -0.0072540  -0.0007152   0.0024250   0.0000083  -0.0000211
    3  -0.0000130   0.0048987  -0.0064038   0.0035120  -0.0000487   0.0000013
           13          14          15          16
    1  -0.0000038   0.0000383  -0.0000071  -0.0000669
    2  -0.0000039   0.0000450  -0.0000059   0.0000635
    3  -0.0000025   0.0000429   0.0000216  -0.0000512
 Max gradient component =       7.254E-03
 RMS gradient           =       2.263E-03
 Gradient time:  CPU 3.82 s  wall 3.98 s
 Geometry Optimization Parameters
   NAtoms,    NIC,     NZ,  NCons,   NDum,   NFix, NCnnct, MaxDiis
       16     111       0       1       0       0       0       0

 Cartesian Hessian Update
 Hessian Updated using BFGS Update


** CONSTRAINED OPTIMIZATION IN DELOCALIZED INTERNAL COORDINATES **
   Searching for a Minimum

   Optimization Cycle:  21

                       Coordinates (Angstroms)
     ATOM                X               Y               Z
      1  S        -0.1093852387    0.8680024862   -0.5059388981
      2  C         1.5041887152    0.4549756569   -0.0757946544
      3  H         1.8983434169    0.7466912984    0.8880258712
      4  C         2.1411604499   -0.2353740533   -1.0677742823
      5  H         3.1681303185   -0.5720838544   -0.9978561641
      6  C         1.3107408492   -0.4431675931   -2.2042293347
      7  H         1.6336615840   -0.9388307401   -3.1118537395
      8  C         0.0405239029    0.0658974158   -2.0560370734
      9  C        -1.0105125043    0.0957048287   -3.0606423737
     10  C        -1.9900450437   -1.0342687058   -3.2043185632
     11  H        -1.6616308974   -2.0653176078   -3.1583472395
     12  C        -3.2739785257   -0.6169452076   -3.3078416297
     13  H        -4.1307835689   -1.2804828889   -3.3371155670
     14  C        -3.4200036941    0.8021629128   -3.3769480959
     15  H        -4.3440578675    1.3591732712   -3.2990102009
     16  S        -1.8628529161    1.6361293608   -3.4091217747
   Point Group: c1    Number of degrees of freedom:    42


   Energy is  -1104.554334079

              Constraints and their Current Values
                                        Value     Constraint
   Dihedral:        6   8   9  10       90.000       90.000
 Hessian Updated using BFGS Update

 41 Hessian modes will be used to form the next step
  Hessian Eigenvalues:
     0.003758    0.005821    0.013952    0.035993    0.044852    0.045001
     0.045005    0.045012    0.045013    0.045082    0.045364    0.046033
     0.138007    0.153783    0.159947    0.160152    0.160494    0.161035
     0.193197    0.214003    0.227964    0.243778    0.253068    0.254942
     0.264299    0.270184    0.284310    0.306446    0.318006    0.355896
     0.356356    0.356874    0.357176    0.359316    0.360688    0.388132
     0.422287    0.457826    0.486710    0.497418    0.527673

 Minimum Search - Taking Simple RFO Step
 Searching for Lamda that Minimizes Along All modes
 Value Taken    Lamda =   0.00000000
 Step Taken.  Stepsize is  0.005958

                             Maximum     Tolerance    Cnvgd?
         Gradient           0.000059      0.000300     YES
         Displacement       0.002367      0.001200      NO
         Energy change     -0.000001      0.000001     YES

 Final energy is   -1104.55433407927     


 ******************************
 **  OPTIMIZATION CONVERGED  **
 ******************************

                       Coordinates (Angstroms)
     ATOM                X               Y               Z
      1  S        -0.1093852387    0.8680024862   -0.5059388981
      2  C         1.5041887152    0.4549756569   -0.0757946544
      3  H         1.8983434169    0.7466912984    0.8880258712
      4  C         2.1411604499   -0.2353740533   -1.0677742823
      5  H         3.1681303185   -0.5720838544   -0.9978561641
      6  C         1.3107408492   -0.4431675931   -2.2042293347
      7  H         1.6336615840   -0.9388307401   -3.1118537395
      8  C         0.0405239029    0.0658974158   -2.0560370734
      9  C        -1.0105125043    0.0957048287   -3.0606423737
     10  C        -1.9900450437   -1.0342687058   -3.2043185632
     11  H        -1.6616308974   -2.0653176078   -3.1583472395
     12  C        -3.2739785257   -0.6169452076   -3.3078416297
     13  H        -4.1307835689   -1.2804828889   -3.3371155670
     14  C        -3.4200036941    0.8021629128   -3.3769480959
     15  H        -4.3440578675    1.3591732712   -3.2990102009
     16  S        -1.8628529161    1.6361293608   -3.4091217747

Z-matrix Print:
$molecule
0 3
S 
C  1 1.720243
H  2 1.081391 1 119.998783
C  2 1.366140 1 112.154677 3 -179.850162 0
H  4 1.083019 2 123.528782 1 178.978570 0
C  4 1.422781 2 112.436456 1 -0.188485 0
H  6 1.083394 4 124.195378 2 177.859623 0
C  6 1.376430 4 113.491240 2 -1.299686 0
C  8 1.454234 6 126.882507 4 175.584308 0
C  9 1.502321 8 121.458925 6 90.000000 0
H  10 1.083066 9 120.948095 8 -42.846331 0
C  10 1.354017 9 113.188364 8 133.422521 0
H  12 1.084091 10 124.253424 9 -174.785330 0
C  12 1.428274 10 114.008986 9 5.186965 0
H  14 1.081763 12 126.544936 10 -169.212334 0
S  14 1.766707 12 112.320399 10 3.556992 0
$end

 
 --------------------------------------------------------------
 
                    Orbital Energies (a.u.)
 --------------------------------------------------------------
 
 Alpha MOs
 -- Occupied --
-89.074 -89.059 -10.364 -10.348 -10.347 -10.337 -10.325 -10.323
-10.317 -10.314  -8.097  -8.082  -6.047  -6.043  -6.040  -6.032
 -6.029  -6.025  -1.001  -0.976  -0.873  -0.847  -0.840  -0.800
 -0.703  -0.662  -0.653  -0.627  -0.613  -0.570  -0.512  -0.502
 -0.497  -0.489  -0.481  -0.460  -0.459  -0.434  -0.430  -0.357
 -0.351  -0.334  -0.311  -0.215
 -- Virtual --
  0.036   0.040   0.045   0.053   0.060   0.067   0.074   0.080
  0.091   0.093   0.094   0.099   0.111   0.113   0.118   0.129
  0.136   0.148   0.155   0.156   0.159   0.164   0.173   0.174
  0.177   0.181   0.184   0.186   0.191   0.193   0.196   0.202
  0.204   0.214   0.218   0.226   0.233   0.235   0.240   0.242
  0.252   0.258   0.265   0.271   0.274   0.286   0.291   0.298
  0.305   0.315   0.322   0.329   0.330   0.342   0.350   0.365
  0.377   0.392   0.402   0.414   0.420   0.439   0.477   0.481
  0.517   0.538   0.572   0.595   0.608   0.641   0.652   0.661
  0.680   0.686   0.707   0.719   0.740   0.746   0.750   0.776
  0.784   0.809   0.818   0.826   0.833   0.846   0.857   0.876
  0.882   0.894   0.907   0.921   0.970   0.977   0.990   1.037
  1.044   1.047   1.051   1.065   1.070   1.084   1.090   1.093
  1.110   1.126   1.130   1.164   1.185   1.190   1.199   1.208
  1.233   1.272   1.287   1.320   1.339   1.373   1.399   1.425
  1.433   1.441   1.448   1.521   1.545   1.558   1.629   1.687
  1.747   1.773   1.806   1.890   1.911   1.973   1.982   1.991
  2.006   2.024   2.056   2.070   2.104   2.118   2.153   2.188
  2.203   2.221   2.275   2.286   2.310   2.370   2.392   2.455
  2.463   2.485   2.514   2.536   2.554   2.574   2.592   2.601
  2.609   2.646   2.667   2.673   2.747   2.771   2.793   2.818
  2.861   2.914   2.975   2.980   3.229   3.266   3.361   3.369
  3.478   3.509   3.796   3.831   4.049   4.090   4.359   4.393
  4.428   4.434   4.525   4.612   4.750   4.783
 
 Beta MOs
 -- Occupied --
-89.074 -89.059 -10.353 -10.347 -10.339 -10.336 -10.324 -10.321
-10.315 -10.314  -8.097  -8.081  -6.046  -6.043  -6.039  -6.032
 -6.029  -6.021  -0.994  -0.962  -0.860  -0.840  -0.833  -0.782
 -0.688  -0.657  -0.643  -0.621  -0.608  -0.561  -0.501  -0.494
 -0.486  -0.482  -0.474  -0.452  -0.431  -0.423  -0.420  -0.338
 -0.327  -0.317
 -- Virtual --
 -0.067   0.029   0.043   0.045   0.051   0.059   0.064   0.070
  0.080   0.086   0.095   0.098   0.101   0.112   0.116   0.119
  0.122   0.134   0.139   0.151   0.158   0.159   0.162   0.167
  0.175   0.178   0.180   0.184   0.189   0.192   0.195   0.196
  0.201   0.206   0.211   0.219   0.222   0.231   0.236   0.240
  0.245   0.245   0.256   0.260   0.269   0.273   0.276   0.288
  0.294   0.299   0.307   0.318   0.324   0.332   0.334   0.346
  0.354   0.371   0.382   0.396   0.408   0.419   0.423   0.444
  0.480   0.488   0.527   0.543   0.577   0.598   0.614   0.647
  0.656   0.666   0.687   0.691   0.712   0.733   0.746   0.749
  0.763   0.788   0.791   0.810   0.823   0.829   0.841   0.853
  0.872   0.880   0.890   0.899   0.922   0.927   0.978   0.990
  0.993   1.039   1.047   1.053   1.054   1.069   1.076   1.089
  1.096   1.099   1.112   1.132   1.133   1.170   1.188   1.197
  1.202   1.215   1.242   1.274   1.293   1.324   1.350   1.379
  1.404   1.429   1.436   1.450   1.458   1.533   1.552   1.565
  1.637   1.704   1.770   1.790   1.820   1.909   1.925   1.976
  1.990   2.002   2.012   2.036   2.065   2.077   2.116   2.130
  2.177   2.195   2.214   2.237   2.289   2.298   2.319   2.378
  2.408   2.457   2.470   2.494   2.522   2.541   2.559   2.580
  2.599   2.607   2.622   2.657   2.674   2.676   2.757   2.778
  2.796   2.826   2.868   2.922   2.978   2.986   3.234   3.267
  3.363   3.369   3.485   3.510   3.801   3.833   4.053   4.093
  4.376   4.404   4.435   4.445   4.546   4.622   4.763   4.787
 --------------------------------------------------------------
 
          Ground-State Mulliken Net Atomic Charges

     Atom                 Charge (a.u.)    Spin (a.u.)
  --------------------------------------------------------
      1 S                     0.000844       0.066600
      2 C                    -0.066356       0.064983
      3 H                     0.209053      -0.000882
      4 C                    -0.365807      -0.013719
      5 H                     0.135541       0.002088
      6 C                     0.261754       0.054099
      7 H                     0.164770      -0.008600
      8 C                    -0.856446      -0.140134
      9 C                     0.419593       0.849041
     10 C                    -0.081461       0.411733
     11 H                     0.183148      -0.018253
     12 C                    -0.211073      -0.141705
     13 H                     0.150818       0.008390
     14 C                    -0.261348       0.794365
     15 H                     0.198861      -0.036229
     16 S                     0.118110       0.108224
  --------------------------------------------------------
  Sum of atomic charges =    -0.000000
  Sum of spin   charges =     2.000000

 -----------------------------------------------------------------
                    Cartesian Multipole Moments
 -----------------------------------------------------------------
    Charge (ESU x 10^10)
                 0.0000
    Dipole Moment (Debye)
         X      -0.1066      Y      -1.2813      Z       0.5208
       Tot       1.3872
    Quadrupole Moments (Debye-Ang)
        XX     -60.5163     XY      -0.2164     YY     -73.2447
        XZ       3.4737     YZ       6.0377     ZZ     -75.4431
    Octopole Moments (Debye-Ang^2)
       XXX     121.9869    XXY     -26.5524    XYY      45.7743
       YYY     -83.9150    XXZ     126.8764    XYZ       2.5527
       YYZ     155.7830    XZZ      55.0323    YZZ     -42.1388
       ZZZ     508.4107
    Hexadecapole Moments (Debye-Ang^3)
      XXXX   -1455.4033   XXXY      68.4239   XXYY    -337.5708
      XYYY     112.2043   YYYY    -476.6366   XXXZ    -574.1587
      XXYZ      53.6154   XYYZ    -221.0314   YYYZ     176.8844
      XXZZ    -684.4372   XYZZ      35.4288   YYZZ    -549.9508
      XZZZ    -787.1030   YZZZ     222.1014   ZZZZ   -3099.8755
 -----------------------------------------------------------------
Archival summary:
1\1\nid00734\OPT\ProcedureUnspecified\BasisUnspecified\286(3)\bwood\MonDec418:20:532017MonDec418:20:532017\0\\#,OPT,ProcedureUnspecified,BasisUnspecified,\\0,3\S\C,1,1.72024\H,2,1.08139,1,119.999\C,2,1.36614,1,112.155,3,-179.85,0\H,4,1.08302,2,123.529,1,178.979,0\C,4,1.42278,2,112.436,1,-0.188485,0\H,6,1.08339,4,124.195,2,177.86,0\C,6,1.37643,4,113.491,2,-1.29969,0\C,8,1.45423,6,126.883,4,175.584,0\C,9,1.50232,8,121.459,6,90,0\H,10,1.08307,9,120.948,8,-42.8463,0\C,10,1.35402,9,113.188,8,133.423,0\H,12,1.08409,10,124.253,9,-174.785,0\C,12,1.42827,10,114.009,9,5.18697,0\H,14,1.08176,12,126.545,10,-169.212,0\S,14,1.76671,12,112.32,10,3.55699,0\\\@

 Total job time:  613.49s(wall), 634.15s(cpu) 
 Mon Dec  4 18:20:55 2017

        *************************************************************
        *                                                           *
        *  Thank you very much for using Q-Chem.  Have a nice day.  *
        *                                                           *
        *************************************************************


0 sent ACK to 0 
now end server 0 ... 
