
Running Job 1 of 1 mol.qin
qchem mol.qin_29430.0 /tmp/qchem544331460/chain_scratch/ 0
/global/project/projectdirs/jcesr/qchem_sblau/qc521_exe/qcprog.LINUX_Ix86_64.20190628.exe mol.qin_29430.0 /tmp/qchem544331460/chain_scratch/
                  Welcome to Q-Chem
     A Quantum Leap Into The Future Of Chemistry


 Q-Chem 5.2, Q-Chem, Inc., Pleasanton, CA (2019)

 License issued to: National Energy Research Scientific Computing Center

 Yihan Shao,  Zhengting Gan,  E. Epifanovsky,  A. T. B. Gilbert,  M. Wormit,  
 J. Kussmann,  A. W. Lange,  A. Behn,  Jia Deng,  Xintian Feng,  D. Ghosh,  
 M. Goldey,  P. R. Horn,  L. D. Jacobson,  I. Kaliman,  T. Kus,  A. Landau,  
 Jie Liu,  E. I. Proynov,  R. M. Richard,  R. P. Steele,  E. J. Sundstrom,  
 H. L. Woodcock III,  P. M. Zimmerman,  D. Zuev,  B. Albrecht,  E. Alguire,  
 S. A. Baeppler,  D. Barton,  Z. Benda,  Y. A. Bernard,  E. J. Berquist,  
 K. B. Bravaya,  H. Burton,  D. Casanova,  Chun-Min Chang,  Yunqing Chen,  
 A. Chien,  K. D. Closser,  M. P. Coons,  S. Coriani,  S. Dasgupta,  
 A. L. Dempwolff,  M. Diedenhofen,  Hainam Do,  R. G. Edgar,  Po-Tung Fang,  
 S. Faraji,  S. Fatehi,  Qingguo Feng,  K. D. Fenk,  J. Fosso-Tande,  
 J. Gayvert,  Qinghui Ge,  A. Ghysels,  G. Gidofalvi,  J. Gomes,  
 J. Gonthier,  A. Gunina,  D. Hait,  M. W. D. Hanson-Heine,  
 P. H. P. Harbach,  A. W. Hauser,  M. F. Herbst,  J. E. Herr,  
 E. G. Hohenstein,  Z. C. Holden,  Kerwin Hui,  B. C. Huynh,  T.-C. Jagau,  
 Hyunjun Ji,  B. Kaduk,  K. Khistyaev,  Jaehoon Kim,  P. Klunzinger,  K. Koh,  
 D. Kosenkov,  L. Koulias,  T. Kowalczyk,  C. M. Krauter,  A. Kunitsa,  
 Ka Un Lao,  A. Laurent,  K. V. Lawler,  Joonho Lee,  D. Lefrancois,  
 S. Lehtola,  D. S. Levine,  Yi-Pei Li,  You-Sheng Lin,  Fenglai Liu,  
 E. Livshits,  A. Luenser,  P. Manohar,  E. Mansoor,  S. F. Manzer,  
 Shan-Ping Mao,  Yuezhi Mao,  N. Mardirossian,  A. V. Marenich,  
 T. Markovich,  L. A. Martinez-Martinez,  S. A. Maurer,  N. J. Mayhall,  
 S. C. McKenzie,  J.-M. Mewes,  P. Morgante,  A. F. Morrison,  
 J. W. Mullinax,  K. Nanda,  T. S. Nguyen-Beck,  R. Olivares-Amaya,  
 J. A. Parkhill,  Zheng Pei,  T. M. Perrine,  F. Plasser,  P. Pokhilko,  
 S. Prager,  A. Prociuk,  E. Ramos,  D. R. Rehn,  F. Rob,  M. Scheurer,  
 M. Schneider,  N. Sergueev,  S. M. Sharada,  S. Sharma,  D. W. Small,  
 T. Stauch,  T. Stein,  Yu-Chuan Su,  A. J. W. Thom,  A. Tkatchenko,  
 T. Tsuchimochi,  N. M. Tubman,  L. Vogt,  M. L. Vidal,  O. Vydrov,  
 M. A. Watson,  J. Wenzel,  M. de Wergifosse,  T. A. Wesolowski,  A. White,  
 J. Witte,  A. Yamada,  Jun Yang,  K. Yao,  S. Yeganeh,  S. R. Yost,  
 Zhi-Qiang You,  A. Zech,  Igor Ying Zhang,  Xing Zhang,  Yan Zhao,  
 Ying Zhu,  B. R. Brooks,  G. K. L. Chan,  C. J. Cramer,  M. S. Gordon,  
 W. J. Hehre,  A. Klamt,  M. W. Schmidt,  C. D. Sherrill,  D. G. Truhlar,  
 A. Aspuru-Guzik,  R. Baer,  A. T. Bell,  N. A. Besley,  Jeng-Da Chai,  
 A. E. DePrince, III,  R. A. DiStasio Jr.,  A. Dreuw,  B. D. Dunietz,  
 T. R. Furlani,  Chao-Ping Hsu,  Yousung Jung,  Jing Kong,  D. S. Lambrecht,  
 WanZhen Liang,  C. Ochsenfeld,  V. A. Rassolov,  L. V. Slipchenko,  
 J. E. Subotnik,  T. Van Voorhis,  J. M. Herbert,  A. I. Krylov,  
 P. M. W. Gill,  M. Head-Gordon

 Contributors to earlier versions of Q-Chem not listed above: 
 R. D. Adamson,  B. Austin,  J. Baker,  G. J. O. Beran,  K. Brandhorst,  
 S. T. Brown,  E. F. C. Byrd,  A. K. Chakraborty,  C.-L. Cheng,  
 Siu Hung Chien,  D. M. Chipman,  D. L. Crittenden,  H. Dachsel,  
 R. J. Doerksen,  A. D. Dutoi,  L. Fusti-Molnar,  W. A. Goddard III,  
 A. Golubeva-Zadorozhnaya,  S. R. Gwaltney,  G. Hawkins,  A. Heyden,  
 S. Hirata,  G. Kedziora,  F. J. Keil,  C. Kelley,  Jihan Kim,  R. A. King,  
 R. Z. Khaliullin,  P. P. Korambath,  W. Kurlancheek,  A. M. Lee,  M. S. Lee,  
 S. V. Levchenko,  Ching Yeh Lin,  D. Liotard,  R. C. Lochan,  I. Lotan,  
 P. E. Maslen,  N. Nair,  D. P. O'Neill,  D. Neuhauser,  E. Neuscamman,  
 C. M. Oana,  R. Olson,  B. Peters,  R. Peverati,  P. A. Pieniazek,  
 Y. M. Rhee,  J. Ritchie,  M. A. Rohrdanz,  E. Rosta,  N. J. Russ,  
 H. F. Schaefer III,  N. E. Schultz,  N. Shenvi,  A. C. Simmonett,  A. Sodt,  
 D. Stuck,  K. S. Thanthiriwatte,  V. Vanovschi,  Tao Wang,  A. Warshel,  
 C. F. Williams,  Q. Wu,  X. Xu,  W. Zhang

 Please cite Q-Chem as follows:
 Y. Shao et al., Mol. Phys. 113, 184-215 (2015)
 DOI: 10.1080/00268976.2014.952696

 Q-Chem 5.2.0 for Intel X86 EM64T Linux

 Parts of Q-Chem use Armadillo 8.300.2 (Tropical Shenanigans).
 http://arma.sourceforge.net/

 Q-Chem begins on Tue Jul  9 01:33:42 2019  

Host: cori05
0

     Scratch files written to /tmp/qchem544331460/chain_scratch//
 Jun2719 |scratch|qcdevops|jenkins|workspace|build_RNUM -1
Processing $rem in /global/common/cori/software/qchem/5.2/config/preferences:
	 MEM_TOTAL  96000 
NAlpha2: 22
NElect   21
Mult     2
Symmetry turned off for PCM/SM12/SMD calculation

Checking the input file for inconsistencies... 	...done.

--------------------------------------------------------------
User input:
--------------------------------------------------------------
$molecule
0 2
C     -0.0109128776     -0.0071132326      0.0328475583
C      1.4794629640     -0.0800122263      0.1717632563
C      2.2250007973     -1.1262885204     -0.1674597991
H     -0.2998595929      0.8277847834     -0.6144062044
H      1.9672025126      0.8027711296      0.5844093576
H      3.3038186655     -1.1167264113     -0.0414749431
$end

$rem
job_type = opt
basis = def2-tzvppd
max_scf_cycles = 200
gen_scfman = true
xc_grid = 3
scf_algorithm = diis_gdm
resp_charges = true
symmetry = false
sym_ignore = true
method = wb97xv
geom_opt_max_cycles = 100
solvent_method = smd
ideriv = 1
thresh = 14
$end

$smx
solvent other
$end
--------------------------------------------------------------
 ----------------------------------------------------------------
             Standard Nuclear Orientation (Angstroms)
    I     Atom           X                Y                Z
 ----------------------------------------------------------------
    1      C      -0.0109128776    -0.0071132326     0.0328475583
    2      C       1.4794629640    -0.0800122263     0.1717632563
    3      C       2.2250007973    -1.1262885204    -0.1674597991
    4      H      -0.2998595929     0.8277847834    -0.6144062044
    5      H       1.9672025126     0.8027711296     0.5844093576
    6      H       3.3038186655    -1.1167264113    -0.0414749431
 ----------------------------------------------------------------
 Nuclear Repulsion Energy =          51.76996043 hartrees
 There are       11 alpha and       10 beta electrons
 Requested basis set is def2-TZVPPD
 There are 60 shells and 162 basis functions

 Total QAlloc Memory Limit  96000 MB
 Mega-Array Size       188 MB
 MEM_STATIC part       192 MB
 
 Citation of the SMD model:
 Marenich, A.V.; Cramer, C.J.; Truhlar, D.G.
 J. Phys. Chem. B 2009, 113, 6378-6396.
 iSolventCode=           0
 Solvent: other                                                           
 
 vradii
            1           2           3           4           5           6
    1   1.8500000   1.8500000   1.8500000   1.2000000   1.2000000   1.2000000
 Changing PCM_VDW_RADII to SMD_RADIUS
 Discretize the solute cavity surface with Lebedev spheres
	Using 110 Lebedev grid points for each H atom
	Using 194 Lebedev grid points for other atoms
	Atomic van der Waals radii will be scaled by 1.20
 Remove points where switching function is < 1.0e-08
 Keep 541 surface tesserae and discard 371 interior tesserae
 Molecular Surface Area = 80.633 Angst**2
 A cutoff of  1.0D-14 yielded   1807 shell pairs
 There are     13349 function pairs (     17103 Cartesian)
 Smallest overlap matrix eigenvalue = 1.28E-05

 Scale SEOQF with 1.000000e-01/1.000000e-01/1.000000e-01

 Standard Electronic Orientation quadrupole field applied
 Nucleus-field energy     =     0.0000000027 hartrees
 Guess from superposition of atomic densities
 Warning:  Energy on first SCF cycle will be non-variational
 SAD guess density has 20.962889 electrons

 -----------------------------------------------------------------------
  General SCF calculation program by
  Eric Jon Sundstrom, Paul Horn, Yuezhi Mao, Dmitri Zuev, Alec White,
  David Stuck, Shaama M.S., Shane Yost, Joonho Lee, David Small,
  Daniel Levine, Susi Lehtola, Hugh Burton, Evgeny Epifanovsky,
  Bang C. Huynh
 -----------------------------------------------------------------------
 Exchange:     0.1670 Hartree-Fock + 1.0000 wB97X-V + LR-HF
 Correlation:  1.0000 wB97X-V
 Using SG-3 standard quadrature grid
 Nonlocal Correlation:  VV10 with C = 0.0100 and b = 6.00 and scale = 1.00000
 Grid used for NLC:  SG-1 standard quadrature
 
 Citation of the SMD model:
 Marenich, A.V.; Cramer, C.J.; Truhlar, D.G.
 J. Phys. Chem. B 2009, 113, 6378-6396.
 iSolventCode=           0
 Solvent: other                                                           
 
 vradii
            1           2           3           4           5           6
    1   1.8500000   1.8500000   1.8500000   1.2000000   1.2000000   1.2000000
 using 32 threads for integral computing
 -------------------------------------------------------
 OpenMP Integral computing Module                
 Release: version 1.0, May 2013, Q-Chem Inc. Pittsburgh 
 -------------------------------------------------------
 using 32 threads for integral computing
 -------------------------------------------------------
 OpenMP Integral computing Module                
 Release: version 1.0, May 2013, Q-Chem Inc. Pittsburgh 
 -------------------------------------------------------
 -------------------------------------------------------
 OpenMP BLAS3 based DFT computing Module                
 Release: version 1.0, May 2013, Q-Chem Inc. Pittsburgh 
 -------------------------------------------------------
 -------------------------------------------------------
 OpenMP BLAS3 based DFT computing Module                
 Release: version 1.0, May 2013, Q-Chem Inc. Pittsburgh 
 -------------------------------------------------------
 -------------------------------------------------------
 OpenMP BLAS3 based DFT computing Module                
 Release: version 1.0, May 2013, Q-Chem Inc. Pittsburgh 
 -------------------------------------------------------
 A unrestricted SCF calculation will be
 performed using DIIS, GDM
 SCF converges when RMS gradient is below 1.0e-08
 ---------------------------------------
  Cycle       Energy         DIIS error
 ---------------------------------------
    1    -116.2032987549      1.46e-02  
    2    -115.8061611991      1.48e-03  Done DIIS. Switching to GDM
 ---------------------------------------
  Cycle       Energy        RMS Gradient
 ---------------------------------------
    1    -115.8061611991      1.19e-01   Descent step
    2    -115.8302146512      6.52e-02   Normal BFGS step
    3    -115.8558293882      4.10e-02   Normal BFGS step
    4    -115.8608339739      3.05e-02   Normal BFGS step
    5    -115.8635868506      1.50e-02   Normal BFGS step
    6    -115.8649377316      9.40e-03   Normal BFGS step
    7    -115.8657835833      5.77e-03   Normal BFGS step
    8    -115.8660193296      3.83e-03   Normal BFGS step
    9    -115.8661879604      4.14e-03   Normal BFGS step
   10    -115.8663307252      4.95e-03   Normal BFGS step
   11    -115.8667873391      9.56e-03   Dog-leg BFGS step
   12    -115.8661144227      3.07e-02  Line search: overstep
   13    -115.8674130692      1.82e-02   Normal BFGS step
   14    -115.8669929154      2.87e-02  Line search: overstep
   15    -115.8678591692      2.17e-02   Normal BFGS step
   16    -115.8688468569      1.64e-02   Normal BFGS step
   17    -115.8704603764      4.17e-03   Normal BFGS step
   18    -115.8706649502      2.72e-03   Normal BFGS step
   19    -115.8707121820      1.65e-03   Normal BFGS step
   20    -115.8707278646      1.32e-03   Normal BFGS step
   21    -115.8707397100      7.17e-04   Normal BFGS step
   22    -115.8707441691      4.06e-04   Normal BFGS step
   23    -115.8707454229      1.83e-04   Normal BFGS step
   24    -115.8707456086      9.62e-05   Normal BFGS step
   25    -115.8707456462      4.72e-05   Normal BFGS step
   26    -115.8707456572      3.05e-05   Normal BFGS step
   27    -115.8707456605      1.12e-05   Normal BFGS step
   28    -115.8707456614      6.25e-06   Normal BFGS step
   29    -115.8707456616      2.44e-06   Normal BFGS step
   30    -115.8707456617      1.24e-06   Normal BFGS step
   31    -115.8707456617      3.50e-07   Normal BFGS step
   32    -115.8707456617      1.16e-07   Normal BFGS step
   33    -115.8707456617      5.54e-08   Normal BFGS step
   34    -115.8707456617      1.80e-08   Normal BFGS step
   35    -115.8707456617      9.04e-09  Convergence criterion met
 ---------------------------------------
 SCF time:   CPU 1225.60s  wall 43.00s 
<S^2> =          1.274423653
(3)  G-ENP(liq) elect-nuc-pol free energy of system     -115.870745662 a.u.
(4)  G-CDS(liq) cavity-dispersion-solvent structure 
     free energy                                                1.9113 kcal/mol
(6)  G-S(liq) free energy of system                     -115.867699769 a.u.
 SCF   energy in the final basis set =     -115.8707456617
 Total energy in the final basis set =     -115.8676997691
 
 --------------------------------------------------------------
 
                    Orbital Energies (a.u.)
 --------------------------------------------------------------
 
 Alpha MOs
 -- Occupied --
-10.3244 -10.3090 -10.2945  -0.9325  -0.7910  -0.6421  -0.5887  -0.5145
 -0.4372  -0.3757  -0.3328
 -- Virtual --
 -0.0113   0.0816   0.0934   0.1011   0.1059   0.1625   0.1703   0.1920
  0.2109   0.2207   0.2242   0.2346   0.2517   0.2691   0.2931   0.2977
  0.3043   0.3105   0.3334   0.3411   0.3518   0.3575   0.3642   0.3747
  0.3929   0.3995   0.4268   0.4383   0.4567   0.4594   0.4747   0.4878
  0.4988   0.5132   0.5350   0.5680   0.5833   0.6079   0.6206   0.6235
  0.6525   0.6866   0.7017   0.7182   0.7647   0.7847   0.7954   0.8226
  0.8328   0.8503   0.8879   0.9350   0.9611   0.9944   1.0388   1.1123
  1.1157   1.1688   1.1872   1.2402   1.2770   1.3032   1.3391   1.3641
  1.3805   1.4208   1.4720   1.5179   1.5247   1.5468   1.5994   1.6590
  1.6723   1.7781   1.8159   1.8496   1.8824   1.9263   1.9379   2.0101
  2.1245   2.1608   2.2148   2.2694   2.4038   2.6117   2.6471   2.7153
  2.8041   2.8111   2.8296   2.8346   2.8480   2.8650   2.9094   2.9402
  2.9584   3.0423   3.0911   3.1297   3.1403   3.2005   3.2095   3.2399
  3.2667   3.3025   3.3188   3.3650   3.3932   3.4137   3.4848   3.5110
  3.5393   3.5670   3.6323   3.6817   3.7378   3.7683   3.8078   3.8515
  3.9123   3.9865   4.0280   4.0568   4.1126   4.1406   4.2058   4.2394
  4.2907   4.4056   4.4449   4.5134   4.5593   4.6654   4.7402   4.7965
  4.8481   4.9442   5.0028   5.0843   5.0934   5.1436   5.2556   5.3400
  5.4784   5.5107   5.5650   5.9267  22.4973  22.6954  23.2866
 
 Beta MOs
 -- Occupied --
-10.3250 -10.2965 -10.2938  -0.9206  -0.7735  -0.6265  -0.5777  -0.5030
 -0.4103  -0.3417
 -- Virtual --
 -0.0235  -0.0162   0.0852   0.1023   0.1087   0.1149   0.1679   0.1720
  0.2007   0.2101   0.2251   0.2265   0.2407   0.2540   0.2735   0.2961
  0.3012   0.3083   0.3158   0.3379   0.3425   0.3538   0.3583   0.3689
  0.3783   0.3938   0.4015   0.4274   0.4427   0.4593   0.4644   0.4784
  0.4902   0.5035   0.5170   0.5398   0.5698   0.5879   0.6137   0.6274
  0.6307   0.6546   0.6872   0.7072   0.7244   0.7670   0.7887   0.7972
  0.8311   0.8431   0.8600   0.8885   0.9376   0.9782   1.0055   1.0467
  1.1171   1.1253   1.1722   1.1910   1.2406   1.2844   1.3098   1.3512
  1.3722   1.3896   1.4198   1.4739   1.5264   1.5311   1.5542   1.6055
  1.6708   1.6823   1.7902   1.8143   1.8581   1.8941   1.9352   1.9540
  2.0122   2.1260   2.1679   2.2269   2.2746   2.4071   2.6255   2.6553
  2.7248   2.8074   2.8218   2.8290   2.8558   2.8633   2.8768   2.9167
  2.9478   2.9673   3.0556   3.1147   3.1467   3.1606   3.2168   3.2228
  3.2445   3.2715   3.3062   3.3260   3.3689   3.4102   3.4243   3.5094
  3.5367   3.5560   3.5739   3.6366   3.6909   3.7462   3.7774   3.8164
  3.8591   3.9143   3.9904   4.0315   4.0626   4.1201   4.1454   4.2127
  4.2486   4.2952   4.4135   4.4542   4.5250   4.5643   4.6726   4.7501
  4.8055   4.8569   4.9570   5.0069   5.0844   5.1023   5.1545   5.2605
  5.3510   5.4792   5.5168   5.5774   5.9383  22.4965  22.7098  23.2896
 --------------------------------------------------------------
 
          Ground-State Mulliken Net Atomic Charges

     Atom                 Charge (a.u.)    Spin (a.u.)
  --------------------------------------------------------
      1 C                    -0.336647      -0.052389
      2 C                     0.100035      -0.160778
      3 C                    -0.160502       1.122713
      4 H                     0.080703      -0.001645
      5 H                     0.183218       0.029516
      6 H                     0.133193       0.062583
  --------------------------------------------------------
  Sum of atomic charges =     0.000000
  Sum of spin   charges =     1.000000

  Building new vdw surfaces
         Merz-Kollman RESP Net Atomic Charges

     Atom                 Charge (a.u.)
  ----------------------------------------
      1 C                    -0.406387
      2 C                     0.197960
      3 C                    -0.406387
      4 H                     0.245870
      5 H                     0.123074
      6 H                     0.245870
  ----------------------------------------
  Sum of atomic charges =     0.000000

  Related Dipole Moment =     2.8939 (X  1.7954 Y  2.2696 Z -0.0030)

 -----------------------------------------------------------------
                    Cartesian Multipole Moments
 -----------------------------------------------------------------
    Charge (ESU x 10^10)
                 0.0000
    Dipole Moment (Debye)
         X       2.1510      Y       2.1536      Z      -0.3265
       Tot       3.0613
    Quadrupole Moments (Debye-Ang)
        XX     -13.9739     XY       0.2122     YY     -19.4117
        XZ       1.8993     YZ       0.6282     ZZ     -19.8353
    Octopole Moments (Debye-Ang^2)
       XXX     -47.5467    XXY       5.8290    XYY     -23.2824
       YYY      24.5613    XXZ       2.8275    XYZ       0.9451
       YYZ      -0.0034    XZZ     -25.3591    YZZ       8.6446
       ZZZ      -0.8910
    Hexadecapole Moments (Debye-Ang^3)
      XXXX    -238.3711   XXXY      35.1488   XXYY     -63.2720
      XYYY      54.3647   YYYY     -83.4661   XXXZ       8.7014
      XXYZ       0.5968   XYYZ       1.9919   YYYZ      -3.1833
      XXZZ     -62.6200   XYZZ      18.9303   YYZZ     -18.6148
      XZZZ       1.9427   YZZZ      -2.7637   ZZZZ     -29.9557
 -----------------------------------------------------------------
 Calculating analytic gradient of the SCF energy
 Gradient of CDS energy
            1           2           3           4           5           6
    1  -0.0019273   0.0007524   0.0012182   0.0002711  -0.0000438  -0.0002706
    2   0.0003294   0.0007062  -0.0008232  -0.0001254  -0.0000846  -0.0000024
    3  -0.0000665   0.0002228  -0.0001955   0.0001100  -0.0000392  -0.0000316
 Gradient of SCF Energy
            1           2           3           4           5           6
    1  -0.0442253   0.0540440  -0.0155655   0.0015290   0.0014631   0.0027547
    2   0.0014164   0.0047585  -0.0200596  -0.0031536   0.0028882   0.0141501
    3   0.0052924   0.0026683  -0.0155992  -0.0061050   0.0052111   0.0085324
 Max gradient component =       5.404E-02
 RMS gradient           =       1.855E-02
 Computing fast CPCM-SWIG gradient
 Updating gradient with PCM contributions...
 -- total gradient after adding PCM contribution --
---------------------------------------------------
  Atom         X              Y              Z     
---------------------------------------------------
   1      -0.043533       0.005493       0.002041
   2       0.056911       0.011227       0.006929
   3      -0.009697      -0.018892      -0.014413
   4       0.002976      -0.006344      -0.003475
   5      -0.002987      -0.004696       0.001599
   6      -0.003671       0.013212       0.007319
---------------------------------------------------
 Number of fixed atoms: 0
 Gradient time:  CPU 68.25 s  wall 2.97 s
 Geometry Optimization Parameters
   NAtoms,    NIC,     NZ,  NCons,   NDum,   NFix, NCnnct, MaxDiis
        6      26       0       0       0       0       0       0


** GEOMETRY OPTIMIZATION IN DELOCALIZED INTERNAL COORDINATES **
   Searching for a Minimum

   Optimization Cycle:   1

                       Coordinates (Angstroms)
     ATOM                X               Y               Z
      1  C        -0.0109128776   -0.0071132326    0.0328475583
      2  C         1.4794629640   -0.0800122263    0.1717632563
      3  C         2.2250007973   -1.1262885204   -0.1674597991
      4  H        -0.2998595929    0.8277847834   -0.6144062044
      5  H         1.9672025126    0.8027711296    0.5844093576
      6  H         3.3038186655   -1.1167264113   -0.0414749431
   Point Group: c1    Number of degrees of freedom:    12


   Energy is   -115.867699769


 Attempting to generate delocalized internal coordinates
 Initial Hessian constructed with Jon Baker's OPTIMIZE code

 12 Hessian modes will be used to form the next step
  Hessian Eigenvalues:
     0.009363    0.020878    0.031831    0.160000    0.160000    0.160000
     0.220000    0.325236    0.342176    0.348459    0.352565    0.598004

 Minimum search - taking simple RFO step
 Searching for Lamda that Minimizes Along All modes
 Value Taken    Lamda =  -0.01455023
 Calculated Step too Large.  Step scaled by  0.666843
 Step Taken.  Stepsize is  0.300000

                             Maximum     Tolerance    Cnvgd?
         Gradient           0.034252      0.000300      NO
         Displacement       0.189592      0.001200      NO
         Energy change     *********      0.000001      NO


 New Cartesian Coordinates Obtained by Inverse Iteration

 Displacement from previous Coordinates is:  0.278228
 ----------------------------------------------------------------
             Standard Nuclear Orientation (Angstroms)
    I     Atom           X                Y                Z
 ----------------------------------------------------------------
    1      C       0.0124481398    -0.0400311270    -0.0194567986
    2      C       1.4568893089    -0.0825509734     0.1636878208
    3      C       2.2478938488    -1.1099033651    -0.1301119289
    4      H      -0.3007706509     0.8700926849    -0.5493564887
    5      H       1.9164654019     0.8331021379     0.5477057648
    6      H       3.3317864205    -1.1702938349    -0.0467891439
 ----------------------------------------------------------------
 Nuclear Repulsion Energy =          52.16588876 hartrees
 There are       11 alpha and       10 beta electrons
 Discretize the solute cavity surface with Lebedev spheres
	Using 110 Lebedev grid points for each H atom
	Using 194 Lebedev grid points for other atoms
	Atomic van der Waals radii will be scaled by 1.20
 Remove points where switching function is < 1.0e-08
 Keep 542 surface tesserae and discard 370 interior tesserae
 Molecular Surface Area = 80.179 Angst**2
 Applying Cartesian multipole field
    Component          Value
    ---------          -----
     (2,0,0)        1.00000E-11
     (0,2,0)        2.00000E-11
     (0,0,2)       -3.00000E-11
 Nucleus-field energy     =     0.0000000027 hartrees
 Requested basis set is def2-TZVPPD
 There are 60 shells and 162 basis functions
 A cutoff of  1.0D-14 yielded   1807 shell pairs
 There are     13349 function pairs (     17103 Cartesian)
 Smallest overlap matrix eigenvalue = 1.28E-05
 Guess MOs from SCF MO coefficient file

 -----------------------------------------------------------------------
  General SCF calculation program by
  Eric Jon Sundstrom, Paul Horn, Yuezhi Mao, Dmitri Zuev, Alec White,
  David Stuck, Shaama M.S., Shane Yost, Joonho Lee, David Small,
  Daniel Levine, Susi Lehtola, Hugh Burton, Evgeny Epifanovsky,
  Bang C. Huynh
 -----------------------------------------------------------------------
 Exchange:     0.1670 Hartree-Fock + 1.0000 wB97X-V + LR-HF
 Correlation:  1.0000 wB97X-V
 Using SG-3 standard quadrature grid
 Nonlocal Correlation:  VV10 with C = 0.0100 and b = 6.00 and scale = 1.00000
 Grid used for NLC:  SG-1 standard quadrature
 
 Citation of the SMD model:
 Marenich, A.V.; Cramer, C.J.; Truhlar, D.G.
 J. Phys. Chem. B 2009, 113, 6378-6396.
 iSolventCode=           0
 Solvent: other                                                           
 
 vradii
            1           2           3           4           5           6
    1   1.8500000   1.8500000   1.8500000   1.2000000   1.2000000   1.2000000
 using 32 threads for integral computing
 -------------------------------------------------------
 OpenMP Integral computing Module                
 Release: version 1.0, May 2013, Q-Chem Inc. Pittsburgh 
 -------------------------------------------------------
 using 32 threads for integral computing
 -------------------------------------------------------
 OpenMP Integral computing Module                
 Release: version 1.0, May 2013, Q-Chem Inc. Pittsburgh 
 -------------------------------------------------------
 -------------------------------------------------------
 OpenMP BLAS3 based DFT computing Module                
 Release: version 1.0, May 2013, Q-Chem Inc. Pittsburgh 
 -------------------------------------------------------
 -------------------------------------------------------
 OpenMP BLAS3 based DFT computing Module                
 Release: version 1.0, May 2013, Q-Chem Inc. Pittsburgh 
 -------------------------------------------------------
 -------------------------------------------------------
 OpenMP BLAS3 based DFT computing Module                
 Release: version 1.0, May 2013, Q-Chem Inc. Pittsburgh 
 -------------------------------------------------------
 A unrestricted SCF calculation will be
 performed using Roothaan-Hall, DIIS, GDM
 SCF converges when RMS gradient is below 1.0e-08
 ---------------------------------------
  Cycle       Energy         DIIS error
 ---------------------------------------
    1    -115.8849838533      6.65e-04  Roothaan Step
 ---------------------------------------
  Cycle       Energy         DIIS error
 ---------------------------------------
    1    -115.8768628408      1.56e-04  
    2    -115.8776963160      8.37e-05  Done DIIS. Switching to GDM
 ---------------------------------------
  Cycle       Energy        RMS Gradient
 ---------------------------------------
    1    -115.8776963160      1.08e-02   Normal BFGS step
    2    -115.8779828142      5.97e-03   Normal BFGS step
    3    -115.8782814229      3.97e-03   Normal BFGS step
    4    -115.8784358399      2.33e-03   Normal BFGS step
    5    -115.8784780625      1.23e-03   Normal BFGS step
    6    -115.8784958655      5.28e-04   Normal BFGS step
    7    -115.8784985127      3.80e-04   Normal BFGS step
    8    -115.8784994878      2.90e-04   Normal BFGS step
    9    -115.8784999058      1.95e-04   Normal BFGS step
   10    -115.8785001054      9.09e-05   Normal BFGS step
   11    -115.8785001809      5.88e-05   Normal BFGS step
   12    -115.8785002108      4.00e-05   Normal BFGS step
   13    -115.8785002229      2.66e-05   Normal BFGS step
   14    -115.8785002281      1.31e-05   Normal BFGS step
   15    -115.8785002296      6.97e-06   Normal BFGS step
   16    -115.8785002299      3.74e-06   Normal BFGS step
   17    -115.8785002300      1.48e-06   Normal BFGS step
   18    -115.8785002300      3.99e-07   Normal BFGS step
   19    -115.8785002300      1.72e-07   Normal BFGS step
   20    -115.8785002300      7.75e-08   Normal BFGS step
   21    -115.8785002300      4.01e-08   Normal BFGS step
   22    -115.8785002300      1.66e-08   Normal BFGS step
   23    -115.8785002300      4.91e-09  Convergence criterion met
 ---------------------------------------
 SCF time:   CPU 866.23s  wall 31.00s 
<S^2> =          1.304350298
(3)  G-ENP(liq) elect-nuc-pol free energy of system     -115.878500230 a.u.
(4)  G-CDS(liq) cavity-dispersion-solvent structure 
     free energy                                                1.8348 kcal/mol
(6)  G-S(liq) free energy of system                     -115.875576369 a.u.
 SCF   energy in the final basis set =     -115.8785002300
 Total energy in the final basis set =     -115.8755763685
 
 --------------------------------------------------------------
 
                    Orbital Energies (a.u.)
 --------------------------------------------------------------
 
 Alpha MOs
 -- Occupied --
-10.3156 -10.3136 -10.2931  -0.9369  -0.7943  -0.6421  -0.5919  -0.5198
 -0.4417  -0.3705  -0.3278
 -- Virtual --
 -0.0126   0.0804   0.0975   0.1021   0.1061   0.1615   0.1725   0.1917
  0.2099   0.2201   0.2237   0.2383   0.2515   0.2722   0.2940   0.2981
  0.3055   0.3139   0.3304   0.3431   0.3521   0.3547   0.3630   0.3754
  0.3933   0.4029   0.4348   0.4369   0.4617   0.4662   0.4823   0.4831
  0.4993   0.5154   0.5322   0.5783   0.5924   0.6050   0.6229   0.6271
  0.6615   0.6885   0.7106   0.7321   0.7711   0.7846   0.7969   0.8149
  0.8365   0.8587   0.9012   0.9313   0.9666   0.9827   1.0286   1.1037
  1.1246   1.1651   1.1908   1.2248   1.2868   1.3124   1.3496   1.3697
  1.4055   1.4247   1.4633   1.5348   1.5425   1.5566   1.6250   1.6612
  1.6710   1.7874   1.8295   1.8497   1.8768   1.9376   1.9716   2.0311
  2.1212   2.1476   2.1966   2.2888   2.3927   2.6129   2.6564   2.7380
  2.7949   2.8185   2.8307   2.8449   2.8652   2.8782   2.9190   2.9430
  2.9487   3.0380   3.0819   3.1123   3.1454   3.2104   3.2338   3.2521
  3.2704   3.3050   3.3090   3.3642   3.3795   3.4063   3.4965   3.5065
  3.5412   3.5478   3.6500   3.6972   3.7461   3.7783   3.8173   3.8351
  3.9532   3.9969   4.0362   4.0636   4.1350   4.1510   4.1956   4.2427
  4.2798   4.4213   4.4515   4.5487   4.5825   4.6575   4.7298   4.8030
  4.8594   4.9407   5.0008   5.0813   5.1301   5.1748   5.2890   5.3328
  5.4608   5.5505   5.5987   5.9748  22.5494  22.7660  23.3253
 
 Beta MOs
 -- Occupied --
-10.3166 -10.2980 -10.2951  -0.9255  -0.7744  -0.6264  -0.5825  -0.5112
 -0.4101  -0.3443
 -- Virtual --
 -0.0202  -0.0124   0.0842   0.1017   0.1084   0.1201   0.1660   0.1748
  0.2011   0.2099   0.2225   0.2287   0.2426   0.2566   0.2759   0.2975
  0.3020   0.3098   0.3188   0.3337   0.3444   0.3544   0.3586   0.3649
  0.3792   0.3935   0.4062   0.4344   0.4418   0.4635   0.4716   0.4832
  0.4866   0.5032   0.5212   0.5354   0.5814   0.5953   0.6101   0.6248
  0.6396   0.6625   0.6897   0.7158   0.7387   0.7736   0.7890   0.7993
  0.8205   0.8481   0.8697   0.9021   0.9325   0.9834   0.9971   1.0377
  1.1050   1.1367   1.1676   1.1960   1.2256   1.2934   1.3181   1.3596
  1.3766   1.4164   1.4220   1.4651   1.5395   1.5490   1.5611   1.6340
  1.6742   1.6807   1.8028   1.8249   1.8613   1.8909   1.9422   1.9892
  2.0351   2.1254   2.1541   2.2035   2.2954   2.3972   2.6279   2.6646
  2.7477   2.7983   2.8421   2.8451   2.8525   2.8672   2.8956   2.9262
  2.9490   2.9579   3.0519   3.1066   3.1328   3.1657   3.2190   3.2439
  3.2598   3.2824   3.3062   3.3230   3.3732   3.3899   3.4215   3.5144
  3.5189   3.5537   3.5564   3.6546   3.7076   3.7563   3.7858   3.8260
  3.8398   3.9515   4.0026   4.0404   4.0670   4.1392   4.1574   4.2042
  4.2516   4.2830   4.4275   4.4598   4.5582   4.5871   4.6645   4.7394
  4.8123   4.8653   4.9523   5.0055   5.0894   5.1306   5.1851   5.2942
  5.3434   5.4619   5.5532   5.6130   5.9856  22.5479  22.7811  23.3280
 --------------------------------------------------------------
 
          Ground-State Mulliken Net Atomic Charges

     Atom                 Charge (a.u.)    Spin (a.u.)
  --------------------------------------------------------
      1 C                    -0.345505      -0.086300
      2 C                     0.122243      -0.168511
      3 C                    -0.154414       1.177815
      4 H                     0.077105      -0.005358
      5 H                     0.176490       0.024960
      6 H                     0.124080       0.057392
  --------------------------------------------------------
  Sum of atomic charges =     0.000000
  Sum of spin   charges =     1.000000

  Building new vdw surfaces
         Merz-Kollman RESP Net Atomic Charges

     Atom                 Charge (a.u.)
  ----------------------------------------
      1 C                    -0.476444
      2 C                     0.342196
      3 C                    -0.476444
      4 H                     0.268195
      5 H                     0.074302
      6 H                     0.268195
  ----------------------------------------
  Sum of atomic charges =     0.000000

  Related Dipole Moment =     3.0117 (X  1.8104 Y  2.4065 Z  0.0388)

 -----------------------------------------------------------------
                    Cartesian Multipole Moments
 -----------------------------------------------------------------
    Charge (ESU x 10^10)
                 0.0000
    Dipole Moment (Debye)
         X       2.4905      Y       2.0882      Z      -0.2144
       Tot       3.2572
    Quadrupole Moments (Debye-Ang)
        XX     -12.8584     XY      -0.5503     YY     -19.2778
        XZ       1.4667     YZ       0.4592     ZZ     -19.7390
    Octopole Moments (Debye-Ang^2)
       XXX     -44.1959    XXY       3.6498    XYY     -22.3015
       YYY      24.7106    XXZ       2.2558    XYZ       0.8926
       YYZ       0.2157    XZZ     -25.2321    YZZ       8.5103
       ZZZ      -0.4107
    Hexadecapole Moments (Debye-Ang^3)
      XXXX    -225.9354   XXXY      27.0466   XXYY     -59.8500
      XYYY      52.7354   YYYY     -82.8936   XXXZ       5.0955
      XXYZ       0.7171   XYYZ       1.6059   YYYZ      -2.8365
      XXZZ     -61.9116   XYZZ      18.5342   YYZZ     -18.4167
      XZZZ       0.4721   YZZZ      -2.2139   ZZZZ     -28.5810
 -----------------------------------------------------------------
 Calculating analytic gradient of the SCF energy
 Gradient of CDS energy
            1           2           3           4           5           6
    1  -0.0017731   0.0005749   0.0012362   0.0002659  -0.0000378  -0.0002662
    2   0.0002757   0.0007228  -0.0008092  -0.0001206  -0.0000836   0.0000148
    3  -0.0001095   0.0002249  -0.0001564   0.0000951  -0.0000337  -0.0000205
 Gradient of SCF Energy
            1           2           3           4           5           6
    1  -0.0287002   0.0340154  -0.0166506   0.0011190   0.0013133   0.0089031
    2  -0.0016743  -0.0036777  -0.0066584   0.0002938   0.0051319   0.0065847
    3   0.0054246   0.0004231  -0.0089697  -0.0060722   0.0042857   0.0049085
 Max gradient component =       3.402E-02
 RMS gradient           =       1.216E-02
 Computing fast CPCM-SWIG gradient
 Updating gradient with PCM contributions...
 -- total gradient after adding PCM contribution --
---------------------------------------------------
  Atom         X              Y              Z     
---------------------------------------------------
   1      -0.028239       0.001875       0.003126
   2       0.037164       0.002463       0.004251
   3      -0.009930      -0.005797      -0.007962
   4       0.002531      -0.002361      -0.004480
   5      -0.002668      -0.002598       0.001073
   6       0.001143       0.006420       0.003992
---------------------------------------------------
 Number of fixed atoms: 0
 Gradient time:  CPU 78.22 s  wall 3.23 s
 Geometry Optimization Parameters
   NAtoms,    NIC,     NZ,  NCons,   NDum,   NFix, NCnnct, MaxDiis
        6      26       0       0       0       0       0       0

 Cartesian Hessian Update
 Hessian updated using BFGS update


** GEOMETRY OPTIMIZATION IN DELOCALIZED INTERNAL COORDINATES **
   Searching for a Minimum

   Optimization Cycle:   2

                       Coordinates (Angstroms)
     ATOM                X               Y               Z
      1  C         0.0124481398   -0.0400311270   -0.0194567986
      2  C         1.4568893089   -0.0825509734    0.1636878208
      3  C         2.2478938488   -1.1099033651   -0.1301119289
      4  H        -0.3007706509    0.8700926849   -0.5493564887
      5  H         1.9164654019    0.8331021379    0.5477057648
      6  H         3.3317864205   -1.1702938349   -0.0467891439
   Point Group: c1    Number of degrees of freedom:    12


   Energy is   -115.875576369

 Hessian updated using BFGS update

 11 Hessian modes will be used to form the next step
  Hessian Eigenvalues:
     0.009129    0.021407    0.031802    0.134519    0.167626    0.220325
     0.264767    0.343249    0.348237    0.356825    0.603072

 Minimum search - taking simple RFO step
 Searching for Lamda that Minimizes Along All modes
 Value Taken    Lamda =  -0.00882772
 Calculated Step too Large.  Step scaled by  0.622102
 Step Taken.  Stepsize is  0.300000

                             Maximum     Tolerance    Cnvgd?
         Gradient           0.023397      0.000300      NO
         Displacement       0.178817      0.001200      NO
         Energy change     -0.007877      0.000001      NO


 New Cartesian Coordinates Obtained by Inverse Iteration

 Displacement from previous Coordinates is:  0.276111
 ----------------------------------------------------------------
             Standard Nuclear Orientation (Angstroms)
    I     Atom           X                Y                Z
 ----------------------------------------------------------------
    1      C       0.0455793176    -0.0622341177    -0.0829480274
    2      C       1.4443481067    -0.0761366466     0.1301213599
    3      C       2.2676277625    -1.1006156323    -0.1046262238
    4      H      -0.3236412006     0.8990427373    -0.4657207067
    5      H       1.8862973438     0.8534740403     0.5140406559
    6      H       3.3445011390    -1.2131148585    -0.0251878322
 ----------------------------------------------------------------
 Nuclear Repulsion Energy =          52.56935883 hartrees
 There are       11 alpha and       10 beta electrons
 Discretize the solute cavity surface with Lebedev spheres
	Using 110 Lebedev grid points for each H atom
	Using 194 Lebedev grid points for other atoms
	Atomic van der Waals radii will be scaled by 1.20
 Remove points where switching function is < 1.0e-08
 Keep 534 surface tesserae and discard 378 interior tesserae
 Molecular Surface Area = 79.701 Angst**2
 Applying Cartesian multipole field
    Component          Value
    ---------          -----
     (2,0,0)        1.00000E-11
     (0,2,0)        2.00000E-11
     (0,0,2)       -3.00000E-11
 Nucleus-field energy     =     0.0000000027 hartrees
 Requested basis set is def2-TZVPPD
 There are 60 shells and 162 basis functions
 A cutoff of  1.0D-14 yielded   1806 shell pairs
 There are     13324 function pairs (     17067 Cartesian)
 Smallest overlap matrix eigenvalue = 1.20E-05
 Guess MOs from SCF MO coefficient file

 -----------------------------------------------------------------------
  General SCF calculation program by
  Eric Jon Sundstrom, Paul Horn, Yuezhi Mao, Dmitri Zuev, Alec White,
  David Stuck, Shaama M.S., Shane Yost, Joonho Lee, David Small,
  Daniel Levine, Susi Lehtola, Hugh Burton, Evgeny Epifanovsky,
  Bang C. Huynh
 -----------------------------------------------------------------------
 Exchange:     0.1670 Hartree-Fock + 1.0000 wB97X-V + LR-HF
 Correlation:  1.0000 wB97X-V
 Using SG-3 standard quadrature grid
 Nonlocal Correlation:  VV10 with C = 0.0100 and b = 6.00 and scale = 1.00000
 Grid used for NLC:  SG-1 standard quadrature
 
 Citation of the SMD model:
 Marenich, A.V.; Cramer, C.J.; Truhlar, D.G.
 J. Phys. Chem. B 2009, 113, 6378-6396.
 iSolventCode=           0
 Solvent: other                                                           
 
 vradii
            1           2           3           4           5           6
    1   1.8500000   1.8500000   1.8500000   1.2000000   1.2000000   1.2000000
 using 32 threads for integral computing
 -------------------------------------------------------
 OpenMP Integral computing Module                
 Release: version 1.0, May 2013, Q-Chem Inc. Pittsburgh 
 -------------------------------------------------------
 using 32 threads for integral computing
 -------------------------------------------------------
 OpenMP Integral computing Module                
 Release: version 1.0, May 2013, Q-Chem Inc. Pittsburgh 
 -------------------------------------------------------
 -------------------------------------------------------
 OpenMP BLAS3 based DFT computing Module                
 Release: version 1.0, May 2013, Q-Chem Inc. Pittsburgh 
 -------------------------------------------------------
 -------------------------------------------------------
 OpenMP BLAS3 based DFT computing Module                
 Release: version 1.0, May 2013, Q-Chem Inc. Pittsburgh 
 -------------------------------------------------------
 -------------------------------------------------------
 OpenMP BLAS3 based DFT computing Module                
 Release: version 1.0, May 2013, Q-Chem Inc. Pittsburgh 
 -------------------------------------------------------
 A unrestricted SCF calculation will be
 performed using Roothaan-Hall, DIIS, GDM
 SCF converges when RMS gradient is below 1.0e-08
 ---------------------------------------
  Cycle       Energy         DIIS error
 ---------------------------------------
    1    -115.9067404232      6.58e-04  Roothaan Step
 ---------------------------------------
  Cycle       Energy         DIIS error
 ---------------------------------------
    1    -115.8805226108      1.72e-04  
    2    -115.8814577360      9.61e-05  Done DIIS. Switching to GDM
 ---------------------------------------
  Cycle       Energy        RMS Gradient
 ---------------------------------------
    1    -115.8814577360      1.25e-02   Normal BFGS step
    2    -115.8817588646      6.61e-03   Normal BFGS step
    3    -115.8820143776      4.84e-03   Normal BFGS step
    4    -115.8821574549      2.24e-03   Normal BFGS step
    5    -115.8821912621      1.71e-03   Normal BFGS step
    6    -115.8822122508      1.06e-03   Normal BFGS step
    7    -115.8822161553      7.05e-04   Normal BFGS step
    8    -115.8822183341      4.88e-04   Normal BFGS step
    9    -115.8822195344      2.73e-04   Normal BFGS step
   10    -115.8822201154      1.62e-04   Normal BFGS step
   11    -115.8822203148      8.73e-05   Normal BFGS step
   12    -115.8822203805      6.25e-05   Normal BFGS step
   13    -115.8822204037      3.69e-05   Normal BFGS step
   14    -115.8822204112      1.55e-05   Normal BFGS step
   15    -115.8822204128      8.66e-06   Normal BFGS step
   16    -115.8822204132      4.63e-06   Normal BFGS step
   17    -115.8822204132      1.84e-06   Normal BFGS step
   18    -115.8822204133      4.43e-07   Normal BFGS step
   19    -115.8822204133      1.29e-07   Normal BFGS step
   20    -115.8822204133      4.32e-08   Normal BFGS step
   21    -115.8822204133      1.95e-08   Normal BFGS step
   22    -115.8822204133      8.00e-09  Convergence criterion met
 ---------------------------------------
 SCF time:   CPU 770.42s  wall 26.00s 
<S^2> =          1.356023303
(3)  G-ENP(liq) elect-nuc-pol free energy of system     -115.882220413 a.u.
(4)  G-CDS(liq) cavity-dispersion-solvent structure 
     free energy                                                1.7687 kcal/mol
(6)  G-S(liq) free energy of system                     -115.879401736 a.u.
 SCF   energy in the final basis set =     -115.8822204133
 Total energy in the final basis set =     -115.8794017362
 
 --------------------------------------------------------------
 
                    Orbital Energies (a.u.)
 --------------------------------------------------------------
 
 Alpha MOs
 -- Occupied --
-10.3176 -10.3055 -10.2916  -0.9407  -0.7978  -0.6430  -0.5941  -0.5227
 -0.4455  -0.3679  -0.3218
 -- Virtual --
 -0.0163   0.0797   0.0974   0.1060   0.1088   0.1593   0.1772   0.1922
  0.2089   0.2193   0.2249   0.2418   0.2530   0.2733   0.2951   0.3012
  0.3042   0.3162   0.3294   0.3416   0.3496   0.3516   0.3664   0.3757
  0.3964   0.4075   0.4354   0.4456   0.4657   0.4727   0.4795   0.4846
  0.4999   0.5140   0.5304   0.5895   0.5959   0.6046   0.6253   0.6470
  0.6749   0.6912   0.7181   0.7423   0.7712   0.7854   0.7976   0.8188
  0.8399   0.8654   0.9139   0.9252   0.9682   0.9742   1.0227   1.0943
  1.1357   1.1600   1.1982   1.2019   1.2959   1.3206   1.3581   1.3790
  1.4205   1.4333   1.4662   1.5355   1.5488   1.5658   1.6377   1.6618
  1.6840   1.7994   1.8421   1.8521   1.8728   1.9438   2.0023   2.0410
  2.0990   2.1313   2.2082   2.3128   2.3858   2.6081   2.6633   2.7593
  2.7797   2.8076   2.8330   2.8523   2.8825   2.9008   2.9255   2.9425
  2.9487   3.0356   3.0732   3.1084   3.1380   3.2136   3.2405   3.2610
  3.2740   3.3051   3.3253   3.3605   3.3725   3.4097   3.4822   3.5170
  3.5270   3.5419   3.6636   3.7086   3.7492   3.7971   3.8142   3.8633
  3.9864   4.0117   4.0402   4.0680   4.1405   4.1480   4.1961   4.2785
  4.2929   4.4235   4.4671   4.5682   4.5996   4.6552   4.7294   4.8216
  4.8676   4.9187   4.9999   5.1099   5.1520   5.2109   5.3224   5.3386
  5.4341   5.6005   5.6493   6.0202  22.6194  22.8305  23.3668
 
 Beta MOs
 -- Occupied --
-10.3071 -10.3015 -10.2938  -0.9300  -0.7754  -0.6273  -0.5860  -0.5167
 -0.4116  -0.3457
 -- Virtual --
 -0.0176  -0.0094   0.0834   0.1005   0.1080   0.1263   0.1627   0.1802
  0.2018   0.2095   0.2220   0.2303   0.2432   0.2629   0.2765   0.2992
  0.3046   0.3083   0.3212   0.3319   0.3427   0.3540   0.3553   0.3673
  0.3788   0.3967   0.4114   0.4391   0.4460   0.4674   0.4767   0.4829
  0.4854   0.5029   0.5213   0.5324   0.5935   0.6029   0.6088   0.6256
  0.6556   0.6760   0.6934   0.7233   0.7479   0.7744   0.7909   0.8004
  0.8213   0.8508   0.8763   0.9165   0.9268   0.9871   0.9883   1.0317
  1.0962   1.1457   1.1645   1.2011   1.2054   1.3027   1.3243   1.3663
  1.3856   1.4280   1.4320   1.4698   1.5412   1.5552   1.5645   1.6556
  1.6686   1.6918   1.8159   1.8424   1.8643   1.8860   1.9480   2.0182
  2.0480   2.1071   2.1341   2.2117   2.3201   2.3906   2.6232   2.6716
  2.7700   2.7856   2.8407   2.8443   2.8559   2.8908   2.9095   2.9359
  2.9516   2.9536   3.0476   3.0981   3.1284   3.1637   3.2147   3.2445
  3.2707   3.2993   3.3101   3.3473   3.3719   3.3762   3.4221   3.4982
  3.5249   3.5352   3.5458   3.6669   3.7193   3.7620   3.8023   3.8160
  3.8698   3.9852   4.0183   4.0450   4.0710   4.1468   4.1524   4.2055
  4.2793   4.2992   4.4291   4.4721   4.5784   4.6041   4.6639   4.7362
  4.8291   4.8720   4.9257   5.0073   5.1195   5.1521   5.2201   5.3275
  5.3496   5.4352   5.6021   5.6629   6.0301  22.6172  22.8468  23.3687
 --------------------------------------------------------------
 
          Ground-State Mulliken Net Atomic Charges

     Atom                 Charge (a.u.)    Spin (a.u.)
  --------------------------------------------------------
      1 C                    -0.345272      -0.124666
      2 C                     0.154153      -0.169527
      3 C                    -0.172941       1.229844
      4 H                     0.072052      -0.010363
      5 H                     0.171564       0.021227
      6 H                     0.120444       0.053485
  --------------------------------------------------------
  Sum of atomic charges =     0.000000
  Sum of spin   charges =     1.000000

  Building new vdw surfaces
         Merz-Kollman RESP Net Atomic Charges

     Atom                 Charge (a.u.)
  ----------------------------------------
      1 C                    -0.516880
      2 C                     0.430430
      3 C                    -0.516880
      4 H                     0.280950
      5 H                     0.041430
      6 H                     0.280950
  ----------------------------------------
  Sum of atomic charges =     0.000000

  Related Dipole Moment =     3.0054 (X  1.6951 Y  2.4756 Z  0.1745)

 -----------------------------------------------------------------
                    Cartesian Multipole Moments
 -----------------------------------------------------------------
    Charge (ESU x 10^10)
                 0.0000
    Dipole Moment (Debye)
         X       2.7083      Y       1.9876      Z      -0.0251
       Tot       3.3595
    Quadrupole Moments (Debye-Ang)
        XX     -11.8948     XY      -1.1715     YY     -19.1286
        XZ       1.2444     YZ       0.2544     ZZ     -19.7187
    Octopole Moments (Debye-Ang^2)
       XXX     -42.2114    XXY       1.8847    XYY     -21.6438
       YYY      24.5844    XXZ       2.5685    XYZ       0.7268
       YYZ       0.8031    XZZ     -25.1913    YZZ       8.2937
       ZZZ       0.8766
    Hexadecapole Moments (Debye-Ang^3)
      XXXX    -218.2685   XXXY      21.0848   XXYY     -57.2079
      XYYY      51.2167   YYYY     -82.4489   XXXZ       4.4976
      XXYZ       0.2194   XYYZ       1.6589   YYYZ      -2.8685
      XXZZ     -61.3940   XYZZ      18.1919   YYZZ     -18.3350
      XZZZ       0.0850   YZZZ      -2.0999   ZZZZ     -27.5165
 -----------------------------------------------------------------
 Calculating analytic gradient of the SCF energy
 Gradient of CDS energy
            1           2           3           4           5           6
    1  -0.0016369   0.0004307   0.0012615   0.0002650  -0.0000483  -0.0002719
    2   0.0002487   0.0007170  -0.0008135  -0.0001135  -0.0000670   0.0000284
    3  -0.0001480   0.0002235  -0.0001036   0.0000844  -0.0000362  -0.0000201
 Gradient of SCF Energy
            1           2           3           4           5           6
    1  -0.0079065   0.0106103  -0.0143145   0.0009532   0.0016233   0.0090342
    2  -0.0044152  -0.0072202  -0.0000276   0.0023039   0.0071981   0.0021610
    3   0.0043779  -0.0040638  -0.0037178  -0.0028519   0.0037132   0.0025424
 Max gradient component =       1.431E-02
 RMS gradient           =       6.130E-03
 Computing fast CPCM-SWIG gradient
 Updating gradient with PCM contributions...
 -- total gradient after adding PCM contribution --
---------------------------------------------------
  Atom         X              Y              Z     
---------------------------------------------------
   1      -0.007995      -0.001841       0.002850
   2       0.013977      -0.001412      -0.000261
   3      -0.006641       0.000488      -0.002694
   4       0.002400       0.000551      -0.002167
   5      -0.002016      -0.000409       0.000628
   6       0.000276       0.002624       0.001644
---------------------------------------------------
 Number of fixed atoms: 0
 Gradient time:  CPU 72.09 s  wall 3.05 s
 Geometry Optimization Parameters
   NAtoms,    NIC,     NZ,  NCons,   NDum,   NFix, NCnnct, MaxDiis
        6      26       0       0       0       0       0       0

 Cartesian Hessian Update
 Hessian updated using BFGS update


** GEOMETRY OPTIMIZATION IN DELOCALIZED INTERNAL COORDINATES **
   Searching for a Minimum

   Optimization Cycle:   3

                       Coordinates (Angstroms)
     ATOM                X               Y               Z
      1  C         0.0455793176   -0.0622341177   -0.0829480274
      2  C         1.4443481067   -0.0761366466    0.1301213599
      3  C         2.2676277625   -1.1006156323   -0.1046262238
      4  H        -0.3236412006    0.8990427373   -0.4657207067
      5  H         1.8862973438    0.8534740403    0.5140406559
      6  H         3.3445011390   -1.2131148585   -0.0251878322
   Point Group: c1    Number of degrees of freedom:    12


   Energy is   -115.879401736

 Hessian updated using BFGS update

 12 Hessian modes will be used to form the next step
  Hessian Eigenvalues:
     0.012321    0.021526    0.031763    0.113972    0.160016    0.175079
     0.221022    0.291626    0.343653    0.348212    0.356786    0.606216

 Minimum search - taking simple RFO step
 Searching for Lamda that Minimizes Along All modes
 Value Taken    Lamda =  -0.00153823
 Step Taken.  Stepsize is  0.219327

                             Maximum     Tolerance    Cnvgd?
         Gradient           0.008766      0.000300      NO
         Displacement       0.133043      0.001200      NO
         Energy change     -0.003825      0.000001      NO


 New Cartesian Coordinates Obtained by Inverse Iteration

 Displacement from previous Coordinates is:  0.203503
 ----------------------------------------------------------------
             Standard Nuclear Orientation (Angstroms)
    I     Atom           X                Y                Z
 ----------------------------------------------------------------
    1      C       0.0652000239    -0.0611243106    -0.1377126862
    2      C       1.4418286409    -0.0672923593     0.1140058387
    3      C       2.2853653816    -1.0944279133    -0.0879626550
    4      H      -0.3698136731     0.9081901877    -0.4112203777
    5      H       1.8862650089     0.8640660767     0.4977436824
    6      H       3.3558670867    -1.2489961588    -0.0091745765
 ----------------------------------------------------------------
 Nuclear Repulsion Energy =          52.57835279 hartrees
 There are       11 alpha and       10 beta electrons
 Discretize the solute cavity surface with Lebedev spheres
	Using 110 Lebedev grid points for each H atom
	Using 194 Lebedev grid points for other atoms
	Atomic van der Waals radii will be scaled by 1.20
 Remove points where switching function is < 1.0e-08
 Keep 540 surface tesserae and discard 372 interior tesserae
 Molecular Surface Area = 79.616 Angst**2
 Applying Cartesian multipole field
    Component          Value
    ---------          -----
     (2,0,0)        1.00000E-11
     (0,2,0)        2.00000E-11
     (0,0,2)       -3.00000E-11
 Nucleus-field energy     =     0.0000000028 hartrees
 Requested basis set is def2-TZVPPD
 There are 60 shells and 162 basis functions
 A cutoff of  1.0D-14 yielded   1805 shell pairs
 There are     13323 function pairs (     17066 Cartesian)
 Smallest overlap matrix eigenvalue = 1.16E-05
 Guess MOs from SCF MO coefficient file

 -----------------------------------------------------------------------
  General SCF calculation program by
  Eric Jon Sundstrom, Paul Horn, Yuezhi Mao, Dmitri Zuev, Alec White,
  David Stuck, Shaama M.S., Shane Yost, Joonho Lee, David Small,
  Daniel Levine, Susi Lehtola, Hugh Burton, Evgeny Epifanovsky,
  Bang C. Huynh
 -----------------------------------------------------------------------
 Exchange:     0.1670 Hartree-Fock + 1.0000 wB97X-V + LR-HF
 Correlation:  1.0000 wB97X-V
 Using SG-3 standard quadrature grid
 Nonlocal Correlation:  VV10 with C = 0.0100 and b = 6.00 and scale = 1.00000
 Grid used for NLC:  SG-1 standard quadrature
 
 Citation of the SMD model:
 Marenich, A.V.; Cramer, C.J.; Truhlar, D.G.
 J. Phys. Chem. B 2009, 113, 6378-6396.
 iSolventCode=           0
 Solvent: other                                                           
 
 vradii
            1           2           3           4           5           6
    1   1.8500000   1.8500000   1.8500000   1.2000000   1.2000000   1.2000000
 using 32 threads for integral computing
 -------------------------------------------------------
 OpenMP Integral computing Module                
 Release: version 1.0, May 2013, Q-Chem Inc. Pittsburgh 
 -------------------------------------------------------
 using 32 threads for integral computing
 -------------------------------------------------------
 OpenMP Integral computing Module                
 Release: version 1.0, May 2013, Q-Chem Inc. Pittsburgh 
 -------------------------------------------------------
 -------------------------------------------------------
 OpenMP BLAS3 based DFT computing Module                
 Release: version 1.0, May 2013, Q-Chem Inc. Pittsburgh 
 -------------------------------------------------------
 -------------------------------------------------------
 OpenMP BLAS3 based DFT computing Module                
 Release: version 1.0, May 2013, Q-Chem Inc. Pittsburgh 
 -------------------------------------------------------
 -------------------------------------------------------
 OpenMP BLAS3 based DFT computing Module                
 Release: version 1.0, May 2013, Q-Chem Inc. Pittsburgh 
 -------------------------------------------------------
 A unrestricted SCF calculation will be
 performed using Roothaan-Hall, DIIS, GDM
 SCF converges when RMS gradient is below 1.0e-08
 ---------------------------------------
  Cycle       Energy         DIIS error
 ---------------------------------------
    1    -185.5064847475      2.52e-02  Roothaan Step
 ---------------------------------------
  Cycle       Energy         DIIS error
 ---------------------------------------
    1     -78.4046071599      4.09e-02  
    2     -99.8741400511      3.14e-02  
    3    -111.4822999092      1.78e-02  
    4    -114.4547953262      8.25e-03  Done DIIS. Switching to GDM
 ---------------------------------------
  Cycle       Energy        RMS Gradient
 ---------------------------------------
    1    -114.4547953262      1.44e+00   Descent step
    2    -115.2236271766      8.58e-01   Descent step
    3    -115.6556825978      1.32e-01   Descent step
    4    -115.7637861650      4.91e-02   Dog-leg BFGS step
    5    -115.8033697671      4.15e-02   Normal BFGS step
    6    -115.8096875021      2.29e-02   Normal BFGS step
    7    -115.8141043669      1.96e-02   Normal BFGS step
    8    -115.8207268719      3.10e-02   Normal BFGS step
    9    -115.8283482626      5.09e-02   Dog-leg BFGS step
   10    -115.8430761455      5.82e-02   Dog-leg BFGS step
   11    -115.8610145655      4.77e-02   Normal BFGS step
   12    -115.8670790293      3.16e-02   Normal BFGS step
   13    -115.8698365989      3.01e-02   Normal BFGS step
   14    -115.8740497781      2.01e-02   Normal BFGS step
   15    -115.8760144495      9.71e-03   Normal BFGS step
   16    -115.8766396447      5.85e-03   Normal BFGS step
   17    -115.8769528866      3.61e-03   Normal BFGS step
   18    -115.8770330860      2.03e-03   Normal BFGS step
   19    -115.8770532459      1.54e-03   Normal BFGS step
   20    -115.8770593225      8.65e-04   Normal BFGS step
   21    -115.8770622284      4.62e-04   Normal BFGS step
   22    -115.8770639958      3.12e-04   Normal BFGS step
   23    -115.8770645302      2.07e-04   Normal BFGS step
   24    -115.8770647256      1.09e-04   Normal BFGS step
   25    -115.8770648208      9.60e-05   Normal BFGS step
   26    -115.8770648751      6.67e-05   Normal BFGS step
   27    -115.8770648975      3.65e-05   Normal BFGS step
   28    -115.8770649044      1.81e-05   Normal BFGS step
   29    -115.8770649066      1.06e-05   Normal BFGS step
   30    -115.8770649077      7.55e-06   Normal BFGS step
   31    -115.8770649084      6.06e-06   Normal BFGS step
   32    -115.8770649086      2.56e-06   Normal BFGS step
   33    -115.8770649086      8.04e-07   Normal BFGS step
   34    -115.8770649086      2.24e-07   Normal BFGS step
   35    -115.8770649086      1.10e-07   Normal BFGS step
   36    -115.8770649086      3.21e-08   Normal BFGS step
   37    -115.8770649086      1.38e-08   Normal BFGS step
   38    -115.8770649086      8.89e-09  Convergence criterion met
 ---------------------------------------
 SCF time:   CPU 1336.46s  wall 46.00s 
<S^2> =          1.227045583
(3)  G-ENP(liq) elect-nuc-pol free energy of system     -115.877064909 a.u.
(4)  G-CDS(liq) cavity-dispersion-solvent structure 
     free energy                                                1.7484 kcal/mol
(6)  G-S(liq) free energy of system                     -115.874278721 a.u.
 SCF   energy in the final basis set =     -115.8770649086
 Total energy in the final basis set =     -115.8742787209
 
 --------------------------------------------------------------
 
                    Orbital Energies (a.u.)
 --------------------------------------------------------------
 
 Alpha MOs
 -- Occupied --
-10.3271 -10.3039 -10.2934  -0.9426  -0.7966  -0.6505  -0.6027  -0.5297
 -0.4182  -0.3695  -0.3335
 -- Virtual --
 -0.0306   0.0783   0.0971   0.1035   0.1233   0.1571   0.1829   0.1919
  0.2054   0.2190   0.2273   0.2410   0.2635   0.2738   0.2939   0.3005
  0.3047   0.3150   0.3291   0.3381   0.3445   0.3490   0.3700   0.3758
  0.3968   0.4097   0.4366   0.4509   0.4659   0.4724   0.4758   0.4812
  0.5001   0.5120   0.5287   0.5902   0.5983   0.6087   0.6274   0.6554
  0.6785   0.6950   0.7212   0.7480   0.7666   0.7844   0.7938   0.8222
  0.8404   0.8687   0.9185   0.9228   0.9635   0.9770   1.0153   1.0827
  1.1273   1.1734   1.1751   1.2026   1.3023   1.3145   1.3661   1.3885
  1.4260   1.4292   1.4720   1.5273   1.5447   1.5686   1.6430   1.6561
  1.7236   1.8091   1.8421   1.8616   1.8702   1.9458   2.0173   2.0380
  2.0837   2.1193   2.2162   2.3271   2.3867   2.6016   2.6686   2.7671
  2.7785   2.8059   2.8272   2.8448   2.8927   2.9035   2.9302   2.9370
  2.9486   3.0365   3.0694   3.1097   3.1334   3.2045   3.2179   3.2508
  3.2731   3.3074   3.3335   3.3557   3.3680   3.4281   3.4628   3.4992
  3.5213   3.5262   3.6541   3.7154   3.7363   3.7909   3.7968   3.8778
  3.9979   4.0085   4.0283   4.0742   4.1239   4.1405   4.2036   4.2597
  4.3179   4.4083   4.4669   4.5701   4.5905   4.6568   4.7276   4.8329
  4.8802   4.8962   5.0060   5.1302   5.1559   5.2321   5.3313   5.3489
  5.4057   5.6259   5.6832   6.0367  22.6707  22.8604  23.3661
 
 Beta MOs
 -- Occupied --
-10.3183 -10.3020 -10.2924  -0.9291  -0.7811  -0.6323  -0.5750  -0.5208
 -0.4381  -0.3142
 -- Virtual --
 -0.0207  -0.0133   0.0828   0.0986   0.1090   0.1173   0.1598   0.1843
  0.2027   0.2103   0.2210   0.2302   0.2422   0.2593   0.2757   0.2980
  0.3062   0.3075   0.3183   0.3307   0.3413   0.3474   0.3540   0.3711
  0.3787   0.3987   0.4125   0.4380   0.4540   0.4691   0.4759   0.4812
  0.4854   0.5030   0.5165   0.5333   0.5960   0.6065   0.6139   0.6303
  0.6631   0.6821   0.7015   0.7227   0.7553   0.7711   0.7879   0.7975
  0.8258   0.8460   0.8758   0.9225   0.9275   0.9772   0.9863   1.0189
  1.0881   1.1403   1.1763   1.1795   1.2104   1.3053   1.3204   1.3686
  1.3936   1.4323   1.4391   1.4751   1.5314   1.5586   1.5778   1.6395
  1.6646   1.7295   1.8172   1.8596   1.8610   1.8839   1.9517   2.0336
  2.0395   2.0921   2.1242   2.2252   2.3317   2.3949   2.6134   2.6704
  2.7791   2.7845   2.8183   2.8344   2.8559   2.9076   2.9144   2.9352
  2.9437   2.9556   3.0451   3.0894   3.1187   3.1500   3.2152   3.2365
  3.2674   3.2913   3.3151   3.3407   3.3680   3.3908   3.4378   3.4758
  3.5090   3.5319   3.5390   3.6619   3.7291   3.7476   3.7974   3.8039
  3.8801   4.0048   4.0182   4.0385   4.0803   4.1321   4.1545   4.2147
  4.2668   4.3230   4.4177   4.4726   4.5740   4.5992   4.6618   4.7435
  4.8423   4.8868   4.9036   5.0129   5.1401   5.1679   5.2432   5.3410
  5.3609   5.4114   5.6361   5.6932   6.0507  22.6732  22.8702  23.3694
 --------------------------------------------------------------
 
          Ground-State Mulliken Net Atomic Charges

     Atom                 Charge (a.u.)    Spin (a.u.)
  --------------------------------------------------------
      1 C                    -0.371980       0.151157
      2 C                     0.183294       0.054784
      3 C                    -0.144978       0.662620
      4 H                     0.056660      -0.002558
      5 H                     0.165351       0.093815
      6 H                     0.111653       0.040182
  --------------------------------------------------------
  Sum of atomic charges =     0.000000
  Sum of spin   charges =     1.000000

  Building new vdw surfaces
         Merz-Kollman RESP Net Atomic Charges

     Atom                 Charge (a.u.)
  ----------------------------------------
      1 C                    -0.594946
      2 C                     0.554793
      3 C                    -0.594946
      4 H                     0.316042
      5 H                     0.003015
      6 H                     0.316042
  ----------------------------------------
  Sum of atomic charges =     0.000000

  Related Dipole Moment =     3.1297 (X  1.6853 Y  2.6180 Z  0.3177)

 -----------------------------------------------------------------
                    Cartesian Multipole Moments
 -----------------------------------------------------------------
    Charge (ESU x 10^10)
                 0.0000
    Dipole Moment (Debye)
         X       3.0443      Y       1.9940      Z       0.1844
       Tot       3.6439
    Quadrupole Moments (Debye-Ang)
        XX     -10.5849     XY      -2.0957     YY     -19.3598
        XZ       0.8729     YZ       0.1448     ZZ     -19.5807
    Octopole Moments (Debye-Ang^2)
       XXX     -38.4514    XXY      -0.7425    XYY     -21.0605
       YYY      24.7096    XXZ       2.6955    XYZ       0.9137
       YYZ       1.1927    XZZ     -24.9147    YZZ       8.0759
       ZZZ       1.9123
    Hexadecapole Moments (Debye-Ang^3)
      XXXX    -206.2299   XXXY      12.0796   XXYY     -54.5402
      XYYY      50.0930   YYYY     -84.0846   XXXZ       3.8496
      XXYZ       0.3824   XYYZ       1.1070   YYYZ      -2.7055
      XXZZ     -60.6823   XYZZ      17.4671   YYZZ     -18.3204
      XZZZ      -0.8733   YZZZ      -1.9978   ZZZZ     -27.1016
 -----------------------------------------------------------------
 Calculating analytic gradient of the SCF energy
 Gradient of CDS energy
            1           2           3           4           5           6
    1  -0.0015660   0.0003828   0.0012802   0.0002319  -0.0000551  -0.0002737
    2   0.0002964   0.0006968  -0.0008382  -0.0001328  -0.0000617   0.0000395
    3  -0.0001992   0.0002519  -0.0000716   0.0000737  -0.0000345  -0.0000201
 Gradient of SCF Energy
            1           2           3           4           5           6
    1   0.0124511  -0.0220846   0.0045970  -0.0043867   0.0000881   0.0093351
    2   0.0061521  -0.0010655  -0.0102268  -0.0005654   0.0072351  -0.0015295
    3   0.0076200  -0.0047145  -0.0078578  -0.0018991   0.0023218   0.0045298
 Max gradient component =       2.208E-02
 RMS gradient           =       7.960E-03
 Computing fast CPCM-SWIG gradient
 Updating gradient with PCM contributions...
 -- total gradient after adding PCM contribution --
---------------------------------------------------
  Atom         X              Y              Z     
---------------------------------------------------
   1       0.012795       0.007959       0.006799
   2      -0.019231       0.003905      -0.001209
   3       0.013306      -0.010310      -0.006811
   4      -0.002759      -0.001006      -0.001638
   5      -0.003434      -0.000141      -0.000681
   6      -0.000677      -0.000406       0.003541
---------------------------------------------------
 Number of fixed atoms: 0
 Gradient time:  CPU 70.58 s  wall 2.98 s
 Geometry Optimization Parameters
   NAtoms,    NIC,     NZ,  NCons,   NDum,   NFix, NCnnct, MaxDiis
        6      26       0       0       0       0       0       0

 Cartesian Hessian Update
 Hessian updated using BFGS update


** GEOMETRY OPTIMIZATION IN DELOCALIZED INTERNAL COORDINATES **
   Searching for a Minimum

   Optimization Cycle:   4

                       Coordinates (Angstroms)
     ATOM                X               Y               Z
      1  C         0.0652000239   -0.0611243106   -0.1377126862
      2  C         1.4418286409   -0.0672923593    0.1140058387
      3  C         2.2853653816   -1.0944279133   -0.0879626550
      4  H        -0.3698136731    0.9081901877   -0.4112203777
      5  H         1.8862650089    0.8640660767    0.4977436824
      6  H         3.3558670867   -1.2489961588   -0.0091745765
   Point Group: c1    Number of degrees of freedom:    12


   Energy is   -115.874278721

 Hessian updated using BFGS update

 12 Hessian modes will be used to form the next step
  Hessian Eigenvalues:
     0.006885    0.021600    0.029858    0.110274    0.169208    0.181961
     0.243719    0.341608    0.345501    0.356371    0.393887    0.942229

 Minimum search - taking simple RFO step
 Searching for Lamda that Minimizes Along All modes
 Value Taken    Lamda =  -0.00159878
 Calculated Step too Large.  Step scaled by  0.984299
 Step Taken.  Stepsize is  0.300000

                             Maximum     Tolerance    Cnvgd?
         Gradient           0.012641      0.000300      NO
         Displacement       0.214541      0.001200      NO
         Energy change      0.005123      0.000001      NO


 New Cartesian Coordinates Obtained by Inverse Iteration

 Displacement from previous Coordinates is:  0.215625
 ----------------------------------------------------------------
             Standard Nuclear Orientation (Angstroms)
    I     Atom           X                Y                Z
 ----------------------------------------------------------------
    1      C       0.0776254599    -0.0692812638    -0.2141023374
    2      C       1.4445456254    -0.0564061020     0.1139190799
    3      C       2.2861515716    -1.0859481414    -0.0563729198
    4      H      -0.4019596921     0.9052689101    -0.3522011084
    5      H       1.9051454708     0.8772955723     0.4822973689
    6      H       3.3532040332    -1.2705134529    -0.0078608576
 ----------------------------------------------------------------
 Nuclear Repulsion Energy =          52.56044222 hartrees
 There are       11 alpha and       10 beta electrons
 Discretize the solute cavity surface with Lebedev spheres
	Using 110 Lebedev grid points for each H atom
	Using 194 Lebedev grid points for other atoms
	Atomic van der Waals radii will be scaled by 1.20
 Remove points where switching function is < 1.0e-08
 Keep 538 surface tesserae and discard 374 interior tesserae
 Molecular Surface Area = 79.593 Angst**2
 Applying Cartesian multipole field
    Component          Value
    ---------          -----
     (2,0,0)        1.00000E-11
     (0,2,0)        2.00000E-11
     (0,0,2)       -3.00000E-11
 Nucleus-field energy     =     0.0000000028 hartrees
 Requested basis set is def2-TZVPPD
 There are 60 shells and 162 basis functions
 A cutoff of  1.0D-14 yielded   1805 shell pairs
 There are     13323 function pairs (     17066 Cartesian)
 Smallest overlap matrix eigenvalue = 1.05E-05
 Guess MOs from SCF MO coefficient file

 -----------------------------------------------------------------------
  General SCF calculation program by
  Eric Jon Sundstrom, Paul Horn, Yuezhi Mao, Dmitri Zuev, Alec White,
  David Stuck, Shaama M.S., Shane Yost, Joonho Lee, David Small,
  Daniel Levine, Susi Lehtola, Hugh Burton, Evgeny Epifanovsky,
  Bang C. Huynh
 -----------------------------------------------------------------------
 Exchange:     0.1670 Hartree-Fock + 1.0000 wB97X-V + LR-HF
 Correlation:  1.0000 wB97X-V
 Using SG-3 standard quadrature grid
 Nonlocal Correlation:  VV10 with C = 0.0100 and b = 6.00 and scale = 1.00000
 Grid used for NLC:  SG-1 standard quadrature
 
 Citation of the SMD model:
 Marenich, A.V.; Cramer, C.J.; Truhlar, D.G.
 J. Phys. Chem. B 2009, 113, 6378-6396.
 iSolventCode=           0
 Solvent: other                                                           
 
 vradii
            1           2           3           4           5           6
    1   1.8500000   1.8500000   1.8500000   1.2000000   1.2000000   1.2000000
 using 32 threads for integral computing
 -------------------------------------------------------
 OpenMP Integral computing Module                
 Release: version 1.0, May 2013, Q-Chem Inc. Pittsburgh 
 -------------------------------------------------------
 using 32 threads for integral computing
 -------------------------------------------------------
 OpenMP Integral computing Module                
 Release: version 1.0, May 2013, Q-Chem Inc. Pittsburgh 
 -------------------------------------------------------
 -------------------------------------------------------
 OpenMP BLAS3 based DFT computing Module                
 Release: version 1.0, May 2013, Q-Chem Inc. Pittsburgh 
 -------------------------------------------------------
 -------------------------------------------------------
 OpenMP BLAS3 based DFT computing Module                
 Release: version 1.0, May 2013, Q-Chem Inc. Pittsburgh 
 -------------------------------------------------------
 -------------------------------------------------------
 OpenMP BLAS3 based DFT computing Module                
 Release: version 1.0, May 2013, Q-Chem Inc. Pittsburgh 
 -------------------------------------------------------
 A unrestricted SCF calculation will be
 performed using Roothaan-Hall, DIIS, GDM
 SCF converges when RMS gradient is below 1.0e-08
 ---------------------------------------
  Cycle       Energy         DIIS error
 ---------------------------------------
    1    -115.8457708091      6.12e-04  Roothaan Step
 ---------------------------------------
  Cycle       Energy         DIIS error
 ---------------------------------------
    1    -115.8756938055      1.53e-04  
    2    -115.8766091220      7.30e-05  Done DIIS. Switching to GDM
 ---------------------------------------
  Cycle       Energy        RMS Gradient
 ---------------------------------------
    1    -115.8766091220      1.05e-02   Normal BFGS step
    2    -115.8769503729      8.75e-03   Normal BFGS step
    3    -115.8775610681      6.40e-03   Normal BFGS step
    4    -115.8778141298      3.46e-03   Normal BFGS step
    5    -115.8779767072      2.70e-03   Normal BFGS step
    6    -115.8780363646      2.42e-03   Normal BFGS step
    7    -115.8780698223      1.70e-03   Normal BFGS step
    8    -115.8780979496      1.03e-03   Normal BFGS step
    9    -115.8781126111      8.51e-04   Normal BFGS step
   10    -115.8781186200      5.24e-04   Normal BFGS step
   11    -115.8781208409      4.04e-04   Normal BFGS step
   12    -115.8781222234      3.04e-04   Normal BFGS step
   13    -115.8781230828      1.88e-04   Normal BFGS step
   14    -115.8781234378      8.10e-05   Normal BFGS step
   15    -115.8781235233      3.83e-05   Normal BFGS step
   16    -115.8781235363      2.52e-05   Normal BFGS step
   17    -115.8781235385      1.60e-05   Normal BFGS step
   18    -115.8781235392      8.60e-06   Normal BFGS step
   19    -115.8781235395      3.35e-06   Normal BFGS step
   20    -115.8781235396      1.67e-06   Normal BFGS step
   21    -115.8781235396      1.09e-06   Normal BFGS step
   22    -115.8781235396      6.74e-07   Normal BFGS step
   23    -115.8781235396      3.34e-07   Normal BFGS step
   24    -115.8781235396      1.19e-07   Normal BFGS step
   25    -115.8781235396      4.99e-08   Normal BFGS step
   26    -115.8781235396      2.14e-08   Normal BFGS step
   27    -115.8781235396      1.10e-08   Normal BFGS step
   28    -115.8781235396      4.87e-09  Convergence criterion met
 ---------------------------------------
 SCF time:   CPU 962.51s  wall 32.00s 
<S^2> =          1.140746023
(3)  G-ENP(liq) elect-nuc-pol free energy of system     -115.878123540 a.u.
(4)  G-CDS(liq) cavity-dispersion-solvent structure 
     free energy                                                1.7390 kcal/mol
(6)  G-S(liq) free energy of system                     -115.875352311 a.u.
 SCF   energy in the final basis set =     -115.8781235396
 Total energy in the final basis set =     -115.8753523112
 
 --------------------------------------------------------------
 
                    Orbital Energies (a.u.)
 --------------------------------------------------------------
 
 Alpha MOs
 -- Occupied --
-10.3350 -10.3005 -10.2925  -0.9434  -0.7964  -0.6538  -0.6020  -0.5278
 -0.4226  -0.3683  -0.3295
 -- Virtual --
 -0.0330   0.0782   0.0964   0.1034   0.1241   0.1551   0.1870   0.1929
  0.2054   0.2181   0.2282   0.2404   0.2672   0.2724   0.2933   0.2985
  0.3063   0.3118   0.3285   0.3371   0.3404   0.3483   0.3730   0.3785
  0.3974   0.4148   0.4398   0.4547   0.4638   0.4702   0.4758   0.4812
  0.4940   0.5085   0.5329   0.5939   0.5976   0.6138   0.6333   0.6575
  0.6766   0.7070   0.7146   0.7557   0.7616   0.7782   0.7910   0.8240
  0.8370   0.8668   0.9158   0.9337   0.9590   0.9770   1.0133   1.0748
  1.1097   1.1594   1.1902   1.2062   1.2998   1.3156   1.3656   1.3973
  1.4148   1.4298   1.4789   1.5244   1.5423   1.5664   1.6340   1.6458
  1.7620   1.8129   1.8397   1.8584   1.8899   1.9500   2.0195   2.0423
  2.0704   2.1261   2.2268   2.3264   2.3894   2.5898   2.6609   2.7658
  2.7840   2.7953   2.8255   2.8383   2.8917   2.9033   2.9101   2.9482
  2.9626   3.0341   3.0613   3.1186   3.1284   3.1824   3.2221   3.2339
  3.2683   3.3267   3.3354   3.3558   3.3730   3.4396   3.4705   3.4918
  3.5135   3.5228   3.6363   3.7212   3.7315   3.7886   3.7913   3.8698
  3.9897   4.0079   4.0203   4.0886   4.1131   4.1384   4.2229   4.2431
  4.3284   4.3876   4.4600   4.5650   4.5746   4.6651   4.7333   4.8299
  4.8565   4.9099   5.0185   5.1284   5.1782   5.2388   5.3244   5.3685
  5.4019   5.6488   5.7147   6.0551  22.6910  22.8657  23.3676
 
 Beta MOs
 -- Occupied --
-10.3247 -10.2992 -10.2921  -0.9297  -0.7796  -0.6364  -0.5768  -0.5194
 -0.4335  -0.3168
 -- Virtual --
 -0.0246  -0.0122   0.0823   0.0979   0.1078   0.1220   0.1577   0.1906
  0.2011   0.2087   0.2208   0.2318   0.2422   0.2644   0.2741   0.2976
  0.3058   0.3085   0.3140   0.3301   0.3398   0.3437   0.3535   0.3741
  0.3809   0.4002   0.4168   0.4408   0.4581   0.4666   0.4734   0.4803
  0.4842   0.4970   0.5139   0.5360   0.5976   0.6125   0.6157   0.6353
  0.6645   0.6820   0.7113   0.7171   0.7601   0.7663   0.7815   0.7959
  0.8271   0.8412   0.8750   0.9216   0.9375   0.9738   0.9880   1.0173
  1.0793   1.1200   1.1643   1.1936   1.2148   1.3057   1.3195   1.3694
  1.4022   1.4179   1.4397   1.4812   1.5293   1.5550   1.5738   1.6339
  1.6547   1.7672   1.8240   1.8531   1.8643   1.9027   1.9553   2.0238
  2.0545   2.0802   2.1297   2.2333   2.3310   2.3985   2.6034   2.6639
  2.7798   2.7900   2.8102   2.8314   2.8493   2.9035   2.9084   2.9214
  2.9565   2.9724   3.0413   3.0834   3.1279   3.1490   3.1946   3.2363
  3.2482   3.2949   3.3334   3.3445   3.3604   3.4033   3.4473   3.4764
  3.5003   3.5249   3.5323   3.6449   3.7324   3.7420   3.7955   3.7979
  3.8737   3.9982   4.0144   4.0289   4.0942   4.1210   4.1508   4.2321
  4.2491   4.3330   4.3966   4.4651   4.5743   4.5792   4.6710   4.7481
  4.8343   4.8652   4.9161   5.0270   5.1364   5.1898   5.2458   5.3389
  5.3789   5.4066   5.6574   5.7244   6.0676  22.6926  22.8765  23.3708
 --------------------------------------------------------------
 
          Ground-State Mulliken Net Atomic Charges

     Atom                 Charge (a.u.)    Spin (a.u.)
  --------------------------------------------------------
      1 C                    -0.397897       0.098439
      2 C                     0.196491       0.008646
      3 C                    -0.106597       0.776462
      4 H                     0.041048      -0.004714
      5 H                     0.163427       0.084387
      6 H                     0.103527       0.036780
  --------------------------------------------------------
  Sum of atomic charges =     0.000000
  Sum of spin   charges =     1.000000

  Building new vdw surfaces
         Merz-Kollman RESP Net Atomic Charges

     Atom                 Charge (a.u.)
  ----------------------------------------
      1 C                    -0.660992
      2 C                     0.683194
      3 C                    -0.660992
      4 H                     0.340362
      5 H                    -0.041934
[...]
    Charge (ESU x 10^10)
                -0.0000
    Dipole Moment (Debye)
         X      -1.1038      Y       1.2517      Z       1.3023
       Tot       2.1169
    Quadrupole Moments (Debye-Ang)
        XX     -19.5061     XY       3.6578     YY     -17.3403
        XZ       2.9376     YZ      -1.4727     ZZ     -20.4736
    Octopole Moments (Debye-Ang^2)
       XXX     -86.7888    XXY      10.9217    XYY     -22.9791
       YYY      11.5517    XXZ       9.5320    XYZ      -3.2627
       YYZ       4.8006    XZZ     -31.2601    YZZ       3.9206
       ZZZ       8.8309
    Hexadecapole Moments (Debye-Ang^3)
      XXXX    -331.5226   XXXY      34.8035   XXYY     -53.0177
      XYYY      22.0057   YYYY     -71.2780   XXXZ      28.4537
      XXYZ      -9.2484   XYYZ       8.8416   YYYZ      -8.0649
      XXZZ     -65.5003   XYZZ       7.9997   YYZZ     -20.1114
      XZZZ      14.9434   YZZZ      -7.1930   ZZZZ     -31.1874
 -----------------------------------------------------------------
 Calculating analytic gradient of the SCF energy
 Gradient of CDS energy
            1           2           3           4           5           6
    1  -0.0017534   0.0005639   0.0011719   0.0000971  -0.0000434  -0.0000362
    2   0.0001398   0.0016456  -0.0017803   0.0000110  -0.0000889   0.0000729
    3   0.0000372   0.0003821  -0.0003452  -0.0000138  -0.0000055  -0.0000547
 Gradient of SCF Energy
            1           2           3           4           5           6
    1   0.0025172   0.0002180   0.0017307  -0.0061306   0.0033405  -0.0016759
    2   0.0061637  -0.0092216   0.0011296  -0.0051287   0.0065053   0.0005517
    3  -0.0157498   0.0158263  -0.0002509   0.0081078  -0.0068892  -0.0010442
 Max gradient component =       1.583E-02
 RMS gradient           =       6.940E-03
 Computing fast CPCM-SWIG gradient
 Updating gradient with PCM contributions...
 -- total gradient after adding PCM contribution --
---------------------------------------------------
  Atom         X              Y              Z     
---------------------------------------------------
   1      -0.002099       0.007226      -0.015124
   2       0.000095      -0.003653       0.016132
   3       0.001899       0.000478      -0.001308
   4       0.001396      -0.004193       0.006566
   5       0.000220       0.000422      -0.007008
   6      -0.001511      -0.000279       0.000742
---------------------------------------------------
 Number of fixed atoms: 0
 Gradient time:  CPU 90.54 s  wall 8.00 s
 Geometry Optimization Parameters
   NAtoms,    NIC,     NZ,  NCons,   NDum,   NFix, NCnnct, MaxDiis
        6      26       0       0       0       0       0       0

 Cartesian Hessian Update
 Hessian updated using BFGS update
**WARNING** Hereditary positive definiteness endangered
 due to small product of step size times gradient change
**WARNING** Small scalar product
 Hessian update skipped this cycle


** GEOMETRY OPTIMIZATION IN DELOCALIZED INTERNAL COORDINATES **
   Searching for a Minimum

   Optimization Cycle:  99

                       Coordinates (Angstroms)
     ATOM                X               Y               Z
      1  C         0.6913934641   -0.1203591752   -0.1479566709
      2  C         1.7867803081    0.5794035544    0.0279161115
      3  C         1.9469393802   -0.8273163756   -0.3074948769
      4  H        -0.3705088432   -0.2400983208    0.0028284205
      5  H         2.2593029365    1.5480399800    0.0883440204
      6  H         2.3508052231   -1.6392541403    0.3020422211
   Point Group: c1    Number of degrees of freedom:    12


   Energy is   -115.964631525

 Hessian updated using BFGS update
**WARNING** Hereditary positive definiteness endangered
 due to small product of step size times gradient change
**WARNING** Small scalar product
 Hessian update skipped this cycle

  0 Hessian modes will be used to form the next step
  Hessian Eigenvalues:


 Minimum search - taking simple RFO step
 Searching for Lamda that Minimizes Along All modes
 Value Taken    Lamda =   0.00000000
 Step Taken.  Stepsize is  0.000000

                             Maximum     Tolerance    Cnvgd?
         Gradient           0.003744      0.000300      NO
         Displacement       0.000000      0.001200     YES
         Energy change      0.000000      0.000001     YES


 New Cartesian Coordinates Obtained by Inverse Iteration

 Displacement from previous Coordinates is:  0.000000
 ----------------------------------------------------------------
             Standard Nuclear Orientation (Angstroms)
    I     Atom           X                Y                Z
 ----------------------------------------------------------------
    1      C       0.6913934641    -0.1203591752    -0.1479566709
    2      C       1.7867803081     0.5794035544     0.0279161115
    3      C       1.9469393802    -0.8273163756    -0.3074948769
    4      H      -0.3705088432    -0.2400983208     0.0028284205
    5      H       2.2593029365     1.5480399800     0.0883440204
    6      H       2.3508052231    -1.6392541403     0.3020422211
 ----------------------------------------------------------------
 Nuclear Repulsion Energy =          58.19195346 hartrees
 There are       11 alpha and       10 beta electrons
 Discretize the solute cavity surface with Lebedev spheres
	Using 110 Lebedev grid points for each H atom
	Using 194 Lebedev grid points for other atoms
	Atomic van der Waals radii will be scaled by 1.20
 Remove points where switching function is < 1.0e-08
 Keep 517 surface tesserae and discard 395 interior tesserae
 Molecular Surface Area = 74.242 Angst**2
 Applying Cartesian multipole field
    Component          Value
    ---------          -----
     (2,0,0)        1.00000E-11
     (0,2,0)        2.00000E-11
     (0,0,2)       -3.00000E-11
 Nucleus-field energy     =     0.0000000027 hartrees
 Requested basis set is def2-TZVPPD
 There are 60 shells and 162 basis functions
 A cutoff of  1.0D-14 yielded   1827 shell pairs
 There are     13437 function pairs (     17202 Cartesian)
 Smallest overlap matrix eigenvalue = 6.51E-06
 Guess MOs from SCF MO coefficient file

 -----------------------------------------------------------------------
  General SCF calculation program by
  Eric Jon Sundstrom, Paul Horn, Yuezhi Mao, Dmitri Zuev, Alec White,
  David Stuck, Shaama M.S., Shane Yost, Joonho Lee, David Small,
  Daniel Levine, Susi Lehtola, Hugh Burton, Evgeny Epifanovsky,
  Bang C. Huynh
 -----------------------------------------------------------------------
 Exchange:     0.1670 Hartree-Fock + 1.0000 wB97X-V + LR-HF
 Correlation:  1.0000 wB97X-V
 Using SG-3 standard quadrature grid
 Nonlocal Correlation:  VV10 with C = 0.0100 and b = 6.00 and scale = 1.00000
 Grid used for NLC:  SG-1 standard quadrature
 
 Citation of the SMD model:
 Marenich, A.V.; Cramer, C.J.; Truhlar, D.G.
 J. Phys. Chem. B 2009, 113, 6378-6396.
 iSolventCode=           0
 Solvent: other                                                           
 
 vradii
            1           2           3           4           5           6
    1   1.8500000   1.8500000   1.8500000   1.2000000   1.2000000   1.2000000
 using 32 threads for integral computing
 -------------------------------------------------------
 OpenMP Integral computing Module                
 Release: version 1.0, May 2013, Q-Chem Inc. Pittsburgh 
 -------------------------------------------------------
 using 32 threads for integral computing
 -------------------------------------------------------
 OpenMP Integral computing Module                
 Release: version 1.0, May 2013, Q-Chem Inc. Pittsburgh 
 -------------------------------------------------------
 -------------------------------------------------------
 OpenMP BLAS3 based DFT computing Module                
 Release: version 1.0, May 2013, Q-Chem Inc. Pittsburgh 
 -------------------------------------------------------
 -------------------------------------------------------
 OpenMP BLAS3 based DFT computing Module                
 Release: version 1.0, May 2013, Q-Chem Inc. Pittsburgh 
 -------------------------------------------------------
 -------------------------------------------------------
 OpenMP BLAS3 based DFT computing Module                
 Release: version 1.0, May 2013, Q-Chem Inc. Pittsburgh 
 -------------------------------------------------------
 A unrestricted SCF calculation will be
 performed using Roothaan-Hall, DIIS, GDM
 SCF converges when RMS gradient is below 1.0e-08
 ---------------------------------------
  Cycle       Energy         DIIS error
 ---------------------------------------
    1    -115.9626519380      8.39e-12  Roothaan Step
 ---------------------------------------
  Cycle       Energy         DIIS error
 ---------------------------------------
    1    -115.9626519380      8.77e-12  
    2    -115.9626519380      8.52e-12  Done DIIS. Switching to GDM
 ---------------------------------------
  Cycle       Energy        RMS Gradient
 ---------------------------------------
    1    -115.9626519380      3.82e-10  Convergence criterion met
 ---------------------------------------
 SCF time:   CPU 146.49s  wall 6.00s 
<S^2> =          0.753434815
(3)  G-ENP(liq) elect-nuc-pol free energy of system     -115.962651938 a.u.
(4)  G-CDS(liq) cavity-dispersion-solvent structure 
     free energy                                               -1.2422 kcal/mol
(6)  G-S(liq) free energy of system                     -115.964631525 a.u.
 SCF   energy in the final basis set =     -115.9626519380
 Total energy in the final basis set =     -115.9646315250
 
 --------------------------------------------------------------
 
                    Orbital Energies (a.u.)
 --------------------------------------------------------------
 
 Alpha MOs
 -- Occupied --
-10.3009 -10.2998 -10.2818  -1.0279  -0.7067  -0.6939  -0.6191  -0.5078
 -0.4457  -0.4151  -0.2611
 -- Virtual --
  0.0654   0.0785   0.0956   0.0960   0.1661   0.1716   0.1820   0.2005
  0.2161   0.2244   0.2513   0.2539   0.2584   0.2717   0.2887   0.3034
  0.3188   0.3230   0.3259   0.3331   0.3511   0.3565   0.3873   0.3889
  0.4157   0.4217   0.4331   0.4586   0.4605   0.4728   0.4885   0.4936
  0.5158   0.5286   0.5462   0.5841   0.6005   0.6339   0.6417   0.6536
  0.6757   0.6847   0.7255   0.7603   0.7698   0.7824   0.7933   0.8108
  0.8928   0.9117   0.9307   0.9349   1.0036   1.0242   1.0805   1.1354
  1.2080   1.2210   1.2393   1.2879   1.3429   1.3603   1.3997   1.4366
  1.4529   1.4686   1.5368   1.5911   1.6092   1.6629   1.7023   1.7476
  1.8335   1.8440   1.8933   1.9008   1.9170   1.9736   2.0214   2.1306
  2.1661   2.2969   2.3310   2.4200   2.5422   2.6471   2.6807   2.7129
  2.7440   2.8101   2.8273   2.8506   2.8909   2.9364   3.0240   3.0729
  3.1387   3.1624   3.1855   3.1964   3.2599   3.2937   3.3253   3.3279
  3.3428   3.3584   3.4024   3.4253   3.4634   3.4820   3.5263   3.5534
  3.6060   3.6286   3.6809   3.7059   3.7490   3.8207   3.9138   3.9295
  3.9761   4.0449   4.0829   4.1739   4.2027   4.2307   4.3246   4.3575
  4.3957   4.4674   4.5007   4.5216   4.6163   4.6966   4.8886   5.1188
  5.1671   5.1892   5.2176   5.3333   5.4167   5.4748   5.5090   5.5622
  5.6324   5.6896   5.9340   6.1045  23.0090  23.3910  23.5742
 
 Beta MOs
 -- Occupied --
-10.2997 -10.2985 -10.2725  -1.0180  -0.6906  -0.6849  -0.6096  -0.4758
 -0.4288  -0.4043
 -- Virtual --
  0.0446   0.0751   0.0818   0.0965   0.1005   0.1691   0.1746   0.1856
  0.2029   0.2207   0.2368   0.2546   0.2563   0.2629   0.2765   0.2933
  0.3059   0.3204   0.3254   0.3294   0.3358   0.3564   0.3592   0.3883
  0.3914   0.4219   0.4253   0.4348   0.4608   0.4657   0.4747   0.4902
  0.4962   0.5194   0.5328   0.5480   0.5874   0.6046   0.6375   0.6498
  0.6564   0.6813   0.6945   0.7297   0.7649   0.7729   0.7845   0.7955
  0.8209   0.8969   0.9181   0.9363   0.9436   1.0118   1.0300   1.0845
  1.1439   1.2151   1.2262   1.2505   1.2949   1.3483   1.3642   1.4067
  1.4480   1.4586   1.4753   1.5422   1.5962   1.6167   1.6685   1.7122
  1.7569   1.8395   1.8497   1.8969   1.9032   1.9280   2.0040   2.0271
  2.1354   2.1722   2.3014   2.3375   2.4322   2.5534   2.6563   2.6890
  2.7185   2.7509   2.8205   2.8365   2.8600   2.9004   2.9433   3.0307
  3.0774   3.1524   3.1709   3.2014   3.2080   3.2740   3.3041   3.3380
  3.3452   3.3539   3.3669   3.4222   3.4447   3.4688   3.4909   3.5303
  3.5635   3.6134   3.6363   3.6921   3.7162   3.7554   3.8272   3.9193
  3.9390   3.9828   4.0542   4.0905   4.1805   4.2063   4.2367   4.3295
  4.3656   4.4049   4.4747   4.5107   4.5288   4.6233   4.7041   4.8986
  5.1249   5.1840   5.1954   5.2272   5.3386   5.4306   5.4836   5.5127
  5.5695   5.6378   5.6934   5.9358   6.1062  23.0205  23.3931  23.5759
 --------------------------------------------------------------
 
          Ground-State Mulliken Net Atomic Charges

     Atom                 Charge (a.u.)    Spin (a.u.)
  --------------------------------------------------------
      1 C                    -0.032457       0.076351
      2 C                    -0.069375       0.174509
      3 C                    -0.279301       0.689197
      4 H                     0.154838      -0.011998
      5 H                     0.146964       0.000095
      6 H                     0.079332       0.071847
  --------------------------------------------------------
  Sum of atomic charges =     0.000000
  Sum of spin   charges =     1.000000

         Merz-Kollman RESP Net Atomic Charges

     Atom                 Charge (a.u.)
  ----------------------------------------
      1 C                    -0.383611
      2 C                     0.057706
      3 C                    -0.383611
      4 H                     0.270247
      5 H                     0.169023
      6 H                     0.270247
  ----------------------------------------
  Sum of atomic charges =     0.000000

  Related Dipole Moment =     1.5011 (X  0.0387 Y  0.7240 Z  1.3144)

 -----------------------------------------------------------------
                    Cartesian Multipole Moments
 -----------------------------------------------------------------
    Charge (ESU x 10^10)
                 0.0000
    Dipole Moment (Debye)
         X      -1.1038      Y       1.2517      Z       1.3023
       Tot       2.1169
    Quadrupole Moments (Debye-Ang)
        XX     -19.5061     XY       3.6578     YY     -17.3403
        XZ       2.9376     YZ      -1.4727     ZZ     -20.4736
    Octopole Moments (Debye-Ang^2)
       XXX     -86.7888    XXY      10.9217    XYY     -22.9791
       YYY      11.5517    XXZ       9.5320    XYZ      -3.2627
       YYZ       4.8006    XZZ     -31.2601    YZZ       3.9206
       ZZZ       8.8309
    Hexadecapole Moments (Debye-Ang^3)
      XXXX    -331.5226   XXXY      34.8035   XXYY     -53.0177
      XYYY      22.0057   YYYY     -71.2780   XXXZ      28.4537
      XXYZ      -9.2484   XYYZ       8.8416   YYYZ      -8.0649
      XXZZ     -65.5003   XYZZ       7.9997   YYZZ     -20.1114
      XZZZ      14.9434   YZZZ      -7.1930   ZZZZ     -31.1874
 -----------------------------------------------------------------
 Calculating analytic gradient of the SCF energy
 Gradient of CDS energy
            1           2           3           4           5           6
    1  -0.0017534   0.0005639   0.0011719   0.0000971  -0.0000434  -0.0000362
    2   0.0001398   0.0016456  -0.0017803   0.0000110  -0.0000889   0.0000729
    3   0.0000372   0.0003821  -0.0003452  -0.0000138  -0.0000055  -0.0000547
 Gradient of SCF Energy
            1           2           3           4           5           6
    1   0.0025172   0.0002180   0.0017307  -0.0061306   0.0033405  -0.0016759
    2   0.0061637  -0.0092216   0.0011296  -0.0051287   0.0065053   0.0005517
    3  -0.0157498   0.0158263  -0.0002509   0.0081078  -0.0068892  -0.0010442
 Max gradient component =       1.583E-02
 RMS gradient           =       6.940E-03
 Computing fast CPCM-SWIG gradient
 Updating gradient with PCM contributions...
 -- total gradient after adding PCM contribution --
---------------------------------------------------
  Atom         X              Y              Z     
---------------------------------------------------
   1      -0.002099       0.007226      -0.015124
   2       0.000095      -0.003653       0.016132
   3       0.001899       0.000478      -0.001308
   4       0.001396      -0.004193       0.006566
   5       0.000220       0.000422      -0.007008
   6      -0.001511      -0.000279       0.000742
---------------------------------------------------
 Number of fixed atoms: 0
 Gradient time:  CPU 73.14 s  wall 3.09 s
 Geometry Optimization Parameters
   NAtoms,    NIC,     NZ,  NCons,   NDum,   NFix, NCnnct, MaxDiis
        6      26       0       0       0       0       0       0

 Cartesian Hessian Update
 Hessian updated using BFGS update
**WARNING** Hereditary positive definiteness endangered
 due to small product of step size times gradient change
**WARNING** Small scalar product
 Hessian update skipped this cycle


** GEOMETRY OPTIMIZATION IN DELOCALIZED INTERNAL COORDINATES **
   Searching for a Minimum

   Optimization Cycle: 100

                       Coordinates (Angstroms)
     ATOM                X               Y               Z
      1  C         0.6913934641   -0.1203591752   -0.1479566709
      2  C         1.7867803081    0.5794035544    0.0279161115
      3  C         1.9469393802   -0.8273163756   -0.3074948769
      4  H        -0.3705088432   -0.2400983208    0.0028284205
      5  H         2.2593029365    1.5480399800    0.0883440204
      6  H         2.3508052231   -1.6392541403    0.3020422211
   Point Group: c1    Number of degrees of freedom:    12


   Energy is   -115.964631525

 Hessian updated using BFGS update
**WARNING** Hereditary positive definiteness endangered
 due to small product of step size times gradient change
**WARNING** Small scalar product
 Hessian update skipped this cycle

  0 Hessian modes will be used to form the next step
  Hessian Eigenvalues:


 Minimum search - taking simple RFO step
 Searching for Lamda that Minimizes Along All modes
 Value Taken    Lamda =   0.00000000
 Step Taken.  Stepsize is  0.000000

                             Maximum     Tolerance    Cnvgd?
         Gradient           0.003744      0.000300      NO
         Displacement       0.000000      0.001200     YES
         Energy change      0.000000      0.000001     YES


 New Cartesian Coordinates Obtained by Inverse Iteration

 Displacement from previous Coordinates is:  0.000000
 ----------------------------------------------------------------
             Standard Nuclear Orientation (Angstroms)
    I     Atom           X                Y                Z
 ----------------------------------------------------------------
    1      C       0.6913934641    -0.1203591752    -0.1479566709
    2      C       1.7867803081     0.5794035544     0.0279161115
    3      C       1.9469393802    -0.8273163756    -0.3074948769
    4      H      -0.3705088432    -0.2400983208     0.0028284205
    5      H       2.2593029365     1.5480399800     0.0883440204
    6      H       2.3508052231    -1.6392541403     0.3020422211
 ----------------------------------------------------------------
 Nuclear Repulsion Energy =          58.19195346 hartrees
 There are       11 alpha and       10 beta electrons

                       Distance Matrix (Angstroms)
             C (  1)   C (  2)   C (  3)   H (  4)   H (  5)
   C (  2)  1.311667
   C (  3)  1.449702  1.454996
   H (  4)  1.079217  2.307836  2.410745
   H (  5)  2.301681  1.079438  2.428287  3.181299
   H (  6)  2.294164  2.305583  1.092651  3.074527  3.195760
 


 *******************************************
 **  MAXIMUM OPTIMIZATION CYCLES REACHED  **
 *******************************************

 Q-Chem fatal error occurred in module 0, line  450:

 Maximum optimization cycles reached

