
Running Job 1 of 1 /scratch1/scratchdirs/ewcss/with_water/49_18490/pro_84283.in
qchem /scratch1/scratchdirs/ewcss/with_water/49_18490/pro_84283.in_3444.0 /tmp/qchem3444/ 1
srun -n 1 /global/common/edison/software/qchem/5.1beta/exe/qcprog.exe /scratch1/scratchdirs/ewcss/with_water/49_18490/pro_84283.in_3444.0 /tmp/qchem3444/

Process 0 of 1 is on nid04222 - thread support 0
initial socket setup ...start
initial socket setup ...done 
now start server 0 ... 
Check license passed

                  Welcome to Q-Chem
     A Quantum Leap Into The Future Of Chemistry


 Q-Chem 5.1, Q-Chem, Inc., Pleasanton, CA (2018)

 Yihan Shao,  Zhengting Gan,  E. Epifanovsky,  A. T. B. Gilbert,  M. Wormit,  
 J. Kussmann,  A. W. Lange,  A. Behn,  Jia Deng,  Xintian Feng,  D. Ghosh,  
 M. Goldey,  P. R. Horn,  L. D. Jacobson,  I. Kaliman,  T. Kus,  A. Landau,  
 Jie Liu,  E. I. Proynov,  R. M. Richard,  R. P. Steele,  E. J. Sundstrom,  
 H. L. Woodcock III,  P. M. Zimmerman,  D. Zuev,  B. Albrecht,  E. Alguire,  
 S. A. Baeppler,  D. Barton,  Z. Benda,  Y. A. Bernard,  E. J. Berquist,  
 K. B. Bravaya,  H. Burton,  D. Casanova,  Chun-Min Chang,  Yunqing Chen,  
 A. Chien,  K. D. Closser,  M. P. Coons,  S. Coriani,  S. Dasgupta,  
 A. L. Dempwolff,  M. Diedenhofen,  Hainam Do,  R. G. Edgar,  Po-Tung Fang,  
 S. Faraji,  S. Fatehi,  Qingguo Feng,  K. D. Fenk,  J. Fosso-Tande,  
 Qinghui Ge,  A. Ghysels,  G. Gidofalvi,  J. Gomes,  J. Gonthier,  A. Gunina,  
 D. Hait,  M. W. D. Hanson-Heine,  P. H. P. Harbach,  A. W. Hauser,  
 J. E. Herr,  E. G. Hohenstein,  Z. C. Holden,  Kerwin Hui,  B. C. Huynh,  
 T.-C. Jagau,  Hyunjun Ji,  B. Kaduk,  K. Khistyaev,  Jaehoon Kim,  
 P. Klunzinger,  K. Koh,  D. Kosenkov,  L. Koulias,  T. Kowalczyk,  
 C. M. Krauter,  A. Kunitsa,  Ka Un Lao,  A. Laurent,  K. V. Lawler,  
 Joonho Lee,  D. Lefrancois,  S. Lehtola,  D. S. Levine,  Yi-Pei Li,  
 You-Sheng Lin,  Fenglai Liu,  E. Livshits,  A. Luenser,  P. Manohar,  
 E. Mansoor,  S. F. Manzer,  Shan-Ping Mao,  Yuezhi Mao,  N. Mardirossian,  
 A. V. Marenich,  T. Markovich,  L. A. Martinez-Martinez,  S. A. Maurer,  
 N. J. Mayhall,  S. C. McKenzie,  J.-M. Mewes,  A. F. Morrison,  
 J. W. Mullinax,  K. Nanda,  T. S. Nguyen-Beck,  R. Olivares-Amaya,  
 J. A. Parkhill,  T. M. Perrine,  F. Plasser,  P. Pokhilko,  S. Prager,  
 A. Prociuk,  E. Ramos,  D. R. Rehn,  F. Rob,  M. Schneider,  N. Sergueev,  
 S. M. Sharada,  S. Sharma,  D. W. Small,  T. Stauch,  T. Stein,  
 Yu-Chuan Su,  A. J. W. Thom,  A. Tkatchenko,  T. Tsuchimochi,  N. M. Tubman,  
 L. Vogt,  M. L. Vidal,  O. Vydrov,  M. A. Watson,  J. Wenzel,  
 M. de Wergifosse,  T. A. Wesolowski,  A. White,  J. Witte,  A. Yamada,  
 Jun Yang,  K. Yao,  S. Yeganeh,  S. R. Yost,  Zhi-Qiang You,  A. Zech,  
 Igor Ying Zhang,  Xing Zhang,  Yan Zhao,  Ying Zhu,  B. R. Brooks,  
 G. K. L. Chan,  C. J. Cramer,  M. S. Gordon,  W. J. Hehre,  A. Klamt,  
 M. W. Schmidt,  C. D. Sherrill,  D. G. Truhlar,  A. Aspuru-Guzik,  R. Baer,  
 A. T. Bell,  N. A. Besley,  Jeng-Da Chai,  R. A. DiStasio Jr.,  A. Dreuw,  
 B. D. Dunietz,  T. R. Furlani,  Chao-Ping Hsu,  Yousung Jung,  Jing Kong,  
 D. S. Lambrecht,  WanZhen Liang,  C. Ochsenfeld,  V. A. Rassolov,  
 L. V. Slipchenko,  J. E. Subotnik,  T. Van Voorhis,  J. M. Herbert,  
 A. I. Krylov,  P. M. W. Gill,  M. Head-Gordon

 Contributors to earlier versions of Q-Chem not listed above: 
 R. D. Adamson,  B. Austin,  J. Baker,  G. J. O. Beran,  K. Brandhorst,  
 S. T. Brown,  E. F. C. Byrd,  A. K. Chakraborty,  C.-L. Cheng,  
 Siu Hung Chien,  D. M. Chipman,  D. L. Crittenden,  H. Dachsel,  
 R. J. Doerksen,  A. D. Dutoi,  L. Fusti-Molnar,  W. A. Goddard III,  
 A. Golubeva-Zadorozhnaya,  S. R. Gwaltney,  G. Hawkins,  A. Heyden,  
 S. Hirata,  G. Kedziora,  F. J. Keil,  C. Kelley,  Jihan Kim,  R. A. King,  
 R. Z. Khaliullin,  P. P. Korambath,  W. Kurlancheek,  A. M. Lee,  M. S. Lee,  
 S. V. Levchenko,  Ching Yeh Lin,  D. Liotard,  R. C. Lochan,  I. Lotan,  
 P. E. Maslen,  N. Nair,  D. P. O'Neill,  D. Neuhauser,  E. Neuscamman,  
 C. M. Oana,  R. Olson,  B. Peters,  R. Peverati,  P. A. Pieniazek,  
 Y. M. Rhee,  J. Ritchie,  M. A. Rohrdanz,  E. Rosta,  N. J. Russ,  
 H. F. Schaefer III,  N. E. Schultz,  N. Shenvi,  A. C. Simmonett,  A. Sodt,  
 D. Stuck,  K. S. Thanthiriwatte,  V. Vanovschi,  Tao Wang,  A. Warshel,  
 C. F. Williams,  Q. Wu,  X. Xu,  W. Zhang

 Please cite Q-Chem as follows:
 Y. Shao et al., Mol. Phys. 113, 184-215 (2015)
 DOI: 10.1080/00268976.2014.952696

 Q-Chem 5.1.0 for Intel X86 EM64T Linux

 Parts of Q-Chem use Armadillo 8.300.2 (Tropical Shenanigans).
 http://arma.sourceforge.net/

 Q-Chem begins on Wed Jul 18 15:01:11 2018  

Host: edison07
0

     Scratch files written to /tmp/qchem3444//
 Apr1918  _RNUM -1
 Parallel job on  1  processors
Processing $rem in /global/common/edison/software/qchem/5.1beta/config/preferences.
 MEM_TOTAL  2000 
Symmetry turned off for PCM/SM12/SMD calculation

Checking the input file for inconsistencies... 	...done.

--------------------------------------------------------------
User input:
--------------------------------------------------------------
$molecule
0 1
C      0.0415516930      0.7712256316      0.6868700692
C      0.0413043320     -0.7716464053      0.6864292028
C      1.1654514144      1.0638666809     -0.3642503655
C     -1.3259426414      1.1696623200      0.1499475393
C      1.1651221037     -1.0640385729     -0.3648507682
C     -1.3263171103     -1.1693341021      0.1492703311
O      0.9479578270      0.0002001221     -1.2862070597
C      2.4804055128      0.6653534066      0.2884399855
N     -2.0320556810      0.0003479012     -0.0947194067
O     -1.7352971237      2.2874351433     -0.0482862834
C      2.4801954153     -0.6662967635      0.2880753610
O     -1.7360362803     -2.2868616135     -0.0495918074
H      0.2199564813      1.2521014449      1.6498455446
H      0.2195489412     -1.2531272149      1.6491307411
H      1.0977218374      2.0324358223     -0.8562105233
H      1.0971136057     -2.0323193955     -0.8573398946
H      3.1940513154      1.3470519857      0.7328985074
H     -2.9511444167      0.0006167870     -0.5172062183
H      3.1936399211     -1.3484637349      0.7321398845
$end

$rem
job_type = sp
method = wb97x-d
basis = 6-311++g(d,p)
max_scf_cycles = 200
gen_scfman = True
scf_algorithm = diis
solvent_method = pcm
$end

$pcm
theory iefpcm
$end

$solvent
dielectric 80.4
$end
--------------------------------------------------------------
 ----------------------------------------------------------------
             Standard Nuclear Orientation (Angstroms)
    I     Atom           X                Y                Z
 ----------------------------------------------------------------
    1      C       0.0415516930     0.7712256316     0.6868700692
    2      C       0.0413043320    -0.7716464053     0.6864292028
    3      C       1.1654514144     1.0638666809    -0.3642503655
    4      C      -1.3259426414     1.1696623200     0.1499475393
    5      C       1.1651221037    -1.0640385729    -0.3648507682
    6      C      -1.3263171103    -1.1693341021     0.1492703311
    7      O       0.9479578270     0.0002001221    -1.2862070597
    8      C       2.4804055128     0.6653534066     0.2884399855
    9      N      -2.0320556810     0.0003479012    -0.0947194067
   10      O      -1.7352971237     2.2874351433    -0.0482862834
   11      C       2.4801954153    -0.6662967635     0.2880753610
   12      O      -1.7360362803    -2.2868616135    -0.0495918074
   13      H       0.2199564813     1.2521014449     1.6498455446
   14      H       0.2195489412    -1.2531272149     1.6491307411
   15      H       1.0977218374     2.0324358223    -0.8562105233
   16      H       1.0971136057    -2.0323193955    -0.8573398946
   17      H       3.1940513154     1.3470519857     0.7328985074
   18      H      -2.9511444167     0.0006167870    -0.5172062183
   19      H       3.1936399211    -1.3484637349     0.7321398845
 ----------------------------------------------------------------
 Nuclear Repulsion Energy =   721.3234168252 hartrees
 There are       43 alpha and       43 beta electrons
 Requested basis set is 6-311++G(d,p)
 There are 107 shells and 313 basis functions

 Total QAlloc Memory Limit   2000 MB
 Mega-Array Size       188 MB
 MEM_STATIC part       192 MB
 Discretize the solute cavity surface with Lebedev spheres
	Using 302 Lebedev grid points for each H atom
	Using 302 Lebedev grid points for other atoms
	Atomic van der Waals radii will be scaled by 1.20
 Remove points where switching function is < 1.0e-08
 Keep 2264 surface tesserae and discard 3474 interior tesserae
 Molecular Surface Area = 182.118 Angst**2
 A cutoff of  1.0D-08 yielded   4907 shell pairs
 There are     43178 function pairs (     46453 Cartesian)
 
 -------------------------------------------------------
 OpenMP Integral Computing Module                       
 Release: version 1.0, May 2013, Q-Chem Inc. Pittsburgh 
 -------------------------------------------------------
 Integral Job Info:
 Integral job number is                      11
 Integral operator is                         1
 short-range coefficients              22203600
 long-range coefficients              100000000
 Omega coefficients                         200
 if combine SR and LR in K                    1
 Integral screening is                        0
 Integral computing path is                   2
 max size of driver memory is            800000
 size of driver memory is                593474
 size of scratch memory is              2428936
 max col of scratch BK array               1296
 max len of scratch array in speh3          155
 max len of scratch index in speh4           18
 max int batch size is                      520
 min int batch size is                       52
 fixed nKL is                                52
 max L of basis functions is                  2
 order of int derivative is                   0
 number of shells is                        107
 number of basis is                         325
 number of cartesian basis is               325
 number of contracted shell pairs          4907
 number of primitive shell pairs          11928
 maxK2 (contraction) of shell pair           36
 max number of K2 of shell pair               1
 max number of CS2 of shell pair            788
 max number of PS2 of shell pair           2232
 mem total for path MDJ                  591676
 -------------------------------------------------------
 Smallest overlap matrix eigenvalue = 1.95E-06

 Q-Chem warning in module stvman/mkSTV.C, line 295:

 Overlap eigenvalue is smaller than square root of threshold


 Scale SEOQF with 1.000000e-01/1.000000e-01/1.000000e-01

 Standard Electronic Orientation quadrupole field applied
 Nucleus-field energy     =     0.0000000150 hartrees
 Guess from superposition of atomic densities
 Warning:  Energy on first SCF cycle will be non-variational
 SAD guess density has 86.000000 electrons

 -----------------------------------------------------------------------
  General SCF calculation program by
  Eric Jon Sundstrom, Paul Horn, Yuezhi Mao, Dmitri Zuev, Alec White,
  David Stuck, Shaama M.S., Shane Yost, Joonho Lee, David Small,
  Daniel Levine, Susi Lehtola, Hugh Burton, Evgeny Epifanovsky
 -----------------------------------------------------------------------
 Exchange:     0.2220 Hartree-Fock + 1.0000 wB97X-D + LR-HF
 Correlation:  1.0000 wB97X-D
 Using SG-2 standard quadrature grid
 Dispersion:   Grimme D
 using 24 threads for integral computing
 -------------------------------------------------------
 OpenMP Integral computing Module                
 Release: version 1.0, May 2013, Q-Chem Inc. Pittsburgh 
 -------------------------------------------------------
 using 24 threads for integral computing
 -------------------------------------------------------
 OpenMP Integral computing Module                
 Release: version 1.0, May 2013, Q-Chem Inc. Pittsburgh 
 -------------------------------------------------------
 -------------------------------------------------------
 OpenMP BLAS3 based DFT computing Module                
 Release: version 1.0, May 2013, Q-Chem Inc. Pittsburgh 
 -------------------------------------------------------
 A restricted SCF calculation will be
 performed using DIIS
 SCF converges when DIIS error is below 1.0e-05
 ---------------------------------------
  Cycle       Energy         DIIS error
 ---------------------------------------
 Using non-symmetric K matrix
 Warning: not using a symmetric Q
    1    -593.2119039809      3.83e-02  
    2    -589.2430203773      4.71e-03  
    3    -589.0958846275      6.65e-03  
    4    -589.4572560170      6.37e-04  
    5    -589.4607780082      3.01e-04  
    6    -589.4616307245      7.31e-05  
    7    -589.4616854043      2.79e-05  
    8    -589.4616946463      6.61e-06  Convergence criterion met
 ---------------------------------------
 SCF time:   CPU 371.33s  wall 30.00s 
 SCF   energy in the final basis set =     -589.4616946463

************** Final PCM Free Energy Summary **************
 G_electrostatic  =      -0.02563912 hartree =     -16.08879339 kcal/mol
 G_cavitation     =       0.00000000 hartree =       0.00000000 kcal/mol
 G_dispersion     =       0.00000000 hartree =       0.00000000 kcal/mol
 G_repulsion      =       0.00000000 hartree =       0.00000000 kcal/mol
 --------------------------------------------------
 Non-electrostatic Free Energy =       0.00000000 hartree =       0.00000000 kcal/mol
 Total                         =      -0.02563912 hartree =     -16.08879339 kcal/mol
 --------------------------------------------------
 SCF Energy (H0 + V/2)                       =    -589.46169465 
 Solute Internal Energy (H0)                 =    -589.43605552 
 Total Free Energy (H0 + V/2 + non-elec)     =    -589.46169465 hartree
                                             = -369892.79618227 kcal/mol
***********************************************************

 
 --------------------------------------------------------------
 
                    Orbital Energies (a.u.)
 --------------------------------------------------------------
 
 Alpha MOs
 -- Occupied --
-19.272 -19.254 -19.254 -14.491 -10.424 -10.424 -10.360 -10.360
-10.319 -10.318 -10.297 -10.296  -1.198  -1.184  -1.175  -1.067
 -0.935  -0.893  -0.869  -0.776  -0.735  -0.709  -0.673  -0.662
 -0.642  -0.617  -0.590  -0.568  -0.552  -0.536  -0.533  -0.520
 -0.502  -0.494  -0.482  -0.458  -0.454  -0.436  -0.393  -0.386
 -0.375  -0.361  -0.347
 -- Virtual --
  0.030   0.044   0.055   0.058   0.060   0.060   0.073   0.078
  0.082   0.085   0.106   0.111   0.112   0.122   0.144   0.148
  0.155   0.157   0.158   0.161   0.169   0.171   0.174   0.177
  0.185   0.186   0.188   0.192   0.203   0.207   0.209   0.214
  0.223   0.226   0.230   0.242   0.249   0.251   0.260   0.264
  0.276   0.278   0.279   0.284   0.291   0.300   0.309   0.321
  0.327   0.332   0.334   0.338   0.345   0.350   0.355   0.357
  0.371   0.376   0.380   0.383   0.390   0.391   0.396   0.410
  0.411   0.414   0.426   0.429   0.435   0.452   0.459   0.471
  0.476   0.491   0.520   0.521   0.526   0.534   0.575   0.597
  0.602   0.628   0.635   0.668   0.675   0.677   0.682   0.684
  0.713   0.723   0.729   0.733   0.755   0.766   0.767   0.778
  0.791   0.795   0.817   0.824   0.831   0.833   0.859   0.866
  0.885   0.906   0.912   0.918   0.938   0.949   0.952   0.981
  0.993   1.017   1.032   1.081   1.094   1.120   1.153   1.162
  1.198   1.218   1.223   1.239   1.266   1.268   1.289   1.298
  1.313   1.333   1.333   1.347   1.349   1.382   1.386   1.407
  1.418   1.447   1.532   1.536   1.584   1.599   1.607   1.642
  1.650   1.659   1.677   1.690   1.695   1.703   1.725   1.753
  1.768   1.772   1.809   1.829   1.841   1.847   1.859   1.862
  1.883   1.884   1.935   1.953   1.959   1.968   1.981   2.006
  2.009   2.014   2.070   2.093   2.094   2.135   2.185   2.190
  2.212   2.230   2.244   2.283   2.296   2.347   2.362   2.374
  2.387   2.424   2.445   2.467   2.530   2.568   2.587   2.609
  2.676   2.677   2.702   2.779   2.795   2.799   2.816   2.853
  2.866   2.881   2.902   2.912   2.930   2.962   2.966   2.979
  2.990   2.995   2.997   3.023   3.057   3.063   3.068   3.137
  3.177   3.181   3.240   3.254   3.276   3.362   3.372   3.416
  3.417   3.444   3.451   3.484   3.490   3.499   3.609   3.659
  3.663   3.685   3.909   3.972   3.984   4.036   4.091   4.147
  4.157   4.221   4.242   4.251   4.349   4.425   4.468   4.909
  5.082   5.164   5.182   5.285   5.331   5.331   5.595   5.705
  5.834   5.920  23.861  23.956  23.986  23.988  24.027  24.058
 24.131  24.446  35.727  50.081  50.133  50.198
 --------------------------------------------------------------
 
          Ground-State Mulliken Net Atomic Charges

     Atom                 Charge (a.u.)
  ----------------------------------------
      1 C                    -0.154204
      2 C                    -0.154151
      3 C                     0.060283
      4 C                    -0.020104
      5 C                     0.060229
      6 C                    -0.020132
      7 O                    -0.176235
      8 C                    -0.458574
      9 N                    -0.255738
     10 O                    -0.381719
     11 C                    -0.458497
     12 O                    -0.381719
     13 H                     0.343770
     14 H                     0.343766
     15 H                     0.372820
     16 H                     0.372819
     17 H                     0.242354
     18 H                     0.422673
     19 H                     0.242360
  ----------------------------------------
  Sum of atomic charges =     0.000000

 -----------------------------------------------------------------
                    Cartesian Multipole Moments
 -----------------------------------------------------------------
    Charge (ESU x 10^10)
                 0.0000
    Dipole Moment (Debye)
         X       3.1642      Y      -0.0014      Z       3.3355
       Tot       4.5976
    Quadrupole Moments (Debye-Ang)
        XX     -63.8237     XY      -0.0043     YY     -81.4798
        XZ       4.7718     YZ      -0.0046     ZZ     -68.0944
    Octopole Moments (Debye-Ang^2)
       XXX     -11.1706    XXY       0.0165    XYY      49.3440
       YYY      -0.0229    XXZ       4.5293    XYZ       0.0159
       YYZ       0.2723    XZZ      -8.8937    YZZ      -0.0000
       ZZZ       6.9994
    Hexadecapole Moments (Debye-Ang^3)
      XXXX   -1025.2561   XXXY      -0.0244   XXYY    -354.6936
      XYYY       0.0376   YYYY    -831.6631   XXXZ      57.2185
      XXYZ      -0.0475   XYYZ      -2.6445   YYYZ      -0.1178
      XXZZ    -222.6383   XYZZ       0.0100   YYZZ    -138.3112
      XZZZ       6.2788   YZZZ      -0.0615   ZZZZ    -203.9319
 -----------------------------------------------------------------
Archival summary:
1\1\nid04222\SP\ProcedureUnspecified\BasisUnspecified\3187\ewcss\WedJul1815:01:412018WedJul1815:01:412018\0\\#,ProcedureUnspecified,BasisUnspecified,\\0,1\O\C,1,1.42431\H,2,1.08846,1,111.253\C,1,1.42432,2,96.6609,3,-177.349,0\H,4,1.08846,1,111.252,2,177.35,0\C,4,1.52116,1,102.362,2,49.5126,0\H,6,1.08238,4,125.531,1,153.66,0\C,6,1.33165,4,105.173,1,-31.5946,0\H,8,1.08238,6,129.052,4,-174.495,0\C,4,1.56641,1,100.677,2,-60.153,0\H,10,1.09105,4,113.117,1,160.641,0\C,10,1.5222,4,111.038,1,-75.0546,0\O,12,1.20677,10,127.238,4,-69.7552,0\N,12,1.38772,10,107.383,4,109.474,0\H,14,1.01154,12,122.394,10,-175.744,0\C,14,1.38772,12,114.864,10,-2.37535,0\O,16,1.20677,14,125.374,12,-176.873,0\C,16,1.5222,14,107.383,12,2.37557,0\H,18,1.09105,16,110.051,14,124.499,0\\\@

 Total job time:  30.46s(wall), 385.25s(cpu) 
 Wed Jul 18 15:01:41 2018

        *************************************************************
        *                                                           *
        *  Thank you very much for using Q-Chem.  Have a nice day.  *
        *                                                           *
        *************************************************************


0 sent ACK to 0 
now end server 0 ... 
cleanup process ... done
