
Running Job 1 of 3 VCLi_solv_eps10.in
qchem VCLi_solv_eps10.in_56908.0 /scr/jself/57033/qchem56908/ 1
/usr/software/qchem_500/exe/qcprog.exe_s VCLi_solv_eps10.in_56908.0 /scr/jself/57033/qchem56908/
Check license passed

                  Welcome to Q-Chem
     A Quantum Leap Into The Future Of Chemistry


 Q-Chem 5.0, Q-Chem, Inc., Pleasanton, CA (2017)

 Yihan Shao,  Zhengting Gan,  E. Epifanovsky,  A. T. B. Gilbert,  M. Wormit,  
 J. Kussmann,  A. W. Lange,  A. Behn,  Jia Deng,  Xintian Feng,  D. Ghosh,  
 M. Goldey,  P. R. Horn,  L. D. Jacobson,  I. Kaliman,  T. Kus,  A. Landau,  
 Jie Liu,  E. I. Proynov,  R. M. Richard,  R. P. Steele,  E. J. Sundstrom,  
 H. L. Woodcock III,  P. M. Zimmerman,  D. Zuev,  B. Albrecht,  E. Alguire,  
 S. A. Baeppler,  Z. Benda,  Y. A. Bernard,  E. J. Berquist,  K. B. Bravaya,  
 D. Casanova,  Chun-Min Chang,  Yunqing Chen,  A. Chien,  K. D. Closser,  
 M. P. Coons,  S. Dasgupta,  M. Diedenhofen,  Hainam Do,  R. G. Edgar,  
 Po-Tung Fang,  S. Fatehi,  Qingguo Feng,  Qinghui Ge,  A. Ghysels,  
 J. Gomes,  J. Gonthier,  A. Gunina,  M. W. D. Hanson-Heine,  
 P. H. P. Harbach,  A. W. Hauser,  J. E. Herr,  E. G. Hohenstein,  
 Z. C. Holden,  Kerwin Hui,  T.-C. Jagau,  Hyunjun Ji,  B. Kaduk,  
 K. Khistyaev,  Jaehoon Kim,  P. Klunzinger,  K. Koh,  D. Kosenkov,  
 T. Kowalczyk,  C. M. Krauter,  A. Kunitsa,  Ka Un Lao,  A. Laurent,  
 K. V. Lawler,  Joonho Lee,  D. Lefrancois,  S. Lehtola,  D. S. Levine,  
 Yi-Pei Li,  You-Sheng Lin,  Fenglai Liu,  E. Livshits,  A. Luenser,  
 P. Manohar,  E. Mansoor,  S. F. Manzer,  Shan-Ping Mao,  Yuezhi Mao,  
 N. Mardirossian,  A. V. Marenich,  L. A. Martinez-Martinez,  S. A. Maurer,  
 N. J. Mayhall,  S. C. McKenzie,  J.-M. Mewes,  A. F. Morrison,  K. Nanda,  
 T. S. Nguyen-Beck,  R. Olivares-Amaya,  J. A. Parkhill,  T. M. Perrine,  
 F. Plasser,  S. Prager,  A. Prociuk,  D. R. Rehn,  F. Rob,  M. Schneider,  
 N. Sergueev,  S. M. Sharada,  S. Sharma,  D. W. Small,  T. Stauch,  
 T. Stein,  Yu-Chuan Su,  A. J. W. Thom,  T. Tsuchimochi,  L. Vogt,  
 O. Vydrov,  M. A. Watson,  J. Wenzel,  M. de Wergifosse,  T. A. Wesolowski,  
 A. White,  J. Witte,  A. Yamada,  Jun Yang,  K. Yao,  S. Yeganeh,  
 S. R. Yost,  Zhi-Qiang You,  A. Zech,  Igor Ying Zhang,  Xing Zhang,  
 Yan Zhao,  Ying Zhu,  B. R. Brooks,  G. K. L. Chan,  C. J. Cramer,  
 M. S. Gordon,  W. J. Hehre,  A. Klamt,  M. W. Schmidt,  C. D. Sherrill,  
 D. G. Truhlar,  A. Aspuru-Guzik,  R. Baer,  A. T. Bell,  N. A. Besley,  
 Jeng-Da Chai,  A. Dreuw,  B. D. Dunietz,  T. R. Furlani,  Chao-Ping Hsu,  
 Yousung Jung,  Jing Kong,  D. S. Lambrecht,  WanZhen Liang,  C. Ochsenfeld,  
 V. A. Rassolov,  L. V. Slipchenko,  J. E. Subotnik,  T. Van Voorhis,  
 J. M. Herbert,  A. I. Krylov,  P. M. W. Gill,  M. Head-Gordon

 Contributors to earlier versions of Q-Chem not listed above: 
 R. D. Adamson,  B. Austin,  J. Baker,  G. J. O. Beran,  K. Brandhorst,  
 S. T. Brown,  E. F. C. Byrd,  A. K. Chakraborty,  C.-L. Cheng,  
 Siu Hung Chien,  D. M. Chipman,  D. L. Crittenden,  H. Dachsel,  
 R. A. DiStasio Jr.,  R. J. Doerksen,  A. D. Dutoi,  L. Fusti-Molnar,  
 W. A. Goddard III,  A. Golubeva-Zadorozhnaya,  S. R. Gwaltney,  G. Hawkins,  
 A. Heyden,  S. Hirata,  G. Kedziora,  F. J. Keil,  C. Kelley,  Jihan Kim,  
 R. A. King,  R. Z. Khaliullin,  P. P. Korambath,  W. Kurlancheek,  
 A. M. Lee,  M. S. Lee,  S. V. Levchenko,  Ching Yeh Lin,  D. Liotard,  
 R. C. Lochan,  I. Lotan,  P. E. Maslen,  N. Nair,  D. P. O'Neill,  
 D. Neuhauser,  E. Neuscamman,  C. M. Oana,  R. Olson,  B. Peters,  
 R. Peverati,  P. A. Pieniazek,  Y. M. Rhee,  J. Ritchie,  M. A. Rohrdanz,  
 E. Rosta,  N. J. Russ,  H. F. Schaefer III,  N. E. Schultz,  N. Shenvi,  
 A. C. Simmonett,  A. Sodt,  D. Stuck,  K. S. Thanthiriwatte,  V. Vanovschi,  
 Tao Wang,  A. Warshel,  C. F. Williams,  Q. Wu,  X. Xu,  W. Zhang

 Please cite Q-Chem as follows:
 Y. Shao et al., Mol. Phys. 113, 184-215 (2015)
 DOI: 10.1080/00268976.2014.952696

 Q-Chem 5.0.0 for Intel X86 Linux

 Parts of Q-Chem use Armadillo 5.200.1 (Boston Tea Smuggler).
 http://arma.sourceforge.net/

 Q-Chem begins on Mon Feb  5 13:49:40 2018  

Host: compute-0-23.local
0

     Scratch files written to /scr/jself/57033/qchem56908//
 Jun417 914_ 24695  24676 -1
Processing $rem in /usr/software/qchem_500/config/preferences.
 MEM_TOTAL  4000 

Checking the input file for inconsistencies... 	...done.
[HyperChem begin]
[HyperChem end]
[HyperChem begin]
[HyperChem end]
[HyperChem begin]
[HyperChem end]
[HyperChem begin]
[HyperChem end]
[HyperChem begin]
[HyperChem end]
[HyperChem begin]
[HyperChem end]
[HyperChem begin]
[HyperChem end]
[HyperChem begin]
[HyperChem end]

--------------------------------------------------------------
User input:
--------------------------------------------------------------
$molecule
0 2
O    0.8010000    0.1690000   -0.0030000
C    1.0790000   -1.1530000   -0.0060000
C   -0.5330000    0.2830000    0.0020000
O    2.2120000   -1.6520000   -0.0110000
O   -0.0850000   -1.8400000   -0.0040000
C   -1.0690000   -0.9320000    0.0010000
Li    4.0510000   -2.4620000   -0.0180000
H   -0.9340000    1.2920000    0.0050000
H   -2.0840000   -1.3170000    0.0040000
$end

$rem
BASIS  =  6-311++G**
SYM_IGNORE = true
GUI  =  1
METHOD  =  wb97xd
JOB_TYPE  =  Optimization
gen_scfman = True
$end

--------------------------------------------------------------
 ----------------------------------------------------------------
             Standard Nuclear Orientation (Angstroms)
    I     Atom           X                Y                Z
 ----------------------------------------------------------------
    1      O       0.8010000000     0.1690000000    -0.0030000000
    2      C       1.0790000000    -1.1530000000    -0.0060000000
    3      C      -0.5330000000     0.2830000000     0.0020000000
    4      O       2.2120000000    -1.6520000000    -0.0110000000
    5      O      -0.0850000000    -1.8400000000    -0.0040000000
    6      C      -1.0690000000    -0.9320000000     0.0010000000
    7      Li      4.0510000000    -2.4620000000    -0.0180000000
    8      H      -0.9340000000     1.2920000000     0.0050000000
    9      H      -2.0840000000    -1.3170000000     0.0040000000
 ----------------------------------------------------------------
 Nuclear Repulsion Energy =   250.3623131857 hartrees
 There are       24 alpha and       23 beta electrons
[HyperChem begin]
[HyperChem end]
[HyperChem begin]
;Nuclear Cartesian coordinates in Angstroms
[coordinates]
      0.801000000000      0.169000000000     -0.003000000000
      1.079000000000     -1.153000000000     -0.006000000000
     -0.533000000000      0.283000000000      0.002000000000
      2.212000000000     -1.652000000000     -0.011000000000
     -0.085000000000     -1.840000000000     -0.004000000000
     -1.069000000000     -0.932000000000      0.001000000000
      4.051000000000     -2.462000000000     -0.018000000000
     -0.934000000000      1.292000000000      0.005000000000
     -2.084000000000     -1.317000000000      0.004000000000
[HyperChem end]
[HyperChem begin]
[HyperChem end]
 Requested basis set is 6-311++G(d,p)
[HyperChem begin]
[basis]
;
1:
;
Shells = 6
Shell1 =[ S   6   1.00 ]
   1    8.588500E+03    1.895150E-03
   2    1.297230E+03    1.438590E-02
   3    2.992960E+02    7.073200E-02
   4    8.737710E+01    2.400010E-01
   5    2.567890E+01    5.947970E-01
   6    3.740040E+00    2.808020E-01
Shell2 =[ SP  3   1.00 ]
   1    4.211750E+01    1.138890E-01    3.651140E-02
   2    9.628370E+00    9.208110E-01    2.371530E-01
   3    2.853320E+00   -3.274470E-03    8.197020E-01
Shell3 =[ SP  1   1.00 ]
   1    9.056610E-01    1.000000E+00    1.000000E+00
Shell4 =[ SP  1   1.00 ]
   1    2.556110E-01    1.000000E+00    1.000000E+00
Shell5 =[ SP  1   1.00 ]
   1    8.450000E-02    1.000000E+00    1.000000E+00
Shell6 =[ D   1   1.00 ]
   1    1.292000E+00    1.000000E+00
;
2:
;
Shells = 6
Shell1 =[ S   6   1.00 ]
   1    4.563240E+03    1.966650E-03
   2    6.820240E+02    1.523060E-02
   3    1.549730E+02    7.612690E-02
   4    4.445530E+01    2.608010E-01
   5    1.302900E+01    6.164620E-01
   6    1.827730E+00    2.210060E-01
Shell2 =[ SP  3   1.00 ]
   1    2.096420E+01    1.146600E-01    4.024870E-02
   2    4.803310E+00    9.199990E-01    2.375940E-01
   3    1.459330E+00   -3.030680E-03    8.158540E-01
Shell3 =[ SP  1   1.00 ]
   1    4.834560E-01    1.000000E+00    1.000000E+00
Shell4 =[ SP  1   1.00 ]
   1    1.455850E-01    1.000000E+00    1.000000E+00
Shell5 =[ SP  1   1.00 ]
   1    4.380000E-02    1.000000E+00    1.000000E+00
Shell6 =[ D   1   1.00 ]
   1    6.260000E-01    1.000000E+00
;
3:
;
Shells = 6
Shell1 =[ S   6   1.00 ]
   1    4.563240E+03    1.966650E-03
   2    6.820240E+02    1.523060E-02
   3    1.549730E+02    7.612690E-02
   4    4.445530E+01    2.608010E-01
   5    1.302900E+01    6.164620E-01
   6    1.827730E+00    2.210060E-01
Shell2 =[ SP  3   1.00 ]
   1    2.096420E+01    1.146600E-01    4.024870E-02
   2    4.803310E+00    9.199990E-01    2.375940E-01
   3    1.459330E+00   -3.030680E-03    8.158540E-01
Shell3 =[ SP  1   1.00 ]
   1    4.834560E-01    1.000000E+00    1.000000E+00
Shell4 =[ SP  1   1.00 ]
   1    1.455850E-01    1.000000E+00    1.000000E+00
Shell5 =[ SP  1   1.00 ]
   1    4.380000E-02    1.000000E+00    1.000000E+00
Shell6 =[ D   1   1.00 ]
   1    6.260000E-01    1.000000E+00
;
4:
;
Shells = 6
Shell1 =[ S   6   1.00 ]
   1    8.588500E+03    1.895150E-03
   2    1.297230E+03    1.438590E-02
   3    2.992960E+02    7.073200E-02
   4    8.737710E+01    2.400010E-01
   5    2.567890E+01    5.947970E-01
   6    3.740040E+00    2.808020E-01
Shell2 =[ SP  3   1.00 ]
   1    4.211750E+01    1.138890E-01    3.651140E-02
   2    9.628370E+00    9.208110E-01    2.371530E-01
   3    2.853320E+00   -3.274470E-03    8.197020E-01
Shell3 =[ SP  1   1.00 ]
   1    9.056610E-01    1.000000E+00    1.000000E+00
Shell4 =[ SP  1   1.00 ]
   1    2.556110E-01    1.000000E+00    1.000000E+00
Shell5 =[ SP  1   1.00 ]
   1    8.450000E-02    1.000000E+00    1.000000E+00
Shell6 =[ D   1   1.00 ]
   1    1.292000E+00    1.000000E+00
;
5:
;
Shells = 6
Shell1 =[ S   6   1.00 ]
   1    8.588500E+03    1.895150E-03
   2    1.297230E+03    1.438590E-02
   3    2.992960E+02    7.073200E-02
   4    8.737710E+01    2.400010E-01
   5    2.567890E+01    5.947970E-01
   6    3.740040E+00    2.808020E-01
Shell2 =[ SP  3   1.00 ]
   1    4.211750E+01    1.138890E-01    3.651140E-02
   2    9.628370E+00    9.208110E-01    2.371530E-01
   3    2.853320E+00   -3.274470E-03    8.197020E-01
Shell3 =[ SP  1   1.00 ]
   1    9.056610E-01    1.000000E+00    1.000000E+00
Shell4 =[ SP  1   1.00 ]
   1    2.556110E-01    1.000000E+00    1.000000E+00
Shell5 =[ SP  1   1.00 ]
   1    8.450000E-02    1.000000E+00    1.000000E+00
Shell6 =[ D   1   1.00 ]
   1    1.292000E+00    1.000000E+00
;
6:
;
Shells = 6
Shell1 =[ S   6   1.00 ]
   1    4.563240E+03    1.966650E-03
   2    6.820240E+02    1.523060E-02
   3    1.549730E+02    7.612690E-02
   4    4.445530E+01    2.608010E-01
   5    1.302900E+01    6.164620E-01
   6    1.827730E+00    2.210060E-01
Shell2 =[ SP  3   1.00 ]
   1    2.096420E+01    1.146600E-01    4.024870E-02
   2    4.803310E+00    9.199990E-01    2.375940E-01
   3    1.459330E+00   -3.030680E-03    8.158540E-01
Shell3 =[ SP  1   1.00 ]
   1    4.834560E-01    1.000000E+00    1.000000E+00
Shell4 =[ SP  1   1.00 ]
   1    1.455850E-01    1.000000E+00    1.000000E+00
Shell5 =[ SP  1   1.00 ]
   1    4.380000E-02    1.000000E+00    1.000000E+00
Shell6 =[ D   1   1.00 ]
   1    6.260000E-01    1.000000E+00
;
7:
;
Shells = 6
Shell1 =[ S   6   1.00 ]
   1    9.004600E+02    2.287040E-03
   2    1.344330E+02    1.763500E-02
   3    3.043650E+01    8.734340E-02
   4    8.626390E+00    2.809770E-01
   5    2.483320E+00    6.587410E-01
   6    3.031790E-01    1.187120E-01
Shell2 =[ SP  3   1.00 ]
   1    4.868900E+00    9.332930E-02    3.276610E-02
   2    8.569240E-01    9.430450E-01    1.597920E-01
   3    2.432270E-01   -2.798270E-03    8.856670E-01
Shell3 =[ SP  1   1.00 ]
   1    6.350700E-02    1.000000E+00    1.000000E+00
Shell4 =[ SP  1   1.00 ]
   1    2.436830E-02    1.000000E+00    1.000000E+00
Shell5 =[ SP  1   1.00 ]
   1    7.400000E-03    1.000000E+00    1.000000E+00
Shell6 =[ D   1   1.00 ]
   1    2.000000E-01    1.000000E+00
;
8:
;
Shells = 5
Shell1 =[ S   3   1.00 ]
   1    3.386500E+01    2.549380E-02
   2    5.094790E+00    1.903730E-01
   3    1.158790E+00    8.521610E-01
Shell2 =[ S   1   1.00 ]
   1    3.258400E-01    1.000000E+00
Shell3 =[ S   1   1.00 ]
   1    1.027410E-01    1.000000E+00
Shell4 =[ S   1   1.00 ]
   1    3.600000E-02    1.000000E+00
Shell5 =[ P   1   1.00 ]
   1    7.500000E-01    1.000000E+00
;
9:
;
Shells = 5
Shell1 =[ S   3   1.00 ]
   1    3.386500E+01    2.549380E-02
   2    5.094790E+00    1.903730E-01
   3    1.158790E+00    8.521610E-01
Shell2 =[ S   1   1.00 ]
   1    3.258400E-01    1.000000E+00
Shell3 =[ S   1   1.00 ]
   1    1.027410E-01    1.000000E+00
Shell4 =[ S   1   1.00 ]
   1    3.600000E-02    1.000000E+00
Shell5 =[ P   1   1.00 ]
   1    7.500000E-01    1.000000E+00
[HyperChem end]
 There are 52 shells and 168 basis functions

 Total QAlloc Memory Limit   4000 MB
 Mega-Array Size        61 MB
 MEM_STATIC part        62 MB
 A cutoff of  1.0D-11 yielded   1317 shell pairs
 There are     14119 function pairs (     15338 Cartesian)
 
 -------------------------------------------------------
 OpenMP Integral Computing Module                       
 Release: version 1.0, May 2013, Q-Chem Inc. Pittsburgh 
 -------------------------------------------------------
 Integral Job Info:
 Integral job number is                      11
 Integral operator is                         1
 short-range coefficients              22203600
 long-range coefficients              100000000
 Omega coefficients                         200
 if combine SR and LR in K                    1
 Integral screening is                        0
 Integral computing path is                   2
 max size of driver memory is            800000
 size of driver memory is                593474
 size of scratch memory is              2260544
 max col of scratch BK array               1296
 max len of scratch array in speh3          155
 max len of scratch index in speh4           18
 max int batch size is                      520
 min int batch size is                       52
 fixed nKL is                                52
 max L of basis functions is                  2
 order of int derivative is                   0
 number of shells is                         52
 number of basis is                         175
 number of cartesian basis is               175
 number of contracted shell pairs          1317
 number of primitive shell pairs           3878
 maxK2 (contraction) of shell pair           36
 max number of K2 of shell pair               1
 max number of CS2 of shell pair            240
 max number of PS2 of shell pair            870
 mem total for path MDJ                   38838
 -------------------------------------------------------
 Smallest overlap matrix eigenvalue = 2.97E-05

 Scale SEOQF with 1.000000e-02/1.000000e-02/1.000000e-02

 Standard Electronic Orientation quadrupole field applied
 Nucleus-field energy     =     0.0000000010 hartrees
 Guess from superposition of atomic densities
 Warning:  Energy on first SCF cycle will be non-variational

 ==================================================
    GEN_SCFMAN: A general SCF calculation manager  
                                                   
    Authors:                                       
        -- Eric Jon Sundstrom 2008-2014            
        -- Paul Horn 2010-2015                     
        -- Yuezhi Mao 2012-                        
        -- Dmitri Zuev 2014                        
        -- Alec White 2015-                        
        -- David Stuck 2015                        
        -- Shaama M.S. 2015                        
        -- Shane Yost 2015-                         
        -- Joonho Lee 2016-                        
        -- David Small 2016-                       
        -- Daniel Levine 2016-                     
 ==================================================
 Exchange:     0.2220 Hartree-Fock + 1.0000 wB97X-D + LR-HF
 Correlation:  1.0000 wB97X-D
 Using SG-2 standard quadrature grid
 Dispersion:   Grimme D
 A unrestricted SCF calculation will be
 performed using DIIS
 ---------------------------------------
  Cycle       Energy         DIIS error
 ---------------------------------------
 -------------------------------------------------------
 OpenMP Integral computing Module                
 Release: version 1.0, May 2013, Q-Chem Inc. Pittsburgh 
 -------------------------------------------------------
 -------------------------------------------------------
 OpenMP Integral computing Module                
 Release: version 1.0, May 2013, Q-Chem Inc. Pittsburgh 
 -------------------------------------------------------
    1    -350.2837025005      2.57e-02  
    2    -348.4880601969      3.73e-03  
    3    -348.3739446668      5.33e-03  
    4    -348.6423395061      5.68e-04  
    5    -348.6451751301      2.85e-04  
    6    -348.6461655569      4.87e-05  
    7    -348.6463172828      2.38e-05  
    8    -348.6463675799      1.24e-05  
    9    -348.6463907884      3.70e-06  
   10    -348.6463934626      2.06e-06  
   11    -348.6463939344      1.49e-06  
   12    -348.6463942576      7.82e-07  
   13    -348.6463944069      6.07e-07  
   14    -348.6463944436      2.51e-07  
   15    -348.6463944495      9.69e-08  
   16    -348.6463944502      4.69e-08  
   17    -348.6463944504      2.16e-08  
   18    -348.6463944505      1.32e-08  
   19    -348.6463944506      7.11e-09  Convergence criterion met
 ---------------------------------------
 SCF time:   CPU 308.25s  wall 30.00s 
<S^2> =          0.750185263
Wall 1 = 30
Clock 1 = 308.260009766
 ==================================================
                  Done GEN_SCFMAN                  
 ==================================================

 
 --------------------------------------------------------------
 
                    Orbital Energies (a.u.)
 --------------------------------------------------------------
 
 Alpha MOs
 -- Occupied --
-19.395 -19.395 -19.302 -10.540 -10.409 -10.408  -2.078  -1.371
 -1.252  -1.200  -0.941  -0.833  -0.804  -0.702  -0.679  -0.631
 -0.619  -0.564  -0.556  -0.550  -0.513  -0.455  -0.379  -0.141
 -- Virtual --
  0.009   0.017   0.017   0.026   0.030   0.031   0.035   0.042
  0.057   0.058   0.060   0.087   0.088   0.104   0.109   0.131
  0.134   0.138   0.148   0.150   0.159   0.169   0.169   0.172
  0.188   0.190   0.198   0.218   0.247   0.259   0.292   0.301
  0.303   0.307   0.309   0.343   0.348   0.358   0.360   0.367
  0.386   0.412   0.416   0.450   0.461   0.504   0.505   0.543
  0.555   0.560   0.565   0.570   0.584   0.603   0.607   0.622
  0.665   0.712   0.721   0.736   0.767   0.812   0.824   0.845
  0.879   0.899   0.934   0.966   1.037   1.042   1.076   1.087
  1.169   1.175   1.196   1.206   1.223   1.233   1.294   1.308
  1.329   1.378   1.452   1.489   1.524   1.641   1.704   1.746
  1.754   1.762   1.776   1.785   1.810   1.884   1.906   1.973
  2.091   2.149   2.168   2.435   2.552   2.571   2.685   2.738
  2.742   2.764   2.816   2.846   2.894   2.968   3.043   3.109
  3.145   3.147   3.157   3.208   3.270   3.376   3.417   3.436
  3.561   3.616   3.654   3.896   4.003   4.008   4.094   4.224
  4.226   4.994   4.998   5.096   5.199   5.327   5.524   5.568
  5.936   6.017  23.787  23.829  24.345  49.894  50.001  50.094
 
 Beta MOs
 -- Occupied --
-19.395 -19.395 -19.302 -10.540 -10.409 -10.408  -2.075  -1.371
 -1.252  -1.200  -0.941  -0.833  -0.804  -0.702  -0.679  -0.631
 -0.618  -0.564  -0.556  -0.550  -0.513  -0.455  -0.379
 -- Virtual --
  0.013   0.028   0.031   0.034   0.039   0.041   0.051   0.063
  0.072   0.091   0.100   0.112   0.132   0.134   0.137   0.140
  0.148   0.162   0.186   0.188   0.202   0.212   0.213   0.242
  0.249   0.259   0.261   0.274   0.279   0.280   0.293   0.305
  0.311   0.318   0.330   0.358   0.371   0.383   0.384   0.417
  0.418   0.440   0.442   0.455   0.485   0.504   0.541   0.557
  0.572   0.594   0.607   0.619   0.640   0.670   0.673   0.717
  0.721   0.737   0.770   0.778   0.799   0.812   0.847   0.849
  0.875   0.942   0.966   0.967   0.985   1.051   1.077   1.088
  1.091   1.170   1.185   1.201   1.209   1.224   1.238   1.295
  1.321   1.330   1.387   1.452   1.509   1.546   1.648   1.705
  1.747   1.755   1.766   1.776   1.785   1.816   1.885   1.907
  1.975   2.092   2.149   2.168   2.435   2.553   2.571   2.686
  2.738   2.742   2.764   2.816   2.846   2.894   2.968   3.043
  3.109   3.145   3.147   3.158   3.208   3.270   3.377   3.417
  3.437   3.563   3.618   3.655   3.906   4.004   4.008   4.094
  4.225   4.228   4.994   4.998   5.097   5.200   5.327   5.524
  5.568   5.937   6.017  23.787  23.829  24.345  49.894  50.001
 50.095
 --------------------------------------------------------------
 
          Ground-State Mulliken Net Atomic Charges

     Atom                 Charge (a.u.)    Spin (a.u.)
  --------------------------------------------------------
      1 O                    -0.011100      -0.008284
      2 C                     0.233409      -0.010454
      3 C                    -0.126777       0.003917
      4 O                    -0.313356      -0.061921
      5 O                    -0.011580      -0.008205
      6 C                    -0.127119       0.004140
      7 Li                   -0.134546       1.079105
      8 H                     0.245415       0.000848
      9 H                     0.245654       0.000854
  --------------------------------------------------------
  Sum of atomic charges =     0.000000
  Sum of spin   charges =     1.000000

 -----------------------------------------------------------------
                    Cartesian Multipole Moments
 -----------------------------------------------------------------
    Charge (ESU x 10^10)
                 0.0000
    Dipole Moment (Debye)
         X      -9.8906      Y       4.3538      Z       0.0405
       Tot      10.8065
    Quadrupole Moments (Debye-Ang)
        XX     -83.0686     XY      24.7391     YY     -55.9167
        XZ       0.1753     YZ      -0.1045     ZZ     -43.4778
    Octopole Moments (Debye-Ang^2)
       XXX    -415.3851    XXY     178.7430    XYY    -138.1642
       YYY     216.1436    XXZ       1.3184    XYZ      -0.5477
       YYZ       0.6659    XZZ     -58.6363    YZZ      55.2805
       ZZZ       0.9405
    Hexadecapole Moments (Debye-Ang^3)
      XXXX   -2871.6501   XXXY    1123.2734   XXYY    -798.4206
      XYYY     676.8614   YYYY    -985.4405   XXXZ       8.4188
      XXYZ      -3.5808   XYYZ       2.7798   YYYZ      -3.2134
      XXZZ    -310.6488   XYZZ     152.4248   YYZZ    -159.2916
      XZZZ       3.5707   YZZZ      -2.2431   ZZZZ    -104.9368
 -----------------------------------------------------------------
[HyperChem begin]
;Total dipole moment in Debye
[dipole-moment]
     10.806535993988
;Dipole moment components in Debye
[dipole-moment-components]
     -9.890596906695      4.353811446598      0.040483405061
[HyperChem end]
[HyperChem begin]
[HyperChem end]
[HyperChem begin]
[HyperChem end]
[HyperChem begin]
[HyperChem end]
 Calculating analytic gradient of the SCF energy
 Gradient of SCF Energy
            1           2           3           4           5           6
    1  -0.0316912  -0.0531350   0.0330321   0.0574359  -0.0363337   0.0333422
    2   0.0197962   0.0235552  -0.0154259  -0.0251720   0.0099657  -0.0141469
    3   0.0000477   0.0004076  -0.0000555  -0.0003003   0.0000872  -0.0002003
            7           8           9
    1   0.0030245   0.0001781  -0.0058529
    2  -0.0013305   0.0081909  -0.0054328
    3  -0.0000107  -0.0000031   0.0000273
 Max gradient component =       5.744E-02
 RMS gradient           =       2.187E-02
[HyperChem begin]
[HyperChem end]
 Gradient time:  CPU 54.92 s  wall 6.70 s
 Geometry Optimization Parameters
   NAtoms,    NIC,     NZ,  NCons,   NDum,   NFix, NCnnct, MaxDiis
        9      53       0       0       0       0       0       0


** GEOMETRY OPTIMIZATION IN DELOCALIZED INTERNAL COORDINATES **
   Searching for a Minimum

   Optimization Cycle:   1

                       Coordinates (Angstroms)
     ATOM                X               Y               Z
      1  O         0.8010000000    0.1690000000   -0.0030000000
      2  C         1.0790000000   -1.1530000000   -0.0060000000
      3  C        -0.5330000000    0.2830000000    0.0020000000
      4  O         2.2120000000   -1.6520000000   -0.0110000000
      5  O        -0.0850000000   -1.8400000000   -0.0040000000
      6  C        -1.0690000000   -0.9320000000    0.0010000000
      7  Li        4.0510000000   -2.4620000000   -0.0180000000
      8  H        -0.9340000000    1.2920000000    0.0050000000
      9  H        -2.0840000000   -1.3170000000    0.0040000000
   Point Group: c1    Number of degrees of freedom:    21


   Energy is   -348.646394451


 Attempting to Generate Delocalized Internal Coordinates

 21 Hessian modes will be used to form the next step
  Hessian Eigenvalues:
     0.022092    0.022785    0.027055    0.029135    0.030606    0.086894
     0.160000    0.160000    0.200000    0.200000    0.225787    0.247149
     0.250000    0.353064    0.353298    0.483581    0.504322    0.557285
     0.570156    0.586366    0.878215

 Minimum Search - Taking Simple RFO Step
 Searching for Lamda that Minimizes Along All modes
 Value Taken    Lamda =  -0.01019371
 Step Taken.  Stepsize is  0.133665

                             Maximum     Tolerance    Cnvgd?
         Gradient           0.053319      0.000300      NO
         Displacement       0.074530      0.001200      NO
         Energy change     *********      0.000001      NO


 New Cartesian Coordinates Obtained by Inverse Iteration

 Displacement from previous Coordinates is:  0.125973
 ----------------------------------------------------------------
             Standard Nuclear Orientation (Angstroms)
    I     Atom           X                Y                Z
 ----------------------------------------------------------------
    1      O       0.8210179199     0.1481736142    -0.0029970188
    2      C       1.1022993189    -1.1624516009    -0.0073693008
    3      C      -0.5409774673     0.2862537735     0.0019517661
    4      O       2.1990306552    -1.6462526882    -0.0113883505
    5      O      -0.0546458438    -1.8398383237    -0.0043330620
    6      C      -1.0757985022    -0.9281453682     0.0012219609
    7      Li      4.0208682277    -2.4505480670    -0.0169659102
    8      H      -0.9494305710     1.2803887911     0.0053690150
    9      H      -2.0843637374    -1.2995801308     0.0045109004
 ----------------------------------------------------------------
 Nuclear Repulsion Energy =   251.0995580444 hartrees
 There are       24 alpha and       23 beta electrons
[HyperChem begin]
;Nuclear Cartesian coordinates in Angstroms
[coordinates]
      0.821017919874      0.148173614182     -0.002997018829
      1.102299318942     -1.162451600907     -0.007369300823
     -0.540977467340      0.286253773545      0.001951766056
      2.199030655190     -1.646252688200     -0.011388350496
     -0.054645843795     -1.839838323713     -0.004333062046
     -1.075798502168     -0.928145368202      0.001221960922
      4.020868227742     -2.450548067007     -0.016965910172
     -0.949430571000      1.280388791146      0.005369014994
     -2.084363737445     -1.299580130844      0.004510900394
[HyperChem end]
 Nucleus-field energy     =     0.0000000010 hartrees
 Requested basis set is 6-311++G(d,p)
[HyperChem begin]
[basis]
;
1:
;
Shells = 6
Shell1 =[ S   6   1.00 ]
   1    8.588500E+03    1.895150E-03
   2    1.297230E+03    1.438590E-02
   3    2.992960E+02    7.073200E-02
   4    8.737710E+01    2.400010E-01
   5    2.567890E+01    5.947970E-01
   6    3.740040E+00    2.808020E-01
Shell2 =[ SP  3   1.00 ]
   1    4.211750E+01    1.138890E-01    3.651140E-02
   2    9.628370E+00    9.208110E-01    2.371530E-01
   3    2.853320E+00   -3.274470E-03    8.197020E-01
Shell3 =[ SP  1   1.00 ]
   1    9.056610E-01    1.000000E+00    1.000000E+00
Shell4 =[ SP  1   1.00 ]
   1    2.556110E-01    1.000000E+00    1.000000E+00
Shell5 =[ SP  1   1.00 ]
   1    8.450000E-02    1.000000E+00    1.000000E+00
Shell6 =[ D   1   1.00 ]
   1    1.292000E+00    1.000000E+00
;
2:
;
Shells = 6
Shell1 =[ S   6   1.00 ]
   1    4.563240E+03    1.966650E-03
   2    6.820240E+02    1.523060E-02
   3    1.549730E+02    7.612690E-02
   4    4.445530E+01    2.608010E-01
   5    1.302900E+01    6.164620E-01
   6    1.827730E+00    2.210060E-01
Shell2 =[ SP  3   1.00 ]
   1    2.096420E+01    1.146600E-01    4.024870E-02
   2    4.803310E+00    9.199990E-01    2.375940E-01
   3    1.459330E+00   -3.030680E-03    8.158540E-01
Shell3 =[ SP  1   1.00 ]
   1    4.834560E-01    1.000000E+00    1.000000E+00
Shell4 =[ SP  1   1.00 ]
   1    1.455850E-01    1.000000E+00    1.000000E+00
Shell5 =[ SP  1   1.00 ]
   1    4.380000E-02    1.000000E+00    1.000000E+00
Shell6 =[ D   1   1.00 ]
   1    6.260000E-01    1.000000E+00
;
3:
;
Shells = 6
Shell1 =[ S   6   1.00 ]
   1    4.563240E+03    1.966650E-03
   2    6.820240E+02    1.523060E-02
   3    1.549730E+02    7.612690E-02
   4    4.445530E+01    2.608010E-01
   5    1.302900E+01    6.164620E-01
   6    1.827730E+00    2.210060E-01
Shell2 =[ SP  3   1.00 ]
   1    2.096420E+01    1.146600E-01    4.024870E-02
   2    4.803310E+00    9.199990E-01    2.375940E-01
   3    1.459330E+00   -3.030680E-03    8.158540E-01
Shell3 =[ SP  1   1.00 ]
   1    4.834560E-01    1.000000E+00    1.000000E+00
Shell4 =[ SP  1   1.00 ]
   1    1.455850E-01    1.000000E+00    1.000000E+00
Shell5 =[ SP  1   1.00 ]
   1    4.380000E-02    1.000000E+00    1.000000E+00
Shell6 =[ D   1   1.00 ]
   1    6.260000E-01    1.000000E+00
;
4:
;
Shells = 6
Shell1 =[ S   6   1.00 ]
   1    8.588500E+03    1.895150E-03
   2    1.297230E+03    1.438590E-02
   3    2.992960E+02    7.073200E-02
   4    8.737710E+01    2.400010E-01
   5    2.567890E+01    5.947970E-01
   6    3.740040E+00    2.808020E-01
Shell2 =[ SP  3   1.00 ]
   1    4.211750E+01    1.138890E-01    3.651140E-02
   2    9.628370E+00    9.208110E-01    2.371530E-01
   3    2.853320E+00   -3.274470E-03    8.197020E-01
Shell3 =[ SP  1   1.00 ]
   1    9.056610E-01    1.000000E+00    1.000000E+00
Shell4 =[ SP  1   1.00 ]
   1    2.556110E-01    1.000000E+00    1.000000E+00
Shell5 =[ SP  1   1.00 ]
   1    8.450000E-02    1.000000E+00    1.000000E+00
Shell6 =[ D   1   1.00 ]
   1    1.292000E+00    1.000000E+00
;
5:
;
Shells = 6
Shell1 =[ S   6   1.00 ]
   1    8.588500E+03    1.895150E-03
   2    1.297230E+03    1.438590E-02
   3    2.992960E+02    7.073200E-02
   4    8.737710E+01    2.400010E-01
   5    2.567890E+01    5.947970E-01
   6    3.740040E+00    2.808020E-01
Shell2 =[ SP  3   1.00 ]
   1    4.211750E+01    1.138890E-01    3.651140E-02
   2    9.628370E+00    9.208110E-01    2.371530E-01
   3    2.853320E+00   -3.274470E-03    8.197020E-01
Shell3 =[ SP  1   1.00 ]
   1    9.056610E-01    1.000000E+00    1.000000E+00
Shell4 =[ SP  1   1.00 ]
   1    2.556110E-01    1.000000E+00    1.000000E+00
Shell5 =[ SP  1   1.00 ]
   1    8.450000E-02    1.000000E+00    1.000000E+00
Shell6 =[ D   1   1.00 ]
   1    1.292000E+00    1.000000E+00
;
6:
;
Shells = 6
Shell1 =[ S   6   1.00 ]
   1    4.563240E+03    1.966650E-03
   2    6.820240E+02    1.523060E-02
   3    1.549730E+02    7.612690E-02
   4    4.445530E+01    2.608010E-01
   5    1.302900E+01    6.164620E-01
   6    1.827730E+00    2.210060E-01
Shell2 =[ SP  3   1.00 ]
   1    2.096420E+01    1.146600E-01    4.024870E-02
   2    4.803310E+00    9.199990E-01    2.375940E-01
   3    1.459330E+00   -3.030680E-03    8.158540E-01
Shell3 =[ SP  1   1.00 ]
   1    4.834560E-01    1.000000E+00    1.000000E+00
Shell4 =[ SP  1   1.00 ]
   1    1.455850E-01    1.000000E+00    1.000000E+00
Shell5 =[ SP  1   1.00 ]
   1    4.380000E-02    1.000000E+00    1.000000E+00
Shell6 =[ D   1   1.00 ]
   1    6.260000E-01    1.000000E+00
;
7:
;
Shells = 6
Shell1 =[ S   6   1.00 ]
   1    9.004600E+02    2.287040E-03
   2    1.344330E+02    1.763500E-02
   3    3.043650E+01    8.734340E-02
   4    8.626390E+00    2.809770E-01
   5    2.483320E+00    6.587410E-01
   6    3.031790E-01    1.187120E-01
Shell2 =[ SP  3   1.00 ]
   1    4.868900E+00    9.332930E-02    3.276610E-02
   2    8.569240E-01    9.430450E-01    1.597920E-01
   3    2.432270E-01   -2.798270E-03    8.856670E-01
Shell3 =[ SP  1   1.00 ]
   1    6.350700E-02    1.000000E+00    1.000000E+00
Shell4 =[ SP  1   1.00 ]
   1    2.436830E-02    1.000000E+00    1.000000E+00
Shell5 =[ SP  1   1.00 ]
   1    7.400000E-03    1.000000E+00    1.000000E+00
Shell6 =[ D   1   1.00 ]
   1    2.000000E-01    1.000000E+00
;
8:
;
Shells = 5
Shell1 =[ S   3   1.00 ]
   1    3.386500E+01    2.549380E-02
   2    5.094790E+00    1.903730E-01
   3    1.158790E+00    8.521610E-01
Shell2 =[ S   1   1.00 ]
   1    3.258400E-01    1.000000E+00
Shell3 =[ S   1   1.00 ]
   1    1.027410E-01    1.000000E+00
Shell4 =[ S   1   1.00 ]
   1    3.600000E-02    1.000000E+00
Shell5 =[ P   1   1.00 ]
   1    7.500000E-01    1.000000E+00
;
9:
;
Shells = 5
Shell1 =[ S   3   1.00 ]
   1    3.386500E+01    2.549380E-02
   2    5.094790E+00    1.903730E-01
   3    1.158790E+00    8.521610E-01
Shell2 =[ S   1   1.00 ]
   1    3.258400E-01    1.000000E+00
Shell3 =[ S   1   1.00 ]
   1    1.027410E-01    1.000000E+00
Shell4 =[ S   1   1.00 ]
   1    3.600000E-02    1.000000E+00
Shell5 =[ P   1   1.00 ]
   1    7.500000E-01    1.000000E+00
[HyperChem end]
 There are 52 shells and 168 basis functions
 A cutoff of  1.0D-11 yielded   1317 shell pairs
 There are     14119 function pairs (     15338 Cartesian)
 Smallest overlap matrix eigenvalue = 3.14E-05
 Guess MOs from SCF MO coefficient file
 Reading MOs from coefficient file
 Reading MOs from coefficient file

 ==================================================
    GEN_SCFMAN: A general SCF calculation manager  
                                                   
    Authors:                                       
        -- Eric Jon Sundstrom 2008-2014            
        -- Paul Horn 2010-2015                     
        -- Yuezhi Mao 2012-                        
        -- Dmitri Zuev 2014                        
        -- Alec White 2015-                        
        -- David Stuck 2015                        
        -- Shaama M.S. 2015                        
        -- Shane Yost 2015-                         
        -- Joonho Lee 2016-                        
        -- David Small 2016-                       
        -- Daniel Levine 2016-                     
 ==================================================
 Exchange:     0.2220 Hartree-Fock + 1.0000 wB97X-D + LR-HF
 Correlation:  1.0000 wB97X-D
 Using SG-2 standard quadrature grid
 Dispersion:   Grimme D
 A unrestricted SCF calculation will be
 performed using DIIS
 ---------------------------------------
  Cycle       Energy         DIIS error
 ---------------------------------------
 -------------------------------------------------------
 OpenMP Integral computing Module                
 Release: version 1.0, May 2013, Q-Chem Inc. Pittsburgh 
 -------------------------------------------------------
 -------------------------------------------------------
 OpenMP Integral computing Module                
 Release: version 1.0, May 2013, Q-Chem Inc. Pittsburgh 
 -------------------------------------------------------
    1    -348.6837715214      1.09e-03  
    2    -348.6506494438      3.54e-04  
    3    -348.6509103970      3.45e-04  
    4    -348.6519994580      5.14e-05  
    5    -348.6520222726      1.74e-05  
    6    -348.6520257891      4.37e-06  
    7    -348.6520262427      2.08e-06  
    8    -348.6520263614      6.82e-07  
    9    -348.6520264061      2.68e-07  
   10    -348.6520264192      1.17e-07  
   11    -348.6520264215      4.37e-08  
   12    -348.6520264220      1.33e-08  
   13    -348.6520264220      8.39e-09  Convergence criterion met
 ---------------------------------------
 SCF time:   CPU 211.07s  wall 20.00s 
<S^2> =          0.750176508
Wall 1 = 20
Clock 1 = 211.080001831
 ==================================================
                  Done GEN_SCFMAN                  
 ==================================================

 
 --------------------------------------------------------------
 
                    Orbital Energies (a.u.)
 --------------------------------------------------------------
 
 Alpha MOs
 -- Occupied --
-19.387 -19.387 -19.302 -10.532 -10.410 -10.409  -2.078  -1.364
 -1.238  -1.220  -0.943  -0.829  -0.793  -0.701  -0.676  -0.637
 -0.626  -0.564  -0.544  -0.539  -0.520  -0.461  -0.383  -0.142
 -- Virtual --
  0.009   0.017   0.018   0.027   0.030   0.034   0.038   0.042
  0.057   0.058   0.062   0.087   0.089   0.105   0.109   0.132
  0.134   0.138   0.148   0.149   0.158   0.169   0.169   0.172
  0.181   0.190   0.199   0.229   0.245   0.255   0.293   0.303
  0.308   0.309   0.315   0.343   0.350   0.361   0.366   0.367
  0.390   0.413   0.419   0.452   0.458   0.500   0.518   0.549
  0.555   0.565   0.566   0.570   0.585   0.601   0.609   0.627
  0.668   0.715   0.722   0.741   0.770   0.815   0.823   0.847
  0.877   0.900   0.933   0.967   1.042   1.050   1.081   1.090
  1.169   1.173   1.206   1.208   1.217   1.235   1.299   1.309
  1.348   1.390   1.455   1.485   1.530   1.624   1.713   1.748
  1.763   1.766   1.781   1.782   1.820   1.895   1.926   1.993
  2.087   2.150   2.175   2.453   2.566   2.579   2.688   2.734
  2.745   2.763   2.796   2.836   2.893   2.993   3.008   3.084
  3.098   3.149   3.194   3.225   3.258   3.422   3.424   3.444
  3.574   3.649   3.660   3.909   4.011   4.019   4.105   4.229
  4.230   5.002   5.004   5.099   5.209   5.361   5.513   5.547
  5.955   6.033  23.770  23.910  24.347  49.895  50.008  50.128
 
 Beta MOs
 -- Occupied --
-19.387 -19.387 -19.302 -10.532 -10.410 -10.409  -2.075  -1.364
 -1.238  -1.219  -0.943  -0.829  -0.793  -0.701  -0.676  -0.637
 -0.626  -0.564  -0.544  -0.539  -0.520  -0.461  -0.383
 -- Virtual --
  0.013   0.027   0.034   0.039   0.040   0.043   0.051   0.063
  0.072   0.092   0.101   0.112   0.132   0.134   0.137   0.141
  0.149   0.162   0.178   0.189   0.208   0.215   0.215   0.242
  0.247   0.259   0.263   0.274   0.276   0.285   0.294   0.311
  0.317   0.321   0.332   0.361   0.377   0.386   0.388   0.420
  0.423   0.442   0.444   0.458   0.474   0.514   0.543   0.573
  0.576   0.590   0.609   0.618   0.647   0.670   0.671   0.717
  0.722   0.738   0.772   0.780   0.800   0.815   0.850   0.852
  0.878   0.940   0.966   0.968   0.987   1.051   1.082   1.091
  1.102   1.169   1.185   1.211   1.212   1.217   1.241   1.301
  1.323   1.349   1.399   1.456   1.516   1.541   1.632   1.714
  1.750   1.763   1.767   1.782   1.784   1.825   1.896   1.927
  1.995   2.087   2.150   2.175   2.453   2.567   2.580   2.688
  2.735   2.745   2.763   2.797   2.836   2.894   2.993   3.008
  3.084   3.098   3.149   3.195   3.225   3.258   3.422   3.424
  3.445   3.575   3.653   3.661   3.918   4.013   4.019   4.105
  4.229   4.232   5.002   5.004   5.100   5.210   5.362   5.514
  5.547   5.956   6.033  23.770  23.911  24.347  49.895  50.008
 50.128
 --------------------------------------------------------------
 
          Ground-State Mulliken Net Atomic Charges

     Atom                 Charge (a.u.)    Spin (a.u.)
  --------------------------------------------------------
      1 O                    -0.041089      -0.008982
      2 C                     0.251727      -0.011436
      3 C                    -0.113500       0.004414
      4 O                    -0.293748      -0.064877
      5 O                    -0.040871      -0.008893
      6 C                    -0.114447       0.004549
      7 Li                   -0.142390       1.083403
      8 H                     0.247074       0.000915
      9 H                     0.247244       0.000907
  --------------------------------------------------------
  Sum of atomic charges =     0.000000
  Sum of spin   charges =     1.000000

 -----------------------------------------------------------------
                    Cartesian Multipole Moments
 -----------------------------------------------------------------
    Charge (ESU x 10^10)
                 0.0000
    Dipole Moment (Debye)
         X      -9.8554      Y       4.3428      Z       0.0344
       Tot      10.7698
    Quadrupole Moments (Debye-Ang)
        XX     -82.2260     XY      24.2827     YY     -55.9208
        XZ       0.1459     YZ      -0.0886     ZZ     -43.3894
    Octopole Moments (Debye-Ang^2)
       XXX    -411.7533    XXY     176.8774    XYY    -136.9272
       YYY     215.7972    XXZ       1.1923    XYZ      -0.4753
       YYZ       0.6189    XZZ     -58.3038    YZZ      55.0867
       ZZZ       0.9071
    Hexadecapole Moments (Debye-Ang^3)
      XXXX   -2830.0643   XXXY    1108.1596   XXYY    -788.6982
      XYYY     669.6868   YYYY    -979.9571   XXXZ       7.5880
      XXYZ      -3.2051   XYYZ       2.5023   YYYZ      -2.9878
      XXZZ    -307.2055   XYZZ     150.9488   YYZZ    -158.2595
      XZZZ       3.3359   YZZZ      -2.1214   ZZZZ    -104.5704
 -----------------------------------------------------------------
[HyperChem begin]
;Total dipole moment in Debye
[dipole-moment]
     10.769845045036
;Dipole moment components in Debye
[dipole-moment-components]
     -9.855366419733      4.342825193502      0.034414612845
[HyperChem end]
[HyperChem begin]
[HyperChem end]
[HyperChem begin]
[HyperChem end]
[HyperChem begin]
[HyperChem end]
 Calculating analytic gradient of the SCF energy
 Gradient of SCF Energy
            1           2           3           4           5           6
    1  -0.0096115  -0.0013056   0.0067948   0.0037377  -0.0042220   0.0030594
    2  -0.0032313   0.0007127   0.0022473  -0.0017403   0.0091058  -0.0064889
    3   0.0001331  -0.0002602  -0.0000295   0.0000790   0.0001120  -0.0000500
            7           8           9
    1   0.0022719  -0.0004520  -0.0002728
    2  -0.0010047  -0.0000404   0.0004398
    3  -0.0000053  -0.0000047   0.0000256
 Max gradient component =       9.611E-03
 RMS gradient           =       3.508E-03
[HyperChem begin]
[HyperChem end]
 Gradient time:  CPU 52.26 s  wall 6.11 s
 Geometry Optimization Parameters
   NAtoms,    NIC,     NZ,  NCons,   NDum,   NFix, NCnnct, MaxDiis
        9      53       0       0       0       0       0       0

 Cartesian Hessian Update
 Hessian Updated using BFGS Update


** GEOMETRY OPTIMIZATION IN DELOCALIZED INTERNAL COORDINATES **
   Searching for a Minimum

   Optimization Cycle:   2

                       Coordinates (Angstroms)
     ATOM                X               Y               Z
      1  O         0.8210179199    0.1481736142   -0.0029970188
      2  C         1.1022993189   -1.1624516009   -0.0073693008
      3  C        -0.5409774673    0.2862537735    0.0019517661
      4  O         2.1990306552   -1.6462526882   -0.0113883505
      5  O        -0.0546458438   -1.8398383237   -0.0043330620
      6  C        -1.0757985022   -0.9281453682    0.0012219609
      7  Li        4.0208682277   -2.4505480670   -0.0169659102
      8  H        -0.9494305710    1.2803887911    0.0053690150
      9  H        -2.0843637374   -1.2995801308    0.0045109004
   Point Group: c1    Number of degrees of freedom:    21


   Energy is   -348.652026422

 Hessian Updated using BFGS Update

 21 Hessian modes will be used to form the next step
  Hessian Eigenvalues:
     0.022093    0.022787    0.027056    0.029135    0.030606    0.085484
     0.159999    0.161604    0.199998    0.200000    0.225788    0.249988
     0.257865    0.353174    0.355187    0.485303    0.504327    0.523567
     0.557286    0.584415    0.846966

 Minimum Search - Taking Simple RFO Step
 Searching for Lamda that Minimizes Along All modes
 Value Taken    Lamda =  -0.00054777
 Step Taken.  Stepsize is  0.051027

                             Maximum     Tolerance    Cnvgd?
         Gradient           0.007487      0.000300      NO
         Displacement       0.024518      0.001200      NO
         Energy change     -0.005632      0.000001      NO


 New Cartesian Coordinates Obtained by Inverse Iteration

 Displacement from previous Coordinates is:  0.060161
 ----------------------------------------------------------------
             Standard Nuclear Orientation (Angstroms)
    I     Atom           X                Y                Z
 ----------------------------------------------------------------
    1      O       0.8319626870     0.1520760940    -0.0023541870
    2      C       1.1013671266    -1.1616570934    -0.0034542243
    3      C      -0.5379011440     0.2844366901     0.0017635763
    4      O       2.1924679096    -1.6431088273    -0.0101236697
    5      O      -0.0496320352    -1.8499985487    -0.0033060187
    6      C      -1.0723551458    -0.9292702650     0.0010012877
    7      Li      3.9982159625    -2.4413338224    -0.0201041417
    8      H      -0.9460240560     1.2779852034     0.0038588476
    9      H      -2.0801013046    -1.3011294307     0.0027185299
 ----------------------------------------------------------------
 Nuclear Repulsion Energy =   251.1698090384 hartrees
 There are       24 alpha and       23 beta electrons
[HyperChem begin]
;Nuclear Cartesian coordinates in Angstroms
[coordinates]
      0.831962686971      0.152076093973     -0.002354187014
      1.101367126586     -1.161657093362     -0.003454224294
     -0.537901144024      0.284436690113      0.001763576291
      2.192467909578     -1.643108827326     -0.010123669697
     -0.049632035208     -1.849998548717     -0.003306018718
     -1.072355145843     -0.929270265014      0.001001287662
      3.998215962514     -2.441333822361     -0.020104141711
     -0.946024056010      1.277985203428      0.003858847559
     -2.080101304564     -1.301129430733      0.002718529922
[HyperChem end]
 Nucleus-field energy     =     0.0000000010 hartrees
 Requested basis set is 6-311++G(d,p)
[HyperChem begin]
[basis]
;
1:
;
Shells = 6
Shell1 =[ S   6   1.00 ]
   1    8.588500E+03    1.895150E-03
   2    1.297230E+03    1.438590E-02
   3    2.992960E+02    7.073200E-02
   4    8.737710E+01    2.400010E-01
   5    2.567890E+01    5.947970E-01
   6    3.740040E+00    2.808020E-01
Shell2 =[ SP  3   1.00 ]
   1    4.211750E+01    1.138890E-01    3.651140E-02
   2    9.628370E+00    9.208110E-01    2.371530E-01
   3    2.853320E+00   -3.274470E-03    8.197020E-01
Shell3 =[ SP  1   1.00 ]
   1    9.056610E-01    1.000000E+00    1.000000E+00
Shell4 =[ SP  1   1.00 ]
   1    2.556110E-01    1.000000E+00    1.000000E+00
Shell5 =[ SP  1   1.00 ]
   1    8.450000E-02    1.000000E+00    1.000000E+00
Shell6 =[ D   1   1.00 ]
   1    1.292000E+00    1.000000E+00
;
2:
;
Shells = 6
Shell1 =[ S   6   1.00 ]
   1    4.563240E+03    1.966650E-03
   2    6.820240E+02    1.523060E-02
   3    1.549730E+02    7.612690E-02
   4    4.445530E+01    2.608010E-01
   5    1.302900E+01    6.164620E-01
   6    1.827730E+00    2.210060E-01
Shell2 =[ SP  3   1.00 ]
   1    2.096420E+01    1.146600E-01    4.024870E-02
   2    4.803310E+00    9.199990E-01    2.375940E-01
   3    1.459330E+00   -3.030680E-03    8.158540E-01
Shell3 =[ SP  1   1.00 ]
   1    4.834560E-01    1.000000E+00    1.000000E+00
Shell4 =[ SP  1   1.00 ]
   1    1.455850E-01    1.000000E+00    1.000000E+00
Shell5 =[ SP  1   1.00 ]
   1    4.380000E-02    1.000000E+00    1.000000E+00
Shell6 =[ D   1   1.00 ]
   1    6.260000E-01    1.000000E+00
;
3:
;
Shells = 6
Shell1 =[ S   6   1.00 ]
   1    4.563240E+03    1.966650E-03
   2    6.820240E+02    1.523060E-02
   3    1.549730E+02    7.612690E-02
   4    4.445530E+01    2.608010E-01
   5    1.302900E+01    6.164620E-01
   6    1.827730E+00    2.210060E-01
Shell2 =[ SP  3   1.00 ]
   1    2.096420E+01    1.146600E-01    4.024870E-02
   2    4.803310E+00    9.199990E-01    2.375940E-01
   3    1.459330E+00   -3.030680E-03    8.158540E-01
Shell3 =[ SP  1   1.00 ]
   1    4.834560E-01    1.000000E+00    1.000000E+00
Shell4 =[ SP  1   1.00 ]
   1    1.455850E-01    1.000000E+00    1.000000E+00
Shell5 =[ SP  1   1.00 ]
   1    4.380000E-02    1.000000E+00    1.000000E+00
Shell6 =[ D   1   1.00 ]
   1    6.260000E-01    1.000000E+00
;
4:
;
Shells = 6
Shell1 =[ S   6   1.00 ]
   1    8.588500E+03    1.895150E-03
   2    1.297230E+03    1.438590E-02
   3    2.992960E+02    7.073200E-02
   4    8.737710E+01    2.400010E-01
   5    2.567890E+01    5.947970E-01
   6    3.740040E+00    2.808020E-01
Shell2 =[ SP  3   1.00 ]
   1    4.211750E+01    1.138890E-01    3.651140E-02
   2    9.628370E+00    9.208110E-01    2.371530E-01
   3    2.853320E+00   -3.274470E-03    8.197020E-01
Shell3 =[ SP  1   1.00 ]
   1    9.056610E-01    1.000000E+00    1.000000E+00
Shell4 =[ SP  1   1.00 ]
   1    2.556110E-01    1.000000E+00    1.000000E+00
Shell5 =[ SP  1   1.00 ]
   1    8.450000E-02    1.000000E+00    1.000000E+00
Shell6 =[ D   1   1.00 ]
   1    1.292000E+00    1.000000E+00
;
5:
;
Shells = 6
Shell1 =[ S   6   1.00 ]
   1    8.588500E+03    1.895150E-03
   2    1.297230E+03    1.438590E-02
   3    2.992960E+02    7.073200E-02
   4    8.737710E+01    2.400010E-01
   5    2.567890E+01    5.947970E-01
   6    3.740040E+00    2.808020E-01
Shell2 =[ SP  3   1.00 ]
   1    4.211750E+01    1.138890E-01    3.651140E-02
   2    9.628370E+00    9.208110E-01    2.371530E-01
   3    2.853320E+00   -3.274470E-03    8.197020E-01
Shell3 =[ SP  1   1.00 ]
   1    9.056610E-01    1.000000E+00    1.000000E+00
Shell4 =[ SP  1   1.00 ]
   1    2.556110E-01    1.000000E+00    1.000000E+00
Shell5 =[ SP  1   1.00 ]
   1    8.450000E-02    1.000000E+00    1.000000E+00
Shell6 =[ D   1   1.00 ]
   1    1.292000E+00    1.000000E+00
;
6:
;
Shells = 6
Shell1 =[ S   6   1.00 ]
   1    4.563240E+03    1.966650E-03
   2    6.820240E+02    1.523060E-02
   3    1.549730E+02    7.612690E-02
   4    4.445530E+01    2.608010E-01
   5    1.302900E+01    6.164620E-01
   6    1.827730E+00    2.210060E-01
Shell2 =[ SP  3   1.00 ]
   1    2.096420E+01    1.146600E-01    4.024870E-02
   2    4.803310E+00    9.199990E-01    2.375940E-01
   3    1.459330E+00   -3.030680E-03    8.158540E-01
Shell3 =[ SP  1   1.00 ]
   1    4.834560E-01    1.000000E+00    1.000000E+00
Shell4 =[ SP  1   1.00 ]
   1    1.455850E-01    1.000000E+00    1.000000E+00
Shell5 =[ SP  1   1.00 ]
   1    4.380000E-02    1.000000E+00    1.000000E+00
Shell6 =[ D   1   1.00 ]
   1    6.260000E-01    1.000000E+00
;
7:
;
Shells = 6
Shell1 =[ S   6   1.00 ]
   1    9.004600E+02    2.287040E-03
   2    1.344330E+02    1.763500E-02
   3    3.043650E+01    8.734340E-02
   4    8.626390E+00    2.809770E-01
   5    2.483320E+00    6.587410E-01
   6    3.031790E-01    1.187120E-01
Shell2 =[ SP  3   1.00 ]
   1    4.868900E+00    9.332930E-02    3.276610E-02
   2    8.569240E-01    9.430450E-01    1.597920E-01
   3    2.432270E-01   -2.798270E-03    8.856670E-01
Shell3 =[ SP  1   1.00 ]
   1    6.350700E-02    1.000000E+00    1.000000E+00
Shell4 =[ SP  1   1.00 ]
   1    2.436830E-02    1.000000E+00    1.000000E+00
Shell5 =[ SP  1   1.00 ]
   1    7.400000E-03    1.000000E+00    1.000000E+00
Shell6 =[ D   1   1.00 ]
   1    2.000000E-01    1.000000E+00
;
8:
;
Shells = 5
Shell1 =[ S   3   1.00 ]
   1    3.386500E+01    2.549380E-02
   2    5.094790E+00    1.903730E-01
   3    1.158790E+00    8.521610E-01
Shell2 =[ S   1   1.00 ]
   1    3.258400E-01    1.000000E+00
Shell3 =[ S   1   1.00 ]
   1    1.027410E-01    1.000000E+00
Shell4 =[ S   1   1.00 ]
   1    3.600000E-02    1.000000E+00
Shell5 =[ P   1   1.00 ]
   1    7.500000E-01    1.000000E+00
;
9:
;
Shells = 5
Shell1 =[ S   3   1.00 ]
   1    3.386500E+01    2.549380E-02
   2    5.094790E+00    1.903730E-01
   3    1.158790E+00    8.521610E-01
Shell2 =[ S   1   1.00 ]
   1    3.258400E-01    1.000000E+00
Shell3 =[ S   1   1.00 ]
   1    1.027410E-01    1.000000E+00
Shell4 =[ S   1   1.00 ]
   1    3.600000E-02    1.000000E+00
Shell5 =[ P   1   1.00 ]
   1    7.500000E-01    1.000000E+00
[HyperChem end]
 There are 52 shells and 168 basis functions
 A cutoff of  1.0D-11 yielded   1319 shell pairs
 There are     14127 function pairs (     15346 Cartesian)
 Smallest overlap matrix eigenvalue = 3.12E-05
 Guess MOs from SCF MO coefficient file
 Reading MOs from coefficient file
 Reading MOs from coefficient file

 ==================================================
    GEN_SCFMAN: A general SCF calculation manager  
                                                   
    Authors:                                       
        -- Eric Jon Sundstrom 2008-2014            
        -- Paul Horn 2010-2015                     
        -- Yuezhi Mao 2012-                        
        -- Dmitri Zuev 2014                        
        -- Alec White 2015-                        
        -- David Stuck 2015                        
        -- Shaama M.S. 2015                        
        -- Shane Yost 2015-                         
        -- Joonho Lee 2016-                        
        -- David Small 2016-                       
        -- Daniel Levine 2016-                     
 ==================================================
 Exchange:     0.2220 Hartree-Fock + 1.0000 wB97X-D + LR-HF
 Correlation:  1.0000 wB97X-D
 Using SG-2 standard quadrature grid
 Dispersion:   Grimme D
 A unrestricted SCF calculation will be
 performed using DIIS
 ---------------------------------------
  Cycle       Energy         DIIS error
 ---------------------------------------
 -------------------------------------------------------
 OpenMP Integral computing Module                
 Release: version 1.0, May 2013, Q-Chem Inc. Pittsburgh 
 -------------------------------------------------------
 -------------------------------------------------------
 OpenMP Integral computing Module                
 Release: version 1.0, May 2013, Q-Chem Inc. Pittsburgh 
 -------------------------------------------------------
    1    -348.6531118162      2.33e-04  
    2    -348.6522716550      3.38e-05  
    3    -348.6522849184      2.25e-05  
    4    -348.6522900551      7.78e-06  
    5    -348.6522906930      2.33e-06  
    6    -348.6522908048      1.45e-06  
    7    -348.6522908357      3.76e-07  
    8    -348.6522908404      1.67e-07  
    9    -348.6522908428      7.38e-08  
   10    -348.6522908438      4.76e-08  
   11    -348.6522908447      2.50e-08  
   12    -348.6522908450      5.92e-09  Convergence criterion met
 ---------------------------------------
 SCF time:   CPU 195.94s  wall 18.00s 
<S^2> =          0.750178642
Wall 1 = 18
Clock 1 = 195.949996948
 ==================================================
                  Done GEN_SCFMAN                  
 ==================================================

 
 --------------------------------------------------------------
 
                    Orbital Energies (a.u.)
 --------------------------------------------------------------
 
 Alpha MOs
 -- Occupied --
-19.387 -19.387 -19.302 -10.532 -10.411 -10.410  -2.077  -1.362
 -1.238  -1.222  -0.942  -0.827  -0.792  -0.700  -0.675  -0.637
 -0.627  -0.566  -0.545  -0.538  -0.521  -0.462  -0.384  -0.141
 -- Virtual --
  0.009   0.017   0.017   0.026   0.030   0.034   0.038   0.042
  0.056   0.058   0.062   0.086   0.089   0.105   0.109   0.132
  0.134   0.138   0.148   0.149   0.158   0.169   0.169   0.172
  0.178   0.190   0.199   0.229   0.245   0.255   0.292   0.303
  0.308   0.309   0.313   0.344   0.351   0.361   0.365   0.370
  0.392   0.415   0.419   0.451   0.455   0.499   0.518   0.550
  0.555   0.565   0.566   0.570   0.585   0.599   0.609   0.628
  0.669   0.714   0.722   0.742   0.771   0.815   0.825   0.846
  0.877   0.902   0.934   0.967   1.044   1.054   1.080   1.089
  1.167   1.174   1.204   1.209   1.218   1.235   1.298   1.309
  1.352   1.393   1.453   1.484   1.531   1.622   1.712   1.747
  1.762   1.762   1.782   1.783   1.820   1.896   1.926   1.993
  2.087   2.154   2.177   2.446   2.567   2.584   2.686   2.735
  2.745   2.764   2.795   2.834   2.892   2.990   2.996   3.078
  3.086   3.154   3.198   3.223   3.250   3.421   3.425   3.448
  3.574   3.651   3.669   3.910   4.011   4.021   4.092   4.230
  4.232   5.002   5.004   5.099   5.213   5.354   5.512   5.558
  5.957   6.017  23.765  23.920  24.349  49.895  50.006  50.134
 
 Beta MOs
 -- Occupied --
-19.387 -19.387 -19.301 -10.532 -10.411 -10.410  -2.074  -1.362
 -1.238  -1.222  -0.942  -0.827  -0.792  -0.700  -0.675  -0.637
 -0.626  -0.565  -0.545  -0.538  -0.521  -0.462  -0.384
 -- Virtual --
  0.013   0.026   0.034   0.039   0.040   0.044   0.051   0.062
  0.072   0.092   0.101   0.112   0.133   0.134   0.138   0.141
  0.149   0.163   0.175   0.189   0.207   0.216   0.218   0.243
  0.247   0.261   0.266   0.275   0.276   0.285   0.293   0.309
  0.316   0.322   0.333   0.361   0.379   0.386   0.390   0.421
  0.424   0.442   0.444   0.460   0.472   0.514   0.544   0.572
  0.578   0.586   0.609   0.620   0.646   0.670   0.670   0.715
  0.721   0.737   0.774   0.781   0.803   0.815   0.849   0.852
  0.880   0.941   0.966   0.968   0.990   1.053   1.081   1.090
  1.106   1.167   1.186   1.211   1.212   1.218   1.242   1.299
  1.323   1.354   1.402   1.453   1.515   1.541   1.630   1.713
  1.749   1.762   1.763   1.783   1.786   1.825   1.897   1.927
  1.995   2.088   2.154   2.177   2.446   2.568   2.584   2.686
  2.735   2.745   2.764   2.795   2.834   2.893   2.990   2.996
  3.078   3.087   3.154   3.198   3.223   3.250   3.421   3.425
  3.448   3.575   3.654   3.670   3.918   4.013   4.021   4.092
  4.232   4.233   5.002   5.005   5.101   5.214   5.355   5.513
  5.558   5.958   6.017  23.765  23.920  24.349  49.895  50.006
 50.134
 --------------------------------------------------------------
 
          Ground-State Mulliken Net Atomic Charges

     Atom                 Charge (a.u.)    Spin (a.u.)
  --------------------------------------------------------
      1 O                    -0.041612      -0.009349
      2 C                     0.250334      -0.012698
      3 C                    -0.112967       0.004754
      4 O                    -0.287087      -0.066615
      5 O                    -0.041300      -0.009266
      6 C                    -0.114045       0.004898
      7 Li                   -0.148870       1.086385
      8 H                     0.247694       0.000950
      9 H                     0.247853       0.000941
  --------------------------------------------------------
  Sum of atomic charges =     0.000000
  Sum of spin   charges =     1.000000

 -----------------------------------------------------------------
                    Cartesian Multipole Moments
 -----------------------------------------------------------------
    Charge (ESU x 10^10)
                 0.0000
    Dipole Moment (Debye)
         X      -9.8693      Y       4.3506      Z       0.0518
       Tot      10.7858
    Quadrupole Moments (Debye-Ang)
        XX     -82.1534     XY      24.2626     YY     -55.9537
        XZ       0.2283     YZ      -0.1354     ZZ     -43.4153
    Octopole Moments (Debye-Ang^2)
       XXX    -410.0655    XXY     176.1651    XYY    -136.6255
       YYY     215.7518    XXZ       1.5412    XYZ      -0.6805
       YYZ       0.7525    XZZ     -58.2744    YZZ      55.0975
       ZZZ       0.9946
    Hexadecapole Moments (Debye-Ang^3)
      XXXX   -2806.9509   XXXY    1099.0059   XXYY    -783.7592
      XYYY     665.9454   YYYY    -978.9940   XXXZ       9.7942
      XXYZ      -4.2175   XYYZ       3.2643   YYYZ      -3.6180
      XXZZ    -305.6921   XYZZ     150.1662   YYZZ    -158.2836
      XZZZ       3.9638   YZZZ      -2.4521   ZZZZ    -105.0513
 -----------------------------------------------------------------
[HyperChem begin]
;Total dipole moment in Debye
[dipole-moment]
     10.785827323431
;Dipole moment components in Debye
[dipole-moment-components]
     -9.869349013631      4.350556367944      0.051772457431
[HyperChem end]
[HyperChem begin]
[HyperChem end]
[HyperChem begin]
[HyperChem end]
[HyperChem begin]
[HyperChem end]
 Calculating analytic gradient of the SCF energy
 Gradient of SCF Energy
            1           2           3           4           5           6
    1  -0.0005387   0.0020830   0.0028119  -0.0065372  -0.0006153   0.0007449
    2   0.0003064  -0.0008041   0.0015303   0.0027446   0.0002335  -0.0031343
    3  -0.0003294   0.0008978   0.0000754  -0.0002970  -0.0003078   0.0000104
            7           8           9
    1   0.0017041   0.0000404   0.0003069
    2  -0.0007569  -0.0004181   0.0002986
    3  -0.0000102  -0.0000258  -0.0000134
 Max gradient component =       6.537E-03
 RMS gradient           =       1.739E-03
[HyperChem begin]
[HyperChem end]
 Gradient time:  CPU 57.36 s  wall 6.41 s
 Geometry Optimization Parameters
   NAtoms,    NIC,     NZ,  NCons,   NDum,   NFix, NCnnct, MaxDiis
        9      53       0       0       0       0       0       0

 Cartesian Hessian Update
 Hessian Updated using BFGS Update


** GEOMETRY OPTIMIZATION IN DELOCALIZED INTERNAL COORDINATES **
   Searching for a Minimum

   Optimization Cycle:   3

                       Coordinates (Angstroms)
     ATOM                X               Y               Z
      1  O         0.8319626870    0.1520760940   -0.0023541870
      2  C         1.1013671266   -1.1616570934   -0.0034542243
      3  C        -0.5379011440    0.2844366901    0.0017635763
      4  O         2.1924679096   -1.6431088273   -0.0101236697
      5  O        -0.0496320352   -1.8499985487   -0.0033060187
      6  C        -1.0723551458   -0.9292702650    0.0010012877
      7  Li        3.9982159625   -2.4413338224   -0.0201041417
      8  H        -0.9460240560    1.2779852034    0.0038588476
      9  H        -2.0801013046   -1.3011294307    0.0027185299
   Point Group: c1    Number of degrees of freedom:    21


   Energy is   -348.652290845

 Hessian Updated using BFGS Update

 21 Hessian modes will be used to form the next step
  Hessian Eigenvalues:
     0.022236    0.022957    0.027057    0.029153    0.030605    0.067200
     0.159995    0.160766    0.199968    0.200000    0.225792    0.250001
     0.317179    0.353177    0.354877    0.454825    0.491268    0.504331
     0.557289    0.588321    1.017837

 Minimum Search - Taking Simple RFO Step
 Searching for Lamda that Minimizes Along All modes
 Value Taken    Lamda =  -0.00012799
 Step Taken.  Stepsize is  0.038338

                             Maximum     Tolerance    Cnvgd?
         Gradient           0.004942      0.000300      NO
         Displacement       0.021746      0.001200      NO
         Energy change     -0.000264      0.000001      NO


 New Cartesian Coordinates Obtained by Inverse Iteration

 Displacement from previous Coordinates is:  0.038047
 ----------------------------------------------------------------
             Standard Nuclear Orientation (Angstroms)
    I     Atom           X                Y                Z
 ----------------------------------------------------------------
    1      O       0.8337920272     0.1512004670    -0.0045913635
    2      C       1.1045372792    -1.1630441228    -0.0143561253
    3      C      -0.5394396193     0.2841155394     0.0023137332
    4      O       2.1973134440    -1.6450501085    -0.0135570795
    5      O      -0.0476810253    -1.8507646162    -0.0056737989
    6      C      -1.0730862913    -0.9278944355     0.0016933716
    7      Li      3.9893838463    -2.4376554951    -0.0111773487
    8      H      -0.9462153942     1.2786919537     0.0082418469
    9      H      -2.0806042667    -1.3015991819     0.0071067642
 ----------------------------------------------------------------
 Nuclear Repulsion Energy =   251.0073576477 hartrees
 There are       24 alpha and       23 beta electrons
[HyperChem begin]
;Nuclear Cartesian coordinates in Angstroms
[coordinates]
      0.833792027169      0.151200466991     -0.004591363530
      1.104537279249     -1.163044122822     -0.014356125314
     -0.539439619283      0.284115539399      0.002313733219
      2.197313444014     -1.645050108484     -0.013557079525
     -0.047681025281     -1.850764616238     -0.005673798879
     -1.073086291269     -0.927894435541      0.001693371601
      3.989383846315     -2.437655495124     -0.011177348739
     -0.946215394236      1.278691953726      0.008241846931
     -2.080604266678     -1.301599181909      0.007106764236
[HyperChem end]
 Nucleus-field energy     =     0.0000000010 hartrees
 Requested basis set is 6-311++G(d,p)
[HyperChem begin]
[basis]
;
1:
;
Shells = 6
Shell1 =[ S   6   1.00 ]
   1    8.588500E+03    1.895150E-03
   2    1.297230E+03    1.438590E-02
   3    2.992960E+02    7.073200E-02
   4    8.737710E+01    2.400010E-01
   5    2.567890E+01    5.947970E-01
   6    3.740040E+00    2.808020E-01
Shell2 =[ SP  3   1.00 ]
   1    4.211750E+01    1.138890E-01    3.651140E-02
   2    9.628370E+00    9.208110E-01    2.371530E-01
   3    2.853320E+00   -3.274470E-03    8.197020E-01
Shell3 =[ SP  1   1.00 ]
   1    9.056610E-01    1.000000E+00    1.000000E+00
Shell4 =[ SP  1   1.00 ]
   1    2.556110E-01    1.000000E+00    1.000000E+00
Shell5 =[ SP  1   1.00 ]
   1    8.450000E-02    1.000000E+00    1.000000E+00
Shell6 =[ D   1   1.00 ]
   1    1.292000E+00    1.000000E+00
;
2:
;
Shells = 6
Shell1 =[ S   6   1.00 ]
   1    4.563240E+03    1.966650E-03
   2    6.820240E+02    1.523060E-02
   3    1.549730E+02    7.612690E-02
   4    4.445530E+01    2.608010E-01
   5    1.302900E+01    6.164620E-01
   6    1.827730E+00    2.210060E-01
Shell2 =[ SP  3   1.00 ]
   1    2.096420E+01    1.146600E-01    4.024870E-02
   2    4.803310E+00    9.199990E-01    2.375940E-01
   3    1.459330E+00   -3.030680E-03    8.158540E-01
Shell3 =[ SP  1   1.00 ]
   1    4.834560E-01    1.000000E+00    1.000000E+00
Shell4 =[ SP  1   1.00 ]
   1    1.455850E-01    1.000000E+00    1.000000E+00
Shell5 =[ SP  1   1.00 ]
   1    4.380000E-02    1.000000E+00    1.000000E+00
Shell6 =[ D   1   1.00 ]
   1    6.260000E-01    1.000000E+00
;
3:
;
Shells = 6
Shell1 =[ S   6   1.00 ]
   1    4.563240E+03    1.966650E-03
   2    6.820240E+02    1.523060E-02
   3    1.549730E+02    7.612690E-02
   4    4.445530E+01    2.608010E-01
   5    1.302900E+01    6.164620E-01
   6    1.827730E+00    2.210060E-01
Shell2 =[ SP  3   1.00 ]
   1    2.096420E+01    1.146600E-01    4.024870E-02
   2    4.803310E+00    9.199990E-01    2.375940E-01
   3    1.459330E+00   -3.030680E-03    8.158540E-01
Shell3 =[ SP  1   1.00 ]
   1    4.834560E-01    1.000000E+00    1.000000E+00
Shell4 =[ SP  1   1.00 ]
   1    1.455850E-01    1.000000E+00    1.000000E+00
Shell5 =[ SP  1   1.00 ]
   1    4.380000E-02    1.000000E+00    1.000000E+00
Shell6 =[ D   1   1.00 ]
   1    6.260000E-01    1.000000E+00
;
4:
;
Shells = 6
Shell1 =[ S   6   1.00 ]
   1    8.588500E+03    1.895150E-03
   2    1.297230E+03    1.438590E-02
   3    2.992960E+02    7.073200E-02
   4    8.737710E+01    2.400010E-01
   5    2.567890E+01    5.947970E-01
   6    3.740040E+00    2.808020E-01
Shell2 =[ SP  3   1.00 ]
   1    4.211750E+01    1.138890E-01    3.651140E-02
   2    9.628370E+00    9.208110E-01    2.371530E-01
   3    2.853320E+00   -3.274470E-03    8.197020E-01
Shell3 =[ SP  1   1.00 ]
   1    9.056610E-01    1.000000E+00    1.000000E+00
Shell4 =[ SP  1   1.00 ]
   1    2.556110E-01    1.000000E+00    1.000000E+00
Shell5 =[ SP  1   1.00 ]
   1    8.450000E-02    1.000000E+00    1.000000E+00
Shell6 =[ D   1   1.00 ]
   1    1.292000E+00    1.000000E+00
;
5:
;
Shells = 6
Shell1 =[ S   6   1.00 ]
   1    8.588500E+03    1.895150E-03
   2    1.297230E+03    1.438590E-02
   3    2.992960E+02    7.073200E-02
   4    8.737710E+01    2.400010E-01
   5    2.567890E+01    5.947970E-01
   6    3.740040E+00    2.808020E-01
Shell2 =[ SP  3   1.00 ]
   1    4.211750E+01    1.138890E-01    3.651140E-02
   2    9.628370E+00    9.208110E-01    2.371530E-01
   3    2.853320E+00   -3.274470E-03    8.197020E-01
Shell3 =[ SP  1   1.00 ]
   1    9.056610E-01    1.000000E+00    1.000000E+00
Shell4 =[ SP  1   1.00 ]
   1    2.556110E-01    1.000000E+00    1.000000E+00
Shell5 =[ SP  1   1.00 ]
   1    8.450000E-02    1.000000E+00    1.000000E+00
Shell6 =[ D   1   1.00 ]
   1    1.292000E+00    1.000000E+00
;
6:
;
Shells = 6
Shell1 =[ S   6   1.00 ]
   1    4.563240E+03    1.966650E-03
   2    6.820240E+02    1.523060E-02
   3    1.549730E+02    7.612690E-02
   4    4.445530E+01    2.608010E-01
   5    1.302900E+01    6.164620E-01
   6    1.827730E+00    2.210060E-01
Shell2 =[ SP  3   1.00 ]
   1    2.096420E+01    1.146600E-01    4.024870E-02
   2    4.803310E+00    9.199990E-01    2.375940E-01
   3    1.459330E+00   -3.030680E-03    8.158540E-01
Shell3 =[ SP  1   1.00 ]
   1    4.834560E-01    1.000000E+00    1.000000E+00
Shell4 =[ SP  1   1.00 ]
   1    1.455850E-01    1.000000E+00    1.000000E+00
Shell5 =[ SP  1   1.00 ]
   1    4.380000E-02    1.000000E+00    1.000000E+00
Shell6 =[ D   1   1.00 ]
   1    6.260000E-01    1.000000E+00
;
7:
;
Shells = 6
Shell1 =[ S   6   1.00 ]
   1    9.004600E+02    2.287040E-03
   2    1.344330E+02    1.763500E-02
   3    3.043650E+01    8.734340E-02
   4    8.626390E+00    2.809770E-01
   5    2.483320E+00    6.587410E-01
   6    3.031790E-01    1.187120E-01
Shell2 =[ SP  3   1.00 ]
   1    4.868900E+00    9.332930E-02    3.276610E-02
   2    8.569240E-01    9.430450E-01    1.597920E-01
   3    2.432270E-01   -2.798270E-03    8.856670E-01
Shell3 =[ SP  1   1.00 ]
   1    6.350700E-02    1.000000E+00    1.000000E+00
Shell4 =[ SP  1   1.00 ]
   1    2.436830E-02    1.000000E+00    1.000000E+00
Shell5 =[ SP  1   1.00 ]
   1    7.400000E-03    1.000000E+00    1.000000E+00
Shell6 =[ D   1   1.00 ]
   1    2.000000E-01    1.000000E+00
;
8:
;
Shells = 5
Shell1 =[ S   3   1.00 ]
   1    3.386500E+01    2.549380E-02
   2    5.094790E+00    1.903730E-01
   3    1.158790E+00    8.521610E-01
Shell2 =[ S   1   1.00 ]
   1    3.258400E-01    1.000000E+00
Shell3 =[ S   1   1.00 ]
   1    1.027410E-01    1.000000E+00
Shell4 =[ S   1   1.00 ]
   1    3.600000E-02    1.000000E+00
Shell5 =[ P   1   1.00 ]
   1    7.500000E-01    1.000000E+00
;
9:
;
Shells = 5
Shell1 =[ S   3   1.00 ]
   1    3.386500E+01    2.549380E-02
   2    5.094790E+00    1.903730E-01
   3    1.158790E+00    8.521610E-01
Shell2 =[ S   1   1.00 ]
   1    3.258400E-01    1.000000E+00
Shell3 =[ S   1   1.00 ]
   1    1.027410E-01    1.000000E+00
Shell4 =[ S   1   1.00 ]
   1    3.600000E-02    1.000000E+00
Shell5 =[ P   1   1.00 ]
   1    7.500000E-01    1.000000E+00
[HyperChem end]
 There are 52 shells and 168 basis functions
 A cutoff of  1.0D-11 yielded   1317 shell pairs
 There are     14119 function pairs (     15338 Cartesian)
 Smallest overlap matrix eigenvalue = 3.10E-05
 Guess MOs from SCF MO coefficient file
 Reading MOs from coefficient file
 Reading MOs from coefficient file

 ==================================================
    GEN_SCFMAN: A general SCF calculation manager  
                                                   
    Authors:                                       
        -- Eric Jon Sundstrom 2008-2014            
        -- Paul Horn 2010-2015                     
        -- Yuezhi Mao 2012-                        
        -- Dmitri Zuev 2014                        
        -- Alec White 2015-                        
        -- David Stuck 2015                        
        -- Shaama M.S. 2015                        
        -- Shane Yost 2015-                         
        -- Joonho Lee 2016-                        
        -- David Small 2016-                       
        -- Daniel Levine 2016-                     
 ==================================================
 Exchange:     0.2220 Hartree-Fock + 1.0000 wB97X-D + LR-HF
 Correlation:  1.0000 wB97X-D
 Using SG-2 standard quadrature grid
 Dispersion:   Grimme D
 A unrestricted SCF calculation will be
 performed using DIIS
 ---------------------------------------
  Cycle       Energy         DIIS error
 ---------------------------------------
 -------------------------------------------------------
 OpenMP Integral computing Module                
 Release: version 1.0, May 2013, Q-Chem Inc. Pittsburgh 
 -------------------------------------------------------
 -------------------------------------------------------
 OpenMP Integral computing Module                
 Release: version 1.0, May 2013, Q-Chem Inc. Pittsburgh 
 -------------------------------------------------------
    1    -348.6464468051      1.42e-04  
    2    -348.6523431226      2.56e-05  
    3    -348.6523487370      2.37e-05  
    4    -348.6523541751      5.08e-06  
    5    -348.6523545240      2.35e-06  
    6    -348.6523546393      9.32e-07  
    7    -348.6523546851      4.10e-07  
    8    -348.6523547079      2.67e-07  
    9    -348.6523547320      1.44e-07  
   10    -348.6523547404      6.62e-08  
   11    -348.6523547417      2.72e-08  
   12    -348.6523547419      1.44e-08  
   13    -348.6523547419      1.04e-08  
   14    -348.6523547420      2.13e-09  Convergence criterion met
 ---------------------------------------
 SCF time:   CPU 230.65s  wall 22.00s 
<S^2> =          0.750182036
Wall 1 = 22
Clock 1 = 230.660003662
 ==================================================
                  Done GEN_SCFMAN                  
 ==================================================

 
 --------------------------------------------------------------
 
                    Orbital Energies (a.u.)
 --------------------------------------------------------------
 
 Alpha MOs
 -- Occupied --
-19.387 -19.387 -19.302 -10.533 -10.412 -10.411  -2.077  -1.361
 -1.237  -1.222  -0.943  -0.827  -0.791  -0.701  -0.675  -0.638
 -0.628  -0.566  -0.545  -0.538  -0.521  -0.462  -0.385  -0.141
 -- Virtual --
  0.009   0.017   0.018   0.026   0.030   0.034   0.038   0.042
  0.056   0.058   0.062   0.086   0.088   0.105   0.109   0.132
  0.134   0.138   0.148   0.149   0.159   0.168   0.169   0.173
  0.177   0.190   0.200   0.229   0.244   0.254   0.292   0.303
  0.307   0.309   0.313   0.344   0.351   0.361   0.365   0.370
  0.391   0.416   0.419   0.451   0.453   0.499   0.518   0.549
  0.555   0.564   0.565   0.569   0.586   0.598   0.609   0.629
  0.668   0.715   0.722   0.743   0.770   0.815   0.827   0.846
  0.876   0.902   0.933   0.967   1.043   1.055   1.080   1.089
  1.166   1.174   1.205   1.209   1.217   1.235   1.298   1.310
  1.352   1.394   1.453   1.484   1.530   1.620   1.712   1.746
  1.761   1.762   1.782   1.782   1.819   1.896   1.924   1.992
  2.086   2.151   2.178   2.444   2.566   2.581   2.686   2.734
  2.745   2.763   2.794   2.834   2.891   2.987   2.991   3.075
  3.081   3.151   3.195   3.222   3.247   3.417   3.422   3.447
  3.571   3.650   3.665   3.911   4.010   4.019   4.090   4.230
  4.235   5.001   5.005   5.099   5.212   5.354   5.508   5.553
  5.956   6.013  23.760  23.916  24.355  49.894  50.005  50.131
 
 Beta MOs
 -- Occupied --
-19.387 -19.387 -19.302 -10.533 -10.412 -10.411  -2.074  -1.361
 -1.237  -1.222  -0.943  -0.827  -0.791  -0.701  -0.675  -0.638
 -0.627  -0.566  -0.545  -0.538  -0.521  -0.462  -0.385
 -- Virtual --
  0.012   0.026   0.034   0.039   0.040   0.043   0.051   0.062
  0.072   0.092   0.101   0.112   0.133   0.134   0.138   0.141
  0.149   0.163   0.173   0.189   0.207   0.216   0.220   0.243
  0.246   0.260   0.268   0.275   0.276   0.285   0.293   0.309
  0.316   0.322   0.334   0.361   0.379   0.386   0.390   0.422
  0.423   0.442   0.444   0.461   0.471   0.514   0.545   0.572
  0.576   0.584   0.609   0.621   0.647   0.669   0.671   0.714
  0.720   0.736   0.774   0.780   0.803   0.815   0.849   0.853
  0.880   0.940   0.967   0.967   0.990   1.053   1.081   1.090
  1.109   1.166   1.186   1.212   1.212   1.217   1.242   1.299
  1.324   1.354   1.403   1.453   1.515   1.539   1.629   1.713
  1.748   1.761   1.762   1.782   1.786   1.825   1.897   1.925
  1.994   2.087   2.151   2.178   2.445   2.567   2.581   2.686
  2.734   2.745   2.763   2.794   2.834   2.892   2.988   2.991
  3.075   3.081   3.151   3.196   3.222   3.247   3.417   3.423
  3.447   3.572   3.653   3.665   3.919   4.012   4.020   4.090
  4.231   4.237   5.001   5.005   5.100   5.214   5.354   5.508
  5.553   5.957   6.013  23.760  23.916  24.355  49.894  50.005
 50.132
 --------------------------------------------------------------
 
          Ground-State Mulliken Net Atomic Charges

     Atom                 Charge (a.u.)    Spin (a.u.)
  --------------------------------------------------------
      1 O                    -0.043081      -0.009580
      2 C                     0.250752      -0.013603
      3 C                    -0.111453       0.004710
      4 O                    -0.283440      -0.067895
      5 O                    -0.042758      -0.009496
      6 C                    -0.112507       0.004860
      7 Li                   -0.154592       1.089124
      8 H                     0.248462       0.000944
      9 H                     0.248617       0.000936
  --------------------------------------------------------
  Sum of atomic charges =     0.000000
  Sum of spin   charges =     1.000000

 -----------------------------------------------------------------
                    Cartesian Multipole Moments
 -----------------------------------------------------------------
    Charge (ESU x 10^10)
                 0.0000
    Dipole Moment (Debye)
         X      -9.9203      Y       4.3739      Z       0.0022
       Tot      10.8417
    Quadrupole Moments (Debye-Ang)
        XX     -82.2424     XY      24.3261     YY     -56.0351
        XZ      -0.0040     YZ       0.0003     ZZ     -43.4491
    Octopole Moments (Debye-Ang^2)
       XXX    -410.3616    XXY     176.2528    XYY    -136.8358
       YYY     216.1002    XXZ       0.5326    XYZ      -0.0948
       YYZ       0.3656    XZZ     -58.3981    YZZ      55.1783
       ZZZ       0.7417
    Hexadecapole Moments (Debye-Ang^3)
      XXXX   -2804.3295   XXXY    1098.0310   XXYY    -783.5229
      XYYY     666.1791   YYYY    -980.2289   XXXZ       3.3956
      XXYZ      -1.2703   XYYZ       1.0684   YYYZ      -1.7795
      XXZZ    -305.8582   XYZZ     150.2723   YYZZ    -158.5549
      XZZZ       2.1536   YZZZ      -1.4827   ZZZZ    -105.5267
 -----------------------------------------------------------------
[HyperChem begin]
;Total dipole moment in Debye
[dipole-moment]
     10.841722813033
;Dipole moment components in Debye
[dipole-moment-components]
     -9.920288180776      4.373880566353      0.002180890222
[HyperChem end]
[HyperChem begin]
[HyperChem end]
[HyperChem begin]
[HyperChem end]
[HyperChem begin]
[HyperChem end]
 Calculating analytic gradient of the SCF energy
 Gradient of SCF Energy
            1           2           3           4           5           6
    1   0.0007452   0.0018967  -0.0003530  -0.0030419   0.0000562  -0.0003282
    2   0.0005644  -0.0007664   0.0001281   0.0012259  -0.0008992   0.0001710
    3   0.0008432  -0.0024096  -0.0001284   0.0008722   0.0008386  -0.0001239
            7           8           9
    1   0.0011610  -0.0001192  -0.0000167
    2  -0.0005173  -0.0001084   0.0002019
    3   0.0000060   0.0000491   0.0000527
 Max gradient component =       3.042E-03
 RMS gradient           =       9.927E-04
[...]
    4  -0.0183328   0.0330464   0.0001192  -0.5366078   0.1850763   0.0018820
    5   0.0978424  -0.0326613  -0.0003745   0.1852113  -0.1980289  -0.0008441
    6   0.0002211  -0.0002017   0.0075636   0.0016304  -0.0007322  -0.0994219
    7   0.5412987  -0.0127602  -0.0012903  -0.0054631  -0.0106579   0.0000093
    8  -0.0127602   1.0235239   0.0016738  -0.0014705  -0.0034076   0.0000098
    9  -0.0012903   0.0016738   0.1640541   0.0000330   0.0000243   0.0014414
   10  -0.0054631  -0.0014705   0.0000330   0.6448892  -0.2383502  -0.0023616
   11  -0.0106579  -0.0034076   0.0000243  -0.2383502   0.2119073   0.0013478
   12   0.0000093   0.0000098   0.0014414  -0.0023616   0.0013478   0.0412413
   13  -0.0398695   0.0509500   0.0002932  -0.0913731  -0.0177920   0.0003262
   14   0.0177538  -0.0792713  -0.0002744   0.0072592   0.0295523  -0.0000085
   15   0.0002396  -0.0003788   0.0168157   0.0004497   0.0000443   0.0231545
   16  -0.1643004  -0.1521694  -0.0000564   0.0017164   0.0050796   0.0000010
   17  -0.1729365  -0.4618551  -0.0001283  -0.0041567  -0.0105508  -0.0000261
   18  -0.0001097  -0.0001794  -0.0921086   0.0000104  -0.0000512   0.0014233
   19  -0.0011320  -0.0012512  -0.0000051   0.0005751   0.0055390  -0.0000976
   20   0.0005570   0.0003975   0.0000005   0.0055656   0.0077781  -0.0002238
   21   0.0000062   0.0000052  -0.0003096  -0.0000537  -0.0002429   0.0068069
   22  -0.1032424   0.0964246   0.0004108   0.0016851   0.0029180  -0.0000014
   23   0.0924464  -0.3439279  -0.0008748  -0.0068334   0.0035785   0.0000361
   24   0.0003992  -0.0008916  -0.0415089  -0.0000122  -0.0000071   0.0010967
   25   0.0156873   0.0161414  -0.0000244   0.0046683  -0.0041122  -0.0000296
   26  -0.0126019   0.0116149   0.0000638   0.0056319   0.0005867  -0.0000217
   27  -0.0000731  -0.0000306  -0.0001697   0.0000041   0.0000105   0.0010945
           13          14          15          16          17          18
    1   0.0119763  -0.0155740  -0.0000316  -0.0958397  -0.0331225   0.0003249
    2  -0.0737505  -0.0708299   0.0001117   0.0000068  -0.0233370  -0.0000666
    3  -0.0001787  -0.0001591   0.0150734   0.0003918   0.0000287   0.0169212
    4  -0.1626663  -0.0176001   0.0002092  -0.0915704   0.0311333   0.0004157
    5  -0.0435498  -0.1751605  -0.0000416  -0.0334670   0.0401615   0.0001840
    6   0.0002400  -0.0000450  -0.0857254   0.0002828   0.0000080   0.0078254
    7  -0.0398695   0.0177538   0.0002396  -0.1643004  -0.1729365  -0.0001097
    8   0.0509500  -0.0792713  -0.0003788  -0.1521694  -0.4618551  -0.0001794
    9   0.0002932  -0.0002744   0.0168157  -0.0000564  -0.0001283  -0.0921086
   10  -0.0913731   0.0072592   0.0004497   0.0017164  -0.0041567   0.0000104
   11  -0.0177920   0.0295523   0.0000443   0.0050796  -0.0105508  -0.0000512
   12   0.0003262  -0.0000085   0.0231545   0.0000010  -0.0000261   0.0014233
   13   0.4457981  -0.0128706  -0.0012879  -0.1499935   0.0689666   0.0004845
   14  -0.0128706   0.4719298   0.0008509   0.0395603  -0.1870580  -0.0004235
   15  -0.0012879   0.0008509   0.0783573   0.0004369  -0.0005196  -0.0558446
   16  -0.1499935   0.0395603   0.0004369   0.8157221   0.2395153  -0.0017996
   17   0.0689666  -0.1870580  -0.0005196   0.2395153   0.7469201   0.0003192
   18   0.0004845  -0.0004235  -0.0558446  -0.0017996   0.0003192   0.1631823
   19   0.0062493   0.0025224  -0.0000545   0.0000491   0.0016725  -0.0000029
   20  -0.0030926  -0.0006158   0.0000278  -0.0001766  -0.0007809   0.0000015
   21  -0.0000386  -0.0000191  -0.0004528   0.0000009  -0.0000081  -0.0003173
   22   0.0008896  -0.0058790   0.0000189   0.0116910  -0.0163225  -0.0000784
   23   0.0049417  -0.0005257  -0.0000311   0.0125006   0.0154491  -0.0000149
   24   0.0000459  -0.0000025   0.0110654  -0.0000170   0.0000882  -0.0001602
   25  -0.0210108  -0.0151722   0.0000198  -0.3274745  -0.1147494   0.0007551
   26   0.0261973   0.0119791  -0.0000636  -0.1108495  -0.1189489   0.0002309
   27   0.0001154   0.0000810  -0.0024437   0.0007596   0.0002381  -0.0409215
           19          20          21          22          23          24
    1   0.0028456  -0.0006365  -0.0000109  -0.0085170  -0.0038162   0.0000133
    2  -0.0062278   0.0027309   0.0000410   0.0376470  -0.0003856  -0.0001329
    3  -0.0000631   0.0000236  -0.0004743   0.0000873   0.0000238  -0.0024545
    4  -0.0170202   0.0059752   0.0000661  -0.0062580  -0.0067499   0.0000055
    5   0.0059460  -0.0056803  -0.0000324  -0.0103425   0.0038291   0.0000437
    6   0.0001933  -0.0000860   0.0014305   0.0000188  -0.0000016   0.0003158
    7  -0.0011320   0.0005570   0.0000062  -0.1032424   0.0924464   0.0003992
    8  -0.0012512   0.0003975   0.0000052   0.0964246  -0.3439279  -0.0008916
    9  -0.0000051   0.0000005  -0.0003096   0.0004108  -0.0008748  -0.0415089
   10   0.0005751   0.0055656  -0.0000537   0.0016851  -0.0068334  -0.0000122
   11   0.0055390   0.0077781  -0.0002429   0.0029180   0.0035785  -0.0000071
   12  -0.0000976  -0.0002238   0.0068069  -0.0000014   0.0000361   0.0010967
   13   0.0062493  -0.0030926  -0.0000386   0.0008896   0.0049417   0.0000459
   14   0.0025224  -0.0006158  -0.0000191  -0.0058790  -0.0005257  -0.0000025
   15  -0.0000545   0.0000278  -0.0004528   0.0000189  -0.0000311   0.0110654
   16   0.0000491  -0.0001766   0.0000009   0.0116910   0.0125006  -0.0000170
   17   0.0016725  -0.0007809  -0.0000081  -0.0163225   0.0154491   0.0000882
   18  -0.0000029   0.0000015  -0.0003173  -0.0000784  -0.0000149  -0.0001602
   19   0.0067893  -0.0075768   0.0000390   0.0005866  -0.0008524  -0.0000047
   20  -0.0075768  -0.0043364   0.0002523  -0.0002181   0.0004970   0.0000023
   21   0.0000390   0.0002523  -0.0067256  -0.0000032   0.0000049   0.0000218
   22   0.0005866  -0.0002181  -0.0000032   0.1070836  -0.1028194  -0.0004569
   23  -0.0008524   0.0004970   0.0000049  -0.1028194   0.3164171   0.0008822
   24  -0.0000047   0.0000023   0.0000218  -0.0004569   0.0008822   0.0334968
   25   0.0010571  -0.0003972  -0.0000057  -0.0039184   0.0111826   0.0000269
   26   0.0002282   0.0000100  -0.0000008  -0.0014082   0.0050685   0.0000177
   27  -0.0000044   0.0000019   0.0000204   0.0000041  -0.0000246  -0.0018729
           25          26          27
    1   0.0005874  -0.0061415   0.0000216
    2   0.0046691  -0.0002151  -0.0000382
    3   0.0000371  -0.0000047   0.0110393
    4   0.0077256   0.0025635  -0.0000247
    5   0.0060576  -0.0101087  -0.0000391
    6   0.0000234  -0.0000226   0.0003078
    7   0.0156873  -0.0126019  -0.0000731
    8   0.0161414   0.0116149  -0.0000306
    9  -0.0000244   0.0000638  -0.0001697
   10   0.0046683   0.0056319   0.0000041
   11  -0.0041122   0.0005867   0.0000105
   12  -0.0000296  -0.0000217   0.0010945
   13  -0.0210108   0.0261973   0.0001154
   14  -0.0151722   0.0119791   0.0000810
   15   0.0000198  -0.0000636  -0.0024437
   16  -0.3274745  -0.1108495   0.0007596
   17  -0.1147494  -0.1189489   0.0002381
   18   0.0007551   0.0002309  -0.0409215
   19   0.0010571   0.0002282  -0.0000044
   20  -0.0003972   0.0000100   0.0000019
   21  -0.0000057  -0.0000008   0.0000204
   22  -0.0039184  -0.0014082   0.0000041
   23   0.0111826   0.0050685  -0.0000246
   24   0.0000269   0.0000177  -0.0018729
   25   0.3226781   0.0963802  -0.0008027
   26   0.0963802   0.1000135  -0.0001991
   27  -0.0008027  -0.0001991   0.0329457
 Gradient time:  CPU 4257.52 s  wall 3288.42 s
 **********************************************************************
 **                                                                  **
 **                       VIBRATIONAL ANALYSIS                       **
 **                       --------------------                       **
 **                                                                  **
 **        VIBRATIONAL FREQUENCIES (CM**-1) AND NORMAL MODES         **
 **     FORCE CONSTANTS (mDYN/ANGSTROM) AND REDUCED MASSES (AMU)     **
 **                  INFRARED INTENSITIES (KM/MOL)                   **
 **                                                                  **
 **********************************************************************
 

 Mode:                 1                      2                      3
 Frequency:      -113.53                 -65.16                 232.00
 Force Cnst:      0.0596                 0.0206                 0.2168
 Red. Mass:       7.8530                 8.2393                 6.8362
 IR Active:          YES                    YES                    YES
 IR Intens:       27.065                282.636                  3.342
 Raman Active:       YES                    YES                    YES
               X      Y      Z        X      Y      Z        X      Y      Z
 O          0.100 -0.096  0.001    0.011 -0.011 -0.019    0.002 -0.001  0.318
 C         -0.060 -0.135  0.018   -0.007 -0.015 -0.182    0.001 -0.001  0.143
 C          0.115  0.065 -0.015    0.013  0.006  0.155    0.000  0.001 -0.237
 O         -0.134 -0.302  0.044   -0.015 -0.031 -0.426   -0.001  0.000 -0.295
 O         -0.140  0.008  0.001   -0.015  0.001 -0.020    0.001 -0.001  0.319
 C         -0.029  0.129 -0.015   -0.002  0.013  0.154   -0.001  0.001 -0.236
 Li         0.329  0.738 -0.078    0.032  0.080  0.767   -0.003  0.004 -0.063
 H          0.229  0.111 -0.025    0.026  0.011  0.262   -0.001  0.001 -0.532
 H         -0.074  0.247 -0.025   -0.007  0.026  0.262   -0.002  0.002 -0.539
 TransDip  -0.065 -0.144  0.055   -0.013 -0.012 -0.538   -0.001  0.000 -0.059

 Mode:                 4                      5                      6
 Frequency:       301.82                 530.60                 581.05
 Force Cnst:      0.3853                 1.4272                 0.8280
 Red. Mass:       7.1787                 8.6042                 4.1625
 IR Active:          YES                    YES                    YES
 IR Intens:       10.863                  0.805                  0.000
 Raman Active:       YES                    YES                    YES
               X      Y      Z        X      Y      Z        X      Y      Z
 O         -0.087  0.044  0.002    0.036 -0.289 -0.001   -0.001  0.000 -0.190
 C         -0.038  0.018 -0.001   -0.100 -0.227  0.000    0.000  0.000  0.000
 C         -0.090  0.041  0.000    0.207  0.025 -0.001    0.001 -0.001  0.309
 O         -0.035  0.016 -0.003    0.192  0.436  0.001    0.000  0.000  0.000
 O         -0.090  0.035  0.002   -0.239 -0.171  0.000    0.001  0.000  0.189
 C         -0.090  0.038  0.000   -0.121  0.170  0.001   -0.001  0.001 -0.306
 Li         0.885 -0.393  0.001    0.016  0.033 -0.001    0.000  0.000  0.000
 H         -0.093  0.045 -0.001    0.456  0.122 -0.001    0.002 -0.001  0.601
 H         -0.095  0.036 -0.001   -0.221  0.426  0.002   -0.002  0.001 -0.615
 TransDip   0.083 -0.065 -0.010    0.012  0.026  0.001    0.000  0.000  0.000

 Mode:                 7                      8                      9
 Frequency:       756.53                 768.59                 801.21
 Force Cnst:      0.7682                 3.9421                 0.8065
 Red. Mass:       2.2780                11.3265                 2.1323
 IR Active:          YES                    YES                    YES
 IR Intens:     1928.468                  8.253                860.133
 Raman Active:       YES                    YES                    YES
               X      Y      Z        X      Y      Z        X      Y      Z
 O         -0.001 -0.001 -0.058   -0.197 -0.178  0.001    0.000  0.001 -0.087
 C          0.003 -0.001  0.295    0.308 -0.138 -0.008    0.000  0.000  0.238
 C         -0.002  0.001 -0.070   -0.314  0.142  0.004    0.001  0.000  0.087
 O          0.003 -0.001 -0.077    0.489 -0.215  0.000   -0.001  0.000 -0.065
 O          0.000  0.002 -0.057   -0.002  0.265  0.001   -0.001 -0.001 -0.088
 C         -0.002  0.001 -0.082   -0.317  0.138  0.005    0.001  0.000  0.107
 Li         0.000  0.000  0.003   -0.085  0.039  0.000    0.000  0.000  0.003
 H          0.002  0.001  0.638    0.037  0.322 -0.027   -0.003  0.000 -0.618
 H          0.001 -0.003  0.694   -0.210 -0.248 -0.030   -0.002  0.002 -0.723
 TransDip   0.013 -0.007  1.406   -0.076  0.050 -0.012    0.012 -0.007  0.939

 Mode:                10                     11                     12
 Frequency:       857.46                 917.95                 920.45
 Force Cnst:      0.5694                 2.9285                 4.6459
 Red. Mass:       1.3145                 5.8986                 9.3072
 IR Active:          YES                    YES                    YES
 IR Intens:        0.125                 65.999                 17.335
 Raman Active:       YES                    YES                    YES
               X      Y      Z        X      Y      Z        X      Y      Z
 O          0.000  0.000  0.000    0.107  0.347  0.001    0.367  0.013 -0.001
 C          0.000  0.000 -0.004    0.111 -0.052 -0.002    0.116  0.251  0.000
 C          0.000  0.000 -0.124   -0.076  0.060  0.000    0.052 -0.391 -0.001
 O          0.000  0.000  0.001    0.168 -0.076  0.000    0.024  0.035  0.000
 O          0.000  0.000  0.006   -0.173 -0.327  0.000   -0.252  0.257  0.001
 C          0.000  0.000  0.111   -0.076  0.024  0.000   -0.331 -0.225  0.001
 Li         0.000  0.000  0.000   -0.039  0.017  0.000   -0.001  0.003  0.000
 H          0.003 -0.001  0.745   -0.565 -0.098  0.003    0.140 -0.383 -0.002
 H         -0.002  0.001 -0.646   -0.294  0.500  0.001   -0.402 -0.118  0.001
 TransDip   0.000  0.000 -0.011    0.243 -0.093  0.008   -0.048 -0.125  0.000

 Mode:                13                     14                     15
 Frequency:      1018.73                1103.77                1114.34
 Force Cnst:      3.9788                 1.8452                 1.8622
 Red. Mass:       6.5070                 2.5706                 2.5453
 IR Active:          YES                    YES                    YES
 IR Intens:        1.589                109.224                 58.222
 Raman Active:       YES                    YES                    YES
               X      Y      Z        X      Y      Z        X      Y      Z
 O          0.187 -0.190 -0.001   -0.104 -0.094  0.000   -0.142  0.017  0.001
 C          0.046  0.105  0.000    0.128  0.280  0.000    0.014 -0.055  0.000
 C         -0.327  0.199  0.001   -0.003 -0.021  0.000    0.109 -0.143 -0.001
 O          0.015  0.037  0.000   -0.013 -0.046  0.000    0.060 -0.019  0.000
 O         -0.265  0.011  0.001   -0.019 -0.106  0.000   -0.107  0.130  0.001
 C          0.366 -0.107 -0.001    0.033 -0.007  0.000    0.180  0.016 -0.001
 Li         0.001  0.003  0.000   -0.001  0.000  0.000   -0.007  0.003  0.000
 H         -0.493  0.156  0.002    0.516  0.174 -0.002   -0.572 -0.469  0.001
 H          0.454 -0.278 -0.002   -0.239  0.719  0.002    0.022  0.576  0.001
 TransDip  -0.018 -0.036  0.000    0.150  0.299  0.000    0.202 -0.138  0.003

 Mode:                16                     17                     18
 Frequency:      1159.60                1383.14                1613.72
 Force Cnst:      1.5958                 2.1959                 6.5735
 Red. Mass:       2.0142                 1.9482                 4.2844
 IR Active:          YES                    YES                    YES
 IR Intens:      203.759                 28.123                  2.483
 Raman Active:       YES                    YES                    YES
               X      Y      Z        X      Y      Z        X      Y      Z
 O         -0.108  0.102  0.001    0.039  0.071  0.000    0.028  0.047  0.000
 C          0.026 -0.002  0.000   -0.067 -0.151  0.000    0.026 -0.013  0.000
 C          0.117  0.015  0.000   -0.136 -0.027  0.000   -0.211 -0.318  0.000
 O          0.047 -0.022  0.000    0.010  0.022  0.000   -0.013  0.006  0.000
 O         -0.148  0.004  0.001    0.026  0.076  0.000   -0.015 -0.051  0.000
 C          0.066 -0.094  0.000    0.070 -0.125  0.000    0.093  0.367  0.000
 Li        -0.009  0.004  0.000    0.000  0.001  0.000    0.001  0.000  0.000
 H          0.645  0.245 -0.002    0.620  0.294 -0.002    0.577 -0.171 -0.002
 H          0.248 -0.622 -0.002   -0.206  0.638  0.002    0.510 -0.286 -0.002
 TransDip   0.424 -0.170  0.004   -0.067 -0.156  0.000    0.046 -0.021  0.001

 Mode:                19                     20                     21
 Frequency:      1753.15                3194.22                3240.13
 Force Cnst:     22.9883                 6.9419                 6.7713
 Red. Mass:      12.6947                 1.1548                 1.0947
 IR Active:          YES                    YES                    YES
 IR Intens:     1067.755                  8.952                 22.012
 Raman Active:       YES                    YES                    YES
               X      Y      Z        X      Y      Z        X      Y      Z
 O         -0.054  0.015  0.000   -0.002 -0.001  0.000    0.000  0.000  0.000
 C          0.790 -0.348 -0.003   -0.004  0.002  0.000    0.001  0.003  0.000
 C         -0.013  0.044  0.000    0.016 -0.080  0.000    0.025 -0.057  0.000
 O         -0.433  0.191  0.002   -0.001  0.001  0.000    0.000  0.000  0.000
 O         -0.047  0.029  0.000    0.000  0.002  0.000    0.000  0.000  0.000
 C         -0.041 -0.020  0.000    0.069  0.043  0.000   -0.060 -0.020  0.000
 Li        -0.015  0.007  0.000    0.000  0.000  0.000    0.000  0.000  0.000
 H         -0.080  0.061  0.000   -0.261  0.655  0.002   -0.265  0.650  0.002
 H         -0.099  0.016  0.000   -0.653 -0.251  0.002    0.662  0.248 -0.002
 TransDip   0.957 -0.425 -0.005   -0.087  0.040  0.000    0.060  0.138  0.000

 STANDARD THERMODYNAMIC QUANTITIES AT   298.15 K  AND     1.00 ATM

   This Molecule has  2 Imaginary Frequencies
   Zero point vibrational energy:       31.806 kcal/mol

   Atom    1 Element O  Has Mass   15.99491
   Atom    2 Element C  Has Mass   12.00000
   Atom    3 Element C  Has Mass   12.00000
   Atom    4 Element O  Has Mass   15.99491
   Atom    5 Element O  Has Mass   15.99491
   Atom    6 Element C  Has Mass   12.00000
   Atom    7 Element Li Has Mass    7.01600
   Atom    8 Element H  Has Mass    1.00783
   Atom    9 Element H  Has Mass    1.00783
   Molecular Mass:    93.016390 amu
   Principal axes and moments of inertia in amu*Bohr^2:
                             1           2           3
    Eigenvalues --      187.86357   773.40724   961.27076
          X               0.91491     0.40365     0.00321
          Y              -0.40364     0.91491    -0.00193
          Z              -0.00372     0.00047     0.99999
   Rotational Symmetry Number is   1
   The Molecule is an Asymmetric Top
   Translational Enthalpy:        0.889 kcal/mol
   Rotational Enthalpy:           0.889 kcal/mol
   Vibrational Enthalpy:         32.960 kcal/mol
   gas constant (RT):             0.592 kcal/mol
   Translational Entropy:        39.502  cal/mol.K
   Rotational Entropy:           26.437  cal/mol.K
   Vibrational Entropy:           5.736  cal/mol.K

   Total Enthalpy:               35.330 kcal/mol
   Total Entropy:                71.676  cal/mol.K
Archival summary:
1\1\compute-0-23.local\FREQ\ProcedureUnspecified\BasisUnspecified\333(2)\jself\MonFeb514:49:332018MonFeb514:49:332018\0\\#,FREQ,ProcedureUnspecified,BasisUnspecified,\\0,2\O\C,1,1.33925\O,2,1.1987,1,125.422\O,2,1.3393,1,109.122,3,179.976,0\C,4,1.3825,2,107.344,1,0.0231629,0\H,5,1.0745,4,117.831,2,179.992,0\C,5,1.32363,4,108.095,2,-0.00833525,0\H,7,1.07452,5,134.191,4,179.999,0\Li,3,1.95243,2,179.854,1,-14.6595,0\\\@

 Total job time:  3326.07s(wall), 4531.94s(cpu) 
 Mon Feb  5 14:49:33 2018

        *************************************************************
        *                                                           *
        *  Thank you very much for using Q-Chem.  Have a nice day.  *
        *                                                           *
        *************************************************************


