
Running Job 1 of 1 test.qin
qchem test.qin_59880.0 /tmp/qchem59880/ 1
srun -n 1 /global/common/cori/software/qchem/5.1beta/exe/qcprog.exe test.qin_59880.0 /tmp/qchem59880/

Process 0 of 1 is on nid01237 - thread support 0
initial socket setup ...start
initial socket setup ...done 
now start server 0 ... 
Check license passed

                  Welcome to Q-Chem
     A Quantum Leap Into The Future Of Chemistry


 Q-Chem 5.1, Q-Chem, Inc., Pleasanton, CA (2018)

 Yihan Shao,  Zhengting Gan,  E. Epifanovsky,  A. T. B. Gilbert,  M. Wormit,  
 J. Kussmann,  A. W. Lange,  A. Behn,  Jia Deng,  Xintian Feng,  D. Ghosh,  
 M. Goldey,  P. R. Horn,  L. D. Jacobson,  I. Kaliman,  T. Kus,  A. Landau,  
 Jie Liu,  E. I. Proynov,  R. M. Richard,  R. P. Steele,  E. J. Sundstrom,  
 H. L. Woodcock III,  P. M. Zimmerman,  D. Zuev,  B. Albrecht,  E. Alguire,  
 S. A. Baeppler,  D. Barton,  Z. Benda,  Y. A. Bernard,  E. J. Berquist,  
 K. B. Bravaya,  H. Burton,  D. Casanova,  Chun-Min Chang,  Yunqing Chen,  
 A. Chien,  K. D. Closser,  M. P. Coons,  S. Coriani,  S. Dasgupta,  
 A. L. Dempwolff,  M. Diedenhofen,  Hainam Do,  R. G. Edgar,  Po-Tung Fang,  
 S. Faraji,  S. Fatehi,  Qingguo Feng,  K. D. Fenk,  J. Fosso-Tande,  
 Qinghui Ge,  A. Ghysels,  G. Gidofalvi,  J. Gomes,  J. Gonthier,  A. Gunina,  
 M. W. D. Hanson-Heine,  P. H. P. Harbach,  A. W. Hauser,  J. E. Herr,  
 E. G. Hohenstein,  Z. C. Holden,  Kerwin Hui,  T.-C. Jagau,  Hyunjun Ji,  
 B. Kaduk,  K. Khistyaev,  Jaehoon Kim,  P. Klunzinger,  K. Koh,  
 D. Kosenkov,  L. Koulias,  T. Kowalczyk,  C. M. Krauter,  A. Kunitsa,  
 Ka Un Lao,  A. Laurent,  K. V. Lawler,  Joonho Lee,  D. Lefrancois,  
 S. Lehtola,  D. S. Levine,  Yi-Pei Li,  You-Sheng Lin,  Fenglai Liu,  
 E. Livshits,  A. Luenser,  P. Manohar,  E. Mansoor,  S. F. Manzer,  
 Shan-Ping Mao,  Yuezhi Mao,  N. Mardirossian,  A. V. Marenich,  
 T. Markovich,  L. A. Martinez-Martinez,  S. A. Maurer,  N. J. Mayhall,  
 S. C. McKenzie,  J.-M. Mewes,  A. F. Morrison,  J. W. Mullinax,  K. Nanda,  
 T. S. Nguyen-Beck,  R. Olivares-Amaya,  J. A. Parkhill,  T. M. Perrine,  
 F. Plasser,  P. Pokhilko,  S. Prager,  A. Prociuk,  E. Ramos,  D. R. Rehn,  
 F. Rob,  M. Schneider,  N. Sergueev,  S. M. Sharada,  S. Sharma,  
 D. W. Small,  T. Stauch,  T. Stein,  Yu-Chuan Su,  A. J. W. Thom,  
 A. Tkatchenko,  T. Tsuchimochi,  N. M. Tubman,  L. Vogt,  M. L. Vidal,  
 O. Vydrov,  M. A. Watson,  J. Wenzel,  M. de Wergifosse,  T. A. Wesolowski,  
 A. White,  J. Witte,  A. Yamada,  Jun Yang,  K. Yao,  S. Yeganeh,  
 S. R. Yost,  Zhi-Qiang You,  A. Zech,  Igor Ying Zhang,  Xing Zhang,  
 Yan Zhao,  Ying Zhu,  B. R. Brooks,  G. K. L. Chan,  C. J. Cramer,  
 M. S. Gordon,  W. J. Hehre,  A. Klamt,  M. W. Schmidt,  C. D. Sherrill,  
 D. G. Truhlar,  A. Aspuru-Guzik,  R. Baer,  A. T. Bell,  N. A. Besley,  
 Jeng-Da Chai,  R. A. DiStasio Jr.,  A. Dreuw,  B. D. Dunietz,  
 T. R. Furlani,  Chao-Ping Hsu,  Yousung Jung,  Jing Kong,  D. S. Lambrecht,  
 WanZhen Liang,  C. Ochsenfeld,  V. A. Rassolov,  L. V. Slipchenko,  
 J. E. Subotnik,  T. Van Voorhis,  J. M. Herbert,  A. I. Krylov,  
 P. M. W. Gill,  M. Head-Gordon

 Contributors to earlier versions of Q-Chem not listed above: 
 R. D. Adamson,  B. Austin,  J. Baker,  G. J. O. Beran,  K. Brandhorst,  
 S. T. Brown,  E. F. C. Byrd,  A. K. Chakraborty,  C.-L. Cheng,  
 Siu Hung Chien,  D. M. Chipman,  D. L. Crittenden,  H. Dachsel,  
 R. J. Doerksen,  A. D. Dutoi,  L. Fusti-Molnar,  W. A. Goddard III,  
 A. Golubeva-Zadorozhnaya,  S. R. Gwaltney,  G. Hawkins,  A. Heyden,  
 S. Hirata,  G. Kedziora,  F. J. Keil,  C. Kelley,  Jihan Kim,  R. A. King,  
 R. Z. Khaliullin,  P. P. Korambath,  W. Kurlancheek,  A. M. Lee,  M. S. Lee,  
 S. V. Levchenko,  Ching Yeh Lin,  D. Liotard,  R. C. Lochan,  I. Lotan,  
 P. E. Maslen,  N. Nair,  D. P. O'Neill,  D. Neuhauser,  E. Neuscamman,  
 C. M. Oana,  R. Olson,  B. Peters,  R. Peverati,  P. A. Pieniazek,  
 Y. M. Rhee,  J. Ritchie,  M. A. Rohrdanz,  E. Rosta,  N. J. Russ,  
 H. F. Schaefer III,  N. E. Schultz,  N. Shenvi,  A. C. Simmonett,  A. Sodt,  
 D. Stuck,  K. S. Thanthiriwatte,  V. Vanovschi,  Tao Wang,  A. Warshel,  
 C. F. Williams,  Q. Wu,  X. Xu,  W. Zhang

 Please cite Q-Chem as follows:
 Y. Shao et al., Mol. Phys. 113, 184-215 (2015)
 DOI: 10.1080/00268976.2014.952696

 Q-Chem 5.1.0 for Intel X86 EM64T Linux

 Parts of Q-Chem use Armadillo 8.300.2 (Tropical Shenanigans).
 http://arma.sourceforge.net/

 Q-Chem begins on Wed May  2 10:54:20 2018  

Host: cori06
0

     Scratch files written to /tmp/qchem59880//
 Mar1918  _RNUM -1
 Parallel job on  1  processors
Processing $rem in /global/common/cori/software/qchem/5.1beta/config/preferences.
 MEM_TOTAL  2000 
Symmetry turned off for PCM/SM12/SMD calculation

Checking the input file for inconsistencies... 	...done.
[HyperChem begin]
[HyperChem end]
[HyperChem begin]
[HyperChem end]
[HyperChem begin]
[HyperChem end]
[HyperChem begin]
[HyperChem end]
[HyperChem begin]
[HyperChem end]
[HyperChem begin]
[HyperChem end]
[HyperChem begin]
[HyperChem end]
[HyperChem begin]
[HyperChem end]

--------------------------------------------------------------
User input:
--------------------------------------------------------------
$molecule
0 2
C        -1.1122376036   -0.1792247738    0.3471606799
O        -0.4124836171    0.0542770101   -0.9132190195
C         0.8498658337    0.6688513317   -0.7956059486
O         0.9147884506    1.8431292777   -0.2620362158
O         1.7423476248   -0.3280472615   -0.3110849210
C         3.0791007010    0.1145577055   -0.1012831895
C        -2.4084884461   -0.8568010640    0.0489147025
C        -3.6053798170   -0.3777919699    0.3895343406
H        -1.2749439471    0.7725006862    0.8622002539
H        -0.4812963314   -0.8164687327    0.9772745941
H         3.6539624866   -0.7609728717    0.2026663506
H         3.5058931408    0.5235197323   -1.0254998079
H         3.1342999061    0.8757918870    0.6814926606
H        -2.3356445223   -1.8074140558   -0.4756410660
H        -4.5188193852   -0.9185651571    0.1664289529
H        -3.7100899431    0.5690193730    0.9120051543
Li        0.0138554693    3.3723588830   -0.8437475209
$end

$rem
basis = 6-311++G**
gui = 1
sym_ignore = true
method = B3LYP
job_type  Frequency
scf_convergence = 6
solvent_method = PCM
max_scf_cycles = 300
gen_scfman = True
$end

$pcm
heavypoints   194
hpoints   194
radii   uff
theory   cpcm
vdwscale   1.0
$end

$solvent
dielectric   10.125
$end


--------------------------------------------------------------
 ----------------------------------------------------------------
             Standard Nuclear Orientation (Angstroms)
    I     Atom           X                Y                Z
 ----------------------------------------------------------------
    1      C      -1.1122376036    -0.1792247738     0.3471606799
    2      O      -0.4124836171     0.0542770101    -0.9132190195
    3      C       0.8498658337     0.6688513317    -0.7956059486
    4      O       0.9147884506     1.8431292777    -0.2620362158
    5      O       1.7423476248    -0.3280472615    -0.3110849210
    6      C       3.0791007010     0.1145577055    -0.1012831895
    7      C      -2.4084884461    -0.8568010640     0.0489147025
    8      C      -3.6053798170    -0.3777919699     0.3895343406
    9      H      -1.2749439471     0.7725006862     0.8622002539
   10      H      -0.4812963314    -0.8164687327     0.9772745941
   11      H       3.6539624866    -0.7609728717     0.2026663506
   12      H       3.5058931408     0.5235197323    -1.0254998079
   13      H       3.1342999061     0.8757918870     0.6814926606
   14      H      -2.3356445223    -1.8074140558    -0.4756410660
   15      H      -4.5188193852    -0.9185651571     0.1664289529
   16      H      -3.7100899431     0.5690193730     0.9120051543
   17      Li      0.0138554693     3.3723588830    -0.8437475209
 ----------------------------------------------------------------
 Nuclear Repulsion Energy =   394.3308528429 hartrees
 There are       33 alpha and       32 beta electrons
[HyperChem begin]
[HyperChem end]
[HyperChem begin]
;Nuclear Cartesian coordinates in Angstroms
[coordinates]
     -1.112237603600     -0.179224773800      0.347160679900
     -0.412483617100      0.054277010100     -0.913219019500
      0.849865833700      0.668851331700     -0.795605948600
      0.914788450600      1.843129277700     -0.262036215800
      1.742347624800     -0.328047261500     -0.311084921000
      3.079100701000      0.114557705500     -0.101283189500
     -2.408488446100     -0.856801064000      0.048914702500
     -3.605379817000     -0.377791969900      0.389534340600
     -1.274943947100      0.772500686200      0.862200253900
     -0.481296331400     -0.816468732700      0.977274594100
      3.653962486600     -0.760972871700      0.202666350600
      3.505893140800      0.523519732300     -1.025499807900
      3.134299906100      0.875791887000      0.681492660600
     -2.335644522300     -1.807414055800     -0.475641066000
     -4.518819385200     -0.918565157100      0.166428952900
     -3.710089943100      0.569019373000      0.912005154300
      0.013855469300      3.372358883000     -0.843747520900
[HyperChem end]
[HyperChem begin]
[HyperChem end]
 Requested basis set is 6-311++G(d,p)
[HyperChem begin]
[basis]
;
1:
;
Shells = 6
Shell1 =[ S   6   1.00 ]
   1    4.563240E+03    1.966650E-03
   2    6.820240E+02    1.523060E-02
   3    1.549730E+02    7.612690E-02
   4    4.445530E+01    2.608010E-01
   5    1.302900E+01    6.164620E-01
   6    1.827730E+00    2.210060E-01
Shell2 =[ SP  3   1.00 ]
   1    2.096420E+01    1.146600E-01    4.024870E-02
   2    4.803310E+00    9.199990E-01    2.375940E-01
   3    1.459330E+00   -3.030680E-03    8.158540E-01
Shell3 =[ SP  1   1.00 ]
   1    4.834560E-01    1.000000E+00    1.000000E+00
Shell4 =[ SP  1   1.00 ]
   1    1.455850E-01    1.000000E+00    1.000000E+00
Shell5 =[ SP  1   1.00 ]
   1    4.380000E-02    1.000000E+00    1.000000E+00
Shell6 =[ D   1   1.00 ]
   1    6.260000E-01    1.000000E+00
;
2:
;
Shells = 6
Shell1 =[ S   6   1.00 ]
   1    8.588500E+03    1.895150E-03
   2    1.297230E+03    1.438590E-02
   3    2.992960E+02    7.073200E-02
   4    8.737710E+01    2.400010E-01
   5    2.567890E+01    5.947970E-01
   6    3.740040E+00    2.808020E-01
Shell2 =[ SP  3   1.00 ]
   1    4.211750E+01    1.138890E-01    3.651140E-02
   2    9.628370E+00    9.208110E-01    2.371530E-01
   3    2.853320E+00   -3.274470E-03    8.197020E-01
Shell3 =[ SP  1   1.00 ]
   1    9.056610E-01    1.000000E+00    1.000000E+00
Shell4 =[ SP  1   1.00 ]
   1    2.556110E-01    1.000000E+00    1.000000E+00
Shell5 =[ SP  1   1.00 ]
   1    8.450000E-02    1.000000E+00    1.000000E+00
Shell6 =[ D   1   1.00 ]
   1    1.292000E+00    1.000000E+00
;
3:
;
Shells = 6
Shell1 =[ S   6   1.00 ]
   1    4.563240E+03    1.966650E-03
   2    6.820240E+02    1.523060E-02
   3    1.549730E+02    7.612690E-02
   4    4.445530E+01    2.608010E-01
   5    1.302900E+01    6.164620E-01
   6    1.827730E+00    2.210060E-01
Shell2 =[ SP  3   1.00 ]
   1    2.096420E+01    1.146600E-01    4.024870E-02
   2    4.803310E+00    9.199990E-01    2.375940E-01
   3    1.459330E+00   -3.030680E-03    8.158540E-01
Shell3 =[ SP  1   1.00 ]
   1    4.834560E-01    1.000000E+00    1.000000E+00
Shell4 =[ SP  1   1.00 ]
   1    1.455850E-01    1.000000E+00    1.000000E+00
Shell5 =[ SP  1   1.00 ]
   1    4.380000E-02    1.000000E+00    1.000000E+00
Shell6 =[ D   1   1.00 ]
   1    6.260000E-01    1.000000E+00
;
4:
;
Shells = 6
Shell1 =[ S   6   1.00 ]
   1    8.588500E+03    1.895150E-03
   2    1.297230E+03    1.438590E-02
   3    2.992960E+02    7.073200E-02
   4    8.737710E+01    2.400010E-01
   5    2.567890E+01    5.947970E-01
   6    3.740040E+00    2.808020E-01
Shell2 =[ SP  3   1.00 ]
   1    4.211750E+01    1.138890E-01    3.651140E-02
   2    9.628370E+00    9.208110E-01    2.371530E-01
   3    2.853320E+00   -3.274470E-03    8.197020E-01
Shell3 =[ SP  1   1.00 ]
   1    9.056610E-01    1.000000E+00    1.000000E+00
Shell4 =[ SP  1   1.00 ]
   1    2.556110E-01    1.000000E+00    1.000000E+00
Shell5 =[ SP  1   1.00 ]
   1    8.450000E-02    1.000000E+00    1.000000E+00
Shell6 =[ D   1   1.00 ]
   1    1.292000E+00    1.000000E+00
;
5:
;
Shells = 6
Shell1 =[ S   6   1.00 ]
   1    8.588500E+03    1.895150E-03
   2    1.297230E+03    1.438590E-02
   3    2.992960E+02    7.073200E-02
   4    8.737710E+01    2.400010E-01
   5    2.567890E+01    5.947970E-01
   6    3.740040E+00    2.808020E-01
Shell2 =[ SP  3   1.00 ]
   1    4.211750E+01    1.138890E-01    3.651140E-02
   2    9.628370E+00    9.208110E-01    2.371530E-01
   3    2.853320E+00   -3.274470E-03    8.197020E-01
Shell3 =[ SP  1   1.00 ]
   1    9.056610E-01    1.000000E+00    1.000000E+00
Shell4 =[ SP  1   1.00 ]
   1    2.556110E-01    1.000000E+00    1.000000E+00
Shell5 =[ SP  1   1.00 ]
   1    8.450000E-02    1.000000E+00    1.000000E+00
Shell6 =[ D   1   1.00 ]
   1    1.292000E+00    1.000000E+00
;
6:
;
Shells = 6
Shell1 =[ S   6   1.00 ]
   1    4.563240E+03    1.966650E-03
   2    6.820240E+02    1.523060E-02
   3    1.549730E+02    7.612690E-02
   4    4.445530E+01    2.608010E-01
   5    1.302900E+01    6.164620E-01
   6    1.827730E+00    2.210060E-01
Shell2 =[ SP  3   1.00 ]
   1    2.096420E+01    1.146600E-01    4.024870E-02
   2    4.803310E+00    9.199990E-01    2.375940E-01
   3    1.459330E+00   -3.030680E-03    8.158540E-01
Shell3 =[ SP  1   1.00 ]
   1    4.834560E-01    1.000000E+00    1.000000E+00
Shell4 =[ SP  1   1.00 ]
   1    1.455850E-01    1.000000E+00    1.000000E+00
Shell5 =[ SP  1   1.00 ]
   1    4.380000E-02    1.000000E+00    1.000000E+00
Shell6 =[ D   1   1.00 ]
   1    6.260000E-01    1.000000E+00
;
7:
;
Shells = 6
Shell1 =[ S   6   1.00 ]
   1    4.563240E+03    1.966650E-03
   2    6.820240E+02    1.523060E-02
   3    1.549730E+02    7.612690E-02
   4    4.445530E+01    2.608010E-01
   5    1.302900E+01    6.164620E-01
   6    1.827730E+00    2.210060E-01
Shell2 =[ SP  3   1.00 ]
   1    2.096420E+01    1.146600E-01    4.024870E-02
   2    4.803310E+00    9.199990E-01    2.375940E-01
   3    1.459330E+00   -3.030680E-03    8.158540E-01
Shell3 =[ SP  1   1.00 ]
   1    4.834560E-01    1.000000E+00    1.000000E+00
Shell4 =[ SP  1   1.00 ]
   1    1.455850E-01    1.000000E+00    1.000000E+00
Shell5 =[ SP  1   1.00 ]
   1    4.380000E-02    1.000000E+00    1.000000E+00
Shell6 =[ D   1   1.00 ]
   1    6.260000E-01    1.000000E+00
;
8:
;
Shells = 6
Shell1 =[ S   6   1.00 ]
   1    4.563240E+03    1.966650E-03
   2    6.820240E+02    1.523060E-02
   3    1.549730E+02    7.612690E-02
   4    4.445530E+01    2.608010E-01
   5    1.302900E+01    6.164620E-01
   6    1.827730E+00    2.210060E-01
Shell2 =[ SP  3   1.00 ]
   1    2.096420E+01    1.146600E-01    4.024870E-02
   2    4.803310E+00    9.199990E-01    2.375940E-01
   3    1.459330E+00   -3.030680E-03    8.158540E-01
Shell3 =[ SP  1   1.00 ]
   1    4.834560E-01    1.000000E+00    1.000000E+00
Shell4 =[ SP  1   1.00 ]
   1    1.455850E-01    1.000000E+00    1.000000E+00
Shell5 =[ SP  1   1.00 ]
   1    4.380000E-02    1.000000E+00    1.000000E+00
Shell6 =[ D   1   1.00 ]
   1    6.260000E-01    1.000000E+00
;
9:
;
Shells = 5
Shell1 =[ S   3   1.00 ]
   1    3.386500E+01    2.549380E-02
   2    5.094790E+00    1.903730E-01
   3    1.158790E+00    8.521610E-01
Shell2 =[ S   1   1.00 ]
   1    3.258400E-01    1.000000E+00
Shell3 =[ S   1   1.00 ]
   1    1.027410E-01    1.000000E+00
Shell4 =[ S   1   1.00 ]
   1    3.600000E-02    1.000000E+00
Shell5 =[ P   1   1.00 ]
   1    7.500000E-01    1.000000E+00
;
10:
;
Shells = 5
Shell1 =[ S   3   1.00 ]
   1    3.386500E+01    2.549380E-02
   2    5.094790E+00    1.903730E-01
   3    1.158790E+00    8.521610E-01
Shell2 =[ S   1   1.00 ]
   1    3.258400E-01    1.000000E+00
Shell3 =[ S   1   1.00 ]
   1    1.027410E-01    1.000000E+00
Shell4 =[ S   1   1.00 ]
   1    3.600000E-02    1.000000E+00
Shell5 =[ P   1   1.00 ]
   1    7.500000E-01    1.000000E+00
;
11:
;
Shells = 5
Shell1 =[ S   3   1.00 ]
   1    3.386500E+01    2.549380E-02
   2    5.094790E+00    1.903730E-01
   3    1.158790E+00    8.521610E-01
Shell2 =[ S   1   1.00 ]
   1    3.258400E-01    1.000000E+00
Shell3 =[ S   1   1.00 ]
   1    1.027410E-01    1.000000E+00
Shell4 =[ S   1   1.00 ]
   1    3.600000E-02    1.000000E+00
Shell5 =[ P   1   1.00 ]
   1    7.500000E-01    1.000000E+00
;
12:
;
Shells = 5
Shell1 =[ S   3   1.00 ]
   1    3.386500E+01    2.549380E-02
   2    5.094790E+00    1.903730E-01
   3    1.158790E+00    8.521610E-01
Shell2 =[ S   1   1.00 ]
   1    3.258400E-01    1.000000E+00
Shell3 =[ S   1   1.00 ]
   1    1.027410E-01    1.000000E+00
Shell4 =[ S   1   1.00 ]
   1    3.600000E-02    1.000000E+00
Shell5 =[ P   1   1.00 ]
   1    7.500000E-01    1.000000E+00
;
13:
;
Shells = 5
Shell1 =[ S   3   1.00 ]
   1    3.386500E+01    2.549380E-02
   2    5.094790E+00    1.903730E-01
   3    1.158790E+00    8.521610E-01
Shell2 =[ S   1   1.00 ]
   1    3.258400E-01    1.000000E+00
Shell3 =[ S   1   1.00 ]
   1    1.027410E-01    1.000000E+00
Shell4 =[ S   1   1.00 ]
   1    3.600000E-02    1.000000E+00
Shell5 =[ P   1   1.00 ]
   1    7.500000E-01    1.000000E+00
;
14:
;
Shells = 5
Shell1 =[ S   3   1.00 ]
   1    3.386500E+01    2.549380E-02
   2    5.094790E+00    1.903730E-01
   3    1.158790E+00    8.521610E-01
Shell2 =[ S   1   1.00 ]
   1    3.258400E-01    1.000000E+00
Shell3 =[ S   1   1.00 ]
   1    1.027410E-01    1.000000E+00
Shell4 =[ S   1   1.00 ]
   1    3.600000E-02    1.000000E+00
Shell5 =[ P   1   1.00 ]
   1    7.500000E-01    1.000000E+00
;
15:
;
Shells = 5
Shell1 =[ S   3   1.00 ]
   1    3.386500E+01    2.549380E-02
   2    5.094790E+00    1.903730E-01
   3    1.158790E+00    8.521610E-01
Shell2 =[ S   1   1.00 ]
   1    3.258400E-01    1.000000E+00
Shell3 =[ S   1   1.00 ]
   1    1.027410E-01    1.000000E+00
Shell4 =[ S   1   1.00 ]
   1    3.600000E-02    1.000000E+00
Shell5 =[ P   1   1.00 ]
   1    7.500000E-01    1.000000E+00
;
16:
;
Shells = 5
Shell1 =[ S   3   1.00 ]
   1    3.386500E+01    2.549380E-02
   2    5.094790E+00    1.903730E-01
   3    1.158790E+00    8.521610E-01
Shell2 =[ S   1   1.00 ]
   1    3.258400E-01    1.000000E+00
Shell3 =[ S   1   1.00 ]
   1    1.027410E-01    1.000000E+00
Shell4 =[ S   1   1.00 ]
   1    3.600000E-02    1.000000E+00
Shell5 =[ P   1   1.00 ]
   1    7.500000E-01    1.000000E+00
;
17:
;
Shells = 6
Shell1 =[ S   6   1.00 ]
   1    9.004600E+02    2.287040E-03
   2    1.344330E+02    1.763500E-02
   3    3.043650E+01    8.734340E-02
   4    8.626390E+00    2.809770E-01
   5    2.483320E+00    6.587410E-01
   6    3.031790E-01    1.187120E-01
Shell2 =[ SP  3   1.00 ]
   1    4.868900E+00    9.332930E-02    3.276610E-02
   2    8.569240E-01    9.430450E-01    1.597920E-01
   3    2.432270E-01   -2.798270E-03    8.856670E-01
Shell3 =[ SP  1   1.00 ]
   1    6.350700E-02    1.000000E+00    1.000000E+00
Shell4 =[ SP  1   1.00 ]
   1    2.436830E-02    1.000000E+00    1.000000E+00
Shell5 =[ SP  1   1.00 ]
   1    7.400000E-03    1.000000E+00    1.000000E+00
Shell6 =[ D   1   1.00 ]
   1    2.000000E-01    1.000000E+00
[HyperChem end]
 There are 94 shells and 254 basis functions

 Total QAlloc Memory Limit   2000 MB
 Mega-Array Size       188 MB
 MEM_STATIC part       192 MB
 Discretize the solute cavity surface with Lebedev spheres
	Using 194 Lebedev grid points for each H atom
	Using 194 Lebedev grid points for other atoms
	Atomic van der Waals radii will be scaled by 1.00
 Remove points where switching function is < 1.0e-08
 Keep 1640 surface tesserae and discard 1658 interior tesserae
 Molecular Surface Area = 184.299 Angst**2
 A cutoff of  1.0D-09 yielded   3739 shell pairs
 There are     28076 function pairs (     30060 Cartesian)
 
 -------------------------------------------------------
 OpenMP Integral Computing Module                       
 Release: version 1.0, May 2013, Q-Chem Inc. Pittsburgh 
 -------------------------------------------------------
 Integral Job Info:
 Integral job number is                      11
 Integral operator is                         1
 short-range coefficients                     0
 long-range coefficients              100000000
 Omega coefficients                           0
 if combine SR and LR in K                    0
 Integral screening is                        0
 Integral computing path is                   2
 max size of driver memory is            800000
 size of driver memory is                593474
 size of scratch memory is              2361544
 max col of scratch BK array               1296
 max len of scratch array in speh3          155
 max len of scratch index in speh4           18
 max int batch size is                      520
 min int batch size is                       52
 fixed nKL is                                52
 max L of basis functions is                  2
 order of int derivative is                   0
 number of shells is                         94
 number of basis is                         263
 number of cartesian basis is               263
 number of contracted shell pairs          3739
 number of primitive shell pairs           8870
 maxK2 (contraction) of shell pair           36
 max number of K2 of shell pair               1
 max number of CS2 of shell pair            669
 max number of PS2 of shell pair           1272
 mem total for path MDJ                  554028
 -------------------------------------------------------
 Smallest overlap matrix eigenvalue = 2.17E-05

 Q-Chem warning in module stvman/mkSTV.C, line 295:

 Overlap eigenvalue is smaller than square root of threshold

 Guess from superposition of atomic densities
 Warning:  Energy on first SCF cycle will be non-variational
 SAD guess density has 65.000000 electrons

 -----------------------------------------------------------------------
  General SCF calculation program by
  Eric Jon Sundstrom, Paul Horn, Yuezhi Mao, Dmitri Zuev, Alec White,
  David Stuck, Shaama M.S., Shane Yost, Joonho Lee, David Small,
  Daniel Levine, Susi Lehtola, Hugh Burton, Evgeny Epifanovsky
 -----------------------------------------------------------------------
 Exchange:     0.2000 Hartree-Fock + 0.0800 Slater + 0.7200 B88
 Correlation:  0.1900 VWN1RPA + 0.8100 LYP
 Using SG-1 standard quadrature grid
 using 12 threads for integral computing
 -------------------------------------------------------
 OpenMP Integral computing Module                
 Release: version 1.0, May 2013, Q-Chem Inc. Pittsburgh 
 -------------------------------------------------------
 -------------------------------------------------------
 OpenMP BLAS3 based DFT computing Module                
 Release: version 1.0, May 2013, Q-Chem Inc. Pittsburgh 
 -------------------------------------------------------
 A unrestricted SCF calculation will be
 performed using DIIS
 SCF converges when DIIS error is below 1.0e-06
 ---------------------------------------
  Cycle       Energy         DIIS error
 ---------------------------------------
    1    -429.6899551422      1.78e-02  
    2    -428.4640397993      2.88e-03  
    3    -428.1704060725      4.54e-03  
    4    -428.6780183465      8.34e-04  
    5    -428.6945405262      2.39e-04  
    6    -428.6956597590      1.11e-04  
    7    -428.6959541237      2.48e-05  
    8    -428.6959729458      6.49e-06  
    9    -428.6959747514      4.50e-06  
   10    -428.6959754725      1.11e-06  
   11    -428.6959755094      7.74e-07  Convergence criterion met
 ---------------------------------------
 SCF time:   CPU 194.32s  wall 18.00s 
 SCF   energy in the final basis set =     -428.6959755094
<S^2> =          0.753307043

************** Final PCM Free Energy Summary **************
 G_electrostatic  =      -0.09059983 hartree =     -56.85225418 kcal/mol
 G_cavitation     =       0.00000000 hartree =       0.00000000 kcal/mol
 G_dispersion     =       0.00000000 hartree =       0.00000000 kcal/mol
 G_repulsion      =       0.00000000 hartree =       0.00000000 kcal/mol
 --------------------------------------------------
 Non-electrostatic Free Energy =       0.00000000 hartree =       0.00000000 kcal/mol
 Total                         =      -0.09059983 hartree =     -56.85225418 kcal/mol
 --------------------------------------------------
 SCF Energy (H0 + V/2)                       =    -428.69597551 
 Solute Internal Energy (H0)                 =    -428.60537568 
 Total Free Energy (H0 + V/2 + non-elec)     =    -428.69597551 hartree
                                             = -269010.78481176 kcal/mol
***********************************************************

 
 --------------------------------------------------------------
 
                    Orbital Energies (a.u.)
 --------------------------------------------------------------
 
 Alpha MOs
 -- Occupied --
-19.125 -19.121 -19.069 -10.272 -10.213 -10.202 -10.177 -10.169
 -1.919  -1.072  -1.000  -0.957  -0.790  -0.702  -0.674  -0.566
 -0.558  -0.505  -0.482  -0.463  -0.454  -0.439  -0.423  -0.403
 -0.387  -0.348  -0.344  -0.329  -0.288  -0.279  -0.276  -0.258
 -0.135
 -- Virtual --
 -0.009  -0.007   0.002   0.004   0.006   0.024   0.027   0.028
  0.034   0.035   0.042   0.044   0.050   0.052   0.058   0.065
  0.072   0.083   0.090   0.092   0.100   0.104   0.113   0.124
  0.127   0.133   0.137   0.141   0.147   0.149   0.150   0.155
  0.161   0.162   0.167   0.173   0.176   0.184   0.188   0.195
  0.199   0.207   0.212   0.212   0.222   0.231   0.249   0.258
  0.270   0.279   0.290   0.295   0.303   0.315   0.328   0.333
  0.339   0.349   0.353   0.361   0.372   0.379   0.383   0.399
  0.403   0.420   0.433   0.459   0.476   0.485   0.504   0.515
  0.532   0.537   0.540   0.559   0.570   0.584   0.600   0.617
  0.624   0.639   0.647   0.654   0.658   0.665   0.678   0.692
  0.703   0.715   0.726   0.735   0.746   0.757   0.769   0.801
  0.821   0.830   0.863   0.882   0.925   0.954   1.000   1.030
  1.043   1.051   1.072   1.083   1.105   1.106   1.169   1.194
  1.208   1.239   1.277   1.307   1.325   1.365   1.406   1.440
  1.465   1.476   1.486   1.514   1.536   1.568   1.581   1.594
  1.608   1.615   1.622   1.657   1.658   1.694   1.717   1.727
  1.731   1.751   1.774   1.801   1.818   1.844   1.850   1.903
  1.925   1.938   2.001   2.040   2.058   2.095   2.146   2.173
  2.196   2.208   2.241   2.292   2.314   2.445   2.473   2.500
  2.514   2.515   2.539   2.556   2.582   2.614   2.654   2.695
  2.709   2.728   2.750   2.788   2.809   2.861   2.877   2.901
  2.912   2.933   2.961   2.974   2.991   3.050   3.064   3.108
  3.144   3.172   3.232   3.262   3.345   3.428   3.491   3.502
  3.604   3.732   3.775   3.796   3.824   3.842   3.976   4.019
  4.076   4.124   4.185   4.327   5.074   5.120   5.133   5.225
  5.252   5.375   5.522   5.730   5.863  23.702  23.761  23.881
 23.936  24.263  49.925  49.935  49.992
 
 Beta MOs
 -- Occupied --
-19.122 -19.120 -19.064 -10.261 -10.211 -10.202 -10.177 -10.168
 -1.919  -1.063  -0.995  -0.946  -0.789  -0.697  -0.671  -0.562
 -0.551  -0.500  -0.479  -0.457  -0.444  -0.436  -0.421  -0.402
 -0.379  -0.343  -0.333  -0.316  -0.286  -0.275  -0.264  -0.254
 -- Virtual --
 -0.026  -0.008   0.001   0.004   0.004   0.009   0.025   0.028
  0.029   0.034   0.035   0.042   0.046   0.050   0.053   0.061
  0.066   0.072   0.083   0.092   0.093   0.101   0.107   0.114
  0.124   0.129   0.134   0.137   0.142   0.148   0.149   0.151
  0.156   0.162   0.163   0.167   0.173   0.177   0.185   0.189
  0.196   0.200   0.210   0.212   0.214   0.224   0.235   0.250
  0.260   0.273   0.283   0.294   0.298   0.305   0.318   0.329
  0.337   0.342   0.351   0.354   0.363   0.375   0.380   0.385
  0.402   0.408   0.420   0.438   0.463   0.477   0.486   0.505
  0.518   0.532   0.538   0.540   0.560   0.572   0.585   0.604
  0.618   0.624   0.641   0.650   0.656   0.659   0.666   0.680
  0.694   0.708   0.717   0.727   0.742   0.753   0.759   0.769
  0.808   0.821   0.836   0.864   0.884   0.927   0.960   1.001
  1.034   1.045   1.054   1.077   1.086   1.109   1.110   1.172
  1.202   1.211   1.242   1.280   1.309   1.329   1.368   1.408
  1.440   1.469   1.478   1.495   1.517   1.539   1.571   1.583
  1.597   1.612   1.625   1.628   1.658   1.659   1.701   1.720
  1.729   1.735   1.754   1.778   1.807   1.821   1.853   1.859
  1.908   1.927   1.949   2.002   2.041   2.062   2.097   2.147
  2.174   2.197   2.209   2.242   2.293   2.314   2.445   2.473
  2.501   2.514   2.516   2.540   2.558   2.583   2.614   2.655
  2.710   2.720   2.734   2.752   2.789   2.813   2.864   2.880
  2.908   2.915   2.942   2.969   2.983   2.994   3.053   3.067
  3.116   3.149   3.181   3.240   3.265   3.354   3.441   3.496
  3.504   3.612   3.733   3.775   3.796   3.826   3.843   3.977
  4.020   4.079   4.130   4.190   4.328   5.083   5.121   5.151
  5.230   5.256   5.377   5.525   5.735   5.869  23.714  23.761
 23.883  23.936  24.264  49.928  49.936  49.998
 --------------------------------------------------------------
 
          Ground-State Mulliken Net Atomic Charges

     Atom                 Charge (a.u.)    Spin (a.u.)
  --------------------------------------------------------
      1 C                    -0.467110       0.096694
      2 O                    -0.183188      -0.079214
      3 C                    -0.116657       0.834339
      4 O                    -0.506473       0.145007
      5 O                    -0.269477       0.042562
      6 C                    -0.230561      -0.046718
      7 C                     0.258405      -0.039136
      8 C                    -0.500514       0.033848
      9 H                     0.104157       0.008236
     10 H                     0.160299       0.000002
     11 H                     0.148331      -0.005401
     12 H                     0.131839       0.026466
     13 H                     0.142185       0.006780
     14 H                     0.198916       0.000054
     15 H                     0.156216      -0.001061
     16 H                     0.135268      -0.001975
     17 Li                    0.838361      -0.020483
  --------------------------------------------------------
  Sum of atomic charges =    -0.000000
  Sum of spin   charges =     1.000000

 -----------------------------------------------------------------
                    Cartesian Multipole Moments
 -----------------------------------------------------------------
    Charge (ESU x 10^10)
                -0.0000
    Dipole Moment (Debye)
         X      -2.4826      Y       9.7890      Z       0.1211
       Tot      10.0996
    Quadrupole Moments (Debye-Ang)
        XX     -49.2424     XY      -4.1813     YY     -12.0161
        XZ       0.5769     YZ     -10.3707     ZZ     -54.0820
    Octopole Moments (Debye-Ang^2)
       XXX      20.6431    XXY     -13.9554    XYY     -10.4684
       YYY     125.7121    XXZ      13.3379    XYZ      -3.5042
       YYZ     -32.6394    XZZ       7.5706    YZZ       2.7454
       ZZZ      30.5939
    Hexadecapole Moments (Debye-Ang^3)
      XXXX   -1379.1739   XXXY    -108.6626   XXYY    -307.4402
      XYYY    -137.2509   YYYY     248.9169   XXXZ      65.0901
      XXYZ      22.6398   XYYZ      32.1011   YYYZ    -116.2200
      XXZZ    -294.5444   XYZZ     -43.5906   YYZZ     -42.8425
      XZZZ      73.8820   YZZZ      19.7491   ZZZZ    -169.0901
 -----------------------------------------------------------------
[HyperChem begin]
;Total dipole moment in Debye
[dipole-moment]
     10.099617007852
;Dipole moment components in Debye
[dipole-moment-components]
     -2.482638544237      9.788978207222      0.121141332756
[HyperChem end]
[HyperChem begin]
[HyperChem end]
[HyperChem begin]
[HyperChem end]
[HyperChem begin]
[HyperChem end]
 Calculating MO derivatives via CPSCF
 Computing fast CPCM-SWIG hessian.
 D1JvT checksum  = 1688712 48651.756820063
 D1KAT checksum  = 3918024 4169.178867535
   1         3          51      0.256887    0.045128
   2         3          51      0.031036    0.006283
   3         3          51      0.003802    0.000937
   4        17          37      0.000535    0.000137
   5        48           6      0.000041    0.000014
   6        51           3      0.000005    0.000002
   7        54           0      0.000000    0.000000    Roots Converged
 Time for AOints: 142.1 s (CPU) 13.7 s (wall)
 ------------------------------------------------------------------------------
                     AOints        : Timing summary (seconds)
 ------------------------------------------------------------------------------
     job step          cpu (% of tot)      sys (% of tot)     wall (% of tot)
 ------------------------------------------------------------------------------
  cpscf_lag         0.6257E+03 (36.8)   0.2500E-03 (26.6)   0.2163E+03 (63.5)
  iterzp            0.9318E+03 (54.8)   0.6150E-03 (65.5)   0.1101E+03 (32.3)
  make_fx           0.0000E+00 ( 0.0)   0.0000E+00 ( 0.0)   0.0000E+00 ( 0.0)
  AOints            0.1421E+03 ( 8.4)   0.6700E-04 ( 7.1)   0.1366E+02 ( 4.0)
 ------------------------------------------------------------------------------
   Grand Totals     0.1700E+04          0.9390E-03          0.3405E+03
 ------------------------------------------------------------------------------
 Calculating analytic Hessian of the SCF energy
 Polarizability Matrix (a.u.)
            1           2           3
    1-152.3288250  -3.3533504  14.1228579
    2  -3.3533504-103.4439839  -2.9094954
    3  14.1228579  -2.9094954-103.2378637
 
 Direct stationary perturbation theory relativistic correction:
 
 rels  =       0.133843885660
 relv  =      -0.631315996351
 rel2e =       0.272879826401
 E_rel =      -0.224592284291
 
 Computing fast CPCM-SWIG hessian
 Hessian of the SCF Energy
            1           2           3           4           5           6
    1   0.4668020  -0.0405953   0.0877498  -0.0484311  -0.0035549  -0.0082046
    2  -0.0405953   0.5451540   0.0473404  -0.0047872  -0.0488469  -0.0116837
    3   0.0877498   0.0473404   0.3901606   0.0090423  -0.0055803  -0.1233927
    4  -0.0484311  -0.0047872   0.0090423   0.2650161   0.0786699   0.0024137
    5  -0.0035549  -0.0488469  -0.0055803   0.0786699   0.1249936   0.0190389
    6  -0.0082046  -0.0116837  -0.1233927   0.0024137   0.0190389   0.2346053
    7  -0.0485619  -0.0179969   0.0406923  -0.1015236  -0.0305675   0.0083618
    8  -0.0182013  -0.0085245   0.0197028  -0.0186272  -0.0516892  -0.0057196
    9   0.0388894   0.0204874  -0.0006235  -0.0340044  -0.0177940  -0.0599034
   10   0.0057954   0.0015254  -0.0083351  -0.0127616  -0.0479722  -0.0198017
   11   0.0005644  -0.0001323  -0.0050687  -0.0455861  -0.0473299  -0.0204757
   12  -0.0040217  -0.0032852   0.0021822  -0.0112142  -0.0143912   0.0045987
   13   0.0020584   0.0015464  -0.0077088  -0.0669611   0.0161697  -0.0226219
   14   0.0026678   0.0031758  -0.0031435  -0.0054645   0.0110006   0.0004009
   15  -0.0019216  -0.0019788   0.0015706  -0.0093988   0.0003895  -0.0002612
   16   0.0019004   0.0012579  -0.0012774   0.0026231   0.0017691  -0.0006609
   17   0.0001186   0.0000607   0.0008313   0.0083868   0.0006788   0.0025540
   18   0.0002825   0.0003769  -0.0005995  -0.0011729   0.0008161   0.0031086
   19  -0.1705628  -0.0562040  -0.0401693  -0.0301493  -0.0144173   0.0159500
   20  -0.0535180  -0.1139837  -0.0263389  -0.0080429  -0.0013837   0.0033503
   21  -0.0367594  -0.0274381  -0.0758660   0.0352177   0.0179380   0.0037876
   22  -0.0339739   0.0086299   0.0086197  -0.0003218  -0.0000430  -0.0047336
   23  -0.0093009   0.0113362   0.0005557  -0.0048516  -0.0010839   0.0024962
   24  -0.0049715   0.0014362   0.0064853  -0.0006469  -0.0005799   0.0001044
   25  -0.0517708   0.0348199   0.0122052  -0.0067019   0.0098794   0.0160469
   26   0.0325352  -0.2478483  -0.0984765   0.0003550   0.0104510   0.0001476
   27   0.0115284  -0.0947219  -0.0909204   0.0154427  -0.0212262  -0.0279379
   28  -0.1262946   0.0913301  -0.0895268   0.0063488  -0.0109202   0.0156511
   29   0.0889642  -0.1325245   0.0768679  -0.0031825  -0.0016529   0.0096175
   30  -0.0867693   0.0780101  -0.1091237  -0.0013622   0.0220981  -0.0349769
   31   0.0003287   0.0000305  -0.0005013  -0.0031931   0.0003928  -0.0008389
   32   0.0000765   0.0000229  -0.0000827  -0.0001361   0.0002158  -0.0000491
   33  -0.0000436   0.0000107  -0.0001351  -0.0007467   0.0002225   0.0000620
   34   0.0002349  -0.0000383  -0.0002659  -0.0010155   0.0001619  -0.0009545
   35  -0.0001021  -0.0001863   0.0000294  -0.0007244  -0.0001313  -0.0000278
   36   0.0002136   0.0002469  -0.0001359   0.0010984   0.0001481  -0.0005056
   37  -0.0000814  -0.0000141  -0.0002452  -0.0008684   0.0004873   0.0004891
   38   0.0000021   0.0000408  -0.0001713  -0.0009822   0.0001816  -0.0004014
   39   0.0000229   0.0000054  -0.0000427  -0.0006774   0.0003407  -0.0002665
   40   0.0025609  -0.0244617  -0.0127333   0.0019650   0.0015062  -0.0006688
   41   0.0021989  -0.0099725  -0.0067527   0.0005506   0.0004880   0.0004163
   42   0.0025226  -0.0060908  -0.0025697  -0.0017663  -0.0004750   0.0021210
   43  -0.0007440   0.0029712   0.0020789  -0.0018823  -0.0006359   0.0002051
   44  -0.0002125   0.0022995  -0.0060982   0.0015462   0.0006326   0.0004277
   45   0.0036254  -0.0058057   0.0102794  -0.0028602  -0.0008489  -0.0003659
   46   0.0015564   0.0017625   0.0002473   0.0001316  -0.0003008  -0.0002735
   47  -0.0012359  -0.0011504   0.0042060  -0.0000676  -0.0000608  -0.0005253
   48  -0.0023289   0.0039369  -0.0061970   0.0015726   0.0003167  -0.0000725
   49  -0.0008167   0.0002237   0.0001276  -0.0022747  -0.0006246  -0.0003593
   50  -0.0004068   0.0010793   0.0021794   0.0029437   0.0035365   0.0004332
   51   0.0001860  -0.0008465  -0.0010720  -0.0009375  -0.0004131  -0.0007051
            7           8           9          10          11          12
    1  -0.0485619  -0.0182013   0.0388894   0.0057954   0.0005644  -0.0040217
    2  -0.0179969  -0.0085245   0.0204874   0.0015254  -0.0001323  -0.0032852
    3   0.0406923   0.0197028  -0.0006235  -0.0083351  -0.0050687   0.0021822
    4  -0.1015236  -0.0186272  -0.0340044  -0.0127616  -0.0455861  -0.0112142
    5  -0.0305675  -0.0516892  -0.0177940  -0.0479722  -0.0473299  -0.0143912
    6   0.0083618  -0.0057196  -0.0599034  -0.0198017  -0.0204757   0.0045987
    7   0.3144311   0.0141068   0.0236927  -0.0651881  -0.0051322  -0.0099404
    8   0.0141068   0.4593707   0.1066002  -0.0065992  -0.2958206  -0.1493105
    9   0.0236927   0.1066002   0.2741519  -0.0066998  -0.1393687  -0.1343719
   10  -0.0651881  -0.0065992  -0.0066998   0.0608552   0.0107884   0.0221334
   11  -0.0051322  -0.2958206  -0.1393687   0.0107884   0.4226728   0.1452105
   12  -0.0099404  -0.1493105  -0.1343719   0.0221334   0.1452105   0.0796589
   13  -0.0719851   0.0248215  -0.0227693  -0.0014873   0.0375365   0.0039267
   14   0.0130977  -0.0985741   0.0276073   0.0282752  -0.0720113   0.0036169
   15  -0.0381619   0.0399105  -0.0631491   0.0100428  -0.0007622   0.0246162
   16  -0.0426740   0.0106390  -0.0057084   0.0037806  -0.0134212  -0.0031537
   17   0.0180301   0.0139081   0.0013870   0.0031108  -0.0049452  -0.0007277
   18  -0.0144132  -0.0003411  -0.0117412  -0.0013547  -0.0003669   0.0014138
   19   0.0013214   0.0013072  -0.0056850  -0.0002619   0.0044703   0.0027485
   20   0.0000875  -0.0011716  -0.0010445  -0.0003207   0.0011248   0.0014536
   21   0.0005967  -0.0016040  -0.0095824  -0.0008412   0.0025623   0.0029055
   22  -0.0000201   0.0013365   0.0061435   0.0005484  -0.0037052  -0.0026312
   23   0.0009320   0.0008188  -0.0005647  -0.0003498   0.0004686   0.0003604
   24  -0.0000476   0.0000873   0.0005541   0.0000038   0.0000492  -0.0000572
   25   0.0027147   0.0030993   0.0013546   0.0018124  -0.0007678  -0.0014486
   26  -0.0009060  -0.0008053  -0.0009521   0.0017010   0.0015045   0.0014301
   27  -0.0052479  -0.0040971  -0.0010836  -0.0003920   0.0029713   0.0021140
   28   0.0019922  -0.0002817  -0.0004471   0.0000178   0.0007980   0.0000167
   29   0.0030302   0.0002080   0.0018638  -0.0006772  -0.0007158  -0.0004820
   30  -0.0070413  -0.0018865  -0.0004356   0.0011123   0.0013731   0.0003824
   31   0.0002928  -0.0066702   0.0019298  -0.0000577   0.0019943   0.0001524
   32  -0.0015443  -0.0015805  -0.0007870   0.0017588   0.0003721   0.0008908
   33   0.0000813  -0.0021123   0.0007254   0.0003239   0.0007151   0.0005437
   34   0.0044511  -0.0051386   0.0035347  -0.0003349   0.0015284  -0.0000402
   35   0.0019907  -0.0009536  -0.0015056  -0.0009396   0.0015992   0.0007681
   36  -0.0003666   0.0007230   0.0046247   0.0003819  -0.0028012  -0.0018885
   37   0.0039342  -0.0049129  -0.0000697   0.0026184   0.0005454   0.0022669
   38   0.0027947  -0.0037491   0.0014751  -0.0009867   0.0043682   0.0006904
   39   0.0017439  -0.0043924   0.0006329   0.0018513   0.0018428   0.0018161
   40   0.0001011  -0.0000898  -0.0002761  -0.0003309   0.0001078   0.0004183
   41  -0.0003520  -0.0001271   0.0006344  -0.0002451  -0.0005154  -0.0001256
   42   0.0001247  -0.0001513  -0.0000978  -0.0002134   0.0000946   0.0000455
   43   0.0002618   0.0003366   0.0007132  -0.0002708  -0.0005016  -0.0002292
   44  -0.0001110  -0.0002053  -0.0007724  -0.0001793   0.0002056   0.0002651
   45  -0.0000834   0.0001932   0.0011019   0.0000390  -0.0003857  -0.0003964
   46  -0.0000842   0.0000822   0.0000438   0.0000707   0.0000122  -0.0000713
   47  -0.0000730  -0.0000040   0.0001026   0.0005302   0.0001496  -0.0000880
   48   0.0001639  -0.0001987  -0.0006052   0.0001250   0.0002248   0.0001251
   49   0.0005365   0.0047918  -0.0006420   0.0051943   0.0107685   0.0010876
   50   0.0026132  -0.0111008   0.0026313   0.0105801  -0.0109949   0.0137245
   51  -0.0001551   0.0025964  -0.0001973   0.0016245   0.0141854   0.0163117
           13          14          15          16          17          18
    1   0.0020584   0.0026678  -0.0019216   0.0019004   0.0001186   0.0002825
    2   0.0015464   0.0031758  -0.0019788   0.0012579   0.0000607   0.0003769
    3  -0.0077088  -0.0031435   0.0015706  -0.0012774   0.0008313  -0.0005995
    4  -0.0669611  -0.0054645  -0.0093988   0.0026231   0.0083868  -0.0011729
    5   0.0161697   0.0110006   0.0003895   0.0017691   0.0006788   0.0008161
    6  -0.0226219   0.0004009  -0.0002612  -0.0006609   0.0025540   0.0031086
    7  -0.0719851   0.0130977  -0.0381619  -0.0426740   0.0180301  -0.0144132
    8   0.0248215  -0.0985741   0.0399105   0.0106390   0.0139081  -0.0003411
    9  -0.0227693   0.0276073  -0.0631491  -0.0057084   0.0013870  -0.0117412
   10  -0.0014873   0.0282752   0.0100428   0.0037806   0.0031108  -0.0013547
   11   0.0375365  -0.0720113  -0.0007622  -0.0134212  -0.0049452  -0.0003669
   12   0.0039267   0.0036169   0.0246162  -0.0031537  -0.0007277   0.0014138
   13   0.3955596   0.0133492   0.0771381  -0.1780301  -0.0568850  -0.0173205
   14   0.0133492   0.2438024  -0.0276515  -0.0330703  -0.0916307   0.0011648
   15   0.0771381  -0.0276515   0.0744363  -0.0199420  -0.0016005  -0.0472992
   16  -0.1780301  -0.0330703  -0.0199420   0.4209178  -0.0532541  -0.0062742
   17  -0.0568850  -0.0916307  -0.0016005  -0.0532541   0.5439796  -0.0114086
   18  -0.0173205   0.0011648  -0.0472992  -0.0062742  -0.0114086   0.5230292
   19   0.0028387  -0.0031391   0.0030791  -0.0015448  -0.0005875  -0.0004152
   20   0.0009185  -0.0000536  -0.0000534  -0.0005175  -0.0000610  -0.0001831
   21   0.0012951  -0.0006634   0.0016313  -0.0004527  -0.0003901   0.0003431
   22  -0.0017995   0.0014771  -0.0019088   0.0010099   0.0003492   0.0002614
   23  -0.0000389  -0.0005017   0.0004712  -0.0000562   0.0000499  -0.0000518
   24   0.0001037  -0.0000042   0.0000091   0.0000230   0.0000259  -0.0000275
   25  -0.0009559  -0.0000965  -0.0002589   0.0001573   0.0001727  -0.0000053
   26   0.0005522  -0.0001093  -0.0001713   0.0000335  -0.0000423  -0.0000444
   27   0.0012796  -0.0000674   0.0004211  -0.0001307  -0.0002318   0.0001050
   28   0.0020830  -0.0003338   0.0000392   0.0002864   0.0001624  -0.0003715
   29  -0.0010375   0.0012646  -0.0010950  -0.0002085  -0.0000225  -0.0002119
   30   0.0006511  -0.0011119   0.0017565   0.0002351  -0.0003468   0.0003209
   31  -0.0331819   0.0270414  -0.0144222  -0.1011643   0.1072530  -0.0345859
   32  -0.0086830   0.0120805  -0.0043135   0.1150217  -0.2241291   0.0622241
   33  -0.0059961   0.0036225  -0.0028206  -0.0366404   0.0607097  -0.0615797
   34  -0.0327207  -0.0160880   0.0237162  -0.0675478  -0.0281340   0.0731317
   35  -0.0123095  -0.0041067   0.0073802  -0.0297325  -0.0742156   0.0777228
   36   0.0023016  -0.0003582   0.0100710   0.0748257   0.0775654  -0.2295541
   37  -0.0161361  -0.0267791  -0.0285897  -0.0382457   0.0025042   0.0022452
   38  -0.0127062  -0.0068058  -0.0086834  -0.0005929  -0.1645662  -0.1296703
   39  -0.0105606  -0.0025283  -0.0011927  -0.0002341  -0.1280785  -0.1770718
   40   0.0000304   0.0000717  -0.0000072  -0.0000246  -0.0000035  -0.0000118
   41  -0.0006973   0.0000936  -0.0001763   0.0000646   0.0000137   0.0000081
   42  -0.0004212  -0.0000978   0.0000212  -0.0000184   0.0000081  -0.0000273
   43  -0.0004617   0.0000658  -0.0001126   0.0000733   0.0000498  -0.0000065
   44  -0.0000523  -0.0001004   0.0001986  -0.0000549  -0.0000454   0.0000139
   45  -0.0001168   0.0001582  -0.0002809   0.0000310   0.0000491  -0.0000428
   46   0.0000353  -0.0000095  -0.0000173  -0.0000417  -0.0000192   0.0000002
   47   0.0002849  -0.0000712  -0.0000819   0.0000032  -0.0000071  -0.0000148
   48   0.0001528  -0.0000898   0.0000719   0.0000013  -0.0000228   0.0000226
   49   0.0011142  -0.0010653   0.0007256  -0.0014758  -0.0012543   0.0000109
   50  -0.0027691   0.0025473  -0.0017823   0.0021190   0.0009742  -0.0000337
   51   0.0006667  -0.0008544   0.0003984  -0.0006232  -0.0003237  -0.0004003
           19          20          21          22          23          24
    1  -0.1705628  -0.0535180  -0.0367594  -0.0339739  -0.0093009  -0.0049715
    2  -0.0562040  -0.1139837  -0.0274381   0.0086299   0.0113362   0.0014362
    3  -0.0401693  -0.0263389  -0.0758660   0.0086197   0.0005557   0.0064853
    4  -0.0301493  -0.0080429   0.0352177  -0.0003218  -0.0048516  -0.0006469
    5  -0.0144173  -0.0013837   0.0179380  -0.0000430  -0.0010839  -0.0005799
    6   0.0159500   0.0033503   0.0037876  -0.0047336   0.0024962   0.0001044
    7   0.0013214   0.0000875   0.0005967  -0.0000201   0.0009320  -0.0000476
    8   0.0013072  -0.0011716  -0.0016040   0.0013365   0.0008188   0.0000873
    9  -0.0056850  -0.0010445  -0.0095824   0.0061435  -0.0005647   0.0005541
   10  -0.0002619  -0.0003207  -0.0008412   0.0005484  -0.0003498   0.0000038
   11   0.0044703   0.0011248   0.0025623  -0.0037052   0.0004686   0.0000492
   12   0.0027485   0.0014536   0.0029055  -0.0026312   0.0003604  -0.0000572
   13   0.0028387   0.0009185   0.0012951  -0.0017995  -0.0000389   0.0001037
   14  -0.0031391  -0.0000536  -0.0006634   0.0014771  -0.0005017  -0.0000042
   15   0.0030791  -0.0000534   0.0016313  -0.0019088   0.0004712   0.0000091
   16  -0.0015448  -0.0005175  -0.0004527   0.0010099  -0.0000562   0.0000230
   17  -0.0005875  -0.0000610  -0.0003901   0.0003492   0.0000499   0.0000259
   18  -0.0004152  -0.0001831   0.0003431   0.0002614  -0.0000518  -0.0000275
   19   0.7329672  -0.0920768  -0.0928919  -0.4478449   0.1382308   0.1061102
   20  -0.0920768   0.5192001   0.2226761   0.1408827  -0.1468253  -0.0698983
   21  -0.0928919   0.2226761   0.2556077   0.1068287  -0.0694640  -0.0814475
   22  -0.4478449   0.1408827   0.1068287   0.7895700  -0.0459286  -0.0758734
   23   0.1382308  -0.1468253  -0.0694640  -0.0459286   0.5251049   0.2384560
   24   0.1061102  -0.0698983  -0.0814475  -0.0758734   0.2384560   0.2259031
   25   0.0030774  -0.0266324  -0.0134889   0.0016627  -0.0006993  -0.0005659
   26   0.0028218  -0.0138909  -0.0064324   0.0010645   0.0011337   0.0005748
   27  -0.0002956  -0.0073410  -0.0023554   0.0010565   0.0007547  -0.0002850
   28  -0.0204187   0.0171218  -0.0139033  -0.0015588  -0.0031474  -0.0017079
   29  -0.0088269   0.0106565  -0.0092912  -0.0013614  -0.0005684   0.0000133
   30  -0.0042555   0.0034687  -0.0012326  -0.0008130  -0.0005826  -0.0002979
   31   0.0000404   0.0000442   0.0001511  -0.0001300  -0.0000421  -0.0000143
   32  -0.0000056  -0.0000219  -0.0000029   0.0000884  -0.0000108  -0.0000069
   33   0.0000028   0.0000183   0.0000570  -0.0000574  -0.0000096  -0.0000101
   34   0.0001337   0.0001243  -0.0000362  -0.0001413  -0.0000251   0.0000016
   35   0.0001971   0.0000675   0.0000981  -0.0001841  -0.0000050  -0.0000076
   36  -0.0002240  -0.0000529  -0.0001950   0.0002528  -0.0000055   0.0000039
   37   0.0000909   0.0000416   0.0001211  -0.0000926  -0.0000134  -0.0000117
   38   0.0000766   0.0000196   0.0000321  -0.0001141  -0.0000127  -0.0000020
   39  -0.0000129   0.0000226  -0.0000099  -0.0000672  -0.0000163  -0.0000045
   40  -0.0499724   0.0119371   0.0065599  -0.0002134   0.0268171   0.0148471
   41   0.0166099  -0.2550017  -0.1219015  -0.0009824  -0.0068517  -0.0069560
   42   0.0084098  -0.1202788  -0.0995397  -0.0003195  -0.0088250   0.0017751
   43  -0.0201091  -0.0166134  -0.0070195  -0.2489036  -0.1181091  -0.0478978
   44   0.0133192   0.0081689   0.0016892  -0.1224552  -0.1221227  -0.0395719
   45   0.0071408   0.0043231   0.0051681  -0.0496463  -0.0404076  -0.0503927
   46   0.0004792   0.0258733   0.0143332  -0.0577981   0.0162682   0.0105870
   47  -0.0005329  -0.0072109  -0.0075196   0.0201313  -0.2602384  -0.1236190
   48   0.0001537  -0.0098578   0.0007378   0.0131145  -0.1229567  -0.1020773
   49  -0.0000850   0.0006908   0.0002894   0.0000070   0.0003144   0.0000607
   50  -0.0012425   0.0003668  -0.0002886   0.0008144  -0.0006917   0.0000033
   51   0.0003545  -0.0002640  -0.0000096  -0.0002267  -0.0002105  -0.0002353
           25          26          27          28          29          30
    1  -0.0517708   0.0325352   0.0115284  -0.1262946   0.0889642  -0.0867693
    2   0.0348199  -0.2478483  -0.0947219   0.0913301  -0.1325245   0.0780101
    3   0.0122052  -0.0984765  -0.0909204  -0.0895268   0.0768679  -0.1091237
    4  -0.0067019   0.0003550   0.0154427   0.0063488  -0.0031825  -0.0013622
    5   0.0098794   0.0104510  -0.0212262  -0.0109202  -0.0016529   0.0220981
    6   0.0160469   0.0001476  -0.0279379   0.0156511   0.0096175  -0.0349769
    7   0.0027147  -0.0009060  -0.0052479   0.0019922   0.0030302  -0.0070413
    8   0.0030993  -0.0008053  -0.0040971  -0.0002817   0.0002080  -0.0018865
    9   0.0013546  -0.0009521  -0.0010836  -0.0004471   0.0018638  -0.0004356
   10   0.0018124   0.0017010  -0.0003920   0.0000178  -0.0006772   0.0011123
   11  -0.0007678   0.0015045   0.0029713   0.0007980  -0.0007158   0.0013731
   12  -0.0014486   0.0014301   0.0021140   0.0000167  -0.0004820   0.0003824
   13  -0.0009559   0.0005522   0.0012796   0.0020830  -0.0010375   0.0006511
   14  -0.0000965  -0.0001093  -0.0000674  -0.0003338   0.0012646  -0.0011119
   15  -0.0002589  -0.0001713   0.0004211   0.0000392  -0.0010950   0.0017565
   16   0.0001573   0.0000335  -0.0001307   0.0002864  -0.0002085   0.0002351
   17   0.0001727  -0.0000423  -0.0002318   0.0001624  -0.0000225  -0.0003468
   18  -0.0000053  -0.0000444   0.0001050  -0.0003715  -0.0002119   0.0003209
   19   0.0030774   0.0028218  -0.0002956  -0.0204187  -0.0088269  -0.0042555
   20  -0.0266324  -0.0138909  -0.0073410   0.0171218   0.0106565   0.0034687
   21  -0.0134889  -0.0064324  -0.0023554  -0.0139033  -0.0092912  -0.0012326
   22   0.0016627   0.0010645   0.0010565  -0.0015588  -0.0013614  -0.0008130
   23  -0.0006993   0.0011337   0.0007547  -0.0031474  -0.0005684  -0.0005826
   24  -0.0005659   0.0005748  -0.0002850  -0.0017079   0.0000133  -0.0002979
   25   0.0545356  -0.0363724  -0.0203733  -0.0011653   0.0172894   0.0074261
   26  -0.0363724   0.2655735   0.1107376   0.0015930  -0.0149235  -0.0077923
   27  -0.0203733   0.1107376   0.1085503  -0.0024155   0.0144046   0.0093622
   28  -0.0011653   0.0015930  -0.0024155   0.1380350  -0.0946070   0.0906477
   29   0.0172894  -0.0149235   0.0144046  -0.0946070   0.1370547  -0.0928148
   30   0.0074261  -0.0077923   0.0093622   0.0906477  -0.0928148   0.1333404
   31  -0.0000298  -0.0000255   0.0000739  -0.0000151   0.0000172   0.0000682
   32  -0.0000194   0.0000054   0.0000168   0.0000078  -0.0000327   0.0000529
   33  -0.0000190  -0.0000006   0.0000254   0.0000256   0.0000034  -0.0000005
   34  -0.0000603   0.0000191   0.0000374   0.0000740   0.0000943  -0.0001229
   35  -0.0000396   0.0000048   0.0000398   0.0000105   0.0000232  -0.0000194
   36   0.0000441   0.0000110  -0.0000476   0.0000107   0.0000195  -0.0000406
   37  -0.0000443  -0.0000053   0.0000740   0.0000201  -0.0000236   0.0000003
   38  -0.0000283   0.0000154   0.0000426   0.0000218   0.0000013  -0.0000158
   39  -0.0000174   0.0000042   0.0000198   0.0000274   0.0000216  -0.0000492
   40  -0.0042026  -0.0023852  -0.0006267   0.0011253   0.0010274   0.0003450
   41  -0.0023131   0.0001954  -0.0009955  -0.0004424   0.0004412   0.0001793
   42  -0.0011578  -0.0007958   0.0011084   0.0006708   0.0002818   0.0004045
   43   0.0002749  -0.0000047   0.0001021  -0.0006058  -0.0002797  -0.0001809
   44   0.0002362   0.0004831   0.0003130  -0.0008838  -0.0003494   0.0003119
   45   0.0000095  -0.0000101  -0.0001055   0.0020497   0.0010887  -0.0000201
   46   0.0005278  -0.0001662  -0.0001228  -0.0000115  -0.0002014   0.0000575
   47   0.0010051   0.0004043   0.0001160   0.0004466   0.0003364  -0.0000495
   48   0.0004218   0.0004662   0.0003644  -0.0010898  -0.0000814   0.0002075
   49   0.0001679  -0.0008100   0.0000097   0.0000872  -0.0000170   0.0000020
   50   0.0004667  -0.0021517  -0.0007153  -0.0008756   0.0008037  -0.0008745
   51  -0.0001728   0.0013041   0.0006646   0.0003229  -0.0002057   0.0004026
           31          32          33          34          35          36
    1   0.0003287   0.0000765  -0.0000436   0.0002349  -0.0001021   0.0002136
    2   0.0000305   0.0000229   0.0000107  -0.0000383  -0.0001863   0.0002469
    3  -0.0005013  -0.0000827  -0.0001351  -0.0002659   0.0000294  -0.0001359
    4  -0.0031931  -0.0001361  -0.0007467  -0.0010155  -0.0007244   0.0010984
    5   0.0003928   0.0002158   0.0002225   0.0001619  -0.0001313   0.0001481
    6  -0.0008389  -0.0000491   0.0000620  -0.0009545  -0.0000278  -0.0005056
    7   0.0002928  -0.0015443   0.0000813   0.0044511   0.0019907  -0.0003666
    8  -0.0066702  -0.0015805  -0.0021123  -0.0051386  -0.0009536   0.0007230
    9   0.0019298  -0.0007870   0.0007254   0.0035347  -0.0015056   0.0046247
   10  -0.0000577   0.0017588   0.0003239  -0.0003349  -0.0009396   0.0003819
   11   0.0019943   0.0003721   0.0007151   0.0015284   0.0015992  -0.0028012
   12   0.0001524   0.0008908   0.0005437  -0.0000402   0.0007681  -0.0018885
   13  -0.0331819  -0.0086830  -0.0059961  -0.0327207  -0.0123095   0.0023016
   14   0.0270414   0.0120805   0.0036225  -0.0160880  -0.0041067  -0.0003582
   15  -0.0144222  -0.0043135  -0.0028206   0.0237162   0.0073802   0.0100710
   16  -0.1011643   0.1150217  -0.0366404  -0.0675478  -0.0297325   0.0748257
   17   0.1072530  -0.2241291   0.0607097  -0.0281340  -0.0742156   0.0775654
   18  -0.0345859   0.0622241  -0.0615797   0.0731317   0.0777228  -0.2295541
   19   0.0000404  -0.0000056   0.0000028   0.0001337   0.0001971  -0.0002240
   20   0.0000442  -0.0000219   0.0000183   0.0001243   0.0000675  -0.0000529
   21   0.0001511  -0.0000029   0.0000570  -0.0000362   0.0000981  -0.0001950
   22  -0.0001300   0.0000884  -0.0000574  -0.0001413  -0.0001841   0.0002528
   23  -0.0000421  -0.0000108  -0.0000096  -0.0000251  -0.0000050  -0.0000055
   24  -0.0000143  -0.0000069  -0.0000101   0.0000016  -0.0000076   0.0000039
   25  -0.0000298  -0.0000194  -0.0000190  -0.0000603  -0.0000396   0.0000441
   26  -0.0000255   0.0000054  -0.0000006   0.0000191   0.0000048   0.0000110
   27   0.0000739   0.0000168   0.0000254   0.0000374   0.0000398  -0.0000476
   28  -0.0000151   0.0000078   0.0000256   0.0000740   0.0000105   0.0000107
   29   0.0000172  -0.0000327   0.0000034   0.0000943   0.0000232   0.0000195
   30   0.0000682   0.0000529  -0.0000005  -0.0001229  -0.0000194  -0.0000406
   31   0.1276484  -0.1204522   0.0447094   0.0074674  -0.0092290   0.0021653
   32  -0.1204522   0.2352110  -0.0664200   0.0048936  -0.0075385   0.0013766
   33   0.0447094  -0.0664200   0.0611202  -0.0137082   0.0217532  -0.0059782
   34   0.0074674   0.0048936  -0.0137082   0.0872162   0.0422910  -0.0864152
   35  -0.0092290  -0.0075385   0.0217532   0.0422910   0.0772001  -0.0873566
   36   0.0021653   0.0013766  -0.0059782  -0.0864152  -0.0873566   0.2425192
   37   0.0015359   0.0095540   0.0118716   0.0017833   0.0080828   0.0067829
   38   0.0000899  -0.0152992  -0.0182905   0.0007616   0.0088065   0.0094084
   39   0.0009930   0.0072764   0.0078759   0.0010592  -0.0189468  -0.0188845
   40   0.0000056  -0.0000327   0.0000087   0.0000074   0.0000056  -0.0000239
   41   0.0000234  -0.0000036   0.0000030   0.0000030  -0.0000077   0.0000044
   42   0.0000067  -0.0000057   0.0000043   0.0000012  -0.0000011   0.0000031
   43   0.0000018  -0.0000148  -0.0000026  -0.0000044  -0.0000121   0.0000071
   44   0.0000262  -0.0000014   0.0000056   0.0000009   0.0000108  -0.0000217
   45  -0.0000102  -0.0000008  -0.0000043   0.0000174  -0.0000079   0.0000247
   46   0.0000128  -0.0000196   0.0000081   0.0000123   0.0000120  -0.0000214
   47  -0.0000210   0.0000124  -0.0000025   0.0000002   0.0000023   0.0000063
   48  -0.0000053   0.0000075   0.0000043  -0.0000143   0.0000011  -0.0000043
   49   0.0004381  -0.0004932   0.0001826   0.0004446   0.0006832  -0.0010330
   50  -0.0004729   0.0006972  -0.0002284  -0.0004542  -0.0005698   0.0010865
   51   0.0001283  -0.0001765   0.0001103   0.0000579   0.0000800  -0.0000124
           37          38          39          40          41          42
    1  -0.0000814   0.0000021   0.0000229   0.0025609   0.0021989   0.0025226
    2  -0.0000141   0.0000408   0.0000054  -0.0244617  -0.0099725  -0.0060908
    3  -0.0002452  -0.0001713  -0.0000427  -0.0127333  -0.0067527  -0.0025697
    4  -0.0008684  -0.0009822  -0.0006774   0.0019650   0.0005506  -0.0017663
    5   0.0004873   0.0001816   0.0003407   0.0015062   0.0004880  -0.0004750
    6   0.0004891  -0.0004014  -0.0002665  -0.0006688   0.0004163   0.0021210
    7   0.0039342   0.0027947   0.0017439   0.0001011  -0.0003520   0.0001247
    8  -0.0049129  -0.0037491  -0.0043924  -0.0000898  -0.0001271  -0.0001513
    9  -0.0000697   0.0014751   0.0006329  -0.0002761   0.0006344  -0.0000978
   10   0.0026184  -0.0009867   0.0018513  -0.0003309  -0.0002451  -0.0002134
   11   0.0005454   0.0043682   0.0018428   0.0001078  -0.0005154   0.0000946
   12   0.0022669   0.0006904   0.0018161   0.0004183  -0.0001256   0.0000455
   13  -0.0161361  -0.0127062  -0.0105606   0.0000304  -0.0006973  -0.0004212
   14  -0.0267791  -0.0068058  -0.0025283   0.0000717   0.0000936  -0.0000978
   15  -0.0285897  -0.0086834  -0.0011927  -0.0000072  -0.0001763   0.0000212
   16  -0.0382457  -0.0005929  -0.0002341  -0.0000246   0.0000646  -0.0000184
   17   0.0025042  -0.1645662  -0.1280785  -0.0000035   0.0000137   0.0000081
   18   0.0022452  -0.1296703  -0.1770718  -0.0000118   0.0000081  -0.0000273
   19   0.0000909   0.0000766  -0.0000129  -0.0499724   0.0166099   0.0084098
   20   0.0000416   0.0000196   0.0000226   0.0119371  -0.2550017  -0.1202788
   21   0.0001211   0.0000321  -0.0000099   0.0065599  -0.1219015  -0.0995397
   22  -0.0000926  -0.0001141  -0.0000672  -0.0002134  -0.0009824  -0.0003195
   23  -0.0000134  -0.0000127  -0.0000163   0.0268171  -0.0068517  -0.0088250
   24  -0.0000117  -0.0000020  -0.0000045   0.0148471  -0.0069560   0.0017751
   25  -0.0000443  -0.0000283  -0.0000174  -0.0042026  -0.0023131  -0.0011578
   26  -0.0000053   0.0000154   0.0000042  -0.0023852   0.0001954  -0.0007958
   27   0.0000740   0.0000426   0.0000198  -0.0006267  -0.0009955   0.0011084
   28   0.0000201   0.0000218   0.0000274   0.0011253  -0.0004424   0.0006708
   29  -0.0000236   0.0000013   0.0000216   0.0010274   0.0004412   0.0002818
   30   0.0000003  -0.0000158  -0.0000492   0.0003450   0.0001793   0.0004045
   31   0.0015359   0.0000899   0.0009930   0.0000056   0.0000234   0.0000067
   32   0.0095540  -0.0152992   0.0072764  -0.0000327  -0.0000036  -0.0000057
   33   0.0118716  -0.0182905   0.0078759   0.0000087   0.0000030   0.0000043
   34   0.0017833   0.0007616   0.0010592   0.0000074   0.0000030   0.0000012
   35   0.0080828   0.0088065  -0.0189468   0.0000056  -0.0000077  -0.0000011
   36   0.0067829   0.0094084  -0.0188845  -0.0000239   0.0000044   0.0000031
   37   0.0454098   0.0106101   0.0050780  -0.0000024  -0.0000107  -0.0000081
   38   0.0106101   0.1777693   0.1451209   0.0000181   0.0000075   0.0000030
   39   0.0050780   0.1451209   0.1867297   0.0000236   0.0000159   0.0000056
   40  -0.0000024   0.0000181   0.0000236   0.0514626  -0.0159907  -0.0091557
   41  -0.0000107   0.0000075   0.0000159  -0.0159907   0.2678516   0.1366821
   42  -0.0000081   0.0000030   0.0000056  -0.0091557   0.1366821   0.0936981
   43  -0.0000183   0.0000032   0.0000103   0.0013496  -0.0000036  -0.0005805
   44   0.0000110   0.0000082   0.0000044  -0.0000453  -0.0008506   0.0036843
   45  -0.0000115  -0.0000014   0.0000048  -0.0005769   0.0037775  -0.0056878
   46  -0.0000003   0.0000229   0.0000234  -0.0038798   0.0012712   0.0016794
   47   0.0000014   0.0000037  -0.0000005   0.0016083   0.0032452  -0.0046004
   48   0.0000071  -0.0000020  -0.0000039   0.0019015  -0.0046825   0.0087443
   49   0.0000968   0.0010093   0.0007367   0.0000183   0.0003156   0.0002256
   50  -0.0000789  -0.0007892  -0.0006922  -0.0000904   0.0009942   0.0005678
   51  -0.0000003   0.0004656   0.0004408  -0.0000236  -0.0001310  -0.0000086
           43          44          45          46          47          48
    1  -0.0007440  -0.0002125   0.0036254   0.0015564  -0.0012359  -0.0023289
    2   0.0029712   0.0022995  -0.0058057   0.0017625  -0.0011504   0.0039369
    3   0.0020789  -0.0060982   0.0102794   0.0002473   0.0042060  -0.0061970
    4  -0.0018823   0.0015462  -0.0028602   0.0001316  -0.0000676   0.0015726
    5  -0.0006359   0.0006326  -0.0008489  -0.0003008  -0.0000608   0.0003167
    6   0.0002051   0.0004277  -0.0003659  -0.0002735  -0.0005253  -0.0000725
    7   0.0002618  -0.0001110  -0.0000834  -0.0000842  -0.0000730   0.0001639
    8   0.0003366  -0.0002053   0.0001932   0.0000822  -0.0000040  -0.0001987
    9   0.0007132  -0.0007724   0.0011019   0.0000438   0.0001026  -0.0006052
   10  -0.0002708  -0.0001793   0.0000390   0.0000707   0.0005302   0.0001250
   11  -0.0005016   0.0002056  -0.0003857   0.0000122   0.0001496   0.0002248
   12  -0.0002292   0.0002651  -0.0003964  -0.0000713  -0.0000880   0.0001251
   13  -0.0004617  -0.0000523  -0.0001168   0.0000353   0.0002849   0.0001528
   14   0.0000658  -0.0001004   0.0001582  -0.0000095  -0.0000712  -0.0000898
   15  -0.0001126   0.0001986  -0.0002809  -0.0000173  -0.0000819   0.0000719
   16   0.0000733  -0.0000549   0.0000310  -0.0000417   0.0000032   0.0000013
   17   0.0000498  -0.0000454   0.0000491  -0.0000192  -0.0000071  -0.0000228
   18  -0.0000065   0.0000139  -0.0000428   0.0000002  -0.0000148   0.0000226
   19  -0.0201091   0.0133192   0.0071408   0.0004792  -0.0005329   0.0001537
   20  -0.0166134   0.0081689   0.0043231   0.0258733  -0.0072109  -0.0098578
   21  -0.0070195   0.0016892   0.0051681   0.0143332  -0.0075196   0.0007378
   22  -0.2489036  -0.1224552  -0.0496463  -0.0577981   0.0201313   0.0131145
   23  -0.1181091  -0.1221227  -0.0404076   0.0162682  -0.2602384  -0.1229567
   24  -0.0478978  -0.0395719  -0.0503927   0.0105870  -0.1236190  -0.1020773
   25   0.0002749   0.0002362   0.0000095   0.0005278   0.0010051   0.0004218
   26  -0.0000047   0.0004831  -0.0000101  -0.0001662   0.0004043   0.0004662
   27   0.0001021   0.0003130  -0.0001055  -0.0001228   0.0001160   0.0003644
   28  -0.0006058  -0.0008838   0.0020497  -0.0000115   0.0004466  -0.0010898
   29  -0.0002797  -0.0003494   0.0010887  -0.0002014   0.0003364  -0.0000814
   30  -0.0001809   0.0003119  -0.0000201   0.0000575  -0.0000495   0.0002075
   31   0.0000018   0.0000262  -0.0000102   0.0000128  -0.0000210  -0.0000053
   32  -0.0000148  -0.0000014  -0.0000008  -0.0000196   0.0000124   0.0000075
   33  -0.0000026   0.0000056  -0.0000043   0.0000081  -0.0000025   0.0000043
   34  -0.0000044   0.0000009   0.0000174   0.0000123   0.0000002  -0.0000143
   35  -0.0000121   0.0000108  -0.0000079   0.0000120   0.0000023   0.0000011
   36   0.0000071  -0.0000217   0.0000247  -0.0000214   0.0000063  -0.0000043
   37  -0.0000183   0.0000110  -0.0000115  -0.0000003   0.0000014   0.0000071
   38   0.0000032   0.0000082  -0.0000014   0.0000229   0.0000037  -0.0000020
   39   0.0000103   0.0000044   0.0000048   0.0000234  -0.0000005  -0.0000039
   40   0.0013496  -0.0000453  -0.0005769  -0.0038798   0.0016083   0.0019015
   41  -0.0000036  -0.0008506   0.0037775   0.0012712   0.0032452  -0.0046825
   42  -0.0005805   0.0036843  -0.0056878   0.0016794  -0.0046004   0.0087443
   43   0.2656782   0.1285324   0.0513647   0.0048062   0.0035785   0.0017205
   44   0.1285324   0.1193501   0.0434987  -0.0200080  -0.0078245  -0.0038768
   45   0.0513647   0.0434987   0.0408884  -0.0111288  -0.0058590  -0.0001487
   46   0.0048062  -0.0200080  -0.0111288   0.0541285  -0.0245227  -0.0154036
   47   0.0035785  -0.0078245  -0.0058590  -0.0245227   0.2733486   0.1373238
   48   0.0017205  -0.0038768  -0.0001487  -0.0154036   0.1373238   0.0984813
   49   0.0005543   0.0003304   0.0001566   0.0000550  -0.0011364  -0.0004927
   50   0.0006376   0.0003406   0.0002385  -0.0000572  -0.0009354  -0.0005085
   51  -0.0001724  -0.0000711  -0.0000222   0.0000588   0.0006058   0.0003496
           49          50          51
    1  -0.0008167  -0.0004068   0.0001860
    2   0.0002237   0.0010793  -0.0008465
    3   0.0001276   0.0021794  -0.0010720
    4  -0.0022747   0.0029437  -0.0009375
    5  -0.0006246   0.0035365  -0.0004131
    6  -0.0003593   0.0004332  -0.0007051
    7   0.0005365   0.0026132  -0.0001551
    8   0.0047918  -0.0111008   0.0025964
    9  -0.0006420   0.0026313  -0.0001973
   10   0.0051943   0.0105801   0.0016245
   11   0.0107685  -0.0109949   0.0141854
   12   0.0010876   0.0137245   0.0163117
   13   0.0011142  -0.0027691   0.0006667
   14  -0.0010653   0.0025473  -0.0008544
   15   0.0007256  -0.0017823   0.0003984
   16  -0.0014758   0.0021190  -0.0006232
   17  -0.0012543   0.0009742  -0.0003237
   18   0.0000109  -0.0000337  -0.0004003
   19  -0.0000850  -0.0012425   0.0003545
   20   0.0006908   0.0003668  -0.0002640
   21   0.0002894  -0.0002886  -0.0000096
   22   0.0000070   0.0008144  -0.0002267
   23   0.0003144  -0.0006917  -0.0002105
   24   0.0000607   0.0000033  -0.0002353
   25   0.0001679   0.0004667  -0.0001728
   26  -0.0008100  -0.0021517   0.0013041
   27   0.0000097  -0.0007153   0.0006646
   28   0.0000872  -0.0008756   0.0003229
   29  -0.0000170   0.0008037  -0.0002057
   30   0.0000020  -0.0008745   0.0004026
   31   0.0004381  -0.0004729   0.0001283
   32  -0.0004932   0.0006972  -0.0001765
   33   0.0001826  -0.0002284   0.0001103
   34   0.0004446  -0.0004542   0.0000579
   35   0.0006832  -0.0005698   0.0000800
   36  -0.0010330   0.0010865  -0.0000124
   37   0.0000968  -0.0000789  -0.0000003
   38   0.0010093  -0.0007892   0.0004656
   39   0.0007367  -0.0006922   0.0004408
   40   0.0000183  -0.0000904  -0.0000236
   41   0.0003156   0.0009942  -0.0001310
   42   0.0002256   0.0005678  -0.0000086
   43   0.0005543   0.0006376  -0.0001724
   44   0.0003304   0.0003406  -0.0000711
   45   0.0001566   0.0002385  -0.0000222
   46   0.0000550  -0.0000572   0.0000588
   47  -0.0011364  -0.0009354   0.0006058
   48  -0.0004927  -0.0005085   0.0003496
   49  -0.0040619  -0.0137270  -0.0010880
   50  -0.0137270   0.0158936  -0.0157409
   51  -0.0010880  -0.0157409  -0.0160152
 Gradient time:  CPU 2087.86 s  wall 496.32 s
[HyperChem begin]
[HyperChem end]
 **********************************************************************
 **                                                                  **
 **                       VIBRATIONAL ANALYSIS                       **
 **                       --------------------                       **
 **                                                                  **
 **        VIBRATIONAL FREQUENCIES (CM**-1) AND NORMAL MODES         **
 **     FORCE CONSTANTS (mDYN/ANGSTROM) AND REDUCED MASSES (AMU)     **
 **                  INFRARED INTENSITIES (KM/MOL)                   **
 **                                                                  **
 **********************************************************************
 

 Symmetry:           ???                    ???                    ???

 Mode:                 1                      2                      3
 Frequency:        32.88                  55.34                  61.57
 Force Cnst:      0.0039                 0.0067                 0.0056
 Red. Mass:       6.1177                 3.7037                 2.5157
 IR Active:          YES                    YES                    YES
 IR Intens:       88.389                 33.639                  5.572
 Raman Active:       YES                    YES                    YES
               X      Y      Z        X      Y      Z        X      Y      Z
 C          0.001 -0.071 -0.003    0.033 -0.183  0.015    0.064 -0.120 -0.063
 O          0.037 -0.247 -0.014    0.043 -0.087  0.037   -0.012  0.018 -0.079
 C         -0.024 -0.121 -0.069    0.000 -0.008  0.074   -0.003  0.007 -0.067
 O         -0.133 -0.060 -0.200   -0.081 -0.034  0.145   -0.001  0.007 -0.067
 O          0.063  0.016  0.069    0.079  0.029  0.001   -0.023 -0.003 -0.056
 C          0.026  0.163 -0.010    0.072  0.101 -0.100   -0.074  0.024  0.210
 C         -0.048  0.004  0.042   -0.075  0.058 -0.068   -0.011  0.021 -0.053
 C         -0.013  0.152 -0.043    0.004  0.225 -0.025    0.059  0.035  0.174
 H          0.067 -0.006 -0.104    0.178 -0.236  0.158    0.173 -0.184  0.090
 H         -0.058 -0.055  0.073   -0.049 -0.371 -0.092    0.067 -0.259 -0.207
 H          0.099  0.265  0.146    0.144  0.133 -0.145   -0.076 -0.006  0.128
 H         -0.008  0.034 -0.083   -0.023  0.126 -0.133    0.037  0.215  0.346
 H         -0.035  0.307 -0.145    0.089  0.104 -0.104   -0.218 -0.118  0.358
 H         -0.118 -0.058  0.146   -0.231  0.104 -0.174   -0.130  0.112 -0.235
 H         -0.057  0.214 -0.008   -0.089  0.408 -0.092   -0.002  0.135  0.182
 H          0.064  0.220 -0.150    0.166  0.185  0.079    0.182 -0.054  0.359
 Li         0.179  0.314  0.489   -0.178 -0.184 -0.166    0.018  0.030 -0.029
 TransDip   0.080  0.188  0.222   -0.078 -0.079 -0.149    0.031 -0.008  0.068

 Symmetry:           ???                    ???                    ???

 Mode:                 4                      5                      6
 Frequency:        82.72                 114.50                 132.48
 Force Cnst:      0.0084                 0.0279                 0.0362
 Red. Mass:       2.0930                 3.6153                 3.5013
 IR Active:          YES                    YES                    YES
 IR Intens:        3.938                 24.354                 74.664
 Raman Active:       YES                    YES                    YES
               X      Y      Z        X      Y      Z        X      Y      Z
 C          0.006 -0.077 -0.030   -0.083  0.199 -0.129   -0.083 -0.006  0.008
 O          0.004  0.044 -0.006    0.088 -0.093 -0.072   -0.001 -0.048  0.048
 C          0.013  0.014  0.033    0.065 -0.046 -0.009   -0.021 -0.012  0.048
 O          0.013  0.056 -0.056   -0.016 -0.061  0.033   -0.030 -0.020  0.068
 O         -0.049  0.032  0.176    0.087 -0.022  0.021    0.039  0.014 -0.007
 C          0.020 -0.060 -0.077    0.073  0.028  0.014    0.022  0.100 -0.059
 C         -0.023  0.008 -0.101   -0.063  0.144 -0.103   -0.078  0.009 -0.068
 C          0.003 -0.053  0.072   -0.067 -0.065  0.177   -0.087 -0.109  0.066
 H          0.047 -0.133  0.089   -0.121  0.305 -0.338   -0.095  0.001 -0.011
 H         -0.016 -0.180 -0.113   -0.179  0.318  0.095   -0.141 -0.015  0.060
 H         -0.077 -0.010  0.249    0.102  0.055  0.039    0.162  0.075 -0.392
 H          0.019 -0.496 -0.272    0.062  0.018  0.004   -0.150  0.419  0.004
 H          0.162  0.254 -0.393    0.045  0.050 -0.006    0.047 -0.122  0.157
 H         -0.062  0.113 -0.298   -0.030  0.226 -0.249   -0.056  0.099 -0.229
 H         -0.015 -0.001  0.019   -0.030 -0.157  0.250   -0.066 -0.121  0.011
 H          0.041 -0.158  0.272   -0.109 -0.161  0.341   -0.119 -0.205  0.231
 Li         0.027  0.072 -0.017   -0.198 -0.136  0.107    0.461  0.137 -0.216
 TransDip   0.019 -0.034 -0.051   -0.150  0.009  0.050    0.218  0.089 -0.145

 Symmetry:           ???                    ???                    ???

 Mode:                 7                      8                      9
 Frequency:       160.51                 198.70                 273.91
 Force Cnst:      0.0244                 0.0833                 0.1710
 Red. Mass:       1.6072                 3.5815                 3.8679
 IR Active:          YES                    YES                    YES
 IR Intens:       14.114                 19.879                 10.395
 Raman Active:       YES                    YES                    YES
               X      Y      Z        X      Y      Z        X      Y      Z
 C          0.002  0.017 -0.024   -0.058 -0.040  0.161   -0.030 -0.011 -0.095
 O         -0.005 -0.011 -0.032   -0.035  0.034  0.174   -0.059  0.127 -0.099
 C         -0.018  0.019 -0.010    0.012 -0.032 -0.025    0.025 -0.074  0.014
 O         -0.046 -0.036  0.111    0.184  0.002 -0.129    0.191 -0.087  0.017
 O          0.014 -0.003 -0.106    0.079 -0.028 -0.139   -0.048 -0.065  0.122
 C         -0.020  0.031  0.033    0.018  0.093  0.040   -0.103  0.230 -0.054
 C          0.008 -0.014  0.027   -0.076  0.062 -0.054   -0.028 -0.069  0.030
 C          0.012  0.001  0.020   -0.123 -0.055 -0.053    0.005  0.024  0.025
 H         -0.009  0.033 -0.058   -0.023 -0.091  0.269   -0.051 -0.047 -0.035
 H          0.019  0.052 -0.005   -0.127 -0.163  0.107    0.046 -0.004 -0.169
 H         -0.142  0.146  0.591    0.002  0.184  0.332    0.139  0.387 -0.064
 H          0.241 -0.422 -0.050    0.183 -0.067  0.044   -0.332  0.267 -0.141
 H         -0.198  0.396 -0.313   -0.196  0.254 -0.108   -0.200  0.310 -0.133
 H          0.005 -0.045  0.084   -0.027  0.203 -0.306   -0.071 -0.174  0.217
 H          0.009 -0.015  0.072   -0.078 -0.026 -0.309   -0.032  0.009  0.209
 H          0.019  0.033 -0.036   -0.220 -0.203  0.195    0.079  0.133 -0.157
 Li         0.123 -0.004 -0.056   -0.063 -0.078  0.064    0.095 -0.237  0.085
 TransDip   0.106  0.045 -0.033   -0.086 -0.021  0.112   -0.037 -0.094  0.019

 Symmetry:           ???                    ???                    ???

 Mode:                10                     11                     12
 Frequency:       306.47                 421.21                 456.49
 Force Cnst:      0.1654                 0.2387                 0.6917
 Red. Mass:       2.9898                 2.2833                 5.6340
 IR Active:          YES                    YES                    YES
 IR Intens:        5.290                 18.792                187.110
 Raman Active:       YES                    YES                    YES
               X      Y      Z        X      Y      Z        X      Y      Z
 C          0.119  0.094  0.098   -0.120  0.032 -0.005    0.048 -0.015 -0.034
 O         -0.023 -0.026  0.036    0.003 -0.027  0.106    0.057  0.009 -0.033
 C         -0.058 -0.066 -0.013   -0.021 -0.003  0.042    0.065 -0.063  0.080
 O         -0.085 -0.076  0.014    0.047  0.025 -0.010    0.101 -0.045  0.090
 O         -0.094 -0.069  0.032   -0.014 -0.031 -0.033    0.017 -0.240 -0.003
 C         -0.137  0.056 -0.037   -0.039  0.003 -0.009   -0.076  0.046 -0.030
 C          0.173  0.136 -0.067    0.018 -0.145 -0.137   -0.008  0.050  0.040
 C          0.130 -0.012 -0.054    0.158  0.056  0.026   -0.054 -0.020 -0.001
 H          0.148  0.114  0.068   -0.447  0.072 -0.178    0.168 -0.028  0.029
 H          0.127  0.097  0.093   -0.120  0.274  0.244    0.022 -0.109 -0.103
 H         -0.020  0.131 -0.041   -0.015  0.027  0.015    0.170  0.229  0.028
 H         -0.230  0.083 -0.068   -0.030  0.009 -0.004   -0.206  0.109 -0.064
 H         -0.187  0.088 -0.065   -0.084  0.016 -0.020   -0.285  0.130 -0.101
 H          0.264  0.330 -0.406   -0.010 -0.124 -0.169   -0.010  0.003  0.120
 H          0.179  0.036 -0.368   -0.040  0.322  0.203    0.020 -0.153  0.016
 H          0.030 -0.201  0.267    0.539  0.086  0.051   -0.190  0.005 -0.074
 Li         0.030 -0.061  0.010   -0.046  0.075 -0.022   -0.312  0.604 -0.196
 TransDip   0.052  0.025 -0.046   -0.129  0.048 -0.019   -0.205  0.376 -0.094

 Symmetry:           ???                    ???                    ???

 Mode:                13                     14                     15
 Frequency:       487.58                 601.03                 665.52
 Force Cnst:      1.0979                 0.5577                 0.6699
 Red. Mass:       7.8380                 2.6203                 2.5670
 IR Active:          YES                    YES                    YES
 IR Intens:        8.482                 50.363                  5.553
 Raman Active:       YES                    YES                    YES
               X      Y      Z        X      Y      Z        X      Y      Z
 C         -0.070  0.063  0.037   -0.017  0.003  0.030    0.000  0.008 -0.003
 O         -0.260  0.337 -0.030   -0.121 -0.086 -0.114   -0.130 -0.055  0.065
 C         -0.028 -0.153 -0.025   -0.025  0.005 -0.073   -0.056 -0.036 -0.082
 O         -0.249 -0.163 -0.063    0.137 -0.078  0.074    0.083 -0.121  0.043
 O          0.234 -0.140  0.060   -0.010  0.118  0.036   -0.019  0.127  0.021
 C          0.296  0.011  0.061    0.052  0.012  0.017    0.035  0.012  0.014
 C          0.028 -0.055 -0.017   -0.001 -0.075  0.111    0.045  0.111 -0.135
 C          0.069  0.015 -0.006   -0.003  0.018 -0.016    0.057 -0.018  0.004
 H         -0.187 -0.052  0.214   -0.100  0.083 -0.150    0.141 -0.054  0.164
 H          0.121  0.069 -0.158    0.161  0.230  0.073   -0.174 -0.230 -0.054
 H          0.357  0.054  0.072   -0.066 -0.079 -0.020   -0.106 -0.094 -0.021
 H          0.264  0.026  0.058    0.089 -0.036  0.014    0.097 -0.041  0.020
 H          0.232  0.015  0.060    0.178 -0.018  0.037    0.169 -0.027  0.042
 H          0.061  0.012 -0.128   -0.021  0.148 -0.296    0.129 -0.080  0.225
 H         -0.009  0.174 -0.064   -0.063  0.336 -0.541    0.127 -0.358  0.541
 H          0.213 -0.018  0.084    0.058 -0.191  0.374   -0.005  0.179 -0.369
 Li        -0.031  0.086 -0.032   -0.056  0.100 -0.035   -0.043  0.081 -0.028
 TransDip   0.062  0.069 -0.007    0.011  0.210 -0.086    0.037  0.066 -0.007

 Symmetry:           ???                    ???                    ???

 Mode:                16                     17                     18
 Frequency:       765.55                 838.99                 875.23
 Force Cnst:      2.9793                 2.9836                 2.7387
 Red. Mass:       8.6282                 7.1941                 6.0680
 IR Active:          YES                    YES                    YES
[...]
 H         -0.019  0.000 -0.006   -0.014  0.000 -0.004   -0.127  0.013 -0.030
 H         -0.041 -0.005 -0.003   -0.026 -0.002 -0.002   -0.173 -0.003 -0.030
 H          0.318  0.030 -0.055    0.082 -0.022  0.030   -0.021  0.055  0.036
 H         -0.357  0.446 -0.023   -0.073 -0.196  0.621    0.386 -0.274 -0.269
 H          0.439  0.118 -0.248    0.179 -0.332  0.608   -0.302  0.038 -0.068
 Li         0.002 -0.003  0.002    0.002 -0.001  0.001    0.008 -0.009  0.005
 TransDip   0.308  0.020 -0.057    0.212 -0.151  0.261    0.489 -0.068  0.118

 Symmetry:           ???                    ???                    ???

 Mode:                22                     23                     24
 Frequency:       993.45                1032.92                1071.62
 Force Cnst:      1.1366                 0.7730                 7.0790
 Red. Mass:       1.9546                 1.2297                10.4627
 IR Active:          YES                    YES                    YES
 IR Intens:       65.391                 45.546                302.479
 Raman Active:       YES                    YES                    YES
               X      Y      Z        X      Y      Z        X      Y      Z
 C          0.164 -0.060  0.124    0.044 -0.010  0.027    0.033 -0.001  0.012
 O         -0.068  0.003 -0.064   -0.025  0.001 -0.007   -0.085 -0.003 -0.024
 C          0.069 -0.041  0.071    0.020 -0.008  0.013   -0.121  0.084  0.003
 O         -0.006  0.025 -0.005   -0.002  0.006 -0.000    0.020 -0.009 -0.010
 O         -0.013  0.009 -0.018   -0.010 -0.001 -0.005    0.579  0.108  0.115
 C          0.009  0.008 -0.002    0.010  0.004  0.001   -0.535 -0.198 -0.083
 C         -0.040 -0.005 -0.089   -0.014  0.047 -0.110   -0.011  0.007 -0.037
 C         -0.069 -0.007  0.021   -0.009 -0.018  0.024   -0.008 -0.002  0.005
 H         -0.164  0.088 -0.242    0.009  0.052 -0.098    0.026  0.035 -0.058
 H          0.379  0.414  0.380    0.028  0.051  0.101    0.182  0.104 -0.038
 H         -0.043 -0.021  0.000   -0.004 -0.003  0.001   -0.170  0.018 -0.044
 H          0.003 -0.001 -0.006    0.003  0.002 -0.002   -0.260 -0.098  0.021
 H         -0.013 -0.002  0.004   -0.001  0.002  0.002   -0.275 -0.145 -0.081
 H         -0.206  0.062 -0.243   -0.024 -0.410  0.716   -0.037 -0.060  0.080
 H         -0.106 -0.072  0.309   -0.055  0.193 -0.302   -0.013  0.006  0.002
 H         -0.062  0.189 -0.325    0.032 -0.179  0.328   -0.012 -0.003  0.006
 Li         0.002 -0.001  0.001    0.001 -0.000  0.000    0.004 -0.010  0.002
 TransDip   0.232 -0.076  0.087    0.100 -0.093  0.168   -0.553  0.052 -0.036

 Symmetry:           ???                    ???                    ???

 Mode:                25                     26                     27
 Frequency:      1163.43                1163.88                1195.41
 Force Cnst:      1.2499                 1.0745                 1.2153
 Red. Mass:       1.5673                 1.3462                 1.4434
 IR Active:          YES                    YES                    YES
 IR Intens:        1.822                  1.567                 13.050
 Raman Active:       YES                    YES                    YES
               X      Y      Z        X      Y      Z        X      Y      Z
 C          0.018  0.136  0.040   -0.010 -0.065 -0.020    0.000  0.001 -0.002
 O          0.004 -0.045 -0.004   -0.004  0.020  0.003    0.002 -0.001  0.001
 C          0.003 -0.008  0.010    0.004  0.012 -0.001   -0.014  0.004  0.028
 O          0.002  0.013  0.002   -0.004 -0.004 -0.003    0.004 -0.033 -0.013
 O          0.004 -0.011 -0.032    0.018 -0.019 -0.053   -0.022  0.090 -0.028
 C         -0.014  0.022  0.064   -0.034  0.029  0.117    0.048 -0.138  0.051
 C         -0.047 -0.103 -0.066    0.023  0.050  0.032    0.003  0.005 -0.002
 C          0.027  0.048  0.023   -0.013 -0.023 -0.011   -0.004 -0.001  0.000
 H          0.043 -0.071  0.447   -0.029  0.029 -0.205   -0.034 -0.016  0.019
 H          0.313  0.020 -0.378   -0.142 -0.008  0.174    0.064  0.026 -0.042
 H         -0.006 -0.042 -0.135    0.031 -0.055 -0.244    0.656  0.268  0.054
 H         -0.252 -0.158 -0.126   -0.478 -0.280 -0.227   -0.458  0.167 -0.052
 H          0.334  0.102 -0.038    0.593  0.191 -0.080   -0.357  0.175 -0.227
 H         -0.333 -0.145 -0.028    0.162  0.069  0.015    0.003 -0.000  0.006
 H          0.156 -0.140 -0.079   -0.076  0.068  0.038   -0.012  0.007  0.009
 H         -0.268  0.007  0.029    0.129 -0.003 -0.014    0.002  0.001 -0.002
 Li         0.000 -0.001  0.000    0.000 -0.001  0.000   -0.002  0.003 -0.001
 TransDip  -0.027  0.003  0.034    0.004  0.024  0.032    0.100  0.014  0.056

 Symmetry:           ???                    ???                    ???

 Mode:                28                     29                     30
 Frequency:      1230.19                1312.40                1320.63
 Force Cnst:      1.0872                 1.2895                 6.0382
 Red. Mass:       1.2193                 1.2707                 5.8761
 IR Active:          YES                    YES                    YES
 IR Intens:       12.108                 11.717                647.218
 Raman Active:       YES                    YES                    YES
               X      Y      Z        X      Y      Z        X      Y      Z
 C          0.020  0.029  0.033   -0.015 -0.031 -0.004    0.077  0.042  0.004
 O         -0.014  0.032 -0.010   -0.001  0.003  0.016   -0.007 -0.019 -0.053
 C         -0.004 -0.025 -0.005    0.004 -0.029 -0.020    0.029  0.447  0.247
 O          0.001  0.012  0.006   -0.001  0.020  0.011   -0.011 -0.299 -0.153
 O          0.003  0.008 -0.003    0.001  0.002  0.001   -0.033 -0.039 -0.008
 C          0.001 -0.011  0.006    0.001 -0.001  0.001   -0.016  0.025 -0.023
 C         -0.050 -0.092 -0.018    0.002 -0.073 -0.052    0.007 -0.073 -0.031
 C          0.042  0.029  0.010   -0.039  0.090  0.053   -0.018  0.049  0.027
 H          0.631  0.296 -0.293    0.049  0.031 -0.112   -0.115 -0.086  0.210
 H         -0.440 -0.185  0.295    0.159  0.056 -0.091   -0.374 -0.127  0.316
 H          0.044  0.015 -0.001   -0.006 -0.007 -0.005    0.038  0.084  0.066
 H         -0.043  0.007 -0.007   -0.012 -0.001 -0.004    0.215  0.008  0.062
 H         -0.019  0.016 -0.019   -0.013  0.003 -0.003    0.207 -0.063  0.068
 H         -0.143 -0.054 -0.102    0.847 -0.028 -0.031    0.252 -0.054 -0.048
 H          0.148 -0.117 -0.083   -0.011  0.031  0.020   -0.030  0.050  0.024
 H         -0.116  0.004  0.006   -0.444  0.047  0.058   -0.301  0.016  0.040
 Li        -0.000  0.000 -0.000    0.000 -0.000  0.000   -0.002  0.002 -0.003
 TransDip  -0.040 -0.103  0.012   -0.004 -0.108 -0.018    0.167  0.782  0.155

 Symmetry:           ???                    ???                    ???

 Mode:                31                     32                     33
 Frequency:      1356.38                1446.50                1457.78
 Force Cnst:      1.5166                 1.4734                 1.4540
 Red. Mass:       1.3991                 1.1952                 1.1612
 IR Active:          YES                    YES                    YES
 IR Intens:       64.359                  6.796                 20.976
 Raman Active:       YES                    YES                    YES
               X      Y      Z        X      Y      Z        X      Y      Z
 C         -0.116 -0.061  0.028    0.046  0.006 -0.016    0.001  0.000  0.000
 O          0.000  0.000  0.045    0.004 -0.000 -0.011   -0.003  0.001  0.000
 C          0.039  0.076  0.022   -0.009 -0.007  0.003    0.016 -0.039 -0.003
 O         -0.007 -0.048 -0.022    0.001  0.002  0.001   -0.000  0.018  0.008
 O         -0.013 -0.008 -0.002    0.000  0.001 -0.001   -0.031  0.006 -0.011
 C         -0.002  0.008 -0.005   -0.001 -0.002  0.000   -0.096 -0.019 -0.025
 C         -0.031  0.034 -0.005   -0.108 -0.003  0.004    0.001  0.001  0.000
 C          0.021 -0.015 -0.007   -0.033  0.034  0.020    0.000 -0.001 -0.000
 H          0.479  0.234 -0.341   -0.092 -0.102  0.166   -0.013  0.000 -0.005
 H          0.545  0.237 -0.350   -0.025  0.079  0.138    0.002 -0.007 -0.010
 H         -0.004  0.011  0.010    0.008  0.005  0.003    0.521  0.416  0.120
 H          0.039 -0.002  0.008    0.004  0.006  0.005    0.425 -0.015  0.208
 H          0.035 -0.014  0.017    0.009  0.003 -0.004    0.537 -0.114  0.044
 H         -0.049  0.027  0.019    0.312  0.023  0.014   -0.003  0.000  0.001
 H          0.115 -0.141 -0.043    0.375 -0.497 -0.300   -0.006  0.008  0.004
 H          0.215  0.014 -0.039    0.572  0.087  0.014   -0.008 -0.002 -0.000
 Li        -0.000  0.001 -0.001   -0.000  0.000 -0.000    0.000  0.000  0.000
 TransDip   0.019  0.243  0.082    0.033 -0.072 -0.028    0.003 -0.146 -0.013

 Symmetry:           ???                    ???                    ???

 Mode:                34                     35                     36
 Frequency:      1466.59                1492.74                1499.49
 Force Cnst:      1.3282                 1.3729                 1.4729
 Red. Mass:       1.0481                 1.0458                 1.1119
 IR Active:          YES                    YES                    YES
 IR Intens:        7.864                 15.244                  1.985
 Raman Active:       YES                    YES                    YES
               X      Y      Z        X      Y      Z        X      Y      Z
 C          0.000  0.000  0.000   -0.001 -0.001 -0.000   -0.055 -0.034 -0.068
 O          0.000  0.000  0.001   -0.001 -0.000 -0.000    0.005  0.003 -0.006
 C         -0.002 -0.003 -0.004    0.004  0.001  0.000   -0.005 -0.008 -0.005
 O          0.001  0.002  0.002   -0.002  0.002  0.000    0.000  0.005  0.002
 O          0.006 -0.002 -0.009   -0.002 -0.014  0.003    0.001  0.001  0.000
 C          0.022 -0.017 -0.052   -0.012 -0.053  0.014   -0.001 -0.000 -0.000
 C          0.000  0.000  0.000    0.000  0.000  0.000    0.014  0.008 -0.003
 C          0.000 -0.000 -0.000    0.001 -0.001 -0.000    0.009 -0.006 -0.004
 H         -0.003  0.001 -0.003    0.005 -0.002  0.004    0.433 -0.232  0.500
 H         -0.001 -0.003 -0.003    0.003  0.006  0.002    0.042  0.531  0.442
 H         -0.213  0.090  0.689   -0.202 -0.184 -0.072    0.008  0.007  0.006
 H         -0.427  0.344 -0.071    0.129  0.562  0.322   -0.001 -0.005 -0.002
 H          0.312 -0.209  0.149    0.236  0.451 -0.470    0.003 -0.007  0.005
 H          0.000  0.000  0.000   -0.002  0.000  0.001   -0.007 -0.006  0.023
 H         -0.001  0.001  0.000   -0.003  0.005  0.003   -0.055  0.082  0.040
 H         -0.001 -0.000  0.000   -0.005 -0.001 -0.000   -0.085 -0.022  0.004
 Li         0.000 -0.000 -0.000    0.000 -0.000  0.000    0.000 -0.000 -0.000
 TransDip  -0.044  0.007  0.078   -0.087  0.083 -0.034   -0.003  0.019  0.041

 Symmetry:           ???                    ???                    ???

 Mode:                37                     38                     39
 Frequency:      1688.40                2996.00                3015.35
 Force Cnst:      7.7179                 5.5027                 5.6587
 Red. Mass:       4.5952                 1.0405                 1.0563
 IR Active:          YES                    YES                    YES
 IR Intens:       42.984                143.650                 52.237
 Raman Active:       YES                    YES                    YES
               X      Y      Z        X      Y      Z        X      Y      Z
 C         -0.068  0.001 -0.004   -0.000 -0.000 -0.000    0.035 -0.000  0.056
 O         -0.011 -0.004  0.008    0.000 -0.000 -0.000   -0.002 -0.001  0.002
 C          0.005  0.001 -0.007   -0.002  0.002  0.000    0.002  0.001  0.001
 O         -0.001  0.003  0.002   -0.000 -0.001 -0.000   -0.000 -0.000 -0.000
 O          0.001 -0.002  0.002    0.004  0.000  0.001   -0.000  0.000 -0.000
 C         -0.002 -0.000 -0.001    0.037  0.027 -0.029    0.000  0.000 -0.000
 C          0.410 -0.092 -0.075   -0.000  0.000  0.000   -0.001 -0.000 -0.000
 C         -0.341  0.121  0.091    0.000 -0.000 -0.000    0.001 -0.000 -0.000
 H          0.175  0.040 -0.020   -0.001  0.008  0.004    0.090 -0.481 -0.238
 H         -0.095 -0.047 -0.011    0.002 -0.003  0.002   -0.488  0.496 -0.464
 H         -0.002  0.001  0.000   -0.155  0.246 -0.092   -0.002  0.002 -0.001
 H          0.001  0.002  0.003   -0.321 -0.313  0.731   -0.002 -0.003  0.006
 H          0.003  0.001 -0.002   -0.011 -0.275 -0.304   -0.000 -0.002 -0.003
 H         -0.377 -0.190 -0.094    0.000 -0.002 -0.001    0.001 -0.003 -0.003
 H         -0.019 -0.378 -0.222    0.000 -0.000  0.000   -0.007 -0.007 -0.001
 H          0.420  0.248  0.105   -0.000  0.000  0.000   -0.000  0.011  0.005
 Li         0.001 -0.000  0.000   -0.000  0.000 -0.000   -0.000  0.000 -0.000
 TransDip   0.206  0.021 -0.037    0.360  0.091 -0.097    0.016 -0.017  0.230

 Symmetry:           ???                    ???                    ???

 Mode:                40                     41                     42
 Frequency:      3061.15                3063.80                3112.96
 Force Cnst:      6.0998                 6.0551                 6.2884
 Red. Mass:       1.1048                 1.0948                 1.1014
 IR Active:          YES                    YES                    YES
 IR Intens:       40.292                 70.606                 42.460
 Raman Active:       YES                    YES                    YES
               X      Y      Z        X      Y      Z        X      Y      Z
 C          0.035 -0.087 -0.006    0.002 -0.004 -0.000   -0.000  0.000 -0.000
 O          0.000  0.000 -0.000   -0.000  0.000 -0.000    0.000  0.000 -0.000
 C         -0.000 -0.000 -0.000    0.001 -0.001  0.001   -0.001 -0.000 -0.001
 O         -0.000  0.000  0.000    0.000  0.000  0.000    0.000  0.000  0.000
 O          0.000  0.000 -0.000   -0.001  0.000 -0.000    0.000  0.000  0.000
 C         -0.000  0.000  0.004    0.002 -0.016 -0.087    0.034 -0.085  0.010
 C          0.001  0.006  0.004    0.000  0.000  0.000   -0.000  0.000  0.000
 C         -0.001  0.001  0.000   -0.000  0.000  0.000    0.000 -0.000 -0.000
 H         -0.116  0.733  0.383   -0.005  0.033  0.017    0.000 -0.001 -0.000
 H         -0.315  0.300 -0.305   -0.014  0.014 -0.014    0.001 -0.001  0.001
 H         -0.006  0.009 -0.002    0.138 -0.213  0.052   -0.475  0.744 -0.259
 H          0.010  0.010 -0.022   -0.172 -0.182  0.390    0.059  0.034 -0.124
 H         -0.001 -0.025 -0.025    0.024  0.596  0.594    0.014  0.233  0.264
 H          0.009 -0.082 -0.046    0.000 -0.004 -0.002    0.000 -0.000 -0.000
 H          0.005  0.005  0.002    0.000  0.000  0.000   -0.001 -0.001 -0.000
 H         -0.001 -0.008 -0.004   -0.000 -0.000 -0.000   -0.000  0.001  0.001
 Li         0.000  0.000  0.000   -0.000  0.000 -0.000    0.000 -0.000 -0.000
 TransDip   0.081 -0.185 -0.027   -0.006 -0.048 -0.265    0.078 -0.192  0.026

 Symmetry:           ???                    ???                    ???

 Mode:                43                     44                     45
 Frequency:      3122.41                3137.80                3209.46
 Force Cnst:      6.0810                 6.3326                 6.7676
 Red. Mass:       1.0586                 1.0916                 1.1151
 IR Active:          YES                    YES                    YES
 IR Intens:       20.114                 17.701                 23.864
 Raman Active:       YES                    YES                    YES
               X      Y      Z        X      Y      Z        X      Y      Z
 C          0.001 -0.003 -0.001    0.005 -0.007 -0.000    0.001 -0.001  0.000
 O          0.000  0.000 -0.000   -0.000  0.000  0.000   -0.000  0.000  0.000
 C         -0.000 -0.000  0.000   -0.000  0.000  0.000    0.000  0.000  0.000
 O          0.000  0.000 -0.000   -0.000 -0.000 -0.000   -0.000 -0.000  0.000
 O          0.000  0.000 -0.000   -0.000  0.000 -0.000   -0.000 -0.000 -0.000
 C         -0.000  0.000 -0.000    0.000 -0.000 -0.000    0.000 -0.000 -0.000
 C         -0.005 -0.017 -0.009    0.011 -0.072 -0.040    0.002 -0.012 -0.007
 C          0.054 -0.030 -0.020   -0.012  0.021  0.012   -0.052 -0.074 -0.036
 H         -0.003  0.032  0.016   -0.009  0.060  0.030    0.002  0.010  0.005
 H         -0.004  0.005 -0.004   -0.033  0.027 -0.028   -0.005  0.004 -0.004
 H          0.001 -0.001  0.000   -0.001  0.001 -0.000   -0.000  0.000 -0.000
 H         -0.000 -0.000  0.000   -0.000 -0.001  0.001   -0.000 -0.000  0.000
 H          0.000 -0.000 -0.000   -0.000  0.000  0.000   -0.000 -0.000 -0.000
 H         -0.014  0.223  0.122   -0.062  0.830  0.456   -0.010  0.121  0.066
 H         -0.509 -0.313 -0.132    0.041  0.027  0.011    0.666  0.389  0.160
 H         -0.064  0.651  0.358    0.027 -0.250 -0.138   -0.066  0.515  0.284
 Li         0.000  0.000 -0.000   -0.000 -0.000 -0.000   -0.000 -0.000  0.000
 TransDip   0.083 -0.102 -0.058   -0.014 -0.123 -0.052   -0.071 -0.126 -0.060

 STANDARD THERMODYNAMIC QUANTITIES AT   298.15 K  AND     1.00 ATM

   This Molecule has  0 Imaginary Frequencies
   Zero point vibrational energy:       78.625 kcal/mol

   Atom    1 Element C  Has Mass   12.00000
   Atom    2 Element O  Has Mass   15.99491
   Atom    3 Element C  Has Mass   12.00000
   Atom    4 Element O  Has Mass   15.99491
   Atom    5 Element O  Has Mass   15.99491
   Atom    6 Element C  Has Mass   12.00000
   Atom    7 Element C  Has Mass   12.00000
   Atom    8 Element C  Has Mass   12.00000
   Atom    9 Element H  Has Mass    1.00783
   Atom   10 Element H  Has Mass    1.00783
   Atom   11 Element H  Has Mass    1.00783
   Atom   12 Element H  Has Mass    1.00783
   Atom   13 Element H  Has Mass    1.00783
   Atom   14 Element H  Has Mass    1.00783
   Atom   15 Element H  Has Mass    1.00783
   Atom   16 Element H  Has Mass    1.00783
   Atom   17 Element Li Has Mass    7.01600
   Molecular Mass:   123.063370 amu
   Principal axes and moments of inertia in amu*Bohr^2:
                             1           2           3
    Eigenvalues --      548.37219  1964.17228  2355.32225
          X               0.97118    -0.22774     0.07027
          Y               0.21434     0.96352     0.16026
          Z              -0.10420    -0.14058     0.98457
   Rotational Symmetry Number is   1
   The Molecule is an Asymmetric Top
   Translational Enthalpy:        0.889 kcal/mol
   Rotational Enthalpy:           0.889 kcal/mol
   Vibrational Enthalpy:         83.868 kcal/mol
   gas constant (RT):             0.592 kcal/mol
   Translational Entropy:        40.336  cal/mol.K
   Rotational Entropy:           29.318  cal/mol.K
   Vibrational Entropy:          36.866  cal/mol.K

   Total Enthalpy:               86.238 kcal/mol
   Total Entropy:               106.521  cal/mol.K
Archival summary:
1\1\nid01237\FREQ\ProcedureUnspecified\BasisUnspecified\35i18(2)\sblau\WedMay211:02:562018WedMay211:02:562018\0\\#,FREQ,ProcedureUnspecified,BasisUnspecified,\\0,2\O\C,1,1.40892\O,2,1.29145,1,118.435\O,2,1.42306,1,106.545,3,135.416,0\C,4,1.42367,2,114.914,1,-178.879,0\H,5,1.0906,4,106.644,2,-176.371,0\H,5,1.09328,4,111.678,2,64.1152,0\H,5,1.09708,4,110.917,2,-57.5638,0\C,1,1.46039,2,115.278,3,-60.5937,0\H,9,1.09431,1,109.778,2,59.6514,0\H,9,1.096,1,108.259,2,-58.8696,0\C,9,1.49276,1,108.435,2,-178.83,0\H,12,1.08818,9,115.767,1,58.5399,0\C,12,1.33342,9,124.427,1,-121.971,0\H,14,1.0847,12,121.618,9,-178.79,0\H,14,1.08646,12,121.494,9,0.644397,0\Li,3,1.86778,2,126.266,1,-57.3323,0\\\@

 Total job time:  516.18s(wall), 2288.91s(cpu) 
 Wed May  2 11:02:56 2018

        *************************************************************
        *                                                           *
        *  Thank you very much for using Q-Chem.  Have a nice day.  *
        *                                                           *
        *************************************************************


0 sent ACK to 0 
now end server 0 ... 
cleanup process ... done
