
Running Job 1 of 1 mol.qin
qchem mol.qin_38402.0 /tmp/qchem38402/ 0
/global/common/cori_cle7/software/qchem/5.3/exe/qcprog.exe_s mol.qin_38402.0 /tmp/qchem38402/
                  Welcome to Q-Chem
     A Quantum Leap Into The Future Of Chemistry


 Q-Chem 5.3, Q-Chem, Inc., Pleasanton, CA (2020)

 License issued to: National Energy Research Scientific Computing Center

 Yihan Shao,  Zhengting Gan,  E. Epifanovsky,  A. T. B. Gilbert,  M. Wormit,  
 J. Kussmann,  A. W. Lange,  A. Behn,  Jia Deng,  Xintian Feng,  D. Ghosh,  
 M. Goldey,  P. R. Horn,  L. D. Jacobson,  I. Kaliman,  T. Kus,  A. Landau,  
 Jie Liu,  E. I. Proynov,  R. M. Richard,  R. P. Steele,  E. J. Sundstrom,  
 H. L. Woodcock III,  P. M. Zimmerman,  D. Zuev,  B. Alam,  B. Albrecht,  
 A. Aldossary,  E. Alguire,  S. A. Baeppler,  D. Barton,  Z. Benda,  
 Y. A. Bernard,  E. J. Berquist,  K. B. Bravaya,  H. Burton,  K. Carter-Fenk,  
 D. Casanova,  Chun-Min Chang,  Yunqing Chen,  A. Chien,  K. D. Closser,  
 M. P. Coons,  S. Coriani,  S. Dasgupta,  A. L. Dempwolff,  M. Diedenhofen,  
 Hainam Do,  R. G. Edgar,  Po-Tung Fang,  S. Faraji,  S. Fatehi,  
 Qingguo Feng,  J. Fosso-Tande,  J. Gayvert,  Qinghui Ge,  A. Ghysels,  
 G. Gidofalvi,  J. Gomes,  J. Gonthier,  S. Gulania,  A. Gunina,  D. Hait,  
 M. W. D. Hanson-Heine,  S. Hammes-Schiffer,  P. H. P. Harbach,  
 A. W. Hauser,  M. F. Herbst,  J. E. Herr,  E. G. Hohenstein,  Z. C. Holden,  
 S. Houck,  Kerwin Hui,  B. C. Huynh,  M. Ivanov,  T.-C. Jagau,  Hyunjun Ji,  
 B. Kaduk,  K. Khistyaev,  Jaehoon Kim,  P. Klunzinger,  K. Koh,  
 D. Kosenkov,  L. Koulias,  T. Kowalczyk,  C. M. Krauter,  A. Kunitsa,  
 Ka Un Lao,  A. Laurent,  K. V. Lawler,  Joonho Lee,  D. Lefrancois,  
 S. Lehtola,  D. S. Levine,  Yi-Pei Li,  You-Sheng Lin,  Fenglai Liu,  
 Kuan-Yu Liu,  E. Livshits,  M. Loipersberger,  A. Luenser,  P. Manohar,  
 E. Mansoor,  S. F. Manzer,  Shan-Ping Mao,  Yuezhi Mao,  N. Mardirossian,  
 A. V. Marenich,  T. Markovich,  L. A. Martinez-Martinez,  S. A. Maurer,  
 N. J. Mayhall,  S. C. McKenzie,  J.-M. Mewes,  P. Morgante,  A. F. Morrison,  
 J. W. Mullinax,  K. Nanda,  T. S. Nguyen-Beck,  R. Olivares-Amaya,  
 K. J. Oosterbaan,  J. A. Parkhill,  S. K. Paul,  F. Pavosevic,  Zheng Pei,  
 T. M. Perrine,  F. Plasser,  P. Pokhilko,  S. Prager,  A. Prociuk,  
 E. Ramos,  B. Rana,  D. R. Rehn,  F. Rob,  E. Rossomme,  M. Scheurer,  
 M. Schneider,  N. Sergueev,  S. M. Sharada,  S. Sharma,  W. Skomorowski,  
 D. W. Small,  T. Stauch,  C. J. Stein,  T. Stein,  Yu-Chuan Su,  
 S. P. Veccham,  Zhen Tao,  A. J. W. Thom,  A. Tkatchenko,  T. Tsuchimochi,  
 N. M. Tubman,  L. Vogt,  M. L. Vidal,  O. Vydrov,  M. A. Watson,  J. Wenzel,  
 M. de Wergifosse,  T. A. Wesolowski,  A. White,  J. Witte,  A. Yamada,  
 Jun Yang,  K. Yao,  S. Yeganeh,  S. R. Yost,  Zhi-Qiang You,  A. Zech,  
 Igor Ying Zhang,  Xing Zhang,  Yan Zhao,  Ying Zhu,  B. R. Brooks,  
 G. K. L. Chan,  C. J. Cramer,  M. S. Gordon,  W. J. Hehre,  A. Klamt,  
 M. W. Schmidt,  C. D. Sherrill,  D. G. Truhlar,  A. Aspuru-Guzik,  R. Baer,  
 A. T. Bell,  N. A. Besley,  Jeng-Da Chai,  A. E. DePrince, III,  
 R. A. DiStasio Jr.,  A. Dreuw,  B. D. Dunietz,  T. R. Furlani,  
 Chao-Ping Hsu,  Yousung Jung,  Jing Kong,  D. S. Lambrecht,  WanZhen Liang,  
 C. Ochsenfeld,  V. A. Rassolov,  L. V. Slipchenko,  J. E. Subotnik,  
 T. Van Voorhis,  J. M. Herbert,  A. I. Krylov,  P. M. W. Gill,  M. Head-Gordon

 Contributors to earlier versions of Q-Chem not listed above: 
 R. D. Adamson,  B. Austin,  J. Baker,  G. J. O. Beran,  K. Brandhorst,  
 S. T. Brown,  E. F. C. Byrd,  A. K. Chakraborty,  C.-L. Cheng,  
 Siu Hung Chien,  D. M. Chipman,  D. L. Crittenden,  H. Dachsel,  
 R. J. Doerksen,  A. D. Dutoi,  L. Fusti-Molnar,  W. A. Goddard III,  
 A. Golubeva-Zadorozhnaya,  S. R. Gwaltney,  G. Hawkins,  A. Heyden,  
 S. Hirata,  G. Kedziora,  F. J. Keil,  C. Kelley,  Jihan Kim,  R. A. King,  
 R. Z. Khaliullin,  P. P. Korambath,  W. Kurlancheek,  A. M. Lee,  M. S. Lee,  
 S. V. Levchenko,  Ching Yeh Lin,  D. Liotard,  R. C. Lochan,  I. Lotan,  
 P. E. Maslen,  N. Nair,  D. P. O'Neill,  D. Neuhauser,  E. Neuscamman,  
 C. M. Oana,  R. Olson,  B. Peters,  R. Peverati,  P. A. Pieniazek,  
 Y. M. Rhee,  J. Ritchie,  M. A. Rohrdanz,  E. Rosta,  N. J. Russ,  
 H. F. Schaefer III,  N. E. Schultz,  N. Shenvi,  A. C. Simmonett,  A. Sodt,  
 D. Stuck,  K. S. Thanthiriwatte,  V. Vanovschi,  Tao Wang,  A. Warshel,  
 C. F. Williams,  Q. Wu,  X. Xu,  W. Zhang

 Please cite Q-Chem as follows:
 Y. Shao et al., Mol. Phys. 113, 184-215 (2015)
 DOI: 10.1080/00268976.2014.952696

 Q-Chem 5.3.0 for Intel X86 EM64T Linux

 Parts of Q-Chem use Armadillo 9.800.1 (Horizon Scraper).
 http://arma.sourceforge.net/

 Q-Chem begins on Fri Jun 11 11:20:02 2021  

Host: cori02
0

     Scratch files written to /tmp/qchem38402//
 Jun1620 |scratch|qcdevops|jenkins|workspace|build_RNUM 7035   
Processing $rem in /global/common/cori_cle7/software/qchem/5.3/config/preferences:
Processing $rem in /global/homes/s/sblau/.qchemrc:

Checking the input file for inconsistencies... 	...done.

--------------------------------------------------------------
User input:
--------------------------------------------------------------
$molecule
0  2
C     -2.033852    0.086550   -1.415857
C     -1.281958    0.385083   -0.156499
C     -2.006730    1.127182    0.922595
C      0.121912   -0.036619    0.014881
C      0.676779   -1.050709   -0.780240
C      2.007245   -1.451761   -0.618538
C      2.807997   -0.843484    0.342793
C      2.277888    0.164569    1.141653
C      0.946820    0.563006    0.978441
H     -1.391985    0.159124   -2.299557
H     -2.467157   -0.917460   -1.372249
H     -2.850508    0.801725   -1.561306
H     -3.088921    0.982399    0.836237
H     -1.721674    0.776167    1.919450
H     -1.802156    2.199901    0.851071
H      0.079324   -1.559264   -1.532431
H      2.413682   -2.242119   -1.244090
H      3.841529   -1.153943    0.468966
H      2.898445    0.646430    1.892580
H      0.573320    1.363221    1.612099
$end

$rem
jobtype = sp
max_scf_cycles = 200
gen_scfman = true
xc_grid = 3
scf_algorithm = diis
method = wb97xv
basis = def2-tzvp
symmetry = false
sym_ignore = true
nbo = true
$end

$nbo
$end
--------------------------------------------------------------
 ----------------------------------------------------------------
             Standard Nuclear Orientation (Angstroms)
    I     Atom           X                Y                Z
 ----------------------------------------------------------------
    1      C      -2.0338520000     0.0865500000    -1.4158570000
    2      C      -1.2819580000     0.3850830000    -0.1564990000
    3      C      -2.0067300000     1.1271820000     0.9225950000
    4      C       0.1219120000    -0.0366190000     0.0148810000
    5      C       0.6767790000    -1.0507090000    -0.7802400000
    6      C       2.0072450000    -1.4517610000    -0.6185380000
    7      C       2.8079970000    -0.8434840000     0.3427930000
    8      C       2.2778880000     0.1645690000     1.1416530000
    9      C       0.9468200000     0.5630060000     0.9784410000
   10      H      -1.3919850000     0.1591240000    -2.2995570000
   11      H      -2.4671570000    -0.9174600000    -1.3722490000
   12      H      -2.8505080000     0.8017250000    -1.5613060000
   13      H      -3.0889210000     0.9823990000     0.8362370000
   14      H      -1.7216740000     0.7761670000     1.9194500000
   15      H      -1.8021560000     2.1999010000     0.8510710000
   16      H       0.0793240000    -1.5592640000    -1.5324310000
   17      H       2.4136820000    -2.2421190000    -1.2440900000
   18      H       3.8415290000    -1.1539430000     0.4689660000
   19      H       2.8984450000     0.6464300000     1.8925800000
   20      H       0.5733200000     1.3632210000     1.6120990000
 ----------------------------------------------------------------
 Nuclear Repulsion Energy =         408.13215830 hartrees
 There are       33 alpha and       32 beta electrons
 Requested basis set is def2-TZVP
 There are 143 shells and 345 basis functions

 Total QAlloc Memory Limit  96000 MB
 Mega-Array Size       188 MB
 MEM_STATIC part       192 MB
 A cutoff of  1.0D-08 yielded   8328 shell pairs
 There are     49002 function pairs (     62587 Cartesian)
 Smallest overlap matrix eigenvalue = 8.77E-06

 Q-Chem warning in module stvman/mkSTV.C, line 318:

 Overlap eigenvalue is smaller than square root of threshold
 Use THRESH >= 12 to get rid of this warning


 Scale SEOQF with 1.000000e-01/1.000000e-01/1.000000e-01

 Standard Electronic Orientation quadrupole field applied
 Nucleus-field energy     =     0.0000000053 hartrees
 Guess from superposition of atomic densities
 Warning:  Energy on first SCF cycle will be non-variational
 SAD guess density has 65.000000 electrons

 -----------------------------------------------------------------------
  General SCF calculation program by
  Eric Jon Sundstrom, Paul Horn, Yuezhi Mao, Dmitri Zuev, Alec White,
  David Stuck, Shaama M.S., Shane Yost, Joonho Lee, David Small,
  Daniel Levine, Susi Lehtola, Hugh Burton, Evgeny Epifanovsky,
  Bang C. Huynh
 -----------------------------------------------------------------------
 Exchange:     0.1670 Hartree-Fock + 1.0000 wB97X-V + LR-HF
 Correlation:  1.0000 wB97X-V
 Using SG-3 standard quadrature grid
 Nonlocal Correlation:  VV10 with C = 0.0100 and b = 6.00 and scale = 1.00000
 Grid used for NLC:  SG-1 standard quadrature
 using 32 threads for integral computing
 -------------------------------------------------------
 OpenMP Integral computing Module                
 Release: version 1.0, May 2013, Q-Chem Inc. Pittsburgh 
 -------------------------------------------------------
 using 32 threads for integral computing
 -------------------------------------------------------
 OpenMP Integral computing Module                
 Release: version 1.0, May 2013, Q-Chem Inc. Pittsburgh 
 -------------------------------------------------------
 -------------------------------------------------------
 OpenMP BLAS3 based DFT computing Module                
 Release: version 1.0, May 2013, Q-Chem Inc. Pittsburgh 
 -------------------------------------------------------
 -------------------------------------------------------
 OpenMP BLAS3 based DFT computing Module                
 Release: version 1.0, May 2013, Q-Chem Inc. Pittsburgh 
 -------------------------------------------------------
 -------------------------------------------------------
 OpenMP BLAS3 based DFT computing Module                
 Release: version 1.0, May 2013, Q-Chem Inc. Pittsburgh 
 -------------------------------------------------------
 A unrestricted SCF calculation will be
 performed using DIIS
 SCF converges when DIIS error is below 1.0e-05
 ---------------------------------------
  Cycle       Energy         DIIS error
 ---------------------------------------
    1    -352.4030349100      1.48e-02  
    2    -349.4845270597      1.00e-03  
    3    -349.5347728896      6.26e-04  
    4    -349.5579798563      1.12e-04  
    5    -349.5595457250      6.15e-05  
    6    -349.5600011961      2.34e-05  
    7    -349.5602030412      1.24e-05  
    8    -349.5602529063      6.50e-06  Convergence criterion met
 ---------------------------------------
 SCF time:   CPU 884.31s  wall 29.00s 
<S^2> =          0.780781941
 SCF   energy in the final basis set =     -349.5602529063
 Total energy in the final basis set =     -349.5602529063
 
 --------------------------------------------------------------
 
                    Orbital Energies (a.u.)
 --------------------------------------------------------------
 
 Alpha MOs
 -- Occupied --
-10.2850 -10.2787 -10.2691 -10.2691 -10.2686 -10.2685 -10.2662 -10.2635
-10.2635  -0.9943  -0.9380  -0.8743  -0.8645  -0.8266  -0.7444  -0.7219
 -0.6703  -0.6231  -0.5675  -0.5647  -0.5574  -0.5518  -0.5258  -0.5084
 -0.5035  -0.4812  -0.4800  -0.4644  -0.4367  -0.4329  -0.3700  -0.3466
 -0.2557
 -- Virtual --
  0.0698   0.0917   0.1099   0.1391   0.1412   0.1686   0.1696   0.1830
  0.1904   0.1962   0.2030   0.2033   0.2175   0.2242   0.2430   0.2500
  0.2592   0.2913   0.2943   0.3024   0.3028   0.3135   0.3232   0.3378
  0.3474   0.3477   0.3584   0.3639   0.3847   0.3900   0.4071   0.4075
  0.4319   0.4382   0.4503   0.4587   0.4647   0.4671   0.4721   0.4791
  0.4884   0.5003   0.5072   0.5134   0.5298   0.5326   0.5403   0.5467
  0.5479   0.5640   0.5746   0.5794   0.5908   0.5919   0.5957   0.6146
  0.6219   0.6327   0.6445   0.6906   0.6913   0.7385   0.7438   0.7535
  0.7559   0.7641   0.7849   0.8006   0.8151   0.8422   0.8499   0.8501
  0.8648   0.8761   0.9164   0.9426   0.9517   0.9693   0.9767   0.9828
  0.9904   1.0218   1.0345   1.0412   1.0450   1.0890   1.1156   1.1215
  1.1262   1.1460   1.1539   1.1569   1.1707   1.1849   1.2155   1.2638
  1.2847   1.3044   1.3219   1.3404   1.3424   1.3472   1.3593   1.3782
  1.4009   1.4303   1.4422   1.4508   1.4876   1.5177   1.5197   1.5485
  1.5677   1.5772   1.6065   1.6134   1.6191   1.6304   1.6318   1.6371
  1.6565   1.6588   1.6751   1.7116   1.7192   1.7207   1.7508   1.7599
  1.7823   1.7877   1.7928   1.8113   1.8243   1.8309   1.8454   1.8715
  1.8911   1.9503   1.9733   2.0038   2.0163   2.0351   2.0490   2.0812
  2.0896   2.1098   2.1121   2.1448   2.1567   2.1859   2.2188   2.2317
  2.2434   2.2480   2.2780   2.3219   2.3274   2.3399   2.3602   2.3740
  2.3919   2.4169   2.4580   2.4675   2.4870   2.4902   2.4960   2.5227
  2.5537   2.5892   2.6106   2.6263   2.6336   2.6564   2.6707   2.6846
  2.6876   2.7192   2.7307   2.7405   2.7689   2.7778   2.7815   2.7880
  2.8016   2.8073   2.8214   2.8378   2.8597   2.8724   2.8883   2.9061
  2.9122   2.9306   2.9345   2.9599   2.9619   2.9694   2.9701   2.9787
  2.9969   3.0348   3.0607   3.0822   3.1133   3.1350   3.1375   3.1649
  3.1762   3.1907   3.2109   3.2245   3.2356   3.2450   3.2629   3.2736
  3.2785   3.2844   3.3207   3.3250   3.3333   3.3520   3.3549   3.3578
  3.3720   3.4027   3.4152   3.4172   3.4384   3.4466   3.4546   3.4722
  3.4871   3.5064   3.5090   3.5256   3.5509   3.5578   3.5748   3.5826
  3.6024   3.6243   3.6403   3.6600   3.6703   3.6943   3.7274   3.7399
  3.7411   3.7584   3.7949   3.8152   3.8400   3.8567   3.8836   3.9247
  3.9406   4.0142   4.0466   4.0559   4.0650   4.0768   4.1268   4.1362
  4.1582   4.1711   4.2123   4.2638   4.2757   4.2880   4.2961   4.3289
  4.3431   4.3469   4.3684   4.4247   4.4434   4.4445   4.4559   4.4658
  4.5141   4.5484   4.5746   4.6126   4.6208   4.6731   4.7853   4.7950
  4.8369   4.8623   4.9292   4.9849   4.9890   5.0031   5.0791   5.1940
  5.2592   5.3672   5.4163   5.5097   5.5694   5.6332   5.8346  22.1185
 22.4821  22.5224  22.6830  22.7138  22.8212  22.8337  22.9453  23.3519
 
 Beta MOs
 -- Occupied --
-10.2807 -10.2753 -10.2699 -10.2699 -10.2668 -10.2668 -10.2643 -10.2641
-10.2640  -0.9908  -0.9257  -0.8721  -0.8613  -0.8245  -0.7361  -0.7205
 -0.6629  -0.6165  -0.5645  -0.5611  -0.5511  -0.5394  -0.5250  -0.5003
 -0.5001  -0.4792  -0.4744  -0.4613  -0.4332  -0.4308  -0.3483  -0.3386
 -- Virtual --
  0.0121   0.0750   0.1106   0.1190   0.1393   0.1419   0.1690   0.1697
  0.1837   0.1912   0.1978   0.2038   0.2042   0.2186   0.2274   0.2437
  0.2542   0.2616   0.2920   0.2949   0.3048   0.3071   0.3152   0.3253
  0.3403   0.3478   0.3481   0.3595   0.3714   0.3866   0.3957   0.4098
  0.4123   0.4337   0.4422   0.4522   0.4589   0.4678   0.4705   0.4811
  0.4832   0.4893   0.5011   0.5074   0.5155   0.5313   0.5346   0.5457
  0.5489   0.5509   0.5659   0.5754   0.5819   0.5926   0.5929   0.6014
  0.6166   0.6241   0.6358   0.6486   0.6916   0.6920   0.7414   0.7463
  0.7539   0.7588   0.7672   0.7869   0.8023   0.8172   0.8449   0.8504
  0.8512   0.8691   0.8791   0.9187   0.9448   0.9557   0.9713   0.9782
  0.9843   0.9935   1.0222   1.0386   1.0425   1.0495   1.0922   1.1180
  1.1216   1.1286   1.1482   1.1560   1.1591   1.1726   1.1886   1.2181
  1.2715   1.2896   1.3087   1.3232   1.3417   1.3448   1.3500   1.3625
  1.3792   1.4025   1.4371   1.4476   1.4567   1.4907   1.5206   1.5242
  1.5509   1.5704   1.5792   1.6151   1.6152   1.6280   1.6331   1.6362
  1.6388   1.6584   1.6618   1.6755   1.7143   1.7216   1.7226   1.7528
  1.7711   1.7846   1.7891   1.7950   1.8129   1.8276   1.8326   1.8478
  1.8732   1.8970   1.9509   1.9750   2.0058   2.0186   2.0391   2.0515
  2.0855   2.0922   2.1178   2.1184   2.1466   2.1611   2.1905   2.2201
  2.2341   2.2457   2.2525   2.2869   2.3249   2.3314   2.3435   2.3622
  2.3773   2.3925   2.4203   2.4611   2.4710   2.4917   2.4957   2.4997
  2.5258   2.5574   2.5909   2.6122   2.6281   2.6372   2.6597   2.6729
  2.6874   2.6888   2.7225   2.7322   2.7423   2.7715   2.7827   2.7834
  2.7893   2.8041   2.8094   2.8240   2.8410   2.8652   2.8741   2.8920
  2.9087   2.9193   2.9368   2.9384   2.9623   2.9687   2.9722   2.9731
  2.9821   3.0009   3.0403   3.0661   3.0835   3.1176   3.1424   3.1433
  3.1670   3.1804   3.1934   3.2121   3.2294   3.2384   3.2476   3.2647
  3.2794   3.2820   3.2950   3.3233   3.3273   3.3465   3.3541   3.3579
  3.3661   3.3735   3.4091   3.4194   3.4214   3.4418   3.4501   3.4571
  3.4734   3.4889   3.5091   3.5101   3.5298   3.5546   3.5594   3.5787
  3.5863   3.6092   3.6273   3.6432   3.6614   3.6714   3.6976   3.7319
  3.7447   3.7463   3.7615   3.8049   3.8161   3.8420   3.8593   3.8875
  3.9292   3.9466   4.0203   4.0477   4.0608   4.0684   4.0850   4.1284
  4.1412   4.1638   4.1779   4.2169   4.2650   4.2794   4.2895   4.2985
  4.3310   4.3449   4.3485   4.3708   4.4316   4.4463   4.4465   4.4595
  4.4677   4.5185   4.5557   4.5776   4.6186   4.6273   4.6780   4.7885
  4.7988   4.8396   4.8648   4.9310   4.9891   4.9900   5.0085   5.0823
  5.1958   5.2616   5.3681   5.4187   5.5133   5.5709   5.6373   5.8365
 22.1197  22.4817  22.5222  22.6850  22.7126  22.8279  22.8360  22.9483
 23.3522
 --------------------------------------------------------------
 
          Ground-State Mulliken Net Atomic Charges

     Atom                 Charge (a.u.)    Spin (a.u.)
  --------------------------------------------------------
      1 C                    -0.385156      -0.043262
      2 C                     0.039082       0.780890
      3 C                    -0.385387      -0.043239
      4 C                     0.125537      -0.144561
      5 C                    -0.204241       0.168197
      6 C                    -0.134978      -0.089319
      7 C                    -0.125751       0.165674
      8 C                    -0.135049      -0.089279
      9 C                    -0.204272       0.168153
     10 H                     0.130939       0.016119
     11 H                     0.133287       0.045120
     12 H                     0.127618       0.008851
     13 H                     0.127717       0.008851
     14 H                     0.130983       0.016120
     15 H                     0.133333       0.045125
     16 H                     0.133723      -0.006232
     17 H                     0.119698       0.002747
     18 H                     0.119448      -0.006467
     19 H                     0.119751       0.002748
     20 H                     0.133716      -0.006235
  --------------------------------------------------------
  Sum of atomic charges =    -0.000000
  Sum of spin   charges =     1.000000

 -----------------------------------------------------------------
                    Cartesian Multipole Moments
 -----------------------------------------------------------------
    Charge (ESU x 10^10)
                -0.0000
    Dipole Moment (Debye)
         X      -0.6820      Y       0.2049      Z      -0.0832
       Tot       0.7169
    Quadrupole Moments (Debye-Ang)
        XX     -51.3957     XY      -1.7525     YY     -55.0773
        XZ       1.5512     YZ       3.5356     ZZ     -54.6863
    Octopole Moments (Debye-Ang^2)
       XXX     -38.6214    XXY      -0.0945    XYY     -15.0294
       YYY      14.6163    XXZ       2.8115    XYZ       4.9728
       YYZ      -5.5081    XZZ     -14.9756    YZZ       6.0930
       ZZZ      -5.6803
    Hexadecapole Moments (Debye-Ang^3)
      XXXX   -1154.0288   XXXY     134.3544   XXYY    -249.9461
      XYYY     157.4586   YYYY    -326.3170   XXXZ     -59.4142
      XXYZ     -16.0964   XYYZ     -32.5627   YYYZ     -62.4588
      XXZZ    -263.5805   XYZZ      58.0584   YYZZ    -111.6292
      XZZZ     -79.1818   YZZZ     -66.8325   ZZZZ    -374.0217
 -----------------------------------------------------------------

 Begin NBO analysis for the ground state 


 *********************************** NBO 5.0 ***********************************
             N A T U R A L   A T O M I C   O R B I T A L   A N D
          N A T U R A L   B O N D   O R B I T A L   A N A L Y S I S
 *******************************************************************************
  (c) Copyright 1996-2002 Board of Regents of the University of Wisconsin System
      on behalf of the Theoretical Chemistry Institute.  All Rights Reserved.

          Cite this program as:

          NBO 5.0.  E. D. Glendening, J. K. Badenhoop, A. E. Reed,
          J. E. Carpenter, J. A. Bohmann, C. M. Morales, and F. Weinhold
          (Theoretical Chemistry Institute, University of Wisconsin,
          Madison, WI, 2001); http://www.chem.wisc.edu/~nbo5
  This is an open-shell NBO calculation

 Job title: Starting NBO analysis.                                          

 Storage needed:      596625 in NPA,      477566 in NBO (    23999913 available)


 NATURAL POPULATIONS:  Natural atomic orbital occupancies 
                                                          
  NAO Atom No lang   Type(AO)    Occupancy      Spin      
 -------------------------------------------------------  
   1    C  1  s      Cor( 1s)     1.99942    -0.00000
   2    C  1  s      Val( 2s)     1.10082    -0.00553
   3    C  1  s      Ryd( 3s)     0.00025     0.00000
   4    C  1  s      Ryd( 4s)     0.00001    -0.00000
   5    C  1  s      Ryd( 5s)     0.00000    -0.00000
   6    C  1  px     Val( 2p)     1.19170    -0.00829
   7    C  1  px     Ryd( 3p)     0.00114     0.00014
   8    C  1  px     Ryd( 4p)     0.00012     0.00000
   9    C  1  py     Val( 2p)     1.21016    -0.01043
  10    C  1  py     Ryd( 3p)     0.00125     0.00062
  11    C  1  py     Ryd( 4p)     0.00014     0.00011
  12    C  1  pz     Val( 2p)     1.13917    -0.01500
  13    C  1  pz     Ryd( 3p)     0.00088     0.00013
  14    C  1  pz     Ryd( 4p)     0.00022     0.00000
  15    C  1  dxy    Ryd( 3d)     0.00165     0.00016
  16    C  1  dxy    Ryd( 4d)     0.00002     0.00001
  17    C  1  dxz    Ryd( 3d)     0.00221    -0.00012
  18    C  1  dxz    Ryd( 4d)     0.00004     0.00000
  19    C  1  dyz    Ryd( 3d)     0.00051     0.00016
  20    C  1  dyz    Ryd( 4d)     0.00003    -0.00000
  21    C  1  dx2y2  Ryd( 3d)     0.00088    -0.00006
  22    C  1  dx2y2  Ryd( 4d)     0.00005     0.00001
  23    C  1  dz2    Ryd( 3d)     0.00160     0.00012
  24    C  1  dz2    Ryd( 4d)     0.00005     0.00000
  25    C  1  f(0)   Ryd( 4f)     0.00004     0.00000
  26    C  1  f(c1)  Ryd( 4f)     0.00053    -0.00001
  27    C  1  f(s1)  Ryd( 4f)     0.00004    -0.00000
  28    C  1  f(c2)  Ryd( 4f)     0.00004    -0.00000
  29    C  1  f(s2)  Ryd( 4f)     0.00005     0.00000
  30    C  1  f(c3)  Ryd( 4f)     0.00019     0.00000
  31    C  1  f(s3)  Ryd( 4f)     0.00012    -0.00000
 
  32    C  2  s      Cor( 1s)     1.99937     0.00002
  33    C  2  s      Val( 2s)     0.93989     0.03297
  34    C  2  s      Ryd( 3s)     0.00033    -0.00004
  35    C  2  s      Ryd( 4s)     0.00006    -0.00000
  36    C  2  s      Ryd( 5s)     0.00000     0.00000
  37    C  2  px     Val( 2p)     0.98112     0.08122
  38    C  2  px     Ryd( 3p)     0.00216     0.00021
  39    C  2  px     Ryd( 4p)     0.00012     0.00001
  40    C  2  py     Val( 2p)     0.97013     0.53386
  41    C  2  py     Ryd( 3p)     0.00372     0.00173
  42    C  2  py     Ryd( 4p)     0.00012     0.00002
  43    C  2  pz     Val( 2p)     0.97945     0.11632
  44    C  2  pz     Ryd( 3p)     0.00282     0.00028
  45    C  2  pz     Ryd( 4p)     0.00014     0.00003
  46    C  2  dxy    Ryd( 3d)     0.00033    -0.00007
  47    C  2  dxy    Ryd( 4d)     0.00028    -0.00000
  48    C  2  dxz    Ryd( 3d)     0.00045    -0.00000
  49    C  2  dxz    Ryd( 4d)     0.00030    -0.00000
  50    C  2  dyz    Ryd( 3d)     0.00035    -0.00011
  51    C  2  dyz    Ryd( 4d)     0.00027    -0.00001
  52    C  2  dx2y2  Ryd( 3d)     0.00041    -0.00010
  53    C  2  dx2y2  Ryd( 4d)     0.00021    -0.00000
  54    C  2  dz2    Ryd( 3d)     0.00045    -0.00001
  55    C  2  dz2    Ryd( 4d)     0.00029     0.00001
  56    C  2  f(0)   Ryd( 4f)     0.00006     0.00002
  57    C  2  f(c1)  Ryd( 4f)     0.00028     0.00003
  58    C  2  f(s1)  Ryd( 4f)     0.00016    -0.00005
  59    C  2  f(c2)  Ryd( 4f)     0.00014     0.00001
  60    C  2  f(s2)  Ryd( 4f)     0.00022     0.00002
  61    C  2  f(c3)  Ryd( 4f)     0.00018     0.00004
  62    C  2  f(s3)  Ryd( 4f)     0.00020    -0.00002
 
  63    C  3  s      Cor( 1s)     1.99942    -0.00000
  64    C  3  s      Val( 2s)     1.10082    -0.00554
  65    C  3  s      Ryd( 3s)     0.00025     0.00000
  66    C  3  s      Ryd( 4s)     0.00001    -0.00000
  67    C  3  s      Ryd( 5s)     0.00000    -0.00000
  68    C  3  px     Val( 2p)     1.19134    -0.00722
  69    C  3  px     Ryd( 3p)     0.00116     0.00009
  70    C  3  px     Ryd( 4p)     0.00015     0.00002
  71    C  3  py     Val( 2p)     1.18781    -0.01438
  72    C  3  py     Ryd( 3p)     0.00092     0.00064
  73    C  3  py     Ryd( 4p)     0.00016     0.00009
  74    C  3  pz     Val( 2p)     1.16187    -0.01213
  75    C  3  pz     Ryd( 3p)     0.00119     0.00015
  76    C  3  pz     Ryd( 4p)     0.00017     0.00000
  77    C  3  dxy    Ryd( 3d)     0.00088    -0.00005
  78    C  3  dxy    Ryd( 4d)     0.00003    -0.00000
  79    C  3  dxz    Ryd( 3d)     0.00149     0.00001
  80    C  3  dxz    Ryd( 4d)     0.00003     0.00000
  81    C  3  dyz    Ryd( 3d)     0.00139    -0.00004
  82    C  3  dyz    Ryd( 4d)     0.00002    -0.00000
  83    C  3  dx2y2  Ryd( 3d)     0.00170     0.00023
  84    C  3  dx2y2  Ryd( 4d)     0.00005     0.00002
  85    C  3  dz2    Ryd( 3d)     0.00138     0.00011
  86    C  3  dz2    Ryd( 4d)     0.00007     0.00001
  87    C  3  f(0)   Ryd( 4f)     0.00012     0.00000
  88    C  3  f(c1)  Ryd( 4f)     0.00022    -0.00000
  89    C  3  f(s1)  Ryd( 4f)     0.00026    -0.00000
  90    C  3  f(c2)  Ryd( 4f)     0.00001     0.00000
  91    C  3  f(s2)  Ryd( 4f)     0.00007    -0.00001
  92    C  3  f(c3)  Ryd( 4f)     0.00020    -0.00000
  93    C  3  f(s3)  Ryd( 4f)     0.00015     0.00000
 
  94    C  4  s      Cor( 1s)     1.99904    -0.00002
  95    C  4  s      Val( 2s)     0.91453    -0.01046
  96    C  4  s      Ryd( 3s)     0.00068     0.00000
  97    C  4  s      Ryd( 4s)     0.00012     0.00000
  98    C  4  s      Ryd( 5s)     0.00000    -0.00000
  99    C  4  px     Val( 2p)     1.07527    -0.02524
 100    C  4  px     Ryd( 3p)     0.00599     0.00011
 101    C  4  px     Ryd( 4p)     0.00014    -0.00003
 102    C  4  py     Val( 2p)     1.04859    -0.05910
 103    C  4  py     Ryd( 3p)     0.00220     0.00012
 104    C  4  py     Ryd( 4p)     0.00015    -0.00001
 105    C  4  pz     Val( 2p)     1.04711    -0.04594
 106    C  4  pz     Ryd( 3p)     0.00358     0.00013
 107    C  4  pz     Ryd( 4p)     0.00017    -0.00001
 108    C  4  dxy    Ryd( 3d)     0.00092     0.00021
 109    C  4  dxy    Ryd( 4d)     0.00020     0.00002
 110    C  4  dxz    Ryd( 3d)     0.00085     0.00008
 111    C  4  dxz    Ryd( 4d)     0.00030     0.00001
 112    C  4  dyz    Ryd( 3d)     0.00088     0.00007
 113    C  4  dyz    Ryd( 4d)     0.00015     0.00000
 114    C  4  dx2y2  Ryd( 3d)     0.00083     0.00009
 115    C  4  dx2y2  Ryd( 4d)     0.00028     0.00001
 116    C  4  dz2    Ryd( 3d)     0.00048     0.00000
 117    C  4  dz2    Ryd( 4d)     0.00021     0.00001
 118    C  4  f(0)   Ryd( 4f)     0.00022    -0.00001
 119    C  4  f(c1)  Ryd( 4f)     0.00031     0.00000
 120    C  4  f(s1)  Ryd( 4f)     0.00039    -0.00001
 121    C  4  f(c2)  Ryd( 4f)     0.00037    -0.00002
 122    C  4  f(s2)  Ryd( 4f)     0.00053    -0.00001
 123    C  4  f(c3)  Ryd( 4f)     0.00028    -0.00001
 124    C  4  f(s3)  Ryd( 4f)     0.00029    -0.00002
 
 125    C  5  s      Cor( 1s)     1.99914     0.00001
 126    C  5  s      Val( 2s)     0.96276     0.00766
 127    C  5  s      Ryd( 3s)     0.00085    -0.00002
 128    C  5  s      Ryd( 4s)     0.00012    -0.00000
 129    C  5  s      Ryd( 5s)     0.00000     0.00000
 130    C  5  px     Val( 2p)     1.08155     0.01845
 131    C  5  px     Ryd( 3p)     0.00275     0.00005
 132    C  5  px     Ryd( 4p)     0.00017     0.00002
 133    C  5  py     Val( 2p)     1.05257     0.06101
 134    C  5  py     Ryd( 3p)     0.00284     0.00051
 135    C  5  py     Ryd( 4p)     0.00019     0.00005
 136    C  5  pz     Val( 2p)     1.08694     0.07797
 137    C  5  pz     Ryd( 3p)     0.00347     0.00049
 138    C  5  pz     Ryd( 4p)     0.00019     0.00004
 139    C  5  dxy    Ryd( 3d)     0.00070     0.00002
 140    C  5  dxy    Ryd( 4d)     0.00025    -0.00000
 141    C  5  dxz    Ryd( 3d)     0.00077    -0.00004
 142    C  5  dxz    Ryd( 4d)     0.00026    -0.00000
 143    C  5  dyz    Ryd( 3d)     0.00110    -0.00006
 144    C  5  dyz    Ryd( 4d)     0.00010     0.00000
 145    C  5  dx2y2  Ryd( 3d)     0.00110    -0.00001
 146    C  5  dx2y2  Ryd( 4d)     0.00014    -0.00000
 147    C  5  dz2    Ryd( 3d)     0.00052     0.00003
 148    C  5  dz2    Ryd( 4d)     0.00011     0.00000
 149    C  5  f(0)   Ryd( 4f)     0.00021    -0.00000
 150    C  5  f(c1)  Ryd( 4f)     0.00022    -0.00000
 151    C  5  f(s1)  Ryd( 4f)     0.00036     0.00002
 152    C  5  f(c2)  Ryd( 4f)     0.00021     0.00001
 153    C  5  f(s2)  Ryd( 4f)     0.00047     0.00002
 154    C  5  f(c3)  Ryd( 4f)     0.00029     0.00000
 155    C  5  f(s3)  Ryd( 4f)     0.00028    -0.00001
 
 156    C  6  s      Cor( 1s)     1.99922    -0.00000
 157    C  6  s      Val( 2s)     0.97116    -0.00442
 158    C  6  s      Ryd( 3s)     0.00088     0.00001
 159    C  6  s      Ryd( 4s)     0.00003     0.00000
 160    C  6  s      Ryd( 5s)     0.00000    -0.00000
 161    C  6  px     Val( 2p)     1.06058    -0.01044
 162    C  6  px     Ryd( 3p)     0.00354    -0.00003
 163    C  6  px     Ryd( 4p)     0.00014    -0.00001
 164    C  6  py     Val( 2p)     1.08758    -0.03553
 165    C  6  py     Ryd( 3p)     0.00314    -0.00011
 166    C  6  py     Ryd( 4p)     0.00015    -0.00002
 167    C  6  pz     Val( 2p)     1.06429    -0.03570
 168    C  6  pz     Ryd( 3p)     0.00295    -0.00011
 169    C  6  pz     Ryd( 4p)     0.00014    -0.00002
 170    C  6  dxy    Ryd( 3d)     0.00093     0.00006
 171    C  6  dxy    Ryd( 4d)     0.00016     0.00000
 172    C  6  dxz    Ryd( 3d)     0.00080     0.00004
 173    C  6  dxz    Ryd( 4d)     0.00018     0.00000
 174    C  6  dyz    Ryd( 3d)     0.00102     0.00004
 175    C  6  dyz    Ryd( 4d)     0.00017    -0.00000
 176    C  6  dx2y2  Ryd( 3d)     0.00082     0.00000
 177    C  6  dx2y2  Ryd( 4d)     0.00017     0.00000
 178    C  6  dz2    Ryd( 3d)     0.00063     0.00001
 179    C  6  dz2    Ryd( 4d)     0.00008     0.00001
 180    C  6  f(0)   Ryd( 4f)     0.00020     0.00000
 181    C  6  f(c1)  Ryd( 4f)     0.00029    -0.00000
 182    C  6  f(s1)  Ryd( 4f)     0.00025    -0.00000
 183    C  6  f(c2)  Ryd( 4f)     0.00036    -0.00000
 184    C  6  f(s2)  Ryd( 4f)     0.00042    -0.00001
 185    C  6  f(c3)  Ryd( 4f)     0.00024    -0.00000
 186    C  6  f(s3)  Ryd( 4f)     0.00023    -0.00000
 
 187    C  7  s      Cor( 1s)     1.99919     0.00000
 188    C  7  s      Val( 2s)     0.96943     0.00659
 189    C  7  s      Ryd( 3s)     0.00084    -0.00001
 190    C  7  s      Ryd( 4s)     0.00003    -0.00000
 191    C  7  s      Ryd( 5s)     0.00000     0.00000
 192    C  7  px     Val( 2p)     1.15562     0.01538
 193    C  7  px     Ryd( 3p)     0.00442     0.00003
 194    C  7  px     Ryd( 4p)     0.00015     0.00002
 195    C  7  py     Val( 2p)     1.04355     0.07082
 196    C  7  py     Ryd( 3p)     0.00282     0.00043
 197    C  7  py     Ryd( 4p)     0.00020     0.00006
 198    C  7  pz     Val( 2p)     1.03589     0.06748
 199    C  7  pz     Ryd( 3p)     0.00281     0.00046
 200    C  7  pz     Ryd( 4p)     0.00021     0.00006
 201    C  7  dxy    Ryd( 3d)     0.00102    -0.00002
 202    C  7  dxy    Ryd( 4d)     0.00016     0.00000
 203    C  7  dxz    Ryd( 3d)     0.00121    -0.00001
 204    C  7  dxz    Ryd( 4d)     0.00011     0.00000
 205    C  7  dyz    Ryd( 3d)     0.00107    -0.00006
 206    C  7  dyz    Ryd( 4d)     0.00009     0.00000
 207    C  7  dx2y2  Ryd( 3d)     0.00065    -0.00002
 208    C  7  dx2y2  Ryd( 4d)     0.00025     0.00000
 209    C  7  dz2    Ryd( 3d)     0.00035    -0.00003
 210    C  7  dz2    Ryd( 4d)     0.00018    -0.00000
 211    C  7  f(0)   Ryd( 4f)     0.00018     0.00001
 212    C  7  f(c1)  Ryd( 4f)     0.00022     0.00000
 213    C  7  f(s1)  Ryd( 4f)     0.00040     0.00002
 214    C  7  f(c2)  Ryd( 4f)     0.00037     0.00001
 215    C  7  f(s2)  Ryd( 4f)     0.00051     0.00001
 216    C  7  f(c3)  Ryd( 4f)     0.00018    -0.00000
 217    C  7  f(s3)  Ryd( 4f)     0.00021    -0.00000
 
 218    C  8  s      Cor( 1s)     1.99922    -0.00000
 219    C  8  s      Val( 2s)     0.97116    -0.00442
 220    C  8  s      Ryd( 3s)     0.00088     0.00001
 221    C  8  s      Ryd( 4s)     0.00003     0.00000
 222    C  8  s      Ryd( 5s)     0.00000    -0.00000
 223    C  8  px     Val( 2p)     1.08431    -0.00972
 224    C  8  px     Ryd( 3p)     0.00372    -0.00001
 225    C  8  px     Ryd( 4p)     0.00014    -0.00001
 226    C  8  py     Val( 2p)     1.04703    -0.03647
 227    C  8  py     Ryd( 3p)     0.00283    -0.00013
 228    C  8  py     Ryd( 4p)     0.00014    -0.00002
 229    C  8  pz     Val( 2p)     1.08110    -0.03548
 230    C  8  pz     Ryd( 3p)     0.00308    -0.00010
 231    C  8  pz     Ryd( 4p)     0.00014    -0.00002
 232    C  8  dxy    Ryd( 3d)     0.00068     0.00002
 233    C  8  dxy    Ryd( 4d)     0.00020     0.00000
 234    C  8  dxz    Ryd( 3d)     0.00070     0.00005
 235    C  8  dxz    Ryd( 4d)     0.00023     0.00000
 236    C  8  dyz    Ryd( 3d)     0.00120     0.00003
 237    C  8  dyz    Ryd( 4d)     0.00011    -0.00000
 238    C  8  dx2y2  Ryd( 3d)     0.00107     0.00005
 239    C  8  dx2y2  Ryd( 4d)     0.00012     0.00000
 240    C  8  dz2    Ryd( 3d)     0.00054    -0.00001
 241    C  8  dz2    Ryd( 4d)     0.00009     0.00001
 242    C  8  f(0)   Ryd( 4f)     0.00021     0.00000
 243    C  8  f(c1)  Ryd( 4f)     0.00021    -0.00000
 244    C  8  f(s1)  Ryd( 4f)     0.00034    -0.00000
 245    C  8  f(c2)  Ryd( 4f)     0.00022    -0.00001
 246    C  8  f(s2)  Ryd( 4f)     0.00047    -0.00001
 247    C  8  f(c3)  Ryd( 4f)     0.00028    -0.00000
 248    C  8  f(s3)  Ryd( 4f)     0.00025    -0.00000
 
 249    C  9  s      Cor( 1s)     1.99914     0.00001
 250    C  9  s      Val( 2s)     0.96276     0.00766
 251    C  9  s      Ryd( 3s)     0.00085    -0.00002
 252    C  9  s      Ryd( 4s)     0.00012    -0.00000
 253    C  9  s      Ryd( 5s)     0.00000     0.00000
 254    C  9  px     Val( 2p)     1.06080     0.01310
 255    C  9  px     Ryd( 3p)     0.00260     0.00018
 256    C  9  px     Ryd( 4p)     0.00014     0.00000
 257    C  9  py     Val( 2p)     1.09190     0.06439
 258    C  9  py     Ryd( 3p)     0.00324     0.00041
 259    C  9  py     Ryd( 4p)     0.00021     0.00007
 260    C  9  pz     Val( 2p)     1.06836     0.07993
 261    C  9  pz     Ryd( 3p)     0.00321     0.00046
 262    C  9  pz     Ryd( 4p)     0.00019     0.00004
 263    C  9  dxy    Ryd( 3d)     0.00104    -0.00001
 264    C  9  dxy    Ryd( 4d)     0.00019    -0.00000
 265    C  9  dxz    Ryd( 3d)     0.00081    -0.00001
 266    C  9  dxz    Ryd( 4d)     0.00023     0.00000
 267    C  9  dyz    Ryd( 3d)     0.00094    -0.00006
 268    C  9  dyz    Ryd( 4d)     0.00014    -0.00000
 269    C  9  dx2y2  Ryd( 3d)     0.00079     0.00001
 270    C  9  dx2y2  Ryd( 4d)     0.00021    -0.00000
 271    C  9  dz2    Ryd( 3d)     0.00062     0.00001
 272    C  9  dz2    Ryd( 4d)     0.00009    -0.00000
 273    C  9  f(0)   Ryd( 4f)     0.00022     0.00000
 274    C  9  f(c1)  Ryd( 4f)     0.00031     0.00001
 275    C  9  f(s1)  Ryd( 4f)     0.00025     0.00002
 276    C  9  f(c2)  Ryd( 4f)     0.00038     0.00001
 277    C  9  f(s2)  Ryd( 4f)     0.00039     0.00001
 278    C  9  f(c3)  Ryd( 4f)     0.00025    -0.00000
 279    C  9  f(s3)  Ryd( 4f)     0.00024    -0.00000
 
 280    H 10  s      Val( 1s)     0.78336     0.01472
 281    H 10  s      Ryd( 2s)     0.00067     0.00037
 282    H 10  s      Ryd( 3s)     0.00009     0.00001
 283    H 10  px     Ryd( 2p)     0.00029     0.00003
 284    H 10  py     Ryd( 2p)     0.00005    -0.00000
 285    H 10  pz     Ryd( 2p)     0.00045    -0.00000
 
 286    H 11  s      Val( 1s)     0.78308     0.04381
 287    H 11  s      Ryd( 2s)     0.00112     0.00091
 288    H 11  s      Ryd( 3s)     0.00010     0.00001
 289    H 11  px     Ryd( 2p)     0.00015    -0.00000
 290    H 11  py     Ryd( 2p)     0.00061     0.00006
 291    H 11  pz     Ryd( 2p)     0.00009     0.00004
 
 292    H 12  s      Val( 1s)     0.78595     0.00889
 293    H 12  s      Ryd( 2s)     0.00050     0.00014
 294    H 12  s      Ryd( 3s)     0.00008     0.00000
 295    H 12  px     Ryd( 2p)     0.00040     0.00001
 296    H 12  py     Ryd( 2p)     0.00033     0.00000
 297    H 12  pz     Ryd( 2p)     0.00008     0.00001
 
 298    H 13  s      Val( 1s)     0.78595     0.00889
 299    H 13  s      Ryd( 2s)     0.00050     0.00014
 300    H 13  s      Ryd( 3s)     0.00008     0.00000
 301    H 13  px     Ryd( 2p)     0.00067     0.00001
 302    H 13  py     Ryd( 2p)     0.00007    -0.00000
 303    H 13  pz     Ryd( 2p)     0.00007     0.00001
 
 304    H 14  s      Val( 1s)     0.78336     0.01472
 305    H 14  s      Ryd( 2s)     0.00067     0.00037
 306    H 14  s      Ryd( 3s)     0.00009     0.00001
 307    H 14  px     Ryd( 2p)     0.00011     0.00002
 308    H 14  py     Ryd( 2p)     0.00013     0.00001
 309    H 14  pz     Ryd( 2p)     0.00056     0.00000
 
 310    H 15  s      Val( 1s)     0.78309     0.04381
 311    H 15  s      Ryd( 2s)     0.00112     0.00091
 312    H 15  s      Ryd( 3s)     0.00010     0.00001
 313    H 15  px     Ryd( 2p)     0.00009     0.00003
 314    H 15  py     Ryd( 2p)     0.00068     0.00004
 315    H 15  pz     Ryd( 2p)     0.00008     0.00003
 
 316    H 16  s      Val( 1s)     0.79195    -0.00474
 317    H 16  s      Ryd( 2s)     0.00047     0.00002
 318    H 16  s      Ryd( 3s)     0.00016     0.00000
 319    H 16  px     Ryd( 2p)     0.00025    -0.00000
 320    H 16  py     Ryd( 2p)     0.00025     0.00001
 321    H 16  pz     Ryd( 2p)     0.00042     0.00001
 
 322    H 17  s      Val( 1s)     0.79091     0.00225
 323    H 17  s      Ryd( 2s)     0.00032     0.00001
 324    H 17  s      Ryd( 3s)     0.00017    -0.00000
 325    H 17  px     Ryd( 2p)     0.00015     0.00000
 326    H 17  py     Ryd( 2p)     0.00043    -0.00000
 327    H 17  pz     Ryd( 2p)     0.00030    -0.00000
 
 328    H 18  s      Val( 1s)     0.79154    -0.00470
 329    H 18  s      Ryd( 2s)     0.00029    -0.00001
 330    H 18  s      Ryd( 3s)     0.00016     0.00000
 331    H 18  px     Ryd( 2p)     0.00065    -0.00001
 332    H 18  py     Ryd( 2p)     0.00012     0.00001
 333    H 18  pz     Ryd( 2p)     0.00008     0.00001
 
 334    H 19  s      Val( 1s)     0.79091     0.00225
 335    H 19  s      Ryd( 2s)     0.00032     0.00001
 336    H 19  s      Ryd( 3s)     0.00017    -0.00000
 337    H 19  px     Ryd( 2p)     0.00028     0.00000
 338    H 19  py     Ryd( 2p)     0.00020    -0.00000
 339    H 19  pz     Ryd( 2p)     0.00040    -0.00000
 
 340    H 20  s      Val( 1s)     0.79195    -0.00474
 341    H 20  s      Ryd( 2s)     0.00047     0.00002
 342    H 20  s      Ryd( 3s)     0.00016     0.00000
 343    H 20  px     Ryd( 2p)     0.00014     0.00000
 344    H 20  py     Ryd( 2p)     0.00046     0.00001
 345    H 20  pz     Ryd( 2p)     0.00033     0.00001


 Summary of Natural Population Analysis:

                                     Natural Population                 Natural
             Natural    ---------------------------------------------    Spin
  Atom No    Charge        Core      Valence    Rydberg      Total      Density
 ------------------------------------------------------------------------------
    C  1   -0.65335      1.99942     4.64185    0.01208     6.65335    -0.03797
    C  2    0.11598      1.99937     3.87058    0.01407     5.88402     0.76639
    C  3   -0.65335      1.99942     4.64185    0.01208     6.65335    -0.03798
    C  4   -0.10507      1.99904     4.08549    0.02053     6.10507    -0.14002
    C  5   -0.20062      1.99914     4.18382    0.01766     6.20062     0.16622
    C  6   -0.20071      1.99922     4.18360    0.01789     6.20071    -0.08624
    C  7   -0.22230      1.99919     4.20450    0.01862     6.22230     0.16123
    C  8   -0.20071      1.99922     4.18360    0.01789     6.20071    -0.08624
    C  9   -0.20062      1.99914     4.18381    0.01766     6.20062     0.16622
    H 10    0.21507      0.00000     0.78336    0.00156     0.78493     0.01512
    H 11    0.21484      0.00000     0.78308    0.00208     0.78516     0.04482
    H 12    0.21266      0.00000     0.78595    0.00139     0.78734     0.00906
    H 13    0.21266      0.00000     0.78595    0.00139     0.78734     0.00906
    H 14    0.21507      0.00000     0.78336    0.00156     0.78493     0.01512
    H 15    0.21483      0.00000     0.78309    0.00208     0.78517     0.04483
    H 16    0.20651      0.00000     0.79195    0.00154     0.79349    -0.00470
    H 17    0.20773      0.00000     0.79091    0.00136     0.79227     0.00225
    H 18    0.20715      0.00000     0.79154    0.00131     0.79285    -0.00470
    H 19    0.20773      0.00000     0.79091    0.00136     0.79227     0.00225
    H 20    0.20650      0.00000     0.79195    0.00154     0.79350    -0.00470
 ===============================================================================
 * Total * -0.00000     17.99316    46.84116    0.16568    65.00000     1.00000

                                 Natural Population      
 --------------------------------------------------------
   Core                      17.99316 ( 99.9620% of  18)
   Valence                   46.84116 ( 99.6620% of  47)
   Natural Minimal Basis     64.83432 ( 99.7451% of  65)
   Natural Rydberg Basis      0.16568 (  0.2549% of  65)
 --------------------------------------------------------

    Atom No         Natural Electron Configuration
 ----------------------------------------------------------------------------
      C  1      [core]2s( 1.10)2p( 3.54)3d( 0.01)
      C  2      [core]2s( 0.94)2p( 2.93)3p( 0.01)
      C  3      [core]2s( 1.10)2p( 3.54)3d( 0.01)
      C  4      [core]2s( 0.91)2p( 3.17)3p( 0.01)
      C  5      [core]2s( 0.96)2p( 3.22)3p( 0.01)
      C  6      [core]2s( 0.97)2p( 3.21)3p( 0.01)
      C  7      [core]2s( 0.97)2p( 3.24)3p( 0.01)
      C  8      [core]2s( 0.97)2p( 3.21)3p( 0.01)
      C  9      [core]2s( 0.96)2p( 3.22)3p( 0.01)
      H 10            1s( 0.78)
      H 11            1s( 0.78)
      H 12            1s( 0.79)
      H 13            1s( 0.79)
      H 14            1s( 0.78)
      H 15            1s( 0.78)
      H 16            1s( 0.79)
      H 17            1s( 0.79)
      H 18            1s( 0.79)
      H 19            1s( 0.79)
      H 20            1s( 0.79)


 ***************************************************
 *******         Alpha spin orbitals         *******
 ***************************************************


 NATURAL POPULATIONS:  Natural atomic orbital occupancies 
                                                          
  NAO Atom No lang   Type(AO)    Occupancy      Energy    
 ---------------------------------------------------------
   1    C  1  s      Cor( 1s)     0.99971     -10.11672
   2    C  1  s      Val( 2s)     0.54764      -0.31001
   3    C  1  s      Ryd( 3s)     0.00013       1.48276
   4    C  1  s      Ryd( 4s)     0.00000       1.81438
   5    C  1  s      Ryd( 5s)     0.00000      21.71661
   6    C  1  px     Val( 2p)     0.59170      -0.12066
   7    C  1  px     Ryd( 3p)     0.00064       0.68479
   8    C  1  px     Ryd( 4p)     0.00006       1.78859
   9    C  1  py     Val( 2p)     0.59987      -0.12384
  10    C  1  py     Ryd( 3p)     0.00093       0.65692
  11    C  1  py     Ryd( 4p)     0.00013       1.77020
  12    C  1  pz     Val( 2p)     0.56208      -0.11336
  13    C  1  pz     Ryd( 3p)     0.00051       0.61782
  14    C  1  pz     Ryd( 4p)     0.00011       1.86893
  15    C  1  dxy    Ryd( 3d)     0.00090       1.86473
  16    C  1  dxy    Ryd( 4d)     0.00002       3.22219
  17    C  1  dxz    Ryd( 3d)     0.00104       2.12356
  18    C  1  dxz    Ryd( 4d)     0.00002       3.33912
  19    C  1  dyz    Ryd( 3d)     0.00033       1.62960
  20    C  1  dyz    Ryd( 4d)     0.00002       3.00207
  21    C  1  dx2y2  Ryd( 3d)     0.00041       1.73562
  22    C  1  dx2y2  Ryd( 4d)     0.00003       3.09033
  23    C  1  dz2    Ryd( 3d)     0.00086       1.96256
  24    C  1  dz2    Ryd( 4d)     0.00003       3.24994
  25    C  1  f(0)   Ryd( 4f)     0.00002       3.49576
  26    C  1  f(c1)  Ryd( 4f)     0.00026       3.72271
  27    C  1  f(s1)  Ryd( 4f)     0.00002       3.59889
  28    C  1  f(c2)  Ryd( 4f)     0.00002       3.51761
  29    C  1  f(s2)  Ryd( 4f)     0.00003       3.38643
  30    C  1  f(c3)  Ryd( 4f)     0.00010       3.59242
  31    C  1  f(s3)  Ryd( 4f)     0.00006       3.46066
 
  32    C  2  s      Cor( 1s)     0.99969     -10.14761
  33    C  2  s      Val( 2s)     0.48643      -0.25973
  34    C  2  s      Ryd( 4s)     0.00015       1.71986
  35    C  2  s      Ryd( 3s)     0.00003       1.55442
  36    C  2  s      Ryd( 5s)     0.00000      18.64886
  37    C  2  px     Val( 2p)     0.53117      -0.05382
  38    C  2  px     Ryd( 3p)     0.00119       0.97516
  39    C  2  px     Ryd( 4p)     0.00006       2.14099
  40    C  2  py     Val( 2p)     0.75200      -0.18919
  41    C  2  py     Ryd( 3p)     0.00273       0.79902
  42    C  2  py     Ryd( 4p)     0.00007       1.65390
  43    C  2  pz     Val( 2p)     0.54788      -0.07428
  44    C  2  pz     Ryd( 3p)     0.00155       1.11196
  45    C  2  pz     Ryd( 4p)     0.00009       1.97766
  46    C  2  dxy    Ryd( 4d)     0.00013       3.31627
  47    C  2  dxy    Ryd( 3d)     0.00014       2.96447
  48    C  2  dxz    Ryd( 3d)     0.00022       3.05968
  49    C  2  dxz    Ryd( 4d)     0.00015       3.59405
  50    C  2  dyz    Ryd( 4d)     0.00012       3.41884
  51    C  2  dyz    Ryd( 3d)     0.00013       2.92520
  52    C  2  dx2y2  Ryd( 4d)     0.00016       3.68607
  53    C  2  dx2y2  Ryd( 3d)     0.00010       3.04335
  54    C  2  dz2    Ryd( 3d)     0.00022       2.92633
  55    C  2  dz2    Ryd( 4d)     0.00015       3.21538
  56    C  2  f(0)   Ryd( 4f)     0.00004       3.65462
  57    C  2  f(c1)  Ryd( 4f)     0.00016       3.81116
  58    C  2  f(s1)  Ryd( 4f)     0.00006       3.44561
  59    C  2  f(c2)  Ryd( 4f)     0.00008       3.64618
  60    C  2  f(s2)  Ryd( 4f)     0.00012       3.63387
  61    C  2  f(c3)  Ryd( 4f)     0.00011       3.54524
  62    C  2  f(s3)  Ryd( 4f)     0.00009       3.54339
 
  63    C  3  s      Cor( 1s)     0.99971     -10.11671
  64    C  3  s      Val( 2s)     0.54764      -0.31001
  65    C  3  s      Ryd( 3s)     0.00013       1.48262
  66    C  3  s      Ryd( 4s)     0.00000       1.81442
  67    C  3  s      Ryd( 5s)     0.00000      21.71681
  68    C  3  px     Val( 2p)     0.59206      -0.12012
  69    C  3  px     Ryd( 3p)     0.00063       0.74201
  70    C  3  px     Ryd( 4p)     0.00009       1.82953
  71    C  3  py     Val( 2p)     0.58672      -0.12114
  72    C  3  py     Ryd( 3p)     0.00078       0.59084
  73    C  3  py     Ryd( 4p)     0.00013       1.77649
  74    C  3  pz     Val( 2p)     0.57487      -0.11659
  75    C  3  pz     Ryd( 3p)     0.00067       0.62664
  76    C  3  pz     Ryd( 4p)     0.00009       1.82181
  77    C  3  dxy    Ryd( 3d)     0.00041       1.73797
  78    C  3  dxy    Ryd( 4d)     0.00001       3.06639
  79    C  3  dxz    Ryd( 3d)     0.00075       1.84181
  80    C  3  dxz    Ryd( 4d)     0.00002       3.12628
  81    C  3  dyz    Ryd( 3d)     0.00068       1.87651
  82    C  3  dyz    Ryd( 4d)     0.00001       3.16496
  83    C  3  dx2y2  Ryd( 3d)     0.00097       1.92635
  84    C  3  dx2y2  Ryd( 4d)     0.00003       3.28138
  85    C  3  dz2    Ryd( 3d)     0.00074       1.93410
  86    C  3  dz2    Ryd( 4d)     0.00004       3.26387
  87    C  3  f(0)   Ryd( 4f)     0.00006       3.55182
  88    C  3  f(c1)  Ryd( 4f)     0.00011       3.60792
  89    C  3  f(s1)  Ryd( 4f)     0.00013       3.69181
  90    C  3  f(c2)  Ryd( 4f)     0.00001       3.41441
  91    C  3  f(s2)  Ryd( 4f)     0.00003       3.37747
  92    C  3  f(c3)  Ryd( 4f)     0.00010       3.58173
  93    C  3  f(s3)  Ryd( 4f)     0.00007       3.54908
 
  94    C  4  s      Cor( 1s)     0.99951     -10.11730
  95    C  4  s      Val( 2s)     0.45204      -0.17055
  96    C  4  s      Ryd( 3s)     0.00034       1.59644
  97    C  4  s      Ryd( 4s)     0.00006       1.82592
  98    C  4  s      Ryd( 5s)     0.00000      20.44504
  99    C  4  px     Val( 2p)     0.52501      -0.05894
 100    C  4  px     Ryd( 3p)     0.00305       1.21013
 101    C  4  px     Ryd( 4p)     0.00005       2.26489
 102    C  4  py     Val( 2p)     0.49474      -0.06754
 103    C  4  py     Ryd( 3p)     0.00116       0.97185
 104    C  4  py     Ryd( 4p)     0.00007       1.90792
 105    C  4  pz     Val( 2p)     0.50058      -0.06764
 106    C  4  pz     Ryd( 3p)     0.00185       1.02186
 107    C  4  pz     Ryd( 4p)     0.00008       1.91892
 108    C  4  dxy    Ryd( 3d)     0.00057       2.74942
 109    C  4  dxy    Ryd( 4d)     0.00011       3.65918
 110    C  4  dxz    Ryd( 3d)     0.00047       2.80382
 111    C  4  dxz    Ryd( 4d)     0.00016       3.76028
 112    C  4  dyz    Ryd( 3d)     0.00048       2.99740
 113    C  4  dyz    Ryd( 4d)     0.00008       3.71340
 114    C  4  dx2y2  Ryd( 3d)     0.00046       2.71505
 115    C  4  dx2y2  Ryd( 4d)     0.00014       3.63429
 116    C  4  dz2    Ryd( 3d)     0.00024       2.36856
 117    C  4  dz2    Ryd( 4d)     0.00011       3.25036
 118    C  4  f(0)   Ryd( 4f)     0.00010       3.49553
 119    C  4  f(c1)  Ryd( 4f)     0.00016       3.56148
 120    C  4  f(s1)  Ryd( 4f)     0.00019       3.50928
 121    C  4  f(c2)  Ryd( 4f)     0.00018       3.65481
 122    C  4  f(s2)  Ryd( 4f)     0.00026       3.67982
 123    C  4  f(c3)  Ryd( 4f)     0.00014       3.57288
 124    C  4  f(s3)  Ryd( 4f)     0.00014       3.57405
 
 125    C  5  s      Cor( 1s)     0.99957     -10.11288
 126    C  5  s      Val( 2s)     0.48521      -0.21114
 127    C  5  s      Ryd( 4s)     0.00041       1.74188
 128    C  5  s      Ryd( 3s)     0.00006       1.50305
 129    C  5  s      Ryd( 5s)     0.00000      20.01315
 130    C  5  px     Val( 2p)     0.55000      -0.06701
 131    C  5  px     Ryd( 3p)     0.00140       1.15055
 132    C  5  px     Ryd( 4p)     0.00009       2.05675
 133    C  5  py     Val( 2p)     0.55679      -0.08917
 134    C  5  py     Ryd( 3p)     0.00168       0.92095
 135    C  5  py     Ryd( 4p)     0.00012       1.82326
 136    C  5  pz     Val( 2p)     0.58245      -0.09860
 137    C  5  pz     Ryd( 3p)     0.00198       0.96847
 138    C  5  pz     Ryd( 4p)     0.00011       1.79310
 139    C  5  dxy    Ryd( 3d)     0.00036       2.27834
 140    C  5  dxy    Ryd( 4d)     0.00013       3.63935
 141    C  5  dxz    Ryd( 3d)     0.00037       2.25879
 142    C  5  dxz    Ryd( 4d)     0.00013       3.44835
 143    C  5  dyz    Ryd( 3d)     0.00052       2.37528
 144    C  5  dyz    Ryd( 4d)     0.00005       3.51439
 145    C  5  dx2y2  Ryd( 3d)     0.00055       2.25251
 146    C  5  dx2y2  Ryd( 4d)     0.00007       3.45921
 147    C  5  dz2    Ryd( 3d)     0.00028       1.94532
 148    C  5  dz2    Ryd( 4d)     0.00006       3.16261
 149    C  5  f(0)   Ryd( 4f)     0.00010       3.42929
 150    C  5  f(c1)  Ryd( 4f)     0.00011       3.56366
 151    C  5  f(s1)  Ryd( 4f)     0.00019       3.47661
 152    C  5  f(c2)  Ryd( 4f)     0.00011       3.55170
 153    C  5  f(s2)  Ryd( 4f)     0.00025       3.71541
 154    C  5  f(c3)  Ryd( 4f)     0.00015       3.62302
 155    C  5  f(s3)  Ryd( 4f)     0.00014       3.67296
 
 156    C  6  s      Cor( 1s)     0.99961     -10.11354
 157    C  6  s      Val( 2s)     0.48337      -0.21010
 158    C  6  s      Ryd( 3s)     0.00044       1.64158
 159    C  6  s      Ryd( 4s)     0.00002       2.23570
 160    C  6  s      Ryd( 5s)     0.00000      20.31209
 161    C  6  px     Val( 2p)     0.52507      -0.05549
 162    C  6  px     Ryd( 3p)     0.00176       1.06133
 163    C  6  px     Ryd( 4p)     0.00006       2.04146
 164    C  6  py     Val( 2p)     0.52602      -0.07697
 165    C  6  py     Ryd( 3p)     0.00151       1.04668
 166    C  6  py     Ryd( 4p)     0.00006       1.74311
 167    C  6  pz     Val( 2p)     0.51429      -0.07353
 168    C  6  pz     Ryd( 3p)     0.00142       1.00456
 169    C  6  pz     Ryd( 4p)     0.00006       1.72986
 170    C  6  dxy    Ryd( 3d)     0.00049       2.32505
 171    C  6  dxy    Ryd( 4d)     0.00008       3.33896
 172    C  6  dxz    Ryd( 3d)     0.00042       2.24976
 173    C  6  dxz    Ryd( 4d)     0.00009       3.49675
 174    C  6  dyz    Ryd( 3d)     0.00053       2.29257
 175    C  6  dyz    Ryd( 4d)     0.00008       3.34769
 176    C  6  dx2y2  Ryd( 3d)     0.00041       2.20674
 177    C  6  dx2y2  Ryd( 4d)     0.00009       3.43236
 178    C  6  dz2    Ryd( 3d)     0.00032       2.01487
 179    C  6  dz2    Ryd( 4d)     0.00005       3.05541
 180    C  6  f(0)   Ryd( 4f)     0.00010       3.48164
 181    C  6  f(c1)  Ryd( 4f)     0.00014       3.58546
 182    C  6  f(s1)  Ryd( 4f)     0.00012       3.39084
 183    C  6  f(c2)  Ryd( 4f)     0.00018       3.61820
 184    C  6  f(s2)  Ryd( 4f)     0.00020       3.67581
 185    C  6  f(c3)  Ryd( 4f)     0.00012       3.62791
 186    C  6  f(s3)  Ryd( 4f)     0.00011       3.57699
 
 187    C  7  s      Cor( 1s)     0.99960     -10.10958
 188    C  7  s      Val( 2s)     0.48801      -0.21825
 189    C  7  s      Ryd( 3s)     0.00041       1.52828
 190    C  7  s      Ryd( 4s)     0.00001       2.26180
 191    C  7  s      Ryd( 5s)     0.00000      20.71137
 192    C  7  px     Val( 2p)     0.58550      -0.07513
 193    C  7  px     Ryd( 3p)     0.00223       1.21723
 194    C  7  px     Ryd( 4p)     0.00008       1.99094
 195    C  7  py     Val( 2p)     0.55718      -0.09407
 196    C  7  py     Ryd( 3p)     0.00162       0.91083
 197    C  7  py     Ryd( 4p)     0.00013       1.72751
 198    C  7  pz     Val( 2p)     0.55169      -0.09152
 199    C  7  pz     Ryd( 3p)     0.00163       0.89795
 200    C  7  pz     Ryd( 4p)     0.00013       1.74072
 201    C  7  dxy    Ryd( 3d)     0.00050       2.16502
 202    C  7  dxy    Ryd( 4d)     0.00008       3.30301
 203    C  7  dxz    Ryd( 3d)     0.00060       2.15163
 204    C  7  dxz    Ryd( 4d)     0.00006       3.32065
 205    C  7  dyz    Ryd( 3d)     0.00051       2.19399
 206    C  7  dyz    Ryd( 4d)     0.00004       3.65729
 207    C  7  dx2y2  Ryd( 3d)     0.00031       2.20303
 208    C  7  dx2y2  Ryd( 4d)     0.00013       3.33637
 209    C  7  dz2    Ryd( 3d)     0.00016       2.05233
 210    C  7  dz2    Ryd( 4d)     0.00009       3.15085
 211    C  7  f(0)   Ryd( 4f)     0.00010       3.46603
 212    C  7  f(c1)  Ryd( 4f)     0.00011       3.57822
 213    C  7  f(s1)  Ryd( 4f)     0.00021       3.54688
 214    C  7  f(c2)  Ryd( 4f)     0.00019       3.56996
 215    C  7  f(s2)  Ryd( 4f)     0.00026       3.61639
 216    C  7  f(c3)  Ryd( 4f)     0.00009       3.53224
 217    C  7  f(s3)  Ryd( 4f)     0.00010       3.57136
 
 218    C  8  s      Cor( 1s)     0.99961     -10.11354
 219    C  8  s      Val( 2s)     0.48337      -0.21010
 220    C  8  s      Ryd( 3s)     0.00044       1.64174
 221    C  8  s      Ryd( 4s)     0.00002       2.23567
 222    C  8  s      Ryd( 5s)     0.00000      20.31104
 223    C  8  px     Val( 2p)     0.53729      -0.05862
 224    C  8  px     Ryd( 3p)     0.00185       1.10398
 225    C  8  px     Ryd( 4p)     0.00006       2.04900
 226    C  8  py     Val( 2p)     0.50528      -0.07178
 227    C  8  py     Ryd( 3p)     0.00135       0.96973
 228    C  8  py     Ryd( 4p)     0.00006       1.72323
 229    C  8  pz     Val( 2p)     0.52281      -0.07559
 230    C  8  pz     Ryd( 3p)     0.00149       1.03884
 231    C  8  pz     Ryd( 4p)     0.00006       1.74221
 232    C  8  dxy    Ryd( 3d)     0.00035       2.22368
 233    C  8  dxy    Ryd( 4d)     0.00010       3.50706
 234    C  8  dxz    Ryd( 3d)     0.00038       2.31972
 235    C  8  dxz    Ryd( 4d)     0.00012       3.36072
 236    C  8  dyz    Ryd( 3d)     0.00062       2.27371
 237    C  8  dyz    Ryd( 4d)     0.00005       3.38522
 238    C  8  dx2y2  Ryd( 3d)     0.00056       2.30723
 239    C  8  dx2y2  Ryd( 4d)     0.00006       3.35312
 240    C  8  dz2    Ryd( 3d)     0.00027       1.96465
 241    C  8  dz2    Ryd( 4d)     0.00005       3.06509
 242    C  8  f(0)   Ryd( 4f)     0.00010       3.42067
 243    C  8  f(c1)  Ryd( 4f)     0.00010       3.56230
 244    C  8  f(s1)  Ryd( 4f)     0.00017       3.45552
 245    C  8  f(c2)  Ryd( 4f)     0.00011       3.54681
 246    C  8  f(s2)  Ryd( 4f)     0.00023       3.70901
 247    C  8  f(c3)  Ryd( 4f)     0.00014       3.61252
 248    C  8  f(s3)  Ryd( 4f)     0.00013       3.65002
 
 249    C  9  s      Cor( 1s)     0.99957     -10.11288
 250    C  9  s      Val( 2s)     0.48521      -0.21114
 251    C  9  s      Ryd( 4s)     0.00041       1.74188
 252    C  9  s      Ryd( 3s)     0.00006       1.50317
 253    C  9  s      Ryd( 5s)     0.00000      20.01350
 254    C  9  px     Val( 2p)     0.53695      -0.06251
 255    C  9  px     Ryd( 3p)     0.00139       1.11720
 256    C  9  px     Ryd( 4p)     0.00007       2.10301
 257    C  9  py     Val( 2p)     0.57814      -0.09651
 258    C  9  py     Ryd( 3p)     0.00183       0.98801
 259    C  9  py     Ryd( 4p)     0.00014       1.76198
 260    C  9  pz     Val( 2p)     0.57415      -0.09576
 261    C  9  pz     Ryd( 3p)     0.00184       0.93476
 262    C  9  pz     Ryd( 4p)     0.00011       1.80815
 263    C  9  dxy    Ryd( 3d)     0.00052       2.25374
 264    C  9  dxy    Ryd( 4d)     0.00009       3.43198
 265    C  9  dxz    Ryd( 3d)     0.00040       2.27860
 266    C  9  dxz    Ryd( 4d)     0.00011       3.60695
 267    C  9  dyz    Ryd( 3d)     0.00044       2.37652
 268    C  9  dyz    Ryd( 4d)     0.00007       3.46549
 269    C  9  dx2y2  Ryd( 3d)     0.00040       2.22894
 270    C  9  dx2y2  Ryd( 4d)     0.00010       3.56035
 271    C  9  dz2    Ryd( 3d)     0.00032       1.97238
 272    C  9  dz2    Ryd( 4d)     0.00005       3.15916
 273    C  9  f(0)   Ryd( 4f)     0.00011       3.49668
 274    C  9  f(c1)  Ryd( 4f)     0.00016       3.59288
 275    C  9  f(s1)  Ryd( 4f)     0.00014       3.40160
 276    C  9  f(c2)  Ryd( 4f)     0.00020       3.65971
 277    C  9  f(s2)  Ryd( 4f)     0.00020       3.65860
 278    C  9  f(c3)  Ryd( 4f)     0.00012       3.63966
 279    C  9  f(s3)  Ryd( 4f)     0.00012       3.58350
 
 280    H 10  s      Val( 1s)     0.39904       0.04400
 281    H 10  s      Ryd( 2s)     0.00052       0.81038
 282    H 10  s      Ryd( 3s)     0.00005       1.95771
 283    H 10  px     Ryd( 2p)     0.00016       2.50117
 284    H 10  py     Ryd( 2p)     0.00003       2.25422
 285    H 10  pz     Ryd( 2p)     0.00023       2.86135
 
 286    H 11  s      Val( 1s)     0.41345       0.02970
 287    H 11  s      Ryd( 2s)     0.00102       0.78562
 288    H 11  s      Ryd( 3s)     0.00005       1.93479
 289    H 11  px     Ryd( 2p)     0.00008       2.41956
 290    H 11  py     Ryd( 2p)     0.00034       2.83605
 291    H 11  pz     Ryd( 2p)     0.00006       2.32217
 
 292    H 12  s      Val( 1s)     0.39742       0.04269
 293    H 12  s      Ryd( 2s)     0.00032       0.99522
 294    H 12  s      Ryd( 3s)     0.00004       1.74807
 295    H 12  px     Ryd( 2p)     0.00020       2.69714
 296    H 12  py     Ryd( 2p)     0.00016       2.54837
 297    H 12  pz     Ryd( 2p)     0.00004       2.36914
 
 298    H 13  s      Val( 1s)     0.39742       0.04271
 299    H 13  s      Ryd( 2s)     0.00032       0.99528
 300    H 13  s      Ryd( 3s)     0.00004       1.74802
 301    H 13  px     Ryd( 2p)     0.00034       3.00197
 302    H 13  py     Ryd( 2p)     0.00003       2.29036
 303    H 13  pz     Ryd( 2p)     0.00004       2.32220
 
 304    H 14  s      Val( 1s)     0.39904       0.04400
 305    H 14  s      Ryd( 2s)     0.00052       0.81035
 306    H 14  s      Ryd( 3s)     0.00005       1.95776
 307    H 14  px     Ryd( 2p)     0.00006       2.33440
 308    H 14  py     Ryd( 2p)     0.00007       2.33123
 309    H 14  pz     Ryd( 2p)     0.00028       2.95114
 
 310    H 15  s      Val( 1s)     0.41345       0.02970
 311    H 15  s      Ryd( 2s)     0.00102       0.78563
 312    H 15  s      Ryd( 3s)     0.00005       1.93479
 313    H 15  px     Ryd( 2p)     0.00006       2.30701
 314    H 15  py     Ryd( 2p)     0.00036       2.97697
 315    H 15  pz     Ryd( 2p)     0.00006       2.29380
 
 316    H 16  s      Val( 1s)     0.39360       0.06255
 317    H 16  s      Ryd( 2s)     0.00024       0.86211
 318    H 16  s      Ryd( 3s)     0.00008       2.01985
 319    H 16  px     Ryd( 2p)     0.00012       2.71490
 320    H 16  py     Ryd( 2p)     0.00013       2.53598
 321    H 16  pz     Ryd( 2p)     0.00022       2.64924
 
 322    H 17  s      Val( 1s)     0.39658       0.06018
 323    H 17  s      Ryd( 2s)     0.00016       0.67048
 324    H 17  s      Ryd( 3s)     0.00008       2.17584
 325    H 17  px     Ryd( 2p)     0.00007       2.61348
 326    H 17  py     Ryd( 2p)     0.00021       2.64435
 327    H 17  pz     Ryd( 2p)     0.00015       2.56345
 
 328    H 18  s      Val( 1s)     0.39342       0.06236
 329    H 18  s      Ryd( 2s)     0.00014       0.66223
 330    H 18  s      Ryd( 3s)     0.00008       2.18149
 331    H 18  px     Ryd( 2p)     0.00032       2.94961
 332    H 18  py     Ryd( 2p)     0.00007       2.45383
 333    H 18  pz     Ryd( 2p)     0.00005       2.42939
 
 334    H 19  s      Val( 1s)     0.39658       0.06018
 335    H 19  s      Ryd( 2s)     0.00016       0.67051
 336    H 19  s      Ryd( 3s)     0.00008       2.17580
 337    H 19  px     Ryd( 2p)     0.00014       2.69392
 338    H 19  py     Ryd( 2p)     0.00010       2.50124
 339    H 19  pz     Ryd( 2p)     0.00020       2.62614
 
 340    H 20  s      Val( 1s)     0.39361       0.06255
 341    H 20  s      Ryd( 2s)     0.00024       0.86217
 342    H 20  s      Ryd( 3s)     0.00008       2.01978
 343    H 20  px     Ryd( 2p)     0.00007       2.63282
 344    H 20  py     Ryd( 2p)     0.00023       2.68092
 345    H 20  pz     Ryd( 2p)     0.00017       2.58636
 
     Population inversion found on atom  C  2
     Population inversion found on atom  C  5
     Population inversion found on atom  C  9


 Summary of Natural Population Analysis:

                                     Natural Population
             Natural    ---------------------------------------------
  Atom No    Charge        Core      Valence    Rydberg      Total
 --------------------------------------------------------------------
    C  1   -0.30769      0.99971     2.30130    0.00669     3.30769
    C  2   -0.32520      0.99969     2.31747    0.00804     3.32520
    C  3   -0.30768      0.99971     2.30129    0.00669     3.30768
    C  4    0.01747      0.99951     1.97238    0.01064     2.98253
    C  5   -0.18342      0.99957     2.17445    0.00939     3.18342
    C  6   -0.05723      0.99961     2.04876    0.00887     3.05723
    C  7   -0.19177      0.99960     2.18238    0.00979     3.19177
    C  8   -0.05723      0.99961     2.04876    0.00887     3.05723
    C  9   -0.18342      0.99957     2.17445    0.00940     3.18342
    H 10    0.09997      0.00000     0.39904    0.00099     0.40003
    H 11    0.08501      0.00000     0.41345    0.00155     0.41499
    H 12    0.10180      0.00000     0.39742    0.00078     0.39820
    H 13    0.10180      0.00000     0.39742    0.00078     0.39820
    H 14    0.09997      0.00000     0.39904    0.00099     0.40003
    H 15    0.08500      0.00000     0.41345    0.00155     0.41500
    H 16    0.10561      0.00000     0.39360    0.00079     0.39439
    H 17    0.10274      0.00000     0.39658    0.00068     0.39726
    H 18    0.10593      0.00000     0.39342    0.00065     0.39407
    H 19    0.10274      0.00000     0.39658    0.00068     0.39726
    H 20    0.10560      0.00000     0.39361    0.00079     0.39440
 ====================================================================
 * Total * -0.50000      8.99658    23.91484    0.08858    33.00000

                                 Natural Population      
 --------------------------------------------------------
   Core                       8.99658 ( 99.9620% of   9)
   Valence                   23.91484 ( 99.6452% of  24)
   Natural Minimal Basis     32.91142 ( 99.7316% of  33)
   Natural Rydberg Basis      0.08858 (  0.2684% of  33)
 --------------------------------------------------------

    Atom No         Natural Electron Configuration
 ----------------------------------------------------------------------------
      C  1      [core]2s( 0.55)2p( 1.75)
      C  2      [core]2s( 0.49)2p( 1.83)3p( 0.01)
      C  3      [core]2s( 0.55)2p( 1.75)
      C  4      [core]2s( 0.45)2p( 1.52)3p( 0.01)
      C  5      [core]2s( 0.49)2p( 1.69)3p( 0.01)
      C  6      [core]2s( 0.48)2p( 1.57)
      C  7      [core]2s( 0.49)2p( 1.69)3p( 0.01)
      C  8      [core]2s( 0.48)2p( 1.57)
      C  9      [core]2s( 0.49)2p( 1.69)3p( 0.01)
      H 10            1s( 0.40)
      H 11            1s( 0.41)
      H 12            1s( 0.40)
      H 13            1s( 0.40)
      H 14            1s( 0.40)
      H 15            1s( 0.41)
      H 16            1s( 0.39)
      H 17            1s( 0.40)
      H 18            1s( 0.39)
      H 19            1s( 0.40)
      H 20            1s( 0.39)


 NATURAL BOND ORBITAL ANALYSIS, alpha spin orbitals:

                       Occupancies       Lewis Structure    Low   High
           Occ.    -------------------  -----------------   occ   occ
  Cycle   Thresh.   Lewis   Non-Lewis     CR  BD  3C  LP    (L)   (NL)   Dev
 =============================================================================
   1(1)    0.90    31.53529   1.46471      9  21   0   3     3      3    0.02
   2(2)    0.90    31.53529   1.46471      9  21   0   3     3      3    0.02
   3(1)    0.80    32.20260   0.79740      9  23   0   1     0      3    0.02
 -----------------------------------------------------------------------------

 Structure accepted: No low occupancy Lewis orbitals

 --------------------------------------------------------
   Core                      8.99659 ( 99.962% of   9)
   Valence Lewis            23.20601 ( 96.692% of  24)
  ==================       ============================
   Total Lewis              32.20260 ( 97.584% of  33)
  -----------------------------------------------------
   Valence non-Lewis         0.74633 (  2.262% of  33)
   Rydberg non-Lewis         0.05107 (  0.155% of  33)
  ==================       ============================
   Total non-Lewis           0.79740 (  2.416% of  33)
 --------------------------------------------------------


     (Occupancy)   Bond orbital/ Coefficients/ Hybrids
 -------------------------------------------------------------------------------
   1. (0.99399) BD ( 1) C  1- C  2       
               ( 50.44%)   0.7102* C  1 s( 29.58%)p 2.37( 70.22%)d 0.01(  0.17%)
                                                  f 0.00(  0.03%)
                                         0.0002  0.5438  0.0090 -0.0007  0.0000
                                         0.4290  0.0007 -0.0038  0.1636  0.0020
                                         0.0014  0.7009  0.0093 -0.0043  0.0070
                                        -0.0004  0.0315 -0.0014  0.0102  0.0006
                                         0.0066  0.0005  0.0230 -0.0004  0.0026
                                         0.0148  0.0038  0.0020  0.0048  0.0048
                                         0.0050
               ( 49.56%)   0.7040* C  2 s( 32.74%)p 2.05( 67.19%)d 0.00(  0.04%)
                                                  f 0.00(  0.03%)
                                        -0.0001  0.5722  0.0008 -0.0015 -0.0001
                                        -0.4028  0.0055 -0.0000 -0.1704 -0.0028
                                         0.0027 -0.6932  0.0067  0.0038  0.0048
                                        -0.0015  0.0140  0.0005  0.0053  0.0030
                                         0.0005 -0.0002  0.0116  0.0017 -0.0026
                                        -0.0124 -0.0054 -0.0066 -0.0049 -0.0016
                                        -0.0017
   2. (0.99481) BD ( 1) C  1- H 10       
               ( 60.28%)   0.7764* C  1 s( 23.58%)p 3.23( 76.29%)d 0.00(  0.11%)
                                                  f 0.00(  0.02%)
                                         0.0001 -0.4856  0.0021 -0.0000 -0.0001
                                        -0.5159  0.0082  0.0039 -0.0474  0.0003
                                        -0.0018  0.7031  0.0014  0.0044 -0.0009
                                        -0.0003  0.0281  0.0012  0.0054 -0.0004
                                        -0.0123  0.0006 -0.0125 -0.0024  0.0029
                                        -0.0105 -0.0019  0.0028 -0.0013 -0.0055
                                        -0.0040
               ( 39.72%)   0.6302* H 10 s( 99.92%)p 0.00(  0.08%)
                                        -0.9996 -0.0005 -0.0004  0.0175  0.0026
                                        -0.0230
   3. (0.99625) BD ( 1) C  1- H 11       
               ( 59.30%)   0.7701* C  1 s( 23.32%)p 3.28( 76.54%)d 0.01(  0.12%)
                                                  f 0.00(  0.02%)
                                         0.0001 -0.4829  0.0033 -0.0010 -0.0002
                                         0.3461  0.0019  0.0040  0.8030 -0.0026
                                         0.0031 -0.0253  0.0081  0.0024 -0.0209
                                        -0.0018  0.0027 -0.0006  0.0046 -0.0013
                                         0.0206  0.0011  0.0185  0.0010 -0.0022
                                        -0.0081 -0.0032  0.0009  0.0005 -0.0089
                                        -0.0041
               ( 40.70%)   0.6379* H 11 s( 99.91%)p 0.00(  0.09%)
                                        -0.9996  0.0004 -0.0009 -0.0113 -0.0275
                                         0.0033
   4. (0.99431) BD ( 1) C  1- H 12       
               ( 60.29%)   0.7765* C  1 s( 23.44%)p 3.26( 76.43%)d 0.00(  0.11%)
                                                  f 0.00(  0.02%)
                                         0.0001 -0.4841  0.0021  0.0001  0.0001
                                         0.6544 -0.0043  0.0028 -0.5695  0.0087
                                        -0.0006  0.1075  0.0073  0.0061  0.0300
                                         0.0008 -0.0018 -0.0016  0.0018  0.0021
                                        -0.0009 -0.0016  0.0150  0.0010 -0.0024
                                        -0.0077 -0.0015  0.0032 -0.0040 -0.0059
                                        -0.0069
               ( 39.71%)   0.6302* H 12 s( 99.92%)p 0.00(  0.08%)
                                        -0.9996 -0.0008 -0.0003 -0.0215  0.0190
                                        -0.0040
   5. (0.99399) BD ( 1) C  2- C  3       
               ( 49.56%)   0.7040* C  2 s( 32.74%)p 2.05( 67.19%)d 0.00(  0.04%)
                                                  f 0.00(  0.03%)
                                        -0.0001  0.5722  0.0008 -0.0015 -0.0001
                                        -0.3867  0.0075 -0.0007  0.4076 -0.0011
                                        -0.0025  0.5968 -0.0051 -0.0039 -0.0058
                                         0.0002 -0.0127  0.0008  0.0121  0.0032
                                        -0.0026  0.0009  0.0060  0.0017 -0.0030
                                        -0.0065  0.0077  0.0002 -0.0113  0.0030
                                         0.0039
               ( 50.44%)   0.7102* C  3 s( 29.58%)p 2.37( 70.22%)d 0.01(  0.17%)
                                                  f 0.00(  0.03%)
                                         0.0002  0.5438  0.0090 -0.0007  0.0000
                                         0.4133  0.0015 -0.0048 -0.4166 -0.0026
                                         0.0012 -0.5980 -0.0091  0.0033 -0.0162
                                        -0.0001 -0.0269  0.0017  0.0249 -0.0003
                                        -0.0002  0.0002  0.0107  0.0003  0.0048
                                         0.0097 -0.0091 -0.0003  0.0068 -0.0066
                                        -0.0052
   6. (0.98934) BD ( 1) C  2- C  4       
               ( 49.06%)   0.7004* C  2 s( 34.46%)p 1.90( 65.46%)d 0.00(  0.05%)
                                                  f 0.00(  0.03%)
                                         0.0001  0.5869 -0.0107  0.0024 -0.0001
                                         0.7697 -0.0014 -0.0019 -0.2312  0.0004
                                         0.0006  0.0939 -0.0002 -0.0002 -0.0084
                                        -0.0015  0.0035  0.0008 -0.0049 -0.0009
                                         0.0135  0.0023 -0.0138 -0.0037 -0.0028
                                        -0.0089  0.0026  0.0029 -0.0022  0.0082
                                        -0.0097
               ( 50.94%)   0.7137* C  4 s( 31.92%)p 2.13( 67.94%)d 0.00(  0.08%)
                                                  f 0.00(  0.06%)
                                        -0.0001  0.5649 -0.0062  0.0033  0.0001
                                        -0.7843 -0.0174  0.0037  0.2344  0.0053
                                        -0.0011 -0.0947 -0.0021  0.0005 -0.0131
                                        -0.0007  0.0050  0.0005 -0.0040  0.0016
                                         0.0203  0.0006 -0.0147  0.0005  0.0041
                                         0.0130 -0.0046 -0.0064 -0.0002 -0.0112
                                         0.0142
   7. (0.99431) BD ( 1) C  3- H 13       
               ( 60.29%)   0.7765* C  3 s( 23.44%)p 3.26( 76.43%)d 0.00(  0.11%)
                                                  f 0.00(  0.02%)
                                         0.0001 -0.4841  0.0021  0.0001  0.0001
                                         0.8632 -0.0066  0.0040  0.1137 -0.0054
                                        -0.0014  0.0778 -0.0086 -0.0053 -0.0110
                                         0.0010 -0.0087  0.0015 -0.0021  0.0012
                                        -0.0272 -0.0019  0.0139  0.0017 -0.0021
                                        -0.0070  0.0056 -0.0013  0.0005  0.0087
                                         0.0041
               ( 39.71%)   0.6301* H 13 s( 99.92%)p 0.00(  0.08%)
                                        -0.9996 -0.0008 -0.0003 -0.0286 -0.0040
                                        -0.0022
   8. (0.99481) BD ( 1) C  3- H 14       
               ( 60.28%)   0.7764* C  3 s( 23.58%)p 3.23( 76.29%)d 0.00(  0.11%)
                                                  f 0.00(  0.02%)
                                        -0.0001  0.4856 -0.0021  0.0000  0.0001
                                         0.2366 -0.0068 -0.0051 -0.2734  0.0048
                                         0.0009  0.7950 -0.0005  0.0033 -0.0060
                                         0.0005  0.0150  0.0001 -0.0198  0.0001
                                         0.0013 -0.0006  0.0218  0.0027  0.0078
                                         0.0052 -0.0068 -0.0003 -0.0004 -0.0051
                                        -0.0043
               ( 39.72%)   0.6302* H 14 s( 99.92%)p 0.00(  0.08%)
                                         0.9996  0.0005  0.0004 -0.0077  0.0102
                                        -0.0260
   9. (0.99625) BD ( 1) C  3- H 15       
               ( 59.30%)   0.7701* C  3 s( 23.32%)p 3.28( 76.54%)d 0.01(  0.12%)
                                                  f 0.00(  0.02%)
                                        -0.0001  0.4829 -0.0033  0.0010  0.0002
                                         0.1619 -0.0048 -0.0021  0.8584 -0.0006
                                         0.0049 -0.0477  0.0073  0.0017  0.0121
                                        -0.0000 -0.0000  0.0002 -0.0068  0.0012
                                        -0.0269 -0.0022 -0.0178 -0.0011  0.0018
                                         0.0048 -0.0076 -0.0020 -0.0005 -0.0053
                                        -0.0079
               ( 40.70%)   0.6379* H 15 s( 99.91%)p 0.00(  0.09%)
                                         0.9996 -0.0004  0.0009 -0.0065 -0.0289
                                         0.0039
  10. (0.98896) BD ( 1) C  4- C  5       
               ( 50.65%)   0.7117* C  4 s( 33.97%)p 1.94( 65.88%)d 0.00(  0.10%)
                                                  f 0.00(  0.05%)
                                        -0.0001  0.5828  0.0042 -0.0021  0.0001
                                         0.3042  0.0103 -0.0005 -0.5799  0.0056
                                        -0.0015 -0.4795  0.0064 -0.0011 -0.0172
                                         0.0015 -0.0090 -0.0020  0.0231 -0.0010
                                        -0.0068 -0.0025 -0.0016  0.0009  0.0092
                                         0.0004 -0.0077  0.0109  0.0133 -0.0086
                                        -0.0015
               ( 49.35%)   0.7025* C  5 s( 35.85%)p 1.78( 63.96%)d 0.00(  0.14%)
                                                  f 0.00(  0.05%)
                                         0.0000  0.5988 -0.0017  0.0038 -0.0001
                                        -0.3335 -0.0197  0.0004  0.5799  0.0106
                                        -0.0029  0.4377  0.0028 -0.0027 -0.0163
                                        -0.0012 -0.0106 -0.0026  0.0288 -0.0008
                                        -0.0115 -0.0007  0.0009 -0.0006 -0.0105
                                        -0.0014  0.0053 -0.0065 -0.0138  0.0112
                                         0.0023
  11. (0.80965) BD ( 2) C  4- C  5       
               ( 38.98%)   0.6243* C  4 s(  0.00%)p 1.00( 99.90%)d 0.00(  0.05%)
                                                  f 0.00(  0.05%)
                                         0.0000 -0.0051 -0.0009  0.0002 -0.0000
                                         0.2832 -0.0022  0.0013  0.6918 -0.0097
                                         0.0012 -0.6634  0.0029 -0.0008  0.0086
[...]
  20. BD ( 1) C  7- H 18        0.99030    -0.61959  335(v),343(v),164(v),216(v)
                                                    339(v),344(v)
  21. BD ( 1) C  8- C  9        0.99154    -0.80646  328(v),342(v),333(g),340(g)
                                                    112(v),191(v),190(v),345(g)
                                                    113(v),344(g)
  22. BD ( 1) C  8- H 19        0.99042    -0.62339  333(v),338(v),190(v),242(v)
                                                    345(v),342(v)
  23. BD ( 1) C  9- H 20        0.98967    -0.61931  332(v),340(v),112(v),216(v)
                                                    344(v)
  24. CR ( 1) C  1              0.99971   -10.11737   60(v),328(v)
  25. CR ( 1) C  2              0.99968   -10.13939   112(v),332(v),333(v),88(v)
                                                    36(v)
  26. CR ( 1) C  3              0.99971   -10.11736   60(v),328(v)
  27. CR ( 1) C  4              0.99953   -10.11926   61(v),139(v),243(v),343(v)
                                                    335(v)
  28. CR ( 1) C  5              0.99957   -10.11154   165(v),113(v),328(v),333(v)
                                                    299(v),112(v),338(v)
  29. CR ( 1) C  6              0.99961   -10.11473   191(v),139(v),304(v),332(v)
                                                    340(v)
  30. CR ( 1) C  7              0.99959   -10.10837   217(v),165(v),309(v),335(v)
                                                    343(v)
  31. CR ( 1) C  8              0.99961   -10.11473   191(v),243(v),314(v),333(v)
                                                    338(v)
  32. CR ( 1) C  9              0.99957   -10.11153   217(v),113(v),328(v),332(v)
                                                    319(v),112(v),340(v)
  33. LP*( 1) C  2              0.13574     0.06090   334(v),325(v),331(v),62(g)
                                                    330(v),324(v)
  34. RY*( 1) C  1              0.00088     0.99885
  35. RY*( 2) C  1              0.00019     1.43739
  36. RY*( 3) C  1              0.00016     1.43576
  37. RY*( 4) C  1              0.00007     1.18612
  38. RY*( 5) C  1              0.00008     1.93307
  39. RY*( 6) C  1              0.00003     2.20705
  40. RY*( 7) C  1              0.00002     1.98764
  41. RY*( 8) C  1              0.00001     2.06252
  42. RY*( 9) C  1              0.00000     1.73805
  43. RY*(10) C  1              0.00000     1.46144
  44. RY*(11) C  1              0.00000     3.20721
  45. RY*(12) C  1              0.00000     1.87450
  46. RY*(13) C  1              0.00000     3.25793
  47. RY*(14) C  1              0.00001     1.52206
  48. RY*(15) C  1              0.00000     2.96177
  49. RY*(16) C  1              0.00000    21.52143
  50. RY*(17) C  1              0.00000     3.18358
  51. RY*(18) C  1              0.00000     1.83736
  52. RY*(19) C  1              0.00000     3.25009
  53. RY*(20) C  1              0.00000     3.09349
  54. RY*(21) C  1              0.00000     3.05028
  55. RY*(22) C  1              0.00000     3.59285
  56. RY*(23) C  1              0.00000     3.37638
  57. RY*(24) C  1              0.00000     3.24741
  58. RY*(25) C  1              0.00000     3.58022
  59. RY*(26) C  1              0.00000     3.39526
  60. RY*( 1) C  2              0.00183     1.54211
  61. RY*( 2) C  2              0.00107     1.29710
  62. RY*( 3) C  2              0.00048     1.28907
  63. RY*( 4) C  2              0.00025     2.20854
  64. RY*( 5) C  2              0.00017     3.66781
  65. RY*( 6) C  2              0.00013     3.20313
  66. RY*( 7) C  2              0.00008     2.53246
  67. RY*( 8) C  2              0.00004     2.63206
  68. RY*( 9) C  2              0.00004     2.71209
  69. RY*(10) C  2              0.00004     3.70085
  70. RY*(11) C  2              0.00003     3.40872
  71. RY*(12) C  2              0.00000     2.81270
  72. RY*(13) C  2              0.00000     2.57238
  73. RY*(14) C  2              0.00000     1.77584
  74. RY*(15) C  2              0.00001     2.69923
  75. RY*(16) C  2              0.00000    17.97683
  76. RY*(17) C  2              0.00001     3.15853
  77. RY*(18) C  2              0.00001     2.87444
  78. RY*(19) C  2              0.00000     2.44021
  79. RY*(20) C  2              0.00000     3.53701
  80. RY*(21) C  2              0.00000     3.29991
  81. RY*(22) C  2              0.00000     3.39129
  82. RY*(23) C  2              0.00000     3.59190
  83. RY*(24) C  2              0.00000     3.26875
  84. RY*(25) C  2              0.00000     3.46450
  85. RY*(26) C  2              0.00000     3.49405
  86. RY*( 1) C  3              0.00088     0.99885
  87. RY*( 2) C  3              0.00019     1.43639
  88. RY*( 3) C  3              0.00016     1.43646
  89. RY*( 4) C  3              0.00008     1.53877
  90. RY*( 5) C  3              0.00007     1.58086
  91. RY*( 6) C  3              0.00003     2.31718
  92. RY*( 7) C  3              0.00002     1.79120
  93. RY*( 8) C  3              0.00001     2.17082
  94. RY*( 9) C  3              0.00000     1.70449
  95. RY*(10) C  3              0.00000     1.62351
  96. RY*(11) C  3              0.00000     3.38264
  97. RY*(12) C  3              0.00001     1.51394
  98. RY*(13) C  3              0.00000     3.10381
  99. RY*(14) C  3              0.00000    21.57464
 100. RY*(15) C  3              0.00000     3.45435
 101. RY*(16) C  3              0.00000     1.83490
 102. RY*(17) C  3              0.00000     3.09409
 103. RY*(18) C  3              0.00000     1.85744
 104. RY*(19) C  3              0.00000     2.94560
 105. RY*(20) C  3              0.00000     3.41263
 106. RY*(21) C  3              0.00000     2.92733
 107. RY*(22) C  3              0.00000     3.48651
 108. RY*(23) C  3              0.00000     3.36322
 109. RY*(24) C  3              0.00000     3.05738
 110. RY*(25) C  3              0.00000     3.30579
 111. RY*(26) C  3              0.00000     3.48670
 112. RY*( 1) C  4              0.00338     1.43833
 113. RY*( 2) C  4              0.00201     1.39767
 114. RY*( 3) C  4              0.00056     0.77293
 115. RY*( 4) C  4              0.00026     1.66991
 116. RY*( 5) C  4              0.00019     3.41112
 117. RY*( 6) C  4              0.00018     3.03546
 118. RY*( 7) C  4              0.00013     2.54385
 119. RY*( 8) C  4              0.00008     2.59254
 120. RY*( 9) C  4              0.00005     2.89832
 121. RY*(10) C  4              0.00006     2.73941
 122. RY*(11) C  4              0.00005     2.88064
 123. RY*(12) C  4              0.00003     2.44204
 124. RY*(13) C  4              0.00002     3.05728
 125. RY*(14) C  4              0.00001     3.06370
 126. RY*(15) C  4              0.00001     3.08390
 127. RY*(16) C  4              0.00000     3.07546
 128. RY*(17) C  4              0.00001     2.95137
 129. RY*(18) C  4              0.00000     2.65486
 130. RY*(19) C  4              0.00000    20.67656
 131. RY*(20) C  4              0.00000     3.37527
 132. RY*(21) C  4              0.00000     3.28115
 133. RY*(22) C  4              0.00000     3.22946
 134. RY*(23) C  4              0.00000     3.41390
 135. RY*(24) C  4              0.00000     3.51407
 136. RY*(25) C  4              0.00000     3.39675
 137. RY*(26) C  4              0.00000     3.22609
 138. RY*( 1) C  5              0.00237     1.61392
 139. RY*( 2) C  5              0.00074     1.35377
 140. RY*( 3) C  5              0.00051     0.69226
 141. RY*( 4) C  5              0.00031     1.76331
 142. RY*( 5) C  5              0.00023     2.73813
 143. RY*( 6) C  5              0.00017     3.27810
 144. RY*( 7) C  5              0.00008     2.13757
 145. RY*( 8) C  5              0.00004     2.77763
 146. RY*( 9) C  5              0.00003     2.09476
 147. RY*(10) C  5              0.00002     2.39970
 148. RY*(11) C  5              0.00000     3.16954
 149. RY*(12) C  5              0.00001     2.14287
 150. RY*(13) C  5              0.00000     2.31587
 151. RY*(14) C  5              0.00001     2.27172
 152. RY*(15) C  5              0.00000     3.69660
 153. RY*(16) C  5              0.00000     2.13520
 154. RY*(17) C  5              0.00000    20.01847
 155. RY*(18) C  5              0.00001     1.79749
 156. RY*(19) C  5              0.00000     2.99044
 157. RY*(20) C  5              0.00000     3.41237
 158. RY*(21) C  5              0.00000     3.46853
 159. RY*(22) C  5              0.00000     3.40195
 160. RY*(23) C  5              0.00000     3.39305
 161. RY*(24) C  5              0.00000     3.41830
 162. RY*(25) C  5              0.00000     3.43739
 163. RY*(26) C  5              0.00000     3.51943
 164. RY*( 1) C  6              0.00231     1.61287
 165. RY*( 2) C  6              0.00095     1.31799
 166. RY*( 3) C  6              0.00056     0.56678
 167. RY*( 4) C  6              0.00030     1.52880
 168. RY*( 5) C  6              0.00013     3.33945
 169. RY*( 6) C  6              0.00013     3.23560
 170. RY*( 7) C  6              0.00005     2.38030
 171. RY*( 8) C  6              0.00003     2.52779
 172. RY*( 9) C  6              0.00000     2.06396
 173. RY*(10) C  6              0.00001     1.99794
 174. RY*(11) C  6              0.00000    20.35117
 175. RY*(12) C  6              0.00000     1.91450
 176. RY*(13) C  6              0.00000     2.25920
 177. RY*(14) C  6              0.00000     2.56144
 178. RY*(15) C  6              0.00000     3.44292
 179. RY*(16) C  6              0.00001     2.05117
 180. RY*(17) C  6              0.00000     3.21713
 181. RY*(18) C  6              0.00001     2.37058
 182. RY*(19) C  6              0.00000     2.50604
 183. RY*(20) C  6              0.00000     3.49417
 184. RY*(21) C  6              0.00000     3.40401
 185. RY*(22) C  6              0.00000     3.32193
 186. RY*(23) C  6              0.00000     3.69928
 187. RY*(24) C  6              0.00000     3.36884
 188. RY*(25) C  6              0.00000     3.56478
 189. RY*(26) C  6              0.00000     3.37765
 190. RY*( 1) C  7              0.00238     1.63900
 191. RY*( 2) C  7              0.00087     1.35444
 192. RY*( 3) C  7              0.00040     0.59648
 193. RY*( 4) C  7              0.00027     1.34495
 194. RY*( 5) C  7              0.00020     3.08594
 195. RY*( 6) C  7              0.00016     3.35715
 196. RY*( 7) C  7              0.00005     2.22380
 197. RY*( 8) C  7              0.00001     2.42194
 198. RY*( 9) C  7              0.00001     1.70878
 199. RY*(10) C  7              0.00001     2.34732
 200. RY*(11) C  7              0.00000     3.06832
 201. RY*(12) C  7              0.00001     2.20738
 202. RY*(13) C  7              0.00000     2.26650
 203. RY*(14) C  7              0.00001     2.21446
 204. RY*(15) C  7              0.00000     3.58281
 205. RY*(16) C  7              0.00000    20.68877
 206. RY*(17) C  7              0.00000     3.36750
 207. RY*(18) C  7              0.00001     1.67581
 208. RY*(19) C  7              0.00000     1.91531
 209. RY*(20) C  7              0.00000     3.40826
 210. RY*(21) C  7              0.00000     3.46198
 211. RY*(22) C  7              0.00000     3.66299
 212. RY*(23) C  7              0.00000     3.54769
 213. RY*(24) C  7              0.00000     3.55282
 214. RY*(25) C  7              0.00000     3.40397
 215. RY*(26) C  7              0.00000     3.39413
 216. RY*( 1) C  8              0.00231     1.61278
 217. RY*( 2) C  8              0.00095     1.31825
 218. RY*( 3) C  8              0.00056     0.57196
 219. RY*( 4) C  8              0.00030     1.52898
 220. RY*( 5) C  8              0.00014     3.39112
 221. RY*( 6) C  8              0.00012     3.17866
 222. RY*( 7) C  8              0.00005     2.38045
 223. RY*( 8) C  8              0.00002     2.90647
 224. RY*( 9) C  8              0.00002     2.45148
 225. RY*(10) C  8              0.00000     2.48303
 226. RY*(11) C  8              0.00000     3.23132
 227. RY*(12) C  8              0.00000     2.04128
 228. RY*(13) C  8              0.00000    20.33299
 229. RY*(14) C  8              0.00000     3.43592
 230. RY*(15) C  8              0.00000     2.00267
 231. RY*(16) C  8              0.00000     2.62204
 232. RY*(17) C  8              0.00000     2.05608
 233. RY*(18) C  8              0.00000     2.05271
 234. RY*(19) C  8              0.00000     2.85655
 235. RY*(20) C  8              0.00000     3.33749
 236. RY*(21) C  8              0.00000     3.28511
 237. RY*(22) C  8              0.00000     3.37076
 238. RY*(23) C  8              0.00000     3.47941
 239. RY*(24) C  8              0.00000     3.04629
 240. RY*(25) C  8              0.00000     2.97557
 241. RY*(26) C  8              0.00000     3.52600
 242. RY*( 1) C  9              0.00237     1.61390
 243. RY*( 2) C  9              0.00074     1.34911
 244. RY*( 3) C  9              0.00058     0.84060
 245. RY*( 4) C  9              0.00031     1.75939
 246. RY*( 5) C  9              0.00022     2.58634
 247. RY*( 6) C  9              0.00017     3.27840
 248. RY*( 7) C  9              0.00008     2.13755
 249. RY*( 8) C  9              0.00004     2.77817
 250. RY*( 9) C  9              0.00003     2.06388
 251. RY*(10) C  9              0.00002     2.43867
 252. RY*(11) C  9              0.00000     2.52839
 253. RY*(12) C  9              0.00001     2.37019
 254. RY*(13) C  9              0.00000     3.13021
 255. RY*(14) C  9              0.00000    20.01160
 256. RY*(15) C  9              0.00000     3.48056
 257. RY*(16) C  9              0.00000     1.64387
 258. RY*(17) C  9              0.00000     3.29949
 259. RY*(18) C  9              0.00001     1.78655
 260. RY*(19) C  9              0.00000     2.37994
 261. RY*(20) C  9              0.00000     3.46265
 262. RY*(21) C  9              0.00000     3.31596
 263. RY*(22) C  9              0.00000     3.37007
 264. RY*(23) C  9              0.00000     3.57781
 265. RY*(24) C  9              0.00000     3.39256
 266. RY*(25) C  9              0.00000     3.46179
 267. RY*(26) C  9              0.00000     3.37987
 268. RY*( 1) H 10              0.00016     1.23929
 269. RY*( 2) H 10              0.00005     1.82053
 270. RY*( 3) H 10              0.00003     2.35818
 271. RY*( 4) H 10              0.00002     2.22710
 272. RY*( 5) H 10              0.00000     2.74638
 273. RY*( 1) H 11              0.00011     1.87248
 274. RY*( 2) H 11              0.00004     1.14897
 275. RY*( 3) H 11              0.00002     2.19370
 276. RY*( 4) H 11              0.00002     2.31371
 277. RY*( 5) H 11              0.00000     2.79263
 278. RY*( 1) H 12              0.00020     1.22274
 279. RY*( 2) H 12              0.00005     1.85499
 280. RY*( 3) H 12              0.00001     2.50518
 281. RY*( 4) H 12              0.00002     2.34153
 282. RY*( 5) H 12              0.00001     2.43754
 283. RY*( 1) H 13              0.00020     1.22275
 284. RY*( 2) H 13              0.00005     1.85481
 285. RY*( 3) H 13              0.00002     2.26034
 286. RY*( 4) H 13              0.00002     2.31674
 287. RY*( 5) H 13              0.00000     2.70724
 288. RY*( 1) H 14              0.00016     1.23923
 289. RY*( 2) H 14              0.00005     1.82062
 290. RY*( 3) H 14              0.00003     2.33057
 291. RY*( 4) H 14              0.00002     2.25473
 292. RY*( 5) H 14              0.00000     2.74637
 293. RY*( 1) H 15              0.00011     1.87233
 294. RY*( 2) H 15              0.00004     1.14901
 295. RY*( 3) H 15              0.00002     2.19810
 296. RY*( 4) H 15              0.00002     2.30939
 297. RY*( 5) H 15              0.00000     2.79267
 298. RY*( 1) H 16              0.00023     0.88714
 299. RY*( 2) H 16              0.00008     2.02164
 300. RY*( 3) H 16              0.00005     2.23970
 301. RY*( 4) H 16              0.00003     2.59546
 302. RY*( 5) H 16              0.00001     3.03592
 303. RY*( 1) H 17              0.00016     0.66971
 304. RY*( 2) H 17              0.00009     2.19248
 305. RY*( 3) H 17              0.00006     2.22533
 306. RY*( 4) H 17              0.00002     2.58318
 307. RY*( 5) H 17              0.00000     2.99538
 308. RY*( 1) H 18              0.00015     0.64542
 309. RY*( 2) H 18              0.00008     2.20984
 310. RY*( 3) H 18              0.00003     2.39002
 311. RY*( 4) H 18              0.00003     2.42265
 312. RY*( 5) H 18              0.00001     3.00692
 313. RY*( 1) H 19              0.00016     0.66973
 314. RY*( 2) H 19              0.00009     2.19244
 315. RY*( 3) H 19              0.00006     2.22534
 316. RY*( 4) H 19              0.00002     2.67783
 317. RY*( 5) H 19              0.00001     2.90075
 318. RY*( 1) H 20              0.00023     0.88722
 319. RY*( 2) H 20              0.00008     2.02155
 320. RY*( 3) H 20              0.00005     2.23972
 321. RY*( 4) H 20              0.00003     2.59542
 322. RY*( 5) H 20              0.00001     3.03594
 323. BD*( 1) C  1- C  2        0.00660     0.51107
 324. BD*( 1) C  1- H 10        0.00244     0.48290
 325. BD*( 1) C  1- H 11        0.00137     0.47883
 326. BD*( 1) C  1- H 12        0.00249     0.48197
 327. BD*( 1) C  2- C  3        0.00660     0.51107
 328. BD*( 1) C  2- C  4        0.01385     0.56619
 329. BD*( 1) C  3- H 13        0.00249     0.48200
 330. BD*( 1) C  3- H 14        0.00244     0.48291
 331. BD*( 1) C  3- H 15        0.00137     0.47884
 332. BD*( 1) C  4- C  5        0.01083     0.64498
 333. BD*( 1) C  4- C  9        0.01092     0.64466
 334. BD*( 2) C  4- C  9        0.18441     0.10133  341(v),336(v),33(v),244(g)
                                                    114(g)
 335. BD*( 1) C  5- C  6        0.00666     0.65513
 336. BD*( 2) C  5- C  6        0.14090     0.10753  341(v),334(v),166(g),140(g)
 337. BD*( 1) C  5- H 16        0.00632     0.52275
 338. BD*( 1) C  6- C  7        0.00740     0.66001
 339. BD*( 1) C  6- H 17        0.00610     0.51879
 340. BD*( 1) C  7- C  8        0.00740     0.66002
 341. BD*( 2) C  7- C  8        0.15335     0.10708  336(v),334(v),192(g),218(g)
 342. BD*( 1) C  7- H 18        0.00644     0.52143
 343. BD*( 1) C  8- C  9        0.00667     0.65513
 344. BD*( 1) C  8- H 19        0.00610     0.51878
 345. BD*( 1) C  9- H 20        0.00632     0.52276
          -------------------------------
                 Total Lewis   31.22482  ( 97.5776%)
           Valence non-Lewis    0.73522  (  2.2976%)
           Rydberg non-Lewis    0.03996  (  0.1249%)
          -------------------------------
               Total unit  1   32.00000  (100.0000%)
              Charge unit  1    0.50000

 *******************************************************************************
Archival summary:
1\1\nid00808\SP\ProcedureUnspecified\BasisUnspecified\911(2)\sblau\FriJun1111:20:332021FriJun1111:20:332021\0\\#,ProcedureUnspecified,BasisUnspecified,\\0,2\C\C,1,1.40302\H,2,1.08691,1,120.863\C,2,1.39898,1,121.186,3,-179.099,0\H,4,1.08682,2,119.842,1,179.784,0\C,4,1.39117,2,120.128,1,-0.0455837,0\H,6,1.0865,4,120.188,2,-179.978,0\C,6,1.39117,4,119.624,2,0.0225689,0\H,8,1.08682,6,120.03,4,-179.807,0\C,8,1.39897,6,120.128,4,0.0221972,0\H,10,1.08691,8,117.945,6,-179.17,0\C,1,1.47582,2,121.126,3,-0.878174,0\C,12,1.49681,1,121.235,2,160.593,0\H,13,1.09439,12,110.386,1,84.9342,0\H,13,1.09462,12,111.806,1,-36.5524,0\H,13,1.09524,12,110.858,1,-155.429,0\C,12,1.49681,1,121.235,2,-19.4075,0\H,17,1.09439,12,110.386,1,84.9339,0\H,17,1.09462,12,111.806,1,-36.5526,0\H,17,1.09524,12,110.858,1,-155.429,0\\\@

 Total job time:  31.32s(wall), 911.84s(cpu) 
 Fri Jun 11 11:20:33 2021

        *************************************************************
        *                                                           *
        *  Thank you very much for using Q-Chem.  Have a nice day.  *
        *                                                           *
        *************************************************************


