
Running Job 1 of 1 mol.qin
qchem mol.qin_2701.0 /tmp/qchem2701/ 0
/global/common/cori_cle7/software/qchem/5.4.1/exe/qcprog.exe_s mol.qin_2701.0 /tmp/qchem2701/
                  Welcome to Q-Chem
     A Quantum Leap Into The Future Of Chemistry


 Q-Chem 5.4, Q-Chem, Inc., Pleasanton, CA (2021)

 License issued to: National Energy Research Scientific Computing Center

 E. Epifanovsky,  A. T. B. Gilbert,  Xintian Feng,  Joonho Lee,  Yuezhi Mao,  
 N. Mardirossian,  P. Pokhilko,  A. White,  M. Wormit,  M. P. Coons,  
 A. L. Dempwolff,  Zhengting Gan,  D. Hait,  P. R. Horn,  L. D. Jacobson,  
 I. Kaliman,  J. Kussmann,  A. W. Lange,  Ka Un Lao,  D. S. Levine,  Jie Liu,  
 S. C. McKenzie,  A. F. Morrison,  K. Nanda,  F. Plasser,  D. R. Rehn,  
 M. L. Vidal,  Zhi-Qiang You,  Ying Zhu,  B. Alam,  B. Albrecht,  
 A. Aldossary,  E. Alguire,  J. H. Andersen,  D. Barton,  K. Begam,  A. Behn,  
 Y. A. Bernard,  E. J. Berquist,  H. Burton,  A. Carreras,  K. Carter-Fenk,  
 R. Chakraborty,  A. D. Chien,  K. D. Closser,  V. Cofer-Shabica,  
 S. Dasgupta,  Jia Deng,  M. de Wergifosse,  M. Diedenhofen,  Hainam Do,  
 S. Ehlert,  Po-Tung Fang,  S. Fatehi,  Qingguo Feng,  T. Friedhoff,  
 J. Gayvert,  Qinghui Ge,  G. Gidofalvi,  M. Goldey,  J. Gomes,  
 C. Gonzalez-Espinoza,  S. Gulania,  A. Gunina,  M. W. D. Hanson-Heine,  
 P. H. P. Harbach,  A. W. Hauser,  M. F. Herbst,  M. Hernandez Vera,  
 M. Hodecker,  Z. C. Holden,  S. Houck,  Xunkun Huang,  Kerwin Hui,  
 B. C. Huynh,  M. Ivanov,  Hyunjun Ji,  Hanjie Jiang,  B. Kaduk,  S. Kaehler,  
 K. Khistyaev,  Jaehoon Kim,  P. Klunzinger,  Z. Koczor-Benda,  
 Joong Hoon Koh,  D. Kosenkov,  L. Koulias,  T. Kowalczyk,  C. M. Krauter,  
 K. Kue,  A. Kunitsa,  T. Kus,  A. Landau,  K. V. Lawler,  D. Lefrancois,  
 S. Lehtola,  Rain Li,  Yi-Pei Li,  Jiashu Liang,  M. Liebenthal,  
 Hung-Hsuan Lin,  You-Sheng Lin,  Fenglai Liu,  Kuan-Yu Liu,  
 M. Loipersberger,  A. Luenser,  A. Manjanath,  P. Manohar,  E. Mansoor,  
 S. F. Manzer,  Shan-Ping Mao,  A. V. Marenich,  T. Markovich,  S. Mason,  
 S. A. Maurer,  P. F. McLaughlin,  M. F. S. J. Menger,  J.-M. Mewes,  
 S. A. Mewes,  P. Morgante,  J. W. Mullinax,  K. J. Oosterbaan,  G. Paran,  
 Alexander C. Paul,  Suranjan K. Paul,  F. Pavosevic,  Zheng Pei,  S. Prager,  
 E. I. Proynov,  E. Ramos,  B. Rana,  A. E. Rask,  A. Rettig,  R. M. Richard,  
 F. Rob,  E. Rossomme,  T. Scheele,  M. Scheurer,  M. Schneider,  
 N. Sergueev,  S. M. Sharada,  W. Skomorowski,  D. W. Small,  C. J. Stein,  
 Yu-Chuan Su,  E. J. Sundstrom,  Zhen Tao,  J. Thirman,  T. Tsuchimochi,  
 N. M. Tubman,  S. P. Veccham,  O. Vydrov,  J. Wenzel,  J. Witte,  A. Yamada,  
 Kun Yao,  S. Yeganeh,  S. R. Yost,  A. Zech,  Igor Ying Zhang,  Xing Zhang,  
 Yu Zhang,  D. Zuev,  A. Aspuru-Guzik,  A. T. Bell,  N. A. Besley,  
 K. B. Bravaya,  B. R. Brooks,  D. Casanova,  Jeng-Da Chai,  S. Coriani,  
 C. J. Cramer,  A. E. DePrince, III,  R. A. DiStasio Jr.,  A. Dreuw,  
 B. D. Dunietz,  T. R. Furlani,  W. A. Goddard III,  S. Grimme,  
 S. Hammes-Schiffer,  T. Head-Gordon,  W. J. Hehre,  Chao-Ping Hsu,  
 T.-C. Jagau,  Yousung Jung,  A. Klamt,  Jing Kong,  D. S. Lambrecht,  
 WanZhen Liang,  N. J. Mayhall,  C. W. McCurdy,  J. B. Neaton,  
 C. Ochsenfeld,  J. A. Parkhill,  R. Peverati,  V. A. Rassolov,  Yihan Shao,  
 L. V. Slipchenko,  T. Stauch,  R. P. Steele,  J. E. Subotnik,  
 A. J. W. Thom,  A. Tkatchenko,  D. G. Truhlar,  T. Van Voorhis,  
 T. A. Wesolowski,  K. B. Whaley,  H. L. Woodcock III,  P. M. Zimmerman,  
 S. Faraji,  P. M. W. Gill,  M. Head-Gordon,  J. M. Herbert,  A. I. Krylov

 Additional authors for Version 5.4.1: 
 S. Kotaru,  Shaozhi Li,  Xiangyuan Li,  F. Matz,  A. Molle,  Haisheng Ren,  
 Yingli Su,  Hung-Yi Tsai,  C. Utku,  Fang Wang

 Contributors to earlier versions of Q-Chem not listed above: 
 R. D. Adamson,  B. Austin,  R. Baer,  J. Baker,  G. J. O. Beran,  
 K. Brandhorst,  S. T. Brown,  E. F. C. Byrd,  A. K. Chakraborty,  
 G. K. L. Chan,  Chun-Min Chang,  Yunqing Chen,  C.-L. Cheng,  
 Siu Hung Chien,  D. M. Chipman,  D. L. Crittenden,  H. Dachsel,  
 R. J. Doerksen,  A. D. Dutoi,  R. G. Edgar,  J. Fosso-Tande,  
 L. Fusti-Molnar,  D. Ghosh,  A. Ghysels,  A. Golubeva-Zadorozhnaya,  
 J. Gonthier,  M. S. Gordon,  S. R. Gwaltney,  G. Hawkins,  J. E. Herr,  
 A. Heyden,  S. Hirata,  E. G. Hohenstein,  G. Kedziora,  F. J. Keil,  
 C. Kelley,  Jihan Kim,  R. A. King,  R. Z. Khaliullin,  P. P. Korambath,  
 W. Kurlancheek,  A. Laurent,  A. M. Lee,  M. S. Lee,  S. V. Levchenko,  
 Ching Yeh Lin,  D. Liotard,  E. Livshits,  R. C. Lochan,  I. Lotan,  
 L. A. Martinez-Martinez,  P. E. Maslen,  N. Nair,  D. P. O'Neill,  
 D. Neuhauser,  E. Neuscamman,  C. M. Oana,  R. Olivares-Amaya,  R. Olson,  
 T. M. Perrine,  B. Peters,  P. A. Pieniazek,  A. Prociuk,  Y. M. Rhee,  
 J. Ritchie,  M. A. Rohrdanz,  E. Rosta,  N. J. Russ,  H. F. Schaefer III,  
 M. W. Schmidt,  N. E. Schultz,  S. Sharma,  N. Shenvi,  C. D. Sherrill,  
 A. C. Simmonett,  A. Sodt,  T. Stein,  D. Stuck,  K. S. Thanthiriwatte,  
 V. Vanovschi,  L. Vogt,  Tao Wang,  A. Warshel,  M. A. Watson,  
 C. F. Williams,  Q. Wu,  X. Xu,  Jun Yang,  W. Zhang,  Yan Zhao

 Please cite Q-Chem as follows:
 Y. Shao et al., Mol. Phys. 113, 184-215 (2015)
 DOI: 10.1080/00268976.2014.952696

 Q-Chem 5.4.1 for Intel X86 EM64T Linux

 Parts of Q-Chem use Armadillo 9.800.1 (Horizon Scraper).
 http://arma.sourceforge.net/

 Q-Chem begins on Fri Oct 29 08:14:27 2021  

 Host: cori02
0

     Scratch files written to /tmp/qchem2701//
 Aug1521 |scratch|qcdevops|jenkins|workspace|build_RNUM 7470   
 Processing $rem in /global/common/cori_cle7/software/qchem/5.4.1/config/preferences:
 Processing $rem in /global/homes/s/sblau/.qchemrc:

 Checking the input file for inconsistencies... 	...done.

--------------------------------------------------------------
User input:
--------------------------------------------------------------
$molecule
0 2
B      2.9604360000      0.2608720000     -0.1657840000
B     -1.5296470000      1.4221030000     -0.3016690000
Mg      0.6192590000      0.8613260000     -0.2360350000
H     -2.6901880000      1.7227890000     -0.3379830000
$end

$rem
job_type = sp
basis = def2-tzvpd
max_scf_cycles = 200
gen_scfman = true
xc_grid = 3
scf_algorithm = diis
resp_charges = true
symmetry = false
sym_ignore = true
method = wb97mv
nbo = true
run_nbo6 = true
$end

$nbo
$end
--------------------------------------------------------------
 ----------------------------------------------------------------
             Standard Nuclear Orientation (Angstroms)
    I     Atom           X                Y                Z
 ----------------------------------------------------------------
    1      B       2.9604360000     0.2608720000    -0.1657840000
    2      B      -1.5296470000     1.4221030000    -0.3016690000
    3      Mg      0.6192590000     0.8613260000    -0.2360350000
    4      H      -2.6901880000     1.7227890000    -0.3379830000
 ----------------------------------------------------------------
 Nuclear Repulsion Energy =          34.78782486 hartrees
 There are       12 alpha and       11 beta electrons
 Requested basis set is def2-TZVPD
 There are 44 shells and 118 basis functions

 Total QAlloc Memory Limit  96000 MB
 Mega-Array Size       188 MB
 MEM_STATIC part       192 MB

                       Distance Matrix (Angstroms)
             B (  1)   B (  2)   Mg(  3)
   B (  2)  4.639803
   Mg(  3)  2.417972  2.221841
   H (  4)  5.839213  1.199411  3.421250
 
 A cutoff of  1.0D-08 yielded    915 shell pairs
 There are      6693 function pairs (      8490 Cartesian)
 Smallest overlap matrix eigenvalue = 1.46E-04

 Scale SEOQF with 1.000000e-01/1.000000e-01/1.000000e-01

 Standard Electronic Orientation quadrupole field applied
 Nucleus-field energy     =     0.0000000039 hartrees
 Guess from superposition of atomic densities
 Warning:  Energy on first SCF cycle will be non-variational
 SAD guess density has 23.000000 electrons

 -----------------------------------------------------------------------
  General SCF calculation program by
  Eric Jon Sundstrom, Paul Horn, Yuezhi Mao, Dmitri Zuev, Alec White,
  David Stuck, Shaama M.S., Shane Yost, Joonho Lee, David Small,
  Daniel Levine, Susi Lehtola, Hugh Burton, Evgeny Epifanovsky,
  Bang C. Huynh
 -----------------------------------------------------------------------
 Exchange:     0.1500 Hartree-Fock + 1.0000 wB97M-V + LR-HF
 Correlation:  1.0000 wB97M-V
 Using SG-3 standard quadrature grid
 Nonlocal Correlation:  VV10 with C = 0.0100 and b = 6.00 and scale = 1.00000
 Grid used for NLC:  SG-1 standard quadrature
 using 24 threads for integral computing
 -------------------------------------------------------
 OpenMP Integral computing Module                
 Release: version 1.0, May 2013, Q-Chem Inc. Pittsburgh 
 -------------------------------------------------------
 -------------------------------------------------------
 OpenMP BLAS3 based DFT computing Module                
 Release: version 1.0, May 2013, Q-Chem Inc. Pittsburgh 
 -------------------------------------------------------
 A unrestricted SCF calculation will be
 performed using DIIS
 SCF converges when DIIS error is below 1.0e-05
 ---------------------------------------
  Cycle       Energy         DIIS error
 ---------------------------------------
    1    -250.1000988265      8.06e-03  
    2    -250.0073469833      1.22e-03  
    3    -250.0385435473      7.76e-04  
    4    -250.0492369986      2.20e-04  
    5    -250.0520932947      8.85e-05  
    6    -250.0527603162      4.34e-05  
    7    -250.0529511550      1.61e-05  
    8    -250.0529757363      6.44e-06  Convergence criterion met
 ---------------------------------------
 SCF time:   CPU 61.07s  wall 2.00s 
<S^2> =          0.752216109
 SCF   energy in the final basis set =     -250.0529757363
 Total energy in the final basis set =     -250.0529757363
 
 --------------------------------------------------------------
 
                    Orbital Energies (a.u.)
 --------------------------------------------------------------
 
 Alpha MOs
 -- Occupied --
-47.0736  -6.9772  -6.9259  -3.2562  -1.9680  -1.9674  -1.9614  -0.5664
 -0.4887  -0.3901  -0.2550  -0.2448
 -- Virtual --
 -0.0375  -0.0225  -0.0069   0.0143   0.0422   0.0498   0.0522   0.0731
  0.0938   0.0945   0.0958   0.0974   0.1211   0.1233   0.1528   0.1540
  0.1649   0.1682   0.1779   0.1946   0.2006   0.2011   0.2198   0.2275
  0.2299   0.2351   0.2366   0.2664   0.3156   0.3243   0.3264   0.3350
  0.3387   0.3450   0.3784   0.3822   0.3985   0.4270   0.4273   0.4280
  0.4579   0.4808   0.5541   0.5621   0.5656   0.5876   0.5899   0.6449
  0.6459   0.6738   0.6874   0.6903   0.7057   0.7058   0.8239   0.8548
  0.8566   0.9441   1.0275   1.0320   1.0339   1.1034   1.1107   1.1284
  1.1862   1.3564   1.5419   1.6748   1.6820   1.7344   1.7361   1.7483
  1.7526   1.7593   1.7593   1.7636   1.7644   1.8193   1.8204   1.8730
  1.9308   1.9319   1.9369   1.9370   1.9410   1.9549   1.9613   1.9835
  1.9903   2.0226   2.0372   2.0426   2.2426   2.3778   2.4734   2.4928
  3.0409   3.3619   5.2721   6.5425   6.6071   6.6451   6.6628   6.8430
 13.8307  14.3439
 
 Beta MOs
 -- Occupied --
-47.0734  -6.9773  -6.9182  -3.2559  -1.9679  -1.9662  -1.9614  -0.5439
 -0.4887  -0.3735  -0.2540
 -- Virtual --
 -0.0355  -0.0322  -0.0007   0.0080   0.0124   0.0395   0.0544   0.0590
  0.0721   0.0947   0.0948   0.0971   0.0979   0.1181   0.1195   0.1544
  0.1591   0.1628   0.1641   0.1751   0.1943   0.2018   0.2032   0.2193
  0.2285   0.2309   0.2320   0.2349   0.2691   0.3157   0.3246   0.3291
  0.3335   0.3380   0.3439   0.3786   0.3829   0.4025   0.4307   0.4312
  0.4371   0.4612   0.4846   0.5617   0.5721   0.5730   0.6023   0.6050
  0.6458   0.6489   0.6817   0.6958   0.7055   0.7087   0.7095   0.8343
  0.8614   0.8722   0.9529   1.0299   1.0352   1.0382   1.1383   1.1396
  1.1637   1.2118   1.3611   1.5730   1.7038   1.7181   1.7548   1.7550
  1.7598   1.7598   1.8011   1.8021   1.8154   1.8161   1.8235   1.8267
  1.8932   1.9370   1.9370   1.9644   1.9715   1.9787   1.9996   2.0021
  2.0069   2.0146   2.0466   2.0622   2.0811   2.2434   2.4034   2.5147
  2.5356   3.0774   3.4366   5.2739   6.5429   6.6074   6.6452   6.6635
  6.8438  13.8306  14.3576
 --------------------------------------------------------------
 
          Ground-State Mulliken Net Atomic Charges

     Atom                 Charge (a.u.)    Spin (a.u.)
  --------------------------------------------------------
      1 B                    -0.165525      -0.007175
      2 B                    -0.061349       0.896495
      3 Mg                    0.264364       0.120985
      4 H                    -0.037491      -0.010305
  --------------------------------------------------------
  Sum of atomic charges =     0.000000
  Sum of spin   charges =     1.000000

  Building new vdw surfaces
         Merz-Kollman RESP Net Atomic Charges

     Atom                 Charge (a.u.)
  ----------------------------------------
      1 B                    -0.375178
      2 B                    -0.616434
      3 Mg                    0.820003
      4 H                     0.171609
  ----------------------------------------
  Sum of atomic charges =     0.000000

  Related Dipole Moment =     0.5991 (X -0.5842 Y  0.1318 Z -0.0163)

 -----------------------------------------------------------------
                    Cartesian Multipole Moments
 -----------------------------------------------------------------
    Charge (ESU x 10^10)
                 0.0000
    Dipole Moment (Debye)
         X      -0.8938      Y       0.2173      Z      -0.0251
       Tot       0.9202
    Quadrupole Moments (Debye-Ang)
        XX     -42.7103     XY       4.5784     YY     -22.3075
        XZ      -0.2490     YZ       0.2001     ZZ     -25.7814
    Octopole Moments (Debye-Ang^2)
       XXX    -116.4823    XXY     -20.9094    XYY      -8.4876
       YYY     -57.2401    XXZ       7.8502    XYZ      -1.1598
       YYZ       5.7433    XZZ      -8.7286    YZZ     -24.2572
       ZZZ      18.9431
    Hexadecapole Moments (Debye-Ang^3)
      XXXX    -955.2707   XXXY      47.4535   XXYY    -131.6342
      XYYY      35.2548   YYYY    -167.2284   XXXZ      11.3777
      XXYZ       5.9658   XYYZ      -0.7602   YYYZ      16.5601
      XXZZ    -114.9595   XYZZ      16.5611   YYZZ     -45.9850
      XZZZ      -1.7721   YZZZ      20.2812   ZZZZ     -66.4959
 -----------------------------------------------------------------

 Begin NBO analysis for the ground state 

 i=           1 atno=           5 znuc=           5
 i=           2 atno=           5 znuc=           5
 i=           3 atno=          12 znuc=          12
 i=           4 atno=           1 znuc=           1
 Carts
             1             2             3             4
    1    5.59441325   -2.89061390    1.17022991   -5.08371854
    2    0.49297663    2.68738519    1.62767024    3.25559938
    3   -0.31328636   -0.57007179   -0.44604151   -0.63869530
 Carts
             1             2             3             4
    1    2.96043600   -1.52964700    0.61925900   -2.69018800
    2    0.26087200    1.42210300    0.86132600    1.72278900
    3   -0.16578400   -0.30166900   -0.23603500   -0.33798300
 Sao
             1             2             3             4             5
    1    1.00000000    0.68863327    0.18456924    0.09513873    0.05062490
    2    0.68863327    1.00000000    0.51539838    0.29166213    0.16139084
    3    0.18456924    0.51539838    1.00000000    0.85767108    0.59047550
    4    0.09513873    0.29166213    0.85767108    1.00000000    0.87527514
    5    0.05062490    0.16139084    0.59047550    0.87527514    1.00000000
    6    0.03100324    0.10028224    0.40158262    0.67417905    0.92313870
    7    0.00000000   -0.00000000   -0.00000000   -0.00000000    0.00000000
    8    0.00000000   -0.00000000    0.00000000   -0.00000000    0.00000000
    9   -0.00000000    0.00000000   -0.00000000    0.00000000    0.00000000
   10    0.00000000   -0.00000000    0.00000000    0.00000000    0.00000000
   11   -0.00000000   -0.00000000   -0.00000000   -0.00000000   -0.00000000
   12   -0.00000000    0.00000000    0.00000000    0.00000000    0.00000000
   13   -0.00000000   -0.00000000    0.00000000    0.00000000    0.00000000
   14   -0.00000000    0.00000000    0.00000000    0.00000000    0.00000000
   15    0.00000000    0.00000000    0.00000000    0.00000000    0.00000000
   16    0.00000000    0.00000000    0.00000000    0.00000000    0.00000000
   17    0.00000000   -0.00000000    0.00000000    0.00000000    0.00000000
   18    0.00000000    0.00000000    0.00000000    0.00000000    0.00000000
   19    0.00000000    0.00000000    0.00000000    0.00000000    0.00000000
   20    0.00000000    0.00000000    0.00000000    0.00000000    0.00000000
   21    0.00000000    0.00000000    0.00000000    0.00000000    0.00000000
   22   -0.00000000   -0.00000000    0.00000000    0.00000000    0.00000000
   23    0.00000000    0.00000000    0.00000000    0.00000000    0.00000000
   24   -0.00000000   -0.00000000    0.00000000    0.00000000   -0.00000000
   25    0.00000000    0.00000000    0.00000000    0.00000000    0.00000000
   26    0.00000000    0.00000000    0.00000000    0.00000000    0.00000000
   27   -0.00000000    0.00000000   -0.00000000    0.00000000    0.00000000
   28    0.00000000    0.00000000    0.00000000    0.00000000    0.00000000
   29   -0.00000000    0.00000000    0.00000000    0.00000000    0.00000000
   30    0.00000000    0.00000000    0.00000000    0.00000000    0.00000000
   31   -0.00000000   -0.00000000    0.00000000    0.00000000    0.00000000
   32    0.00000000    0.00000000    0.00000000    0.00000000    0.00000000
   33   -0.00000000   -0.00000000    0.00000000    0.00000000    0.00000000
   34    0.00000000   -0.00000000   -0.00000000    0.00000000    0.00000000
   35    0.00000000   -0.00000000   -0.00000000    0.00000000    0.00000000
   36    0.00000000    0.00000000    0.00000000    0.00000000    0.00000000
   37    0.00000000    0.00000000    0.00000000    0.00000000    0.00000000
   38    0.00000000    0.00000000    0.00000000    0.00000191    0.00049331
   39    0.00000000    0.00000000    0.00000000    0.00000976    0.00172667
   40    0.00000000    0.00000000    0.00000107    0.00034030    0.01101690
   41    0.00000191    0.00000976    0.00034030    0.00418579    0.03336776
   42    0.00049331    0.00172667    0.01101690    0.03336776    0.09750418
   43    0.00280608    0.00930928    0.04384025    0.09358676    0.18871889
   44    0.00000000    0.00000000    0.00000035    0.00029268    0.00785691
   45   -0.00000000   -0.00000000   -0.00000009   -0.00007569   -0.00203196
   46    0.00000000    0.00000000    0.00000001    0.00000886    0.00023778
   47    0.00000088    0.00000569    0.00042146    0.00680718    0.04444938
   48   -0.00000023   -0.00000147   -0.00010900   -0.00176048   -0.01149556
   49    0.00000003    0.00000017    0.00001275    0.00020601    0.00134519
   50    0.00163052    0.00564350    0.03322218    0.08680327    0.18853878
   51   -0.00042169   -0.00145953   -0.00859196   -0.02244917   -0.04876014
   52    0.00004935    0.00017079    0.00100541    0.00262696    0.00570582
   53   -0.00000000   -0.00000000   -0.00000010   -0.00012623   -0.00201254
   54   -0.00000000   -0.00000000   -0.00000000   -0.00000382   -0.00006091
   55   -0.00000000   -0.00000000   -0.00000012   -0.00015006   -0.00239255
   56    0.00000000    0.00000000    0.00000001    0.00001477    0.00023550
   57    0.00000000    0.00000000    0.00000018    0.00022772    0.00363067
   58   -0.00000051   -0.00000360   -0.00030922   -0.00427123   -0.01768332
   59   -0.00000002   -0.00000011   -0.00000936   -0.00012926   -0.00053516
   60   -0.00000061   -0.00000428   -0.00036761   -0.00507772   -0.02102230
   61    0.00000006    0.00000042    0.00003618    0.00049981    0.00206927
   62    0.00000093    0.00000650    0.00055785    0.00770537    0.03190103
   63   -0.00230927   -0.00774270   -0.03767364   -0.07609595   -0.11210995
   64   -0.00006989   -0.00023432   -0.00114013   -0.00230292   -0.00339282
   65   -0.00274531   -0.00920468   -0.04478721   -0.09046445   -0.13327866
   66    0.00027023    0.00090604    0.00440850    0.00890460    0.01311889
   67    0.00416597    0.01396797    0.06796393    0.13727848    0.20224841
   68   -0.00000000   -0.00000000   -0.00000240   -0.00046784   -0.00271313
   69   -0.00000000   -0.00000000   -0.00000012   -0.00002365   -0.00013714
   70    0.00000000    0.00000000    0.00000067    0.00013136    0.00076180
   71   -0.00000000   -0.00000000   -0.00000019   -0.00003776   -0.00021899
   72   -0.00000000   -0.00000000   -0.00000260   -0.00050793   -0.00294562
   73    0.00000000    0.00000000    0.00000022    0.00004266    0.00024740
   74    0.00000000    0.00000000    0.00000252    0.00049299    0.00285899
   75    0.00000000    0.00000000    0.00007371    0.00298671    0.00859248
   76   -0.00000000   -0.00000000   -0.00069578   -0.01708054   -0.04606158
   77    0.00000119    0.00001762    0.00450580    0.04315226    0.10154755
   78    0.00914026    0.03059611    0.14573737    0.28480464    0.43216981
   79    0.01624952    0.05291337    0.22104717    0.39423580    0.59204106
   80    0.00000000    0.00000003    0.00173302    0.01499095    0.01738920
   81   -0.00000000   -0.00000001   -0.00044448   -0.00384481   -0.00445990
   82    0.00000000    0.00000000    0.00005200    0.00044983    0.00052179
   83    0.00001503    0.00022784    0.02380909    0.08561308    0.08980547
   84   -0.00000386   -0.00005844   -0.00610644   -0.02195764   -0.02303288
   85    0.00000045    0.00000684    0.00071443    0.00256897    0.00269477
   86    0.00910097    0.03229192    0.17644457    0.29853825    0.28425461
   87   -0.00233417   -0.00828208   -0.04525367   -0.07656768   -0.07290428
   88    0.00027309    0.00096897    0.00529452    0.00895815    0.00852954
   89    0.03096235    0.09922491    0.37204776    0.55548417    0.59807407
   90   -0.00794108   -0.02544874   -0.09542105   -0.14246795   -0.15339121
   91    0.00092908    0.00297741    0.01116393    0.01666825    0.01794623
   92    0.02145311    0.06934434    0.27593808    0.45544396    0.59098858
   93   -0.00550219   -0.01778511   -0.07077129   -0.11681011   -0.15157395
   94    0.00064374    0.00208080    0.00827999    0.01366637    0.01773362
   95   -0.00000000   -0.00000000   -0.00031514   -0.00153131   -0.00079313
   96   -0.00000000   -0.00000000   -0.00000946   -0.00004595   -0.00002380
   97   -0.00000000   -0.00000000   -0.00037739   -0.00183384   -0.00094982
   98    0.00000000    0.00000000    0.00003687    0.00017916    0.00009279
   99    0.00000000    0.00000000    0.00057395    0.00278893    0.00144450
  100   -0.00240255   -0.00958605   -0.06219213   -0.07836773   -0.04014207
  101   -0.00007209   -0.00028765   -0.00186618   -0.00235156   -0.00120453
  102   -0.00287719   -0.01147985   -0.07447873   -0.09384996   -0.04807249
  103    0.00028109    0.00112153    0.00727626    0.00916875    0.00469648
  104    0.00437568    0.01745876    0.11326854    0.14272864    0.07310947
  105   -0.01831095   -0.05734395   -0.18434090   -0.21618597   -0.15293369
  106   -0.00054945   -0.00172070   -0.00553146   -0.00648703   -0.00458904
  107   -0.02192844   -0.06867276   -0.22075907   -0.25889540   -0.18314709
  108    0.00214232    0.00670904    0.02156724    0.02529300    0.01789270
  109    0.03334914    0.10443871    0.33573420    0.39373260    0.27853326
  110    0.00000000    0.00000000    0.00000000    0.00000008    0.00023315
  111    0.00000000    0.00000000    0.00000000    0.00000497    0.00122776
  112    0.00000030    0.00000143    0.00004470    0.00067465    0.00912058
  113    0.00000000    0.00000000    0.00000000    0.00000071    0.00051849
  114   -0.00000000   -0.00000000   -0.00000000   -0.00000018   -0.00013414
  115    0.00000000    0.00000000    0.00000000    0.00000002    0.00001580
  116    0.00000443    0.00001946    0.00038922    0.00359385    0.02688065
  117   -0.00000115   -0.00000503   -0.00010070   -0.00092979   -0.00695450
  118    0.00000013    0.00000059    0.00001186    0.00010952    0.00081917
             6             7             8             9            10
    1    0.03100324    0.00000000    0.00000000   -0.00000000    0.00000000
    2    0.10028224   -0.00000000   -0.00000000    0.00000000   -0.00000000
    3    0.40158262   -0.00000000    0.00000000   -0.00000000    0.00000000
    4    0.67417905   -0.00000000   -0.00000000    0.00000000    0.00000000
    5    0.92313870    0.00000000    0.00000000    0.00000000    0.00000000
    6    1.00000000   -0.00000000    0.00000000    0.00000000    0.00000000
    7   -0.00000000    1.00000000    0.00000000   -0.00000000    0.63203922
    8    0.00000000    0.00000000    1.00000000   -0.00000000    0.00000000
    9    0.00000000   -0.00000000   -0.00000000    1.00000000   -0.00000000
   10    0.00000000    0.63203922    0.00000000   -0.00000000    1.00000000
   11   -0.00000000    0.00000000    0.63203922   -0.00000000    0.00000000
   12    0.00000000   -0.00000000   -0.00000000    0.63203922    0.00000000
   13    0.00000000    0.26586486    0.00000000    0.00000000    0.72662655
   14    0.00000000    0.00000000    0.26586486    0.00000000    0.00000000
   15    0.00000000    0.00000000    0.00000000    0.26586486    0.00000000
   16    0.00000000    0.00000000    0.00000000    0.00000000    0.00000000
   17    0.00000000    0.00000000    0.00000000    0.00000000    0.00000000
   18    0.00000000    0.00000000   -0.00000000    0.00000000    0.00000000
   19    0.00000000    0.00000000    0.00000000    0.00000000    0.00000000
   20    0.00000000    0.00000000   -0.00000000    0.00000000    0.00000000
   21    0.00000000   -0.00000000   -0.00000000    0.00000000   -0.00000000
   22    0.00000000    0.00000000    0.00000000   -0.00000000   -0.00000000
   23    0.00000000    0.00000000    0.00000000    0.00000000   -0.00000000
   24    0.00000000    0.00000000    0.00000000   -0.00000000    0.00000000
   25    0.00000000   -0.00000000    0.00000000    0.00000000    0.00000000
   26    0.00000000    0.00000000    0.00000000    0.00000000    0.00000000
   27    0.00000000    0.00000000    0.00000000    0.00000000    0.00000000
   28    0.00000000   -0.00000000   -0.00000000    0.00000000   -0.00000000
   29    0.00000000    0.00000000    0.00000000    0.00000000    0.00000000
   30    0.00000000    0.00000000   -0.00000000    0.00000000    0.00000000
   31    0.00000000    0.00000000    0.00000000   -0.00000000    0.00000000
   32    0.00000000   -0.00000000   -0.00000000    0.00000000    0.00000000
   33    0.00000000   -0.00000000    0.00000000   -0.00000000    0.00000000
   34    0.00000000    0.00000000    0.00000000   -0.00000000    0.00000000
   35    0.00000000    0.00000000   -0.00000000   -0.00000000    0.00000000
   36    0.00000000   -0.00000000    0.00000000    0.00000000    0.00000000
   37    0.00000000    0.00000000   -0.00000000    0.00000000   -0.00000000
   38    0.00280608   -0.00000000    0.00000000   -0.00000000   -0.00000088
   39    0.00930928   -0.00000000    0.00000000   -0.00000000   -0.00000569
   40    0.04384025   -0.00000035    0.00000009   -0.00000001   -0.00042146
   41    0.09358676   -0.00029268    0.00007569   -0.00000886   -0.00680718
   42    0.18871889   -0.00785691    0.00203196   -0.00023778   -0.04444938
   43    0.29985354   -0.01900490    0.00491507   -0.00057515   -0.08141216
   44    0.01900490   -0.00000006    0.00000002   -0.00000000   -0.00034272
   45   -0.00491507    0.00000002   -0.00000000    0.00000000    0.00009347
   46    0.00057515   -0.00000000    0.00000000    0.00000000   -0.00001094
   47    0.08141216   -0.00034272    0.00009347   -0.00001094   -0.01127518
   48   -0.02105492    0.00009347   -0.00000549    0.00000283    0.00315769
   49    0.00246381   -0.00001094    0.00000283    0.00001835   -0.00036951
   50    0.25264517   -0.02283321    0.00671250   -0.00078548   -0.10922732
   51   -0.06533942    0.00671250    0.00138575    0.00020314    0.03306777
   52    0.00764589   -0.00078548    0.00020314    0.00309798   -0.00386953
   53   -0.00271058    0.00000001   -0.00000000    0.00000000    0.00016199
   54   -0.00008203    0.00000000   -0.00000000   -0.00000000    0.00000515
   55   -0.00322239    0.00000001   -0.00000000    0.00000000    0.00018391
   56    0.00031719   -0.00000000    0.00000000    0.00000000   -0.00001896
   57    0.00488993   -0.00000002    0.00000001   -0.00000000   -0.00027510
   58   -0.01943225    0.00026660   -0.00002008    0.00000848    0.00799469
   59   -0.00058809    0.00000848   -0.00000061   -0.00001329    0.00026105
   60   -0.02310147    0.00030281   -0.00007831    0.00001191    0.00884560
   61    0.00227392   -0.00003120    0.00000848    0.00005137   -0.00093552
   62    0.03505614   -0.00045302    0.00014425   -0.00001529   -0.01312075
   63   -0.10080787    0.02560202    0.00710217    0.00088991    0.09682808
   64   -0.00305078    0.00088991    0.00021494   -0.00377663    0.00346743
   65   -0.11984250    0.02646684   -0.00684489    0.00157189    0.09659058
   66    0.01179634   -0.00299590    0.00088991    0.01460294   -0.01133063
   67    0.18185924   -0.03834114    0.01752296   -0.00160542   -0.13807399
   68   -0.00191953    0.00000065   -0.00000011    0.00000002    0.00076547
   69   -0.00009703    0.00000003   -0.00000001   -0.00000003    0.00004107
   70    0.00053897   -0.00000018    0.00000003   -0.00000001   -0.00021701
   71   -0.00015493    0.00000005   -0.00000001   -0.00000005    0.00006240
   72   -0.00208402    0.00000069   -0.00000018    0.00000003    0.00079028
   73    0.00017504   -0.00000006    0.00000002    0.00000006   -0.00006940
   74    0.00202272   -0.00000066    0.00000023   -0.00000002   -0.00073761
   75    0.00964321   -0.00002099    0.00000538   -0.00000063   -0.00598515
   76   -0.05150981    0.00030991   -0.00007948    0.00000930    0.03433435
   77    0.11271278   -0.00373152    0.00095704   -0.00011197   -0.08495633
   78    0.47584458   -0.09510992    0.02439334   -0.00285393   -0.32635548
   79    0.69866109   -0.06104852    0.01565744   -0.00183186   -0.21769826
   80    0.01019511   -0.00116621    0.00031974   -0.00003741   -0.03182309
   81   -0.00261479    0.00031974   -0.00000155    0.00000959    0.00964805
   82    0.00030592   -0.00003741    0.00000959    0.00007933   -0.00112879
   83    0.05379466   -0.02459987    0.00695686   -0.00081393   -0.16335178
   84   -0.01379700    0.00695686    0.00074074    0.00020875    0.05136757
   85    0.00161420   -0.00081393    0.00020875    0.00250057   -0.00600982
   86    0.18208462   -0.15227943    0.04772934   -0.00558416   -0.37949985
   87   -0.04670020    0.04772934    0.02157641    0.00143220    0.13440315
   88    0.00546376   -0.00558416    0.00143220    0.03365024   -0.01572469
   89    0.47340821   -0.07285625    0.03904451   -0.00456807   -0.16958323
   90   -0.12141750    0.03904451    0.06936478    0.00117160    0.11322217
   91    0.01420542   -0.00456807    0.00117160    0.07924166   -0.01324659
   92    0.57671965    0.00454765    0.01357121   -0.00158778    0.03286601
   93   -0.14791433    0.01357121    0.05398127    0.00040723    0.04679124
   94    0.01730545   -0.00158778    0.00040723    0.05741431   -0.00547441
   95   -0.00024166    0.00022873   -0.00000776    0.00000728    0.00416217
   96   -0.00000725    0.00000728   -0.00000023   -0.00001376    0.00014662
   97   -0.00028940    0.00025919   -0.00006648    0.00001061    0.00422162
   98    0.00002827   -0.00002676    0.00000728    0.00005363   -0.00048696
   99    0.00044012   -0.00038754    0.00012734   -0.00001326   -0.00607602
  100   -0.01402211    0.07649844    0.02383655    0.00265345    0.14399968
  101   -0.00042076    0.00265345    0.00071526   -0.01185067    0.00560327
  102   -0.01679231    0.07904238   -0.02027242    0.00478940    0.12742586
  103    0.00164054   -0.00895005    0.00265345    0.04620589   -0.01684745
  104    0.02553803   -0.11453609    0.05323625   -0.00483265   -0.17347095
  105   -0.07601290    0.06000837    0.13706304    0.00305655    0.11222409
  106   -0.00228090    0.00305655    0.00411281   -0.04176201    0.00681251
  107   -0.09102992    0.02776912   -0.00712209    0.00931466    0.01343960
  108    0.00889324   -0.00702077    0.00305655    0.16283054   -0.01312982
  109    0.13843987   -0.02233003    0.08943455   -0.00556679    0.03415324
  110    0.00401839   -0.00000000    0.00000000   -0.00000000   -0.00000002
  111    0.01305199   -0.00000000    0.00000000   -0.00000000   -0.00000369
  112    0.04169713   -0.00003736    0.00000966   -0.00000114   -0.00103780
  113    0.00430542   -0.00000000    0.00000000   -0.00000000   -0.00000026
  114   -0.00111389    0.00000000   -0.00000000    0.00000000    0.00000007
  115    0.00013120   -0.00000000    0.00000000    0.00000000   -0.00000001
  116    0.07357581   -0.00033541    0.00009174   -0.00001081   -0.00567825
  117   -0.01903537    0.00009174   -0.00000454    0.00000280    0.00157955
  118    0.00224217   -0.00001081    0.00000280    0.00001886   -0.00018606
            11            12            13            14            15
    1   -0.00000000   -0.00000000   -0.00000000   -0.00000000    0.00000000
    2   -0.00000000    0.00000000   -0.00000000    0.00000000    0.00000000
    3   -0.00000000    0.00000000    0.00000000    0.00000000    0.00000000
    4   -0.00000000    0.00000000    0.00000000    0.00000000    0.00000000
    5   -0.00000000    0.00000000    0.00000000    0.00000000    0.00000000
    6   -0.00000000    0.00000000    0.00000000    0.00000000    0.00000000
    7    0.00000000   -0.00000000    0.26586486    0.00000000    0.00000000
    8    0.63203922   -0.00000000    0.00000000    0.26586486    0.00000000
    9   -0.00000000    0.63203922    0.00000000    0.00000000    0.26586486
   10    0.00000000    0.00000000    0.72662655    0.00000000    0.00000000
   11    1.00000000    0.00000000    0.00000000    0.72662655    0.00000000
   12    0.00000000    1.00000000    0.00000000    0.00000000    0.72662655
   13    0.00000000    0.00000000    1.00000000    0.00000000    0.00000000
   14    0.72662655    0.00000000    0.00000000    1.00000000    0.00000000
   15    0.00000000    0.72662655    0.00000000    0.00000000    1.00000000
   16    0.00000000    0.00000000    0.00000000    0.00000000    0.00000000
   17    0.00000000    0.00000000    0.00000000    0.00000000    0.00000000
   18    0.00000000    0.00000000    0.00000000    0.00000000    0.00000000
   19    0.00000000    0.00000000    0.00000000    0.00000000    0.00000000
   20    0.00000000    0.00000000    0.00000000    0.00000000    0.00000000
   21    0.00000000   -0.00000000   -0.00000000   -0.00000000    0.00000000
   22    0.00000000   -0.00000000    0.00000000    0.00000000   -0.00000000
   23    0.00000000    0.00000000    0.00000000    0.00000000    0.00000000
   24   -0.00000000    0.00000000    0.00000000    0.00000000   -0.00000000
   25    0.00000000    0.00000000   -0.00000000    0.00000000    0.00000000
   26    0.00000000    0.00000000    0.00000000    0.00000000    0.00000000
   27    0.00000000    0.00000000    0.00000000    0.00000000    0.00000000
   28    0.00000000    0.00000000    0.00000000    0.00000000    0.00000000
   29    0.00000000    0.00000000    0.00000000    0.00000000    0.00000000
   30    0.00000000    0.00000000    0.00000000    0.00000000    0.00000000
   31    0.00000000    0.00000000    0.00000000   -0.00000000    0.00000000
   32    0.00000000    0.00000000    0.00000000    0.00000000    0.00000000
   33    0.00000000    0.00000000    0.00000000    0.00000000    0.00000000
   34    0.00000000   -0.00000000    0.00000000    0.00000000    0.00000000
   35    0.00000000    0.00000000    0.00000000    0.00000000    0.00000000
   36    0.00000000    0.00000000    0.00000000    0.00000000    0.00000000
   37    0.00000000    0.00000000    0.00000000    0.00000000    0.00000000
   38    0.00000023   -0.00000003   -0.00163052    0.00042169   -0.00004935
   39    0.00000147   -0.00000017   -0.00564350    0.00145953   -0.00017079
   40    0.00010900   -0.00001275   -0.03322218    0.00859196   -0.00100541
   41    0.00176048   -0.00020601   -0.08680327    0.02244917   -0.00262696
   42    0.01149556   -0.00134519   -0.18853878    0.04876014   -0.00570582
   43    0.02105492   -0.00246381   -0.25264517    0.06533942   -0.00764589
   44    0.00009347   -0.00001094   -0.02283321    0.00671250   -0.00078548
   45   -0.00000549    0.00000283    0.00671250    0.00138575    0.00020314
   46    0.00000283    0.00001835   -0.00078548    0.00020314    0.00309798
   47    0.00315769   -0.00036951   -0.10922732    0.03306777   -0.00386953
   48    0.00011788    0.00009556    0.03306777    0.01008242    0.00100074
   49    0.00009556    0.00092335   -0.00386953    0.00100074    0.01851734
   50    0.03306777   -0.00386953   -0.30465990    0.10036349   -0.01174434
   51    0.01008242    0.00100074    0.10036349    0.05745526    0.00303734
   52    0.00100074    0.01851734   -0.01174434    0.00303734    0.08305597
   53   -0.00001192    0.00000515    0.00630125    0.00141132    0.00021620
   54   -0.00000036   -0.00000815    0.00021620    0.00004271   -0.00083629
   55   -0.00004756    0.00000725    0.00661149   -0.00170987    0.00037091
   56    0.00000515    0.00003152   -0.00073736    0.00021620    0.00323363
   57    0.00008776   -0.00000930   -0.00962912    0.00417595   -0.00039004
   58    0.00020958    0.00026105    0.04667197    0.01588327    0.00164692
   59    0.00000634   -0.00062324    0.00164692    0.00048068   -0.00769776
   60   -0.00228766    0.00039562    0.04739925   -0.01225846    0.00300475
   61    0.00026105    0.00240986   -0.00546146    0.00164692    0.02976461
   62    0.00465558   -0.00047093   -0.06821657    0.03313746   -0.00297107
   63    0.03898999    0.00346743    0.17779332    0.13928913    0.00693463
   64    0.00117997   -0.01764205    0.00693463    0.00421536   -0.05113947
   65   -0.02498038    0.00652014    0.15777651   -0.04080436    0.01518239
   66    0.00346743    0.06821579   -0.02080503    0.00693463    0.19773882
   67    0.07120285   -0.00625530   -0.21482724    0.15825756   -0.01251019
   68   -0.00005581    0.00002595    0.00749908    0.00189958    0.00030213
   69   -0.00000242   -0.00007379    0.00044324    0.00010684   -0.00201303
   70    0.00000730   -0.00001016   -0.00216171   -0.00075938   -0.00016248
   71   -0.00001614   -0.00011770    0.00062193   -0.00016084   -0.00321069
   72   -0.00021701    0.00003929    0.00704016   -0.00216171    0.00062824
   73    0.00002249    0.00013313   -0.00067300    0.00029682    0.00363154
   74    0.00032567   -0.00002734   -0.00603846    0.00520482   -0.00031837
   75    0.00153504   -0.00017959   -0.01858289    0.00476605   -0.00055761
   76   -0.00880591    0.00103026    0.09778631   -0.02507977    0.00293424
   77    0.02178920   -0.00254926   -0.20563457    0.05274018   -0.00617042
   78    0.08370211   -0.00979285   -0.58053132    0.14889193   -0.01741983
   79    0.05583422   -0.00653241   -0.47216058    0.12109751   -0.01416798
   80    0.00964805   -0.00112879   -0.02304756    0.00999309   -0.00116916
   81    0.00332029    0.00028951    0.00999309    0.01335263    0.00029986
   82    0.00028951    0.00576090   -0.00116916    0.00029986    0.01588053
   83    0.05136757   -0.00600982   -0.10504621    0.04801818   -0.00561796
   84    0.02375646    0.00154137    0.04801818    0.06986174    0.00144087
   85    0.00154137    0.03675064   -0.00561796    0.00144087    0.08200864
   86    0.13440315   -0.01572469   -0.22957286    0.12536941   -0.01466778
   87    0.11006848    0.00403300    0.12536941    0.22708975    0.00376192
   88    0.00403300    0.14406771   -0.01466778    0.00376192    0.25880377
   89    0.11322217   -0.01324659   -0.07984393    0.15799120   -0.01848441
   90    0.24283263    0.00339742    0.15799120    0.49564473    0.00474079
   91    0.00339742    0.27147383   -0.01848441    0.00474079    0.53561090
   92    0.04679124   -0.00547441    0.15768035    0.09303670   -0.01088497
   93    0.20330478    0.00140405    0.09303670    0.49656987    0.00279172
   94    0.00140405    0.21514130   -0.01088497    0.00279172    0.52010486
   95    0.00156990    0.00014662    0.00114747    0.00252383    0.00005765
   96    0.00004711   -0.00071966    0.00005765    0.00007573   -0.00077194
   97   -0.00108274    0.00027340    0.00055907   -0.00014339    0.00017356
   98    0.00014662    0.00280595   -0.00013425    0.00005765    0.00300981
   99    0.00300646   -0.00026703   -0.00048236    0.00167106   -0.00010499
  100    0.11872916    0.00560327    0.04135746    0.13034797    0.00240217
  101    0.00356267   -0.04256624    0.00240217    0.00391131   -0.03862489
  102   -0.03268158    0.01248349    0.00875931   -0.00224655    0.00810454
  103    0.00560327    0.16596627   -0.00483868    0.00240217    0.15059891
  104    0.12995977   -0.01020506    0.00507937    0.07609122   -0.00437499
  105    0.38941280    0.00681251    0.04498171    0.50795241    0.00562923
  106    0.01168499   -0.11460446    0.00562923    0.01524198   -0.14244851
  107   -0.00344692    0.02366859   -0.09638441    0.02472022    0.02600836
  108    0.00681251    0.44684411   -0.00526270    0.00562923    0.55540835
  109    0.22085831   -0.01240741    0.21439864    0.23024689   -0.01025234
  110    0.00000000   -0.00000000   -0.00080291    0.00020773   -0.00002447
  111    0.00000095   -0.00000011   -0.00406048    0.00105052   -0.00012374
  112    0.00026850   -0.00003163   -0.02543226    0.00657978   -0.00077503
  113    0.00000007   -0.00000001   -0.00174636    0.00048757   -0.00005743
  114   -0.00000001    0.00000000    0.00048757    0.00001207    0.00001486
  115    0.00000000    0.00000001   -0.00005743    0.00001486    0.00013646
  116    0.00157955   -0.00018606   -0.06772420    0.01976796   -0.00232846
  117    0.00001841    0.00004814    0.01976796    0.00356889    0.00060242
  118    0.00004814    0.00042140   -0.00232846    0.00060242    0.00861226
            16            17            18            19            20
    1    0.00000000    0.00000000    0.00000000    0.00000000    0.00000000
    2    0.00000000   -0.00000000    0.00000000    0.00000000    0.00000000
    3    0.00000000    0.00000000    0.00000000    0.00000000    0.00000000
    4    0.00000000    0.00000000    0.00000000    0.00000000    0.00000000
    5    0.00000000    0.00000000    0.00000000    0.00000000    0.00000000
    6    0.00000000    0.00000000    0.00000000    0.00000000    0.00000000
    7    0.00000000    0.00000000    0.00000000    0.00000000    0.00000000
    8    0.00000000    0.00000000   -0.00000000    0.00000000   -0.00000000
    9    0.00000000    0.00000000    0.00000000    0.00000000    0.00000000
   10    0.00000000    0.00000000    0.00000000    0.00000000    0.00000000
   11    0.00000000    0.00000000    0.00000000    0.00000000    0.00000000
   12    0.00000000    0.00000000    0.00000000    0.00000000    0.00000000
   13    0.00000000    0.00000000    0.00000000    0.00000000    0.00000000
   14    0.00000000    0.00000000    0.00000000    0.00000000    0.00000000
   15    0.00000000    0.00000000    0.00000000    0.00000000    0.00000000
   16    1.00000000    0.00000000    0.00000000    0.00000000    0.00000000
   17    0.00000000    1.00000000    0.00000000    0.00000000    0.00000000
   18    0.00000000    0.00000000    1.00000000    0.00000000    0.00000000
   19    0.00000000    0.00000000    0.00000000    1.00000000    0.00000000
   20    0.00000000    0.00000000    0.00000000    0.00000000    1.00000000
   21    0.55106883    0.00000000    0.00000000   -0.00000000    0.00000000
   22    0.00000000    0.55106883   -0.00000000    0.00000000    0.00000000
   23    0.00000000   -0.00000000    0.55106883    0.00000000    0.00000000
   24   -0.00000000    0.00000000    0.00000000    0.55106883    0.00000000
   25    0.00000000    0.00000000    0.00000000    0.00000000    0.55106883
   26    0.12392715    0.00000000    0.00000000    0.00000000    0.00000000
   27    0.00000000    0.12392715    0.00000000    0.00000000    0.00000000
   28    0.00000000    0.00000000    0.12392715    0.00000000   -0.00000000
   29    0.00000000    0.00000000    0.00000000    0.12392715    0.00000000
   30    0.00000000    0.00000000    0.00000000    0.00000000    0.12392715
   31    0.00000000    0.00000000    0.00000000    0.00000000    0.00000000
   32    0.00000000    0.00000000    0.00000000    0.00000000    0.00000000
   33    0.00000000    0.00000000    0.00000000    0.00000000    0.00000000
   34    0.00000000    0.00000000    0.00000000    0.00000000    0.00000000
   35    0.00000000    0.00000000    0.00000000    0.00000000    0.00000000
   36    0.00000000    0.00000000    0.00000000    0.00000000    0.00000000
   37    0.00000000    0.00000000    0.00000000    0.00000000    0.00000000
   38   -0.00000000   -0.00000000   -0.00000000    0.00000000    0.00000000
   39   -0.00000000   -0.00000000   -0.00000000    0.00000000    0.00000000
   40   -0.00000010   -0.00000000   -0.00000012    0.00000001    0.00000018
   41   -0.00012623   -0.00000382   -0.00015006    0.00001477    0.00022772
   42   -0.00201254   -0.00006091   -0.00239255    0.00023550    0.00363067
   43   -0.00271058   -0.00008203   -0.00322239    0.00031719    0.00488993
   44   -0.00000001   -0.00000000   -0.00000001    0.00000000    0.00000002
   45    0.00000000    0.00000000    0.00000000   -0.00000000   -0.00000001
   46   -0.00000000    0.00000000   -0.00000000   -0.00000000    0.00000000
   47   -0.00016199   -0.00000515   -0.00018391    0.00001896    0.00027510
   48    0.00001192    0.00000036    0.00004756   -0.00000515   -0.00008776
   49   -0.00000515    0.00000815   -0.00000725   -0.00003152    0.00000930
   50   -0.00630125   -0.00021620   -0.00661149    0.00073736    0.00962912
   51   -0.00141132   -0.00004271    0.00170987   -0.00021620   -0.00417595
   52   -0.00021620    0.00083629   -0.00037091   -0.00323363    0.00039004
   53    0.00000000    0.00000000    0.00000000   -0.00000000   -0.00000000
   54    0.00000000   -0.00000000    0.00000000    0.00000000   -0.00000000
   55    0.00000000    0.00000000    0.00000000   -0.00000000   -0.00000000
   56   -0.00000000    0.00000000   -0.00000000   -0.00000000    0.00000000
   57   -0.00000000   -0.00000000   -0.00000000    0.00000000    0.00000000
   58    0.00004287    0.00000136    0.00013790   -0.00001562   -0.00025229
   59    0.00000136   -0.00000200    0.00000546    0.00002406   -0.00000838
   60    0.00013790    0.00000546    0.00016808   -0.00002111   -0.00024878
   61   -0.00001562    0.00002406   -0.00002111   -0.00008880    0.00002665
   62   -0.00025229   -0.00000838   -0.00024878    0.00002665    0.00035816
   63   -0.00604882   -0.00020972    0.00477922   -0.00078582   -0.01387919
   64   -0.00020972    0.00087464    0.00034287    0.00375465   -0.00053448
   65    0.00477922    0.00034287    0.00751392   -0.00132577   -0.00862180
   66   -0.00078582    0.00375465   -0.00132577   -0.01267227    0.00118157
   67   -0.01387919   -0.00053448   -0.00862180    0.00118157    0.01129601
   68    0.00000011    0.00000000    0.00000018   -0.00000002   -0.00000030
   69    0.00000001   -0.00000000    0.00000001    0.00000003   -0.00000002
   70   -0.00000003   -0.00000000   -0.00000005    0.00000001    0.00000008
   71    0.00000001   -0.00000001    0.00000002    0.00000004   -0.00000002
   72    0.00000017    0.00000001    0.00000020   -0.00000002   -0.00000029
   73   -0.00000002    0.00000001   -0.00000002   -0.00000005    0.00000003
   74   -0.00000020   -0.00000001   -0.00000019    0.00000002    0.00000026
   75   -0.00000352   -0.00000011   -0.00000421    0.00000041    0.00000641
   76    0.00008812    0.00000264    0.00010553   -0.00001031   -0.00016050
   77   -0.00183403   -0.00005503   -0.00219635    0.00021457    0.00334025
   78   -0.02090544   -0.00062730   -0.02503550    0.00244586    0.03807441
   79   -0.00534640   -0.00016043   -0.00640263    0.00062551    0.00973723
   80   -0.00050962   -0.00001615   -0.00058005    0.00005962    0.00086850
   81    0.00002611    0.00000078    0.00014877   -0.00001615   -0.00028018
   82   -0.00001615    0.00002823   -0.00002322   -0.00011007    0.00002942
   83   -0.01472320   -0.00048140   -0.01624129    0.00172256    0.02407240
   84   -0.00103178   -0.00003096    0.00416549   -0.00048140   -0.00881385
   85   -0.00048140    0.00130549   -0.00075482   -0.00509012    0.00087676
   86   -0.05718101   -0.00207650   -0.05581400    0.00668998    0.07916726
   87   -0.02911815   -0.00087374    0.01431491   -0.00207650   -0.04434465
   88   -0.00207650    0.01195780   -0.00411059   -0.04662358    0.00378186
   89   -0.00940192   -0.00058018   -0.00079458    0.00109999   -0.00351479
   90   -0.03376991   -0.00101332    0.00020379   -0.00058018   -0.01896452
   91   -0.00058018    0.00991558   -0.00203670   -0.03866096    0.00105666
   92    0.00024608   -0.00009464    0.00387663   -0.00002879   -0.00751233
   93   -0.01244741   -0.00037351   -0.00099426   -0.00009464   -0.00487309
   94   -0.00009464    0.00339707   -0.00057265   -0.01324522    0.00017236
   95    0.00002827    0.00000089    0.00009791   -0.00001104   -0.00018010
   96    0.00000089   -0.00000134    0.00000386    0.00001741   -0.00000594
   97    0.00009791    0.00000386    0.00012032   -0.00001505   -0.00017833
   98   -0.00001104    0.00001741   -0.00001505   -0.00006477    0.00001899
   99   -0.00018010   -0.00000594   -0.00017833    0.00001899    0.00025740
  100   -0.03691423   -0.00126842    0.02860283   -0.00466090   -0.08308504
  101   -0.00126842    0.00531905    0.00202984    0.02238163   -0.00316951
  102    0.02860283    0.00202984    0.04523382   -0.00791438   -0.05209342
  103   -0.00466090    0.02238163   -0.00791438   -0.07620685    0.00708335
  104   -0.08308504   -0.00316951   -0.05209342    0.00708335    0.06878657
  105   -0.05159325   -0.00259569   -0.01043393   -0.00117545   -0.03067958
  106   -0.00259569    0.03483268    0.00106454    0.02644732   -0.00171596
  107   -0.01043393    0.00106454    0.02902746   -0.00415064    0.01900299
  108   -0.00117545    0.02644732   -0.00415064   -0.06150265    0.00048824
  109   -0.03067958   -0.00171596    0.01900299    0.00048824   -0.01256268
  110   -0.00000000   -0.00000000   -0.00000000    0.00000000    0.00000000
  111   -0.00000000   -0.00000000   -0.00000000    0.00000000    0.00000000
  112   -0.00001544   -0.00000047   -0.00001835    0.00000182    0.00002785
  113   -0.00000000   -0.00000000   -0.00000000    0.00000000    0.00000000
  114    0.00000000    0.00000000    0.00000000   -0.00000000   -0.00000000
  115   -0.00000000    0.00000000   -0.00000000   -0.00000000    0.00000000
  116   -0.00013972   -0.00000449   -0.00015798    0.00001646    0.00023600
  117    0.00000827    0.00000025    0.00004087   -0.00000449   -0.00007652
  118   -0.00000449    0.00000759   -0.00000639   -0.00002935    0.00000810
            21            22            23            24            25
    1    0.00000000   -0.00000000    0.00000000   -0.00000000    0.00000000
    2    0.00000000   -0.00000000    0.00000000   -0.00000000    0.00000000
    3    0.00000000    0.00000000    0.00000000    0.00000000    0.00000000
    4    0.00000000    0.00000000    0.00000000    0.00000000    0.00000000
    5    0.00000000    0.00000000    0.00000000   -0.00000000    0.00000000
    6    0.00000000    0.00000000    0.00000000    0.00000000    0.00000000
    7   -0.00000000    0.00000000    0.00000000    0.00000000   -0.00000000
    8   -0.00000000    0.00000000    0.00000000    0.00000000    0.00000000
    9    0.00000000   -0.00000000    0.00000000   -0.00000000    0.00000000
   10   -0.00000000   -0.00000000   -0.00000000    0.00000000    0.00000000
   11    0.00000000    0.00000000    0.00000000   -0.00000000    0.00000000
   12   -0.00000000   -0.00000000    0.00000000    0.00000000    0.00000000
   13   -0.00000000    0.00000000    0.00000000    0.00000000   -0.00000000
   14   -0.00000000    0.00000000    0.00000000    0.00000000    0.00000000
   15    0.00000000   -0.00000000    0.00000000   -0.00000000    0.00000000
   16    0.55106883    0.00000000    0.00000000   -0.00000000    0.00000000
   17    0.00000000    0.55106883   -0.00000000    0.00000000    0.00000000
   18    0.00000000   -0.00000000    0.55106883    0.00000000    0.00000000
   19   -0.00000000    0.00000000    0.00000000    0.55106883    0.00000000
   20    0.00000000    0.00000000    0.00000000    0.00000000    0.55106883
   21    1.00000000    0.00000000    0.00000000    0.00000000    0.00000000
   22    0.00000000    1.00000000    0.00000000    0.00000000    0.00000000
   23    0.00000000    0.00000000    1.00000000    0.00000000    0.00000000
   24    0.00000000    0.00000000    0.00000000    1.00000000    0.00000000
   25    0.00000000    0.00000000    0.00000000    0.00000000    1.00000000
   26    0.54793465    0.00000000    0.00000000    0.00000000    0.00000000
   27    0.00000000    0.54793465    0.00000000    0.00000000    0.00000000
   28    0.00000000    0.00000000    0.54793465    0.00000000    0.00000000
   29    0.00000000    0.00000000    0.00000000    0.54793465    0.00000000
   30    0.00000000    0.00000000    0.00000000    0.00000000    0.54793465
   31    0.00000000    0.00000000    0.00000000    0.00000000   -0.00000000
   32    0.00000000    0.00000000    0.00000000   -0.00000000    0.00000000
   33    0.00000000    0.00000000   -0.00000000    0.00000000   -0.00000000
   34    0.00000000    0.00000000    0.00000000    0.00000000    0.00000000
   35    0.00000000    0.00000000    0.00000000    0.00000000    0.00000000
   36    0.00000000    0.00000000    0.00000000    0.00000000    0.00000000
   37    0.00000000    0.00000000    0.00000000    0.00000000    0.00000000
   38   -0.00000051   -0.00000002   -0.00000061    0.00000006    0.00000093
   39   -0.00000360   -0.00000011   -0.00000428    0.00000042    0.00000650
   40   -0.00030922   -0.00000936   -0.00036761    0.00003618    0.00055785
   41   -0.00427123   -0.00012926   -0.00507772    0.00049981    0.00770537
   42   -0.01768332   -0.00053516   -0.02102230    0.00206927    0.03190103
   43   -0.01943225   -0.00058809   -0.02310147    0.00227392    0.03505614
   44   -0.00026660   -0.00000848   -0.00030281    0.00003120    0.00045302
   45    0.00002008    0.00000061    0.00007831   -0.00000848   -0.00014425
   46   -0.00000848    0.00001329   -0.00001191   -0.00005137    0.00001529
   47   -0.00799469   -0.00026105   -0.00884560    0.00093552    0.01312075
   48   -0.00020958   -0.00000634    0.00228766   -0.00026105   -0.00465558
   49   -0.00026105    0.00062324   -0.00039562   -0.00240986    0.00047093
   50   -0.04667197   -0.00164692   -0.04739925    0.00546146    0.06821657
   51   -0.01588327   -0.00048068    0.01225846   -0.00164692   -0.03313746
   52   -0.00164692    0.00769776   -0.00300475   -0.02976461    0.00297107
   53    0.00004287    0.00000136    0.00013790   -0.00001562   -0.00025229
   54    0.00000136   -0.00000200    0.00000546    0.00002406   -0.00000838
   55    0.00013790    0.00000546    0.00016808   -0.00002111   -0.00024878
   56   -0.00001562    0.00002406   -0.00002111   -0.00008880    0.00002665
   57   -0.00025229   -0.00000838   -0.00024878    0.00002665    0.00035816
   58   -0.00026494   -0.00000862    0.00573727   -0.00071194   -0.01179924
   59   -0.00000862    0.00001962    0.00026616    0.00174202   -0.00041051
   60    0.00573727    0.00026616    0.00728447   -0.00102913   -0.01035014
   61   -0.00071194    0.00174202   -0.00102913   -0.00626565    0.00117417
   62   -0.01179924   -0.00041051   -0.01035014    0.00117417    0.01448058
   63   -0.05054916   -0.00180298    0.02411895   -0.00467445   -0.08493330
   64   -0.00180298    0.00897262    0.00217579    0.02741689   -0.00340514
   65    0.02411895    0.00217579    0.04463864   -0.00841303   -0.04351103
   66   -0.00467445    0.02741689   -0.00841303   -0.08994852    0.00671095
   67   -0.08493330   -0.00340514   -0.04351103    0.00671095    0.05559201
   68    0.00020802    0.00000691    0.00065533   -0.00008020   -0.00123117
   69    0.00000975   -0.00001632    0.00004578    0.00022531   -0.00006947
   70   -0.00003197   -0.00000176   -0.00019650    0.00003196    0.00035151
   71    0.00005017   -0.00008873    0.00007494    0.00034308   -0.00009051
   72    0.00063760    0.00003196    0.00075980   -0.00011709   -0.00107424
   73   -0.00006947    0.00012217   -0.00008259   -0.00038249    0.00009657
   74   -0.00094605   -0.00003325   -0.00069056    0.00007780    0.00089446
   75   -0.00468949   -0.00014072   -0.00561594    0.00054865    0.00854082
   76    0.02601956    0.00078076    0.03115995   -0.00304420   -0.04738860
   77   -0.05855084   -0.00175692   -0.07011807    0.00685024    0.10663677
   78   -0.10274387   -0.00308300   -0.12304183    0.01202067    0.18712414
   79   -0.03156204   -0.00094707   -0.03779740    0.00369265    0.05748294
   80   -0.02615888   -0.00091438   -0.02678216    0.00306050    0.03867958
   81   -0.00900369   -0.00027017    0.00686896   -0.00091438   -0.01854775
   82   -0.00091438    0.00428626   -0.00167779   -0.01671217    0.00166533
   83   -0.11564950   -0.00419111   -0.11318807    0.01353058    0.16071532
   84   -0.05784304   -0.00173568    0.02902994   -0.00419111   -0.08926530
   85   -0.00419111    0.02389714   -0.00826449   -0.09317521    0.00763313
   86   -0.18199266   -0.00741398   -0.14937772    0.02129250    0.19622796
   87   -0.19039704   -0.00571319    0.03831169   -0.00741398   -0.18049718
   88   -0.00741398    0.06486231   -0.01767136   -0.25289889    0.01350284
   89   -0.03543658   -0.00268149    0.01437615    0.00414596   -0.04750592
   90   -0.18734063   -0.00562147   -0.00368713   -0.00268149   -0.09566892
   91   -0.00268149    0.05384604   -0.01049649   -0.20994633    0.00488371
   92    0.00313419   -0.00056064    0.02673960   -0.00036669   -0.05104073
   93   -0.08027725   -0.00240886   -0.00685805   -0.00056064   -0.03054562
   94   -0.00056064    0.02180133   -0.00361895   -0.08500363    0.00102108
   95   -0.00408836   -0.00014195    0.00260596   -0.00044946   -0.00809598
   96   -0.00014195    0.00063809    0.00020051    0.00233780   -0.00031355
   97    0.00260596    0.00020051    0.00435021   -0.00078179   -0.00474615
   98   -0.00044946    0.00233780   -0.00078179   -0.00787742    0.00067186
   99   -0.00809598   -0.00031355   -0.00474615    0.00067186    0.00621134
  100   -0.20159668   -0.00772033    0.02505409   -0.01029706   -0.20457326
  101   -0.00772033    0.05545861    0.00567865    0.09440189   -0.00898309
  102    0.02505409    0.00567865    0.10934130   -0.02214111   -0.04563022
  103   -0.01029706    0.09440189   -0.02214111   -0.28840370    0.01284353
  104   -0.20457326   -0.00898309   -0.04563022    0.01284353    0.05866144
  105   -0.19113114   -0.01131860   -0.05939307   -0.00344069   -0.10570357
  106   -0.01131860    0.18573170    0.00401949    0.11142478   -0.00652142
  107   -0.05939307    0.00401949    0.14279081   -0.01567205    0.10817071
  108   -0.00344069    0.11142478   -0.01567205   -0.22013708   -0.00069320
  109   -0.10570357   -0.00652142    0.10817071   -0.00069320   -0.05665505
  110   -0.00000001   -0.00000000   -0.00000001    0.00000000    0.00000002
  111   -0.00000248   -0.00000008   -0.00000295    0.00000029    0.00000447
  112   -0.00064789   -0.00001974   -0.00076995    0.00007631    0.00116831
  113   -0.00000015   -0.00000000   -0.00000017    0.00000002    0.00000026
  114    0.00000002    0.00000000    0.00000004   -0.00000000   -0.00000008
  115   -0.00000000    0.00000000   -0.00000001   -0.00000002    0.00000001
  116   -0.00356139   -0.00011643   -0.00396207    0.00041950    0.00588779
  117   -0.00001309   -0.00000040    0.00102506   -0.00011643   -0.00204150
  118   -0.00011643    0.00025556   -0.00017361   -0.00098781    0.00020995
            26            27            28            29            30
    1    0.00000000   -0.00000000    0.00000000   -0.00000000    0.00000000
    2    0.00000000    0.00000000    0.00000000    0.00000000    0.00000000
    3    0.00000000   -0.00000000    0.00000000    0.00000000    0.00000000
    4    0.00000000    0.00000000    0.00000000    0.00000000    0.00000000
    5    0.00000000    0.00000000    0.00000000    0.00000000    0.00000000
    6    0.00000000    0.00000000    0.00000000    0.00000000    0.00000000
    7    0.00000000    0.00000000   -0.00000000    0.00000000    0.00000000
    8    0.00000000    0.00000000   -0.00000000    0.00000000   -0.00000000
    9    0.00000000    0.00000000    0.00000000    0.00000000    0.00000000
   10    0.00000000    0.00000000   -0.00000000    0.00000000    0.00000000
   11    0.00000000    0.00000000    0.00000000    0.00000000    0.00000000
   12    0.00000000    0.00000000    0.00000000    0.00000000    0.00000000
   13    0.00000000    0.00000000    0.00000000    0.00000000    0.00000000
   14    0.00000000    0.00000000    0.00000000    0.00000000    0.00000000
   15    0.00000000    0.00000000    0.00000000    0.00000000    0.00000000
   16    0.12392715    0.00000000    0.00000000    0.00000000    0.00000000
   17    0.00000000    0.12392715    0.00000000    0.00000000    0.00000000
   18    0.00000000    0.00000000    0.12392715    0.00000000   -0.00000000
   19    0.00000000    0.00000000    0.00000000    0.12392715    0.00000000
   20    0.00000000    0.00000000    0.00000000    0.00000000    0.12392715
   21    0.54793465    0.00000000    0.00000000    0.00000000    0.00000000
   22    0.00000000    0.54793465    0.00000000    0.00000000    0.00000000
   23    0.00000000    0.00000000    0.54793465    0.00000000    0.00000000
   24    0.00000000    0.00000000    0.00000000    0.54793465    0.00000000
   25    0.00000000    0.00000000    0.00000000    0.00000000    0.54793465
   26    1.00000000    0.00000000    0.00000000    0.00000000    0.00000000
   27    0.00000000    1.00000000    0.00000000    0.00000000    0.00000000
   28    0.00000000    0.00000000    1.00000000    0.00000000    0.00000000
   29    0.00000000    0.00000000    0.00000000    1.00000000    0.00000000
   30    0.00000000    0.00000000    0.00000000    0.00000000    1.00000000
   31    0.00000000    0.00000000    0.00000000   -0.00000000    0.00000000
   32   -0.00000000    0.00000000    0.00000000    0.00000000   -0.00000000
   33   -0.00000000   -0.00000000    0.00000000   -0.00000000    0.00000000
   34    0.00000000   -0.00000000   -0.00000000   -0.00000000    0.00000000
   35   -0.00000000   -0.00000000    0.00000000   -0.00000000   -0.00000000
   36    0.00000000   -0.00000000    0.00000000    0.00000000   -0.00000000
   37   -0.00000000    0.00000000    0.00000000    0.00000000    0.00000000
   38   -0.00230927   -0.00006989   -0.00274531    0.00027023    0.00416597
   39   -0.00774270   -0.00023432   -0.00920468    0.00090604    0.01396797
   40   -0.03767364   -0.00114013   -0.04478721    0.00440850    0.06796393
   41   -0.07609595   -0.00230292   -0.09046445    0.00890460    0.13727848
   42   -0.11210995   -0.00339282   -0.13327866    0.01311889    0.20224841
   43   -0.10080787   -0.00305078   -0.11984250    0.01179634    0.18185924
   44   -0.02560202   -0.00088991   -0.02646684    0.00299590    0.03834114
   45   -0.00710217   -0.00021494    0.00684489   -0.00088991   -0.01752296
   46   -0.00088991    0.00377663   -0.00157189   -0.01460294    0.00160542
   47   -0.09682808   -0.00346743   -0.09659058    0.01133063    0.13807399
   48   -0.03898999   -0.00117997    0.02498038   -0.00346743   -0.07120285
   49   -0.00346743    0.01764205   -0.00652014   -0.06821579    0.00625530
   50   -0.17779332   -0.00693463   -0.15777651    0.02080503    0.21482724
   51   -0.13928913   -0.00421536    0.04080436   -0.00693463   -0.15825756
   52   -0.00693463    0.05113947   -0.01518239   -0.19773882    0.01251019
   53   -0.00604882   -0.00020972    0.00477922   -0.00078582   -0.01387919
   54   -0.00020972    0.00087464    0.00034287    0.00375465   -0.00053448
   55    0.00477922    0.00034287    0.00751392   -0.00132577   -0.00862180
   56   -0.00078582    0.00375465   -0.00132577   -0.01267227    0.00118157
   57   -0.01387919   -0.00053448   -0.00862180    0.00118157    0.01129601
   58   -0.05054916   -0.00180298    0.02411895   -0.00467445   -0.08493330
   59   -0.00180298    0.00897262    0.00217579    0.02741689   -0.00340514
   60    0.02411895    0.00217579    0.04463864   -0.00841303   -0.04351103
   61   -0.00467445    0.02741689   -0.00841303   -0.08994852    0.00671095
   62   -0.08493330   -0.00340514   -0.04351103    0.00671095    0.05559201
   63   -0.23767551   -0.00938095    0.01837035   -0.01118171   -0.22482344
   64   -0.00938095    0.07201773    0.00644754    0.11195569   -0.01020542
   65    0.01837035    0.00644754    0.12241288   -0.02493043   -0.03314046
   66   -0.01118171    0.11195569   -0.02493043   -0.33192249    0.01315592
   67   -0.22482344   -0.01020542   -0.03314046    0.01315592    0.04328638
   68   -0.00588230   -0.00025254    0.00301328   -0.00082555   -0.01336404
   69   -0.00040438    0.00199663    0.00057880    0.00702261   -0.00087832
   70    0.00261388    0.00017532   -0.00199554    0.00055007    0.00350941
   71    0.00039597   -0.00251410    0.00109052    0.00972115   -0.00071434
   72    0.00428027    0.00055007    0.00771605   -0.00180937   -0.00559455
   73   -0.00087832    0.00482625   -0.00104417   -0.01048920    0.00069326
   74   -0.01416218   -0.00060874   -0.00317526    0.00064367    0.00279616
   75   -0.01029688   -0.00030898   -0.01233111    0.00120470    0.01875337
   76    0.05319282    0.00159614    0.06370153   -0.00622337   -0.09687838
   77   -0.10687931   -0.00320710   -0.12799426    0.01250450    0.19465587
   78   -0.20554737   -0.00616780   -0.24615506    0.02404832    0.37435686
   79   -0.10413490   -0.00312474   -0.12470767    0.01218342    0.18965757
   80   -0.01082915   -0.00058246   -0.00392714    0.00126697    0.00189168
   81   -0.02848268   -0.00085467    0.00100721   -0.00058246   -0.01764908
   82   -0.00058246    0.00856448   -0.00185692   -0.03339300    0.00106082
   83   -0.04628112   -0.00263319   -0.01173182    0.00541473   -0.00187838
   84   -0.13919425   -0.00417676    0.00300892   -0.00263319   -0.08246277
   85   -0.00263319    0.04139325   -0.00875613   -0.16139275    0.00479574
   86   -0.08510763   -0.00585766    0.01407733    0.00995729   -0.07376432
   87   -0.37923027   -0.01137945   -0.00361049   -0.00585766   -0.20128953
   88   -0.00585766    0.10992836   -0.02188951   -0.42861193    0.01066837
   89   -0.01540854   -0.00481923    0.13451719    0.00180274   -0.27361800
   90   -0.52493162   -0.01575147   -0.03450033   -0.00481923   -0.22021677
   91   -0.00481923    0.14505190   -0.02538676   -0.56555901    0.00877711
   92    0.02831031   -0.00181380    0.12741178   -0.00331221   -0.23597450
   93   -0.33056072   -0.00991904   -0.03267797   -0.00181380   -0.11699196
   94   -0.00181380    0.08870237   -0.01416281   -0.34585154    0.00330342
   95   -0.00283848   -0.00015112   -0.00068574   -0.00005894   -0.00162800
   96   -0.00015112    0.00219323    0.00005847    0.00151779   -0.00009449
   97   -0.00068574    0.00005847    0.00175595   -0.00022798    0.00124892
   98   -0.00005894    0.00151779   -0.00022798   -0.00333539    0.00001253
   99   -0.00162800   -0.00009449    0.00124892    0.00001253   -0.00076734
  100   -0.10711380   -0.00665531   -0.03654291   -0.00182669   -0.05888040
  101   -0.00665531    0.11448061    0.00229089    0.06506289   -0.00372253
  102   -0.03654291    0.00229089    0.08717653   -0.00893220    0.06655444
  103   -0.00182669    0.06506289   -0.00893220   -0.12251330   -0.00073661
  104   -0.05888040   -0.00372253    0.06655444   -0.00073661   -0.03220615
  105   -0.12023552   -0.01750531   -0.12526189   -0.00127085   -0.09598739
  106   -0.01750531    0.46261934    0.00472019    0.16295472   -0.00777555
  107   -0.12526189    0.00472019    0.35383199   -0.01840406    0.22813549
  108   -0.00127085    0.16295472   -0.01840406   -0.13094912   -0.00785659
  109   -0.09598739   -0.00777555    0.22813549   -0.00785659    0.00187965
  110   -0.00164702   -0.00005019   -0.00195733    0.00019400    0.00296999
  111   -0.00668414   -0.00020369   -0.00794346    0.00078732    0.01205316
  112   -0.02695327   -0.00082138   -0.03203139    0.00317482    0.04860345
  113   -0.00314839   -0.00010419   -0.00345938    0.00037085    0.00511957
  114   -0.00016102   -0.00000491    0.00089500   -0.00010419   -0.00186553
  115   -0.00010419    0.00026733   -0.00016061   -0.00103328    0.00018788
  116   -0.06537831   -0.00226257   -0.06844639    0.00770090    0.09961063
  117   -0.01506301   -0.00045904    0.01770830   -0.00226257   -0.04350434
  118   -0.00226257    0.00879770   -0.00389481   -0.03400500    0.00407997
            31            32            33            34            35
    1   -0.00000000    0.00000000   -0.00000000    0.00000000    0.00000000
    2   -0.00000000    0.00000000   -0.00000000   -0.00000000   -0.00000000
    3    0.00000000    0.00000000    0.00000000   -0.00000000   -0.00000000
    4    0.00000000    0.00000000    0.00000000    0.00000000    0.00000000
    5    0.00000000    0.00000000    0.00000000    0.00000000    0.00000000
    6    0.00000000    0.00000000    0.00000000    0.00000000    0.00000000
    7    0.00000000   -0.00000000   -0.00000000    0.00000000    0.00000000
    8    0.00000000   -0.00000000    0.00000000    0.00000000   -0.00000000
    9   -0.00000000    0.00000000   -0.00000000   -0.00000000   -0.00000000
   10    0.00000000    0.00000000    0.00000000    0.00000000    0.00000000
   11    0.00000000    0.00000000    0.00000000    0.00000000    0.00000000
   12    0.00000000    0.00000000    0.00000000   -0.00000000    0.00000000
   13    0.00000000    0.00000000    0.00000000    0.00000000    0.00000000
   14   -0.00000000    0.00000000   -0.00000000    0.00000000    0.00000000
   15    0.00000000    0.00000000    0.00000000    0.00000000    0.00000000
   16    0.00000000    0.00000000    0.00000000    0.00000000    0.00000000
   17    0.00000000    0.00000000    0.00000000    0.00000000    0.00000000
   18    0.00000000    0.00000000    0.00000000    0.00000000    0.00000000
   19    0.00000000    0.00000000    0.00000000    0.00000000    0.00000000
   20    0.00000000    0.00000000    0.00000000    0.00000000    0.00000000
   21    0.00000000    0.00000000    0.00000000    0.00000000    0.00000000
   22    0.00000000    0.00000000    0.00000000    0.00000000    0.00000000
   23   -0.00000000    0.00000000   -0.00000000    0.00000000    0.00000000
   24    0.00000000   -0.00000000    0.00000000    0.00000000    0.00000000
   25   -0.00000000    0.00000000   -0.00000000    0.00000000    0.00000000
   26    0.00000000   -0.00000000   -0.00000000    0.00000000   -0.00000000
   27   -0.00000000    0.00000000   -0.00000000   -0.00000000   -0.00000000
   28   -0.00000000    0.00000000    0.00000000   -0.00000000    0.00000000
   29   -0.00000000    0.00000000   -0.00000000   -0.00000000   -0.00000000
   30    0.00000000    0.00000000    0.00000000   -0.00000000   -0.00000000
   31    1.00000000    0.00000000    0.00000000    0.00000000    0.00000000
   32    0.00000000    1.00000000    0.00000000    0.00000000    0.00000000
   33    0.00000000    0.00000000    1.00000000    0.00000000    0.00000000
   34    0.00000000    0.00000000    0.00000000    1.00000000    0.00000000
   35    0.00000000    0.00000000    0.00000000    0.00000000    1.00000000
   36    0.00000000    0.00000000    0.00000000    0.00000000    0.00000000
   37    0.00000000    0.00000000    0.00000000    0.00000000   -0.00000000
   38    0.00000000    0.00000000   -0.00000000    0.00000000    0.00000000
   39    0.00000000    0.00000000   -0.00000000    0.00000000    0.00000000
   40    0.00000240    0.00000012   -0.00000067    0.00000019    0.00000260
   41    0.00046784    0.00002365   -0.00013136    0.00003776    0.00050793
   42    0.00271313    0.00013714   -0.00076180    0.00021899    0.00294562
   43    0.00191953    0.00009703   -0.00053897    0.00015493    0.00208402
   44    0.00000065    0.00000003   -0.00000018    0.00000005    0.00000069
   45   -0.00000011   -0.00000001    0.00000003   -0.00000001   -0.00000018
   46    0.00000002   -0.00000003   -0.00000001   -0.00000005    0.00000003
   47    0.00076547    0.00004107   -0.00021701    0.00006240    0.00079028
   48   -0.00005581   -0.00000242    0.00000730   -0.00001614   -0.00021701
   49    0.00002595   -0.00007379   -0.00001016   -0.00011770    0.00003929
   50    0.00749908    0.00044324   -0.00216171    0.00062193    0.00704016
   51    0.00189958    0.00010684   -0.00075938   -0.00016084   -0.00216171
   52    0.00030213   -0.00201303   -0.00016248   -0.00321069    0.00062824
   53   -0.00000011   -0.00000001    0.00000003   -0.00000001   -0.00000017
   54   -0.00000000    0.00000000    0.00000000    0.00000001   -0.00000001
   55   -0.00000018   -0.00000001    0.00000005   -0.00000002   -0.00000020
   56    0.00000002   -0.00000003   -0.00000001   -0.00000004    0.00000002
   57    0.00000030    0.00000002   -0.00000008    0.00000002    0.00000029
   58   -0.00020802   -0.00000975    0.00003197   -0.00005017   -0.00063760
   59   -0.00000691    0.00001632    0.00000176    0.00008873   -0.00003196
   60   -0.00065533   -0.00004578    0.00019650   -0.00007494   -0.00075980
   61    0.00008020   -0.00022531   -0.00003196   -0.00034308    0.00011709
   62    0.00123117    0.00006947   -0.00035151    0.00009051    0.00107424
   63    0.00588230    0.00040438   -0.00261388   -0.00039597   -0.00428027
   64    0.00025254   -0.00199663   -0.00017532    0.00251410   -0.00055007
   65   -0.00301328   -0.00057880    0.00199554   -0.00109052   -0.00771605
   66    0.00082555   -0.00702261   -0.00055007   -0.00972115    0.00180937
   67    0.01336404    0.00087832   -0.00350941    0.00071434    0.00559455
   68   -0.00000381   -0.00000020    0.00000094   -0.00000047   -0.00000595
   69   -0.00000020    0.00000030    0.00000006    0.00000076   -0.00000041
   70    0.00000094    0.00000006   -0.00000024    0.00000017    0.00000174
   71   -0.00000047    0.00000076    0.00000017    0.00000122   -0.00000065
   72   -0.00000595   -0.00000041    0.00000174   -0.00000065   -0.00000650
   73    0.00000059   -0.00000096   -0.00000021   -0.00000137    0.00000071
   74    0.00000733    0.00000041   -0.00000212    0.00000050    0.00000598
   75    0.00022208    0.00001113   -0.00006227    0.00001790    0.00024280
   76   -0.00231992   -0.00011623    0.00065051   -0.00018695   -0.00253634
   77    0.01208339    0.00060537   -0.00338820    0.00097374    0.01321063
   78    0.02071135    0.00103762   -0.00580749    0.00166902    0.02264348
   79    0.00222744    0.00011159   -0.00062458    0.00017950    0.00243523
   80    0.00644338    0.00034859   -0.00182910    0.00052588    0.00659310
   81   -0.00007631    0.00000049   -0.00006946   -0.00013487   -0.00182910
   82    0.00022357   -0.00081128   -0.00009391   -0.00130346    0.00036615
   83    0.05536824    0.00311903   -0.01582466    0.00455069    0.05449234
   84    0.00689580    0.00040322   -0.00314957   -0.00116714   -0.01582466
   85    0.00206597   -0.01090442   -0.00099711   -0.01751988    0.00388776
   86    0.06640491    0.00438097   -0.01953431    0.00562260    0.05414777
   87    0.04740550    0.00255135   -0.01700666   -0.00144206   -0.01953431
   88    0.00322824   -0.03346084   -0.00218138   -0.05376103    0.00850521
   89   -0.00085455    0.00025924   -0.00002236    0.00000889   -0.00622142
   90    0.01868263    0.00098652   -0.00630286   -0.00000228   -0.00002236
   91    0.00032842   -0.00961763   -0.00045776   -0.01545256    0.00178480
   92   -0.00110594   -0.00000412    0.00026562   -0.00007592   -0.00210692
   93    0.00341892    0.00017987   -0.00113938    0.00001947    0.00026562
   94    0.00002694   -0.00163461   -0.00006965   -0.00262632    0.00027156
   95   -0.00022504   -0.00000811   -0.00001429   -0.00011376   -0.00143699
   96   -0.00000738    0.00001686    0.00000038    0.00025404   -0.00007972
   97   -0.00144625   -0.00010909    0.00045012   -0.00018199   -0.00175503
   98    0.00018683   -0.00065286   -0.00007972   -0.00099050    0.00029075
   99    0.00290293    0.00016591   -0.00082543    0.00020718    0.00239876
  100    0.06498000    0.00445115   -0.02808577   -0.00348395   -0.03681518
  101    0.00283890   -0.02403658   -0.00199054    0.02513181   -0.00536848
  102   -0.02288606   -0.00547866    0.01905588   -0.01063916   -0.07429911
  103    0.00762038   -0.07120462   -0.00536848   -0.09798922    0.01756435
  104    0.12622458    0.00833203   -0.03231194    0.00634521    0.04564395
  105    0.00576428    0.00179185   -0.00622369    0.00052417    0.00829177
  106    0.00174304   -0.04263033   -0.00221371    0.00277087   -0.00126486
  107    0.01860035   -0.00068931    0.00897367   -0.00314782   -0.03498843
  108    0.00019784   -0.01814411   -0.00126486   -0.01080365    0.00239359
  109    0.01649962    0.00104831    0.00222299   -0.00095466   -0.01743855
  110    0.00000000    0.00000000   -0.00000000    0.00000000    0.00000000
  111    0.00000000    0.00000000   -0.00000000    0.00000000    0.00000000
  112    0.00005626    0.00000286   -0.00001580    0.00000457    0.00006106
  113    0.00000000    0.00000000   -0.00000000    0.00000000    0.00000000
  114   -0.00000000   -0.00000000    0.00000000   -0.00000000   -0.00000000
  115    0.00000000   -0.00000000   -0.00000000   -0.00000000    0.00000000
  116    0.00040980    0.00002220   -0.00011623    0.00003364    0.00042185
  117   -0.00002622   -0.00000111    0.00000266   -0.00000870   -0.00011623
  118    0.00001406   -0.00004147   -0.00000557   -0.00006612    0.00002155
            36            37            38            39            40
    1    0.00000000    0.00000000    0.00000000    0.00000000    0.00000000
    2    0.00000000    0.00000000    0.00000000    0.00000000    0.00000000
    3    0.00000000    0.00000000    0.00000000    0.00000000    0.00000107
    4    0.00000000    0.00000000    0.00000191    0.00000976    0.00034030
    5    0.00000000    0.00000000    0.00049331    0.00172667    0.01101690
    6    0.00000000    0.00000000    0.00280608    0.00930928    0.04384025
    7   -0.00000000    0.00000000   -0.00000000   -0.00000000   -0.00000035
    8    0.00000000   -0.00000000    0.00000000    0.00000000    0.00000009
    9    0.00000000    0.00000000   -0.00000000   -0.00000000   -0.00000001
   10    0.00000000   -0.00000000   -0.00000088   -0.00000569   -0.00042146
   11    0.00000000    0.00000000    0.00000023    0.00000147    0.00010900
   12    0.00000000    0.00000000   -0.00000003   -0.00000017   -0.00001275
   13    0.00000000    0.00000000   -0.00163052   -0.00564350   -0.03322218
   14    0.00000000    0.00000000    0.00042169    0.00145953    0.00859196
   15    0.00000000    0.00000000   -0.00004935   -0.00017079   -0.00100541
   16    0.00000000    0.00000000   -0.00000000   -0.00000000   -0.00000010
   17    0.00000000    0.00000000   -0.00000000   -0.00000000   -0.00000000
[...]
                                                  f 0.54( 20.10%)
  67. (0.00000) RY (18) B  2            s(  0.00%)p 1.00( 22.66%)d 2.13( 48.17%)
                                                  f 1.29( 29.16%)
  68. (0.00000) RY (19) B  2            s(  0.02%)p99.99(  5.55%)d99.99( 79.25%)
                                                  f99.99( 15.18%)
  69. (0.00000) RY (20) B  2            s(  0.01%)p 1.00(  1.33%)d 0.25(  0.33%)
                                                  f73.89( 98.33%)
  70. (0.00000) RY (21) B  2            s(  0.03%)p99.99( 97.38%)d58.79(  1.97%)
                                                  f18.42(  0.62%)
  71. (0.00000) RY (22) B  2            s(  0.07%)p99.99(  9.68%)d99.99( 90.12%)
                                                  f 1.82(  0.13%)
  72. (0.00000) RY (23) B  2            s(  0.56%)p30.61( 17.05%)d99.99( 81.17%)
                                                  f 2.19(  1.22%)
  73. (0.00000) RY (24) B  2            s(  1.66%)p20.35( 33.83%)d33.88( 56.33%)
                                                  f 4.92(  8.18%)
  74. (0.00000) RY (25) B  2            s(  4.70%)p 2.29( 10.75%)d12.97( 61.01%)
                                                  f 5.00( 23.54%)
  75. (0.00000) RY (26) B  2            s( 47.72%)p 0.58( 27.81%)d 0.51( 24.42%)
                                                  f 0.00(  0.06%)
  76. (0.00000) RY (27) B  2            s( 18.50%)p 0.53(  9.80%)d 2.73( 50.45%)
                                                  f 1.15( 21.25%)
  77. (0.00000) RY (28) B  2            s( 63.18%)p 0.24( 15.19%)d 0.26( 16.67%)
                                                  f 0.08(  4.96%)
  78. (0.00000) RY (29) B  2            s( 70.82%)p 0.30( 21.52%)d 0.11(  7.65%)
                                                  f 0.00(  0.01%)
  79. (0.00000) RY (30) B  2            s( 23.68%)p 0.12(  2.91%)d 3.09( 73.24%)
                                                  f 0.01(  0.17%)
  80. (0.00000) RY (31) B  2            s( 29.07%)p 0.40( 11.59%)d 1.91( 55.55%)
                                                  f 0.13(  3.79%)
  81. (0.00000) RY (32) B  2            s(  6.41%)p 1.69( 10.80%)d10.52( 67.45%)
                                                  f 2.39( 15.34%)
  82. (0.01540) RY ( 1)Mg  3            s(  2.33%)p41.65( 96.89%)d 0.34(  0.79%)
                                         0.0000  0.0000  0.1452 -0.0463  0.0039
                                         0.0000 -0.9175 -0.2545 -0.0212 -0.0024
                                         0.0000  0.2386  0.0643  0.0057  0.0005
                                         0.0000 -0.0276 -0.0078 -0.0006 -0.0001
                                        -0.0323  0.0030 -0.0031  0.0050 -0.0006
                                         0.0003 -0.0001 -0.0001 -0.0001  0.0578
                                        -0.0063  0.0054 -0.0574  0.0079 -0.0031
  83. (0.00026) RY ( 2)Mg  3            s( 63.07%)p 0.07(  4.19%)d 0.52( 32.74%)
                                         0.0000  0.0000  0.0172  0.7928 -0.0445
                                         0.0000 -0.1130  0.1028 -0.1204 -0.0454
                                         0.0000  0.0196 -0.0212  0.0304  0.0122
                                         0.0000 -0.0029  0.0031 -0.0038 -0.0013
                                         0.2396 -0.0073  0.0132 -0.0273  0.0013
                                        -0.0014  0.0081 -0.0004  0.0004 -0.4407
                                         0.0143 -0.0238  0.2713 -0.0085  0.0160
  84. (0.00010) RY ( 3)Mg  3            s( 15.82%)p 3.44( 54.36%)d 1.89( 29.82%)
                                         0.0000  0.0000 -0.0231  0.2153  0.3336
                                         0.0000 -0.1665  0.6819  0.0324  0.1154
                                         0.0000  0.0547 -0.1792 -0.0092 -0.0293
                                         0.0000 -0.0046  0.0201  0.0007  0.0036
                                        -0.1980 -0.1305  0.0134  0.0178  0.0172
                                        -0.0015 -0.0096 -0.0025  0.0005  0.3555
                                         0.2354 -0.0232 -0.1538 -0.1870  0.0135
  85. (0.00000) RY ( 4)Mg  3            s(  6.29%)p 0.39(  2.45%)d14.52( 91.27%)
  86. (0.00000) RY ( 5)Mg  3            s(  0.93%)p11.01( 10.24%)d95.48( 88.83%)
  87. (0.00000) RY ( 6)Mg  3            s(  0.20%)p92.19( 18.63%)d99.99( 81.17%)
  88. (0.00000) RY ( 7)Mg  3            s(  0.40%)p20.60(  8.21%)d99.99( 91.39%)
  89. (0.00000) RY ( 8)Mg  3            s(  0.14%)p99.99( 88.29%)d80.67( 11.57%)
  90. (0.00000) RY ( 9)Mg  3            s(  0.48%)p60.27( 28.63%)d99.99( 70.90%)
  91. (0.00000) RY (10)Mg  3            s(  0.03%)p99.99( 66.12%)d99.99( 33.86%)
  92. (0.00000) RY (11)Mg  3            s(  0.04%)p99.99( 34.64%)d99.99( 65.32%)
  93. (0.00000) RY (12)Mg  3            s(  0.17%)p29.11(  4.96%)d99.99( 94.87%)
  94. (0.00000) RY (13)Mg  3            s(  0.01%)p99.99(  1.75%)d99.99( 98.24%)
  95. (0.00000) RY (14)Mg  3            s(  0.11%)p99.99( 66.87%)d99.99( 33.02%)
  96. (0.00000) RY (15)Mg  3            s(  0.98%)p34.54( 33.89%)d66.38( 65.13%)
  97. (0.00000) RY (16)Mg  3            s(  0.39%)p50.14( 19.55%)d99.99( 80.06%)
  98. (0.00000) RY (17)Mg  3            s(  0.21%)p99.99( 71.50%)d99.99( 28.28%)
  99. (0.00000) RY (18)Mg  3            s( 23.76%)p 2.56( 60.86%)d 0.65( 15.38%)
 100. (0.00000) RY (19)Mg  3            s(  0.07%)p99.99( 74.42%)d99.99( 25.51%)
 101. (0.00000) RY (20)Mg  3            s(  0.73%)p10.26(  7.51%)d99.99( 91.76%)
 102. (0.00000) RY (21)Mg  3            s( 44.43%)p 0.43( 19.26%)d 0.82( 36.32%)
 103. (0.00000) RY (22)Mg  3            s( 22.14%)p 1.78( 39.49%)d 1.73( 38.37%)
 104. (0.00000) RY (23)Mg  3            s(  3.26%)p 5.34( 17.40%)d24.34( 79.34%)
 105. (0.00000) RY (24)Mg  3            s(  0.00%)p 1.00( 67.16%)d 0.49( 32.84%)
 106. (0.00000) RY (25)Mg  3            s(  2.34%)p38.86( 91.09%)d 2.80(  6.56%)
 107. (0.00000) RY (26)Mg  3            s(  4.80%)p18.86( 90.55%)d 0.97(  4.64%)
 108. (0.00000) RY (27)Mg  3            s(  0.09%)p82.39(  7.20%)d99.99( 92.72%)
 109. (0.00000) RY (28)Mg  3            s(  1.24%)p66.36( 82.58%)d13.00( 16.17%)
 110. (0.00000) RY (29)Mg  3            s(  7.76%)p 3.75( 29.14%)d 8.13( 63.09%)
 111. (0.00054) RY ( 1) H  4            s( 73.67%)p 0.36( 26.33%)
                                        -0.0188  0.8579  0.0189 -0.4073  0.2850
                                         0.1043 -0.0709 -0.0132  0.0100
 112. (0.00003) RY ( 2) H  4            s( 24.10%)p 3.15( 75.90%)
 113. (0.00000) RY ( 3) H  4            s( 18.92%)p 4.29( 81.08%)
 114. (0.00000) RY ( 4) H  4            s(  0.00%)p 1.00(100.00%)
 115. (0.00000) RY ( 5) H  4            s(  0.00%)p 1.00(100.00%)
 116. (0.00000) RY ( 6) H  4            s( 83.45%)p 0.20( 16.55%)
 117. (0.00000) RY ( 7) H  4            s(  0.00%)p 1.00(100.00%)
 118. (0.00000) RY ( 8) H  4            s(  0.00%)p 1.00(100.00%)


 NHO DIRECTIONALITY AND BOND BENDING (deviation from line of nuclear centers at
                                      the position of maximum hybrid amplitude)

         [Thresholds for printing:  angular deviation  >  1.0 degree]
                                    p- or d-character  > 25.0%
                                    orbital occupancy  >  0.10e

                        Line of Centers        Hybrid 1             Hybrid 2
                        ---------------  -------------------  ------------------
           NBO            Theta   Phi    Theta   Phi    Dev   Theta   Phi    Dev
 ===============================================================================


 SECOND ORDER PERTURBATION THEORY ANALYSIS OF FOCK MATRIX IN NBO BASIS

     Threshold for printing:   0.25 kcal/mol
    (Intermolecular threshold: 0.03 kcal/mol)
                                                          E(2) E(NL)-E(L) F(L,NL)
      Donor (L) NBO              Acceptor (NL) NBO      kcal/mol   a.u.    a.u.
 ===============================================================================

 within unit  1
   10. BD ( 1) B  1-Mg  3      16. BD*( 1) B  1-Mg  3      0.48    0.38   0.017

 from unit  1 to unit  2
   10. BD ( 1) B  1-Mg  3      17. BD*( 1) B  2- H  4      0.07    0.84   0.010
   10. BD ( 1) B  1-Mg  3      50. RY ( 1) B  2            1.33    1.10   0.048
   10. BD ( 1) B  1-Mg  3      75. RY (26) B  2            0.05    4.28   0.018
   10. BD ( 1) B  1-Mg  3      79. RY (30) B  2            0.09    4.51   0.025

 from unit  2 to unit  1
    9. LP ( 1) B  2            16. BD*( 1) B  1-Mg  3     39.71    0.40   0.158
    9. LP ( 1) B  2            18. RY ( 1) B  1            1.63    1.10   0.053
    9. LP ( 1) B  2            19. RY ( 2) B  1            0.11    1.35   0.016
    9. LP ( 1) B  2            20. RY ( 3) B  1            0.04    1.60   0.010
    9. LP ( 1) B  2            44. RY (27) B  1            0.13    2.22   0.021
    9. LP ( 1) B  2            45. RY (28) B  1            0.12    0.90   0.013
    9. LP ( 1) B  2            47. RY (30) B  1            0.25    0.65   0.016
    9. LP ( 1) B  2            82. RY ( 1)Mg  3            8.20    0.95   0.111
    9. LP ( 1) B  2            83. RY ( 2)Mg  3            2.54    1.02   0.064
    9. LP ( 1) B  2            85. RY ( 4)Mg  3            0.20    1.69   0.023
    9. LP ( 1) B  2            86. RY ( 5)Mg  3            0.03    3.55   0.013
    9. LP ( 1) B  2            96. RY (15)Mg  3            0.06    1.91   0.014
    9. LP ( 1) B  2            99. RY (18)Mg  3            1.65    1.64   0.066
    9. LP ( 1) B  2           101. RY (20)Mg  3            0.10    1.09   0.013
    9. LP ( 1) B  2           102. RY (21)Mg  3            2.56    2.89   0.109
    9. LP ( 1) B  2           103. RY (22)Mg  3            0.05    1.80   0.012
    9. LP ( 1) B  2           104. RY (23)Mg  3            0.23    5.34   0.044
    9. LP ( 1) B  2           109. RY (28)Mg  3            0.13    0.98   0.014
    9. LP ( 1) B  2           110. RY (29)Mg  3            0.57    1.53   0.037
   11. BD ( 1) B  2- H  4      16. BD*( 1) B  1-Mg  3      1.34    0.55   0.034
   11. BD ( 1) B  2- H  4      18. RY ( 1) B  1            0.19    1.25   0.019
   11. BD ( 1) B  2- H  4      45. RY (28) B  1            0.03    1.05   0.007
   11. BD ( 1) B  2- H  4      47. RY (30) B  1            0.03    0.80   0.006
   11. BD ( 1) B  2- H  4      82. RY ( 1)Mg  3            0.04    1.10   0.008
   11. BD ( 1) B  2- H  4      83. RY ( 2)Mg  3            0.28    1.17   0.023
   11. BD ( 1) B  2- H  4      84. RY ( 3)Mg  3            0.16    1.77   0.021
   11. BD ( 1) B  2- H  4      99. RY (18)Mg  3            0.20    1.79   0.024
   11. BD ( 1) B  2- H  4     102. RY (21)Mg  3            0.21    3.04   0.032
   11. BD ( 1) B  2- H  4     104. RY (23)Mg  3            0.03    5.49   0.017
   11. BD ( 1) B  2- H  4     110. RY (29)Mg  3            0.05    1.68   0.011

 within unit  2
    9. LP ( 1) B  2            50. RY ( 1) B  2            1.05    1.11   0.043
    9. LP ( 1) B  2            76. RY (27) B  2            0.42    1.95   0.036
    9. LP ( 1) B  2            77. RY (28) B  2            0.66    1.51   0.040
    9. LP ( 1) B  2           111. RY ( 1) H  4            0.44    2.02   0.038


 NATURAL BOND ORBITALS (Summary):

                                                     Principal Delocalizations
           NBO                 Occupancy    Energy   (geminal,vicinal,remote)
 ===============================================================================
 Molecular unit  1  (BMg)
 ------ Lewis --------------------------------------
    1. CR ( 1) B  1             1.00000    -6.97726
    3. CR ( 1)Mg  3             1.00000   -45.16198
    4. CR ( 2)Mg  3             0.99999    -5.16726
    5. CR ( 3)Mg  3             1.00000    -1.96205
    6. CR ( 4)Mg  3             1.00000    -1.96730
    7. CR ( 5)Mg  3             1.00000    -1.96616
    8. LP ( 1) B  1             0.99967    -0.43499
   10. BD ( 1) B  1-Mg  3       0.99786    -0.32276  50(r),16(g),79(r),17(r)
                                                     75(r)
 ------ non-Lewis ----------------------------------
   12. LV ( 1) B  1             0.00000     0.34468
   13. LV ( 2) B  1             0.00000     0.35108
   16. BD*( 1) B  1-Mg  3       0.12983     0.06077
   18. RY ( 1) B  1             0.00045     0.76527
   19. RY ( 2) B  1             0.00001     1.01181
   20. RY ( 3) B  1             0.00000     1.26242
   21. RY ( 4) B  1             0.00000     1.94653
   22. RY ( 5) B  1             0.00000     1.04525
   23. RY ( 6) B  1             0.00000     1.67982
   24. RY ( 7) B  1             0.00000     0.51168
   25. RY ( 8) B  1             0.00000     0.46599
   26. RY ( 9) B  1             0.00000     1.64420
   27. RY (10) B  1             0.00000     1.31061
   28. RY (11) B  1             0.00000     0.95533
   29. RY (12) B  1             0.00000     0.48598
   30. RY (13) B  1             0.00000     1.61234
   31. RY (14) B  1             0.00000     1.18029
   32. RY (15) B  1             0.00000     1.22995
   33. RY (16) B  1             0.00000     1.37554
   34. RY (17) B  1             0.00000     0.32703
   35. RY (18) B  1             0.00000     0.93809
   36. RY (19) B  1             0.00000     1.31480
   37. RY (20) B  1             0.00000     0.75439
   38. RY (21) B  1             0.00000     1.63608
   39. RY (22) B  1             0.00000     0.73215
   40. RY (23) B  1             0.00000     0.66398
   41. RY (24) B  1             0.00000     1.93763
   42. RY (25) B  1             0.00000     1.30188
   43. RY (26) B  1             0.00000     8.77083
   44. RY (27) B  1             0.00000     1.88551
   45. RY (28) B  1             0.00000     0.56476
   46. RY (29) B  1             0.00000     1.87184
   47. RY (30) B  1             0.00000     0.31912
   48. RY (31) B  1             0.00000     0.76450
   49. RY (32) B  1             0.00000     3.96717
   82. RY ( 1)Mg  3             0.01540     0.61247
   83. RY ( 2)Mg  3             0.00026     0.68342
   84. RY ( 3)Mg  3             0.00010     1.28414
   85. RY ( 4)Mg  3             0.00000     1.35153
   86. RY ( 5)Mg  3             0.00000     3.21675
   87. RY ( 6)Mg  3             0.00000     3.96249
   88. RY ( 7)Mg  3             0.00000     3.54535
   89. RY ( 8)Mg  3             0.00000     0.49645
   90. RY ( 9)Mg  3             0.00000     1.55154
   91. RY (10)Mg  3             0.00000     1.30079
   92. RY (11)Mg  3             0.00000     4.03144
   93. RY (12)Mg  3             0.00000     3.47112
   94. RY (13)Mg  3             0.00000     3.00336
   95. RY (14)Mg  3             0.00000     1.23496
   96. RY (15)Mg  3             0.00000     1.57756
   97. RY (16)Mg  3             0.00000     2.11894
   98. RY (17)Mg  3             0.00000     0.66459
   99. RY (18)Mg  3             0.00000     1.30294
  100. RY (19)Mg  3             0.00000     0.56481
  101. RY (20)Mg  3             0.00000     0.75524
  102. RY (21)Mg  3             0.00000     2.55865
  103. RY (22)Mg  3             0.00000     1.46474
  104. RY (23)Mg  3             0.00000     5.00952
  105. RY (24)Mg  3             0.00000     1.62281
  106. RY (25)Mg  3             0.00000     1.64517
  107. RY (26)Mg  3             0.00000     1.52933
  108. RY (27)Mg  3             0.00000     0.56948
  109. RY (28)Mg  3             0.00000     0.64039
  110. RY (29)Mg  3             0.00000     1.19655
          -------------------------------
                 Total Lewis    7.99751  ( 98.2063%)
           Valence non-Lewis    0.12983  (  1.5943%)
           Rydberg non-Lewis    0.01624  (  0.1994%)
          -------------------------------
               Total unit  1    8.14358  (100.0000%)
              Charge unit  1    0.35642

 Molecular unit  2  (HB)
 ------ Lewis --------------------------------------
    2. CR ( 1) B  2             1.00000    -6.91814
    9. LP ( 1) B  2             0.86473    -0.33502  16(r),82(r),102(r),83(r)
                                                     99(r),18(r),50(g),77(g)
                                                     110(r),111(v),76(g),47(r)
                                                     104(r),85(r),109(r),44(r)
                                                     45(r),19(r),101(r),96(r)
                                                     103(r),20(r),86(r)
   11. BD ( 1) B  2- H  4       0.98772    -0.48478  16(r),83(r),102(r),99(r)
                                                     18(r),84(r),110(r),82(r)
                                                     104(r),47(r),45(r)
 ------ non-Lewis ----------------------------------
   14. LV ( 1) B  2             0.00000     0.53270
   15. LV ( 2) B  2             0.00000     0.44858
   17. BD*( 1) B  2- H  4       0.00139     0.51700
   50. RY ( 1) B  2             0.00197     0.77823
   51. RY ( 2) B  2             0.00004     1.02559
   52. RY ( 3) B  2             0.00000     2.53593
   53. RY ( 4) B  2             0.00000     0.77636
   54. RY ( 5) B  2             0.00000     1.09505
   55. RY ( 6) B  2             0.00000     1.52983
   56. RY ( 7) B  2             0.00000     1.72582
   57. RY ( 8) B  2             0.00000     1.93322
   58. RY ( 9) B  2             0.00000     0.55462
   59. RY (10) B  2             0.00000     1.18121
   60. RY (11) B  2             0.00000     1.09049
   61. RY (12) B  2             0.00000     1.21697
   62. RY (13) B  2             0.00000     1.16326
   63. RY (14) B  2             0.00000     0.86609
   64. RY (15) B  2             0.00000     1.64729
   65. RY (16) B  2             0.00000     1.50429
   66. RY (17) B  2             0.00000     0.92851
   67. RY (18) B  2             0.00000     1.47287
   68. RY (19) B  2             0.00000     1.13909
   69. RY (20) B  2             0.00000     1.84662
   70. RY (21) B  2             0.00000     0.39724
   71. RY (22) B  2             0.00000     0.73446
   72. RY (23) B  2             0.00000     0.74807
   73. RY (24) B  2             0.00000     0.86971
   74. RY (25) B  2             0.00000     1.52076
   75. RY (26) B  2             0.00000     3.95415
   76. RY (27) B  2             0.00000     1.61483
   77. RY (28) B  2             0.00000     1.17829
   78. RY (29) B  2             0.00000     2.61165
   79. RY (30) B  2             0.00000     4.18369
   80. RY (31) B  2             0.00000     4.06347
   81. RY (32) B  2             0.00000     1.84872
  111. RY ( 1) H  4             0.00054     1.68461
  112. RY ( 2) H  4             0.00003     1.25396
  113. RY ( 3) H  4             0.00000     0.84324
  114. RY ( 4) H  4             0.00000     1.37604
  115. RY ( 5) H  4             0.00000     1.36314
  116. RY ( 6) H  4             0.00000     1.73790
  117. RY ( 7) H  4             0.00000     0.80873
  118. RY ( 8) H  4             0.00000     0.81042
          -------------------------------
                 Total Lewis    2.85244  ( 99.8609%)
           Valence non-Lewis    0.00139  (  0.0486%)
           Rydberg non-Lewis    0.00258  (  0.0904%)
          -------------------------------
               Total unit  2    2.85642  (100.0000%)
              Charge unit  2    0.14358

 $CHOOSE
  ALPHA
   LONE 1 1 2 2 END
   BOND S 1 3 S 2 4 END
  END
  BETA
   LONE 1 1 2 1 END
   BOND S 1 3 S 2 4 END
  END
 $END

 NBO analysis completed in 0.27 CPU seconds (6 wall seconds)
 Maximum scratch memory used by NBO was 587424 words (4.48 MB)
 Total job time:  8.66s(wall), 77.54s(cpu) 
 Fri Oct 29 08:14:36 2021

        *************************************************************
        *                                                           *
        *  Thank you very much for using Q-Chem.  Have a nice day.  *
        *                                                           *
        *************************************************************


