
Running Job 1 of 1 mol.qin
qchem mol.qin_18133.0 /tmp/qchem18133/ 0
/global/common/cori_cle7/software/qchem/5.4.1/exe/qcprog.exe_s mol.qin_18133.0 /tmp/qchem18133/
                  Welcome to Q-Chem
     A Quantum Leap Into The Future Of Chemistry


 Q-Chem 5.4, Q-Chem, Inc., Pleasanton, CA (2021)

 License issued to: National Energy Research Scientific Computing Center

 E. Epifanovsky,  A. T. B. Gilbert,  Xintian Feng,  Joonho Lee,  Yuezhi Mao,  
 N. Mardirossian,  P. Pokhilko,  A. White,  M. Wormit,  M. P. Coons,  
 A. L. Dempwolff,  Zhengting Gan,  D. Hait,  P. R. Horn,  L. D. Jacobson,  
 I. Kaliman,  J. Kussmann,  A. W. Lange,  Ka Un Lao,  D. S. Levine,  Jie Liu,  
 S. C. McKenzie,  A. F. Morrison,  K. Nanda,  F. Plasser,  D. R. Rehn,  
 M. L. Vidal,  Zhi-Qiang You,  Ying Zhu,  B. Alam,  B. Albrecht,  
 A. Aldossary,  E. Alguire,  J. H. Andersen,  D. Barton,  K. Begam,  A. Behn,  
 Y. A. Bernard,  E. J. Berquist,  H. Burton,  A. Carreras,  K. Carter-Fenk,  
 R. Chakraborty,  A. D. Chien,  K. D. Closser,  V. Cofer-Shabica,  
 S. Dasgupta,  Jia Deng,  M. de Wergifosse,  M. Diedenhofen,  Hainam Do,  
 S. Ehlert,  Po-Tung Fang,  S. Fatehi,  Qingguo Feng,  T. Friedhoff,  
 J. Gayvert,  Qinghui Ge,  G. Gidofalvi,  M. Goldey,  J. Gomes,  
 C. Gonzalez-Espinoza,  S. Gulania,  A. Gunina,  M. W. D. Hanson-Heine,  
 P. H. P. Harbach,  A. W. Hauser,  M. F. Herbst,  M. Hernandez Vera,  
 M. Hodecker,  Z. C. Holden,  S. Houck,  Xunkun Huang,  Kerwin Hui,  
 B. C. Huynh,  M. Ivanov,  Hyunjun Ji,  Hanjie Jiang,  B. Kaduk,  S. Kaehler,  
 K. Khistyaev,  Jaehoon Kim,  P. Klunzinger,  Z. Koczor-Benda,  
 Joong Hoon Koh,  D. Kosenkov,  L. Koulias,  T. Kowalczyk,  C. M. Krauter,  
 K. Kue,  A. Kunitsa,  T. Kus,  A. Landau,  K. V. Lawler,  D. Lefrancois,  
 S. Lehtola,  Rain Li,  Yi-Pei Li,  Jiashu Liang,  M. Liebenthal,  
 Hung-Hsuan Lin,  You-Sheng Lin,  Fenglai Liu,  Kuan-Yu Liu,  
 M. Loipersberger,  A. Luenser,  A. Manjanath,  P. Manohar,  E. Mansoor,  
 S. F. Manzer,  Shan-Ping Mao,  A. V. Marenich,  T. Markovich,  S. Mason,  
 S. A. Maurer,  P. F. McLaughlin,  M. F. S. J. Menger,  J.-M. Mewes,  
 S. A. Mewes,  P. Morgante,  J. W. Mullinax,  K. J. Oosterbaan,  G. Paran,  
 Alexander C. Paul,  Suranjan K. Paul,  F. Pavosevic,  Zheng Pei,  S. Prager,  
 E. I. Proynov,  E. Ramos,  B. Rana,  A. E. Rask,  A. Rettig,  R. M. Richard,  
 F. Rob,  E. Rossomme,  T. Scheele,  M. Scheurer,  M. Schneider,  
 N. Sergueev,  S. M. Sharada,  W. Skomorowski,  D. W. Small,  C. J. Stein,  
 Yu-Chuan Su,  E. J. Sundstrom,  Zhen Tao,  J. Thirman,  T. Tsuchimochi,  
 N. M. Tubman,  S. P. Veccham,  O. Vydrov,  J. Wenzel,  J. Witte,  A. Yamada,  
 Kun Yao,  S. Yeganeh,  S. R. Yost,  A. Zech,  Igor Ying Zhang,  Xing Zhang,  
 Yu Zhang,  D. Zuev,  A. Aspuru-Guzik,  A. T. Bell,  N. A. Besley,  
 K. B. Bravaya,  B. R. Brooks,  D. Casanova,  Jeng-Da Chai,  S. Coriani,  
 C. J. Cramer,  A. E. DePrince, III,  R. A. DiStasio Jr.,  A. Dreuw,  
 B. D. Dunietz,  T. R. Furlani,  W. A. Goddard III,  S. Grimme,  
 S. Hammes-Schiffer,  T. Head-Gordon,  W. J. Hehre,  Chao-Ping Hsu,  
 T.-C. Jagau,  Yousung Jung,  A. Klamt,  Jing Kong,  D. S. Lambrecht,  
 WanZhen Liang,  N. J. Mayhall,  C. W. McCurdy,  J. B. Neaton,  
 C. Ochsenfeld,  J. A. Parkhill,  R. Peverati,  V. A. Rassolov,  Yihan Shao,  
 L. V. Slipchenko,  T. Stauch,  R. P. Steele,  J. E. Subotnik,  
 A. J. W. Thom,  A. Tkatchenko,  D. G. Truhlar,  T. Van Voorhis,  
 T. A. Wesolowski,  K. B. Whaley,  H. L. Woodcock III,  P. M. Zimmerman,  
 S. Faraji,  P. M. W. Gill,  M. Head-Gordon,  J. M. Herbert,  A. I. Krylov

 Additional authors for Version 5.4.1: 
 S. Kotaru,  Shaozhi Li,  Xiangyuan Li,  F. Matz,  A. Molle,  Haisheng Ren,  
 Yingli Su,  Hung-Yi Tsai,  C. Utku,  Fang Wang

 Contributors to earlier versions of Q-Chem not listed above: 
 R. D. Adamson,  B. Austin,  R. Baer,  J. Baker,  G. J. O. Beran,  
 K. Brandhorst,  S. T. Brown,  E. F. C. Byrd,  A. K. Chakraborty,  
 G. K. L. Chan,  Chun-Min Chang,  Yunqing Chen,  C.-L. Cheng,  
 Siu Hung Chien,  D. M. Chipman,  D. L. Crittenden,  H. Dachsel,  
 R. J. Doerksen,  A. D. Dutoi,  R. G. Edgar,  J. Fosso-Tande,  
 L. Fusti-Molnar,  D. Ghosh,  A. Ghysels,  A. Golubeva-Zadorozhnaya,  
 J. Gonthier,  M. S. Gordon,  S. R. Gwaltney,  G. Hawkins,  J. E. Herr,  
 A. Heyden,  S. Hirata,  E. G. Hohenstein,  G. Kedziora,  F. J. Keil,  
 C. Kelley,  Jihan Kim,  R. A. King,  R. Z. Khaliullin,  P. P. Korambath,  
 W. Kurlancheek,  A. Laurent,  A. M. Lee,  M. S. Lee,  S. V. Levchenko,  
 Ching Yeh Lin,  D. Liotard,  E. Livshits,  R. C. Lochan,  I. Lotan,  
 L. A. Martinez-Martinez,  P. E. Maslen,  N. Nair,  D. P. O'Neill,  
 D. Neuhauser,  E. Neuscamman,  C. M. Oana,  R. Olivares-Amaya,  R. Olson,  
 T. M. Perrine,  B. Peters,  P. A. Pieniazek,  A. Prociuk,  Y. M. Rhee,  
 J. Ritchie,  M. A. Rohrdanz,  E. Rosta,  N. J. Russ,  H. F. Schaefer III,  
 M. W. Schmidt,  N. E. Schultz,  S. Sharma,  N. Shenvi,  C. D. Sherrill,  
 A. C. Simmonett,  A. Sodt,  T. Stein,  D. Stuck,  K. S. Thanthiriwatte,  
 V. Vanovschi,  L. Vogt,  Tao Wang,  A. Warshel,  M. A. Watson,  
 C. F. Williams,  Q. Wu,  X. Xu,  Jun Yang,  W. Zhang,  Yan Zhao

 Please cite Q-Chem as follows:
 Y. Shao et al., Mol. Phys. 113, 184-215 (2015)
 DOI: 10.1080/00268976.2014.952696

 Q-Chem 5.4.1 for Intel X86 EM64T Linux

 Parts of Q-Chem use Armadillo 9.800.1 (Horizon Scraper).
 http://arma.sourceforge.net/

 Q-Chem begins on Fri Oct 29 07:35:35 2021  

 Host: cori02
0

     Scratch files written to /tmp/qchem18133//
 Aug1521 |scratch|qcdevops|jenkins|workspace|build_RNUM 7470   
 Processing $rem in /global/common/cori_cle7/software/qchem/5.4.1/config/preferences:
 Processing $rem in /global/homes/s/sblau/.qchemrc:

 Checking the input file for inconsistencies... 	...done.

--------------------------------------------------------------
User input:
--------------------------------------------------------------
$molecule
-2 1
Mg     -1.6527780000     -3.0713010000      5.0316320000
O     -1.8873490000     -3.2923180000      2.9210370000
C     -2.0625930000     -4.5959280000      3.6462360000
C     -0.9453800000     -2.3019660000      6.9535850000
C     -3.1697170000     -3.5525300000      3.6589990000
C     -0.3094750000     -1.6886280000      6.0623710000
H     -2.1941790000     -5.3879010000      2.8980980000
H     -3.9608960000     -3.7227780000      2.9177490000
$end

$rem
job_type = sp
basis = def2-tzvpd
max_scf_cycles = 200
gen_scfman = true
xc_grid = 3
scf_algorithm = diis
resp_charges = true
symmetry = false
sym_ignore = true
method = wb97mv
nbo = true
run_nbo6 = true
$end

$nbo
$end
--------------------------------------------------------------
 ----------------------------------------------------------------
             Standard Nuclear Orientation (Angstroms)
    I     Atom           X                Y                Z
 ----------------------------------------------------------------
    1      Mg     -1.6527780000    -3.0713010000     5.0316320000
    2      O      -1.8873490000    -3.2923180000     2.9210370000
    3      C      -2.0625930000    -4.5959280000     3.6462360000
    4      C      -0.9453800000    -2.3019660000     6.9535850000
    5      C      -3.1697170000    -3.5525300000     3.6589990000
    6      C      -0.3094750000    -1.6886280000     6.0623710000
    7      H      -2.1941790000    -5.3879010000     2.8980980000
    8      H      -3.9608960000    -3.7227780000     2.9177490000
 ----------------------------------------------------------------
 Nuclear Repulsion Energy =         206.50713855 hartrees
 There are       24 alpha and       24 beta electrons
 Requested basis set is def2-TZVPD
 There are 89 shells and 241 basis functions

 Total QAlloc Memory Limit  96000 MB
 Mega-Array Size       188 MB
 MEM_STATIC part       192 MB

                       Distance Matrix (Angstroms)
             Mg(  1)   O (  2)   C (  3)   C (  4)   C (  5)   C (  6)
   O (  2)  2.135060
   C (  3)  2.100419  1.502006
   C (  4)  2.187737  4.257880  4.177198
   C (  5)  2.101620  1.502254  1.521370  4.167239
   C (  6)  2.186017  3.863869  4.166956  1.254919  4.175082
   H (  7)  3.195578  2.118051  1.097382  5.246853  2.213421  5.220091
   H (  8)  3.196925  2.117759  2.212835  5.234502  1.097452  5.230611
             H (  7)
   H (  8)  2.427820
 
 A cutoff of  1.0D-08 yielded   3584 shell pairs
 There are     26510 function pairs (     34033 Cartesian)
 Smallest overlap matrix eigenvalue = 1.34E-05

 Q-Chem warning in module stvman/mkSTV.C, line 323:

 Overlap eigenvalue is smaller than square root of threshold
 Use THRESH >= 12 to get rid of this warning


 Scale SEOQF with 1.000000e-01/1.000000e-02/1.000000e-02

 Standard Electronic Orientation quadrupole field applied
 Nucleus-field energy     =    -0.0000000016 hartrees
 Guess from superposition of atomic densities
 Warning:  Energy on first SCF cycle will be non-variational
 SAD guess density has 46.000000 electrons

 -----------------------------------------------------------------------
  General SCF calculation program by
  Eric Jon Sundstrom, Paul Horn, Yuezhi Mao, Dmitri Zuev, Alec White,
  David Stuck, Shaama M.S., Shane Yost, Joonho Lee, David Small,
  Daniel Levine, Susi Lehtola, Hugh Burton, Evgeny Epifanovsky,
  Bang C. Huynh
 -----------------------------------------------------------------------
 Exchange:     0.1500 Hartree-Fock + 1.0000 wB97M-V + LR-HF
 Correlation:  1.0000 wB97M-V
 Using SG-3 standard quadrature grid
 Nonlocal Correlation:  VV10 with C = 0.0100 and b = 6.00 and scale = 1.00000
 Grid used for NLC:  SG-1 standard quadrature
 using 24 threads for integral computing
 -------------------------------------------------------
 OpenMP Integral computing Module                
 Release: version 1.0, May 2013, Q-Chem Inc. Pittsburgh 
 -------------------------------------------------------
 -------------------------------------------------------
 OpenMP BLAS3 based DFT computing Module                
 Release: version 1.0, May 2013, Q-Chem Inc. Pittsburgh 
 -------------------------------------------------------
 A restricted SCF calculation will be
 performed using DIIS
 SCF converges when DIIS error is below 1.0e-05
 ---------------------------------------
  Cycle       Energy         DIIS error
 ---------------------------------------
    1    -429.6644914972      2.91e-02  
    2    -428.4343326753      4.79e-03  
    3    -428.4872000357      4.99e-03  
    4    -428.6620000238      7.06e-04  
    5    -428.6646223909      3.96e-04  
    6    -428.6657351064      6.77e-05  
    7    -428.6658324312      2.32e-05  
    8    -428.6658445717      1.51e-05  
    9    -428.6658483138      5.30e-06  Convergence criterion met
 ---------------------------------------
 SCF time:   CPU 241.27s  wall 10.00s 
 SCF   energy in the final basis set =     -428.6658483138
 Total energy in the final basis set =     -428.6658483138
 
 --------------------------------------------------------------
 
                    Orbital Energies (a.u.)
 --------------------------------------------------------------
 
 Alpha MOs
 -- Occupied --
-46.7086 -19.0228 -10.0290 -10.0288  -9.9524  -9.9507  -2.8919  -1.6033
 -1.6018  -1.6004  -0.8374  -0.4765  -0.4432  -0.3548  -0.2679  -0.1689
 -0.1492  -0.0881  -0.0716  -0.0371  -0.0057   0.0091   0.0172   0.0370
 -- Virtual --
  0.2460   0.2496   0.2569   0.2870   0.3188   0.3189   0.3216   0.3480
  0.3607   0.3639   0.4000   0.4039   0.4226   0.4244   0.4280   0.4303
  0.4375   0.4544   0.4638   0.4750   0.4908   0.5006   0.5123   0.5206
  0.5216   0.5246   0.5429   0.5481   0.5669   0.5727   0.5744   0.5906
  0.5928   0.5945   0.6030   0.6065   0.6106   0.6231   0.6257   0.6392
  0.6438   0.6684   0.6714   0.6893   0.6916   0.7025   0.7158   0.7272
  0.7285   0.7408   0.7490   0.7506   0.7722   0.7802   0.7943   0.8029
  0.8248   0.8377   0.8504   0.8651   0.8752   0.8874   0.9082   0.9223
  0.9260   0.9360   0.9439   0.9601   0.9661   0.9849   0.9875   0.9987
  1.0059   1.0359   1.0376   1.0407   1.0616   1.0643   1.0915   1.1271
  1.1433   1.1667   1.1852   1.2166   1.2585   1.2677   1.2830   1.3214
  1.3497   1.3589   1.3822   1.3857   1.3965   1.4349   1.4538   1.4708
  1.5080   1.5264   1.5699   1.5715   1.6284   1.6367   1.6545   1.6818
  1.6962   1.7252   1.7384   1.8173   1.8203   1.8612   2.0703   2.0712
  2.1086   2.1435   2.1548   2.1962   2.2353   2.2398   2.2493   2.2731
  2.2881   2.3335   2.3435   2.3752   2.4279   2.4446   2.4519   2.4557
  2.4669   2.5053   2.5345   2.5945   2.6096   2.6850   2.7224   2.8047
  2.8808   2.9220   2.9428   2.9660   3.0169   3.0753   3.0987   3.1007
  3.1254   3.1526   3.1863   3.2226   3.2240   3.2650   3.2706   3.3006
  3.3552   3.3816   3.3961   3.4168   3.4585   3.5487   3.5788   3.5891
  3.6214   3.6246   3.6411   3.6496   3.6661   3.6755   3.7004   3.7036
  3.7600   3.7750   3.8002   3.8330   3.8533   3.8717   3.9911   3.9984
  4.0179   4.0355   4.0524   4.0660   4.1023   4.2099   4.3427   4.4468
  4.4725   4.6622   4.7331   4.8483   4.9599   4.9912   5.0200   5.1328
  5.1456   5.2357   5.6767   5.8419   6.0212   6.1140   6.1574   6.1871
  6.2863   6.4373   6.9570   6.9806   7.0287   7.0693   7.1049   7.1515
  7.2489   7.5458   7.6615   7.7735  22.5929  22.9078  23.0680  23.2249
 44.8850
 --------------------------------------------------------------
 
          Ground-State Mulliken Net Atomic Charges

     Atom                 Charge (a.u.)
  ----------------------------------------
      1 Mg                   -0.114727
      2 O                    -0.316233
      3 C                    -0.334299
      4 C                    -0.449267
      5 C                    -0.339614
      6 C                    -0.714532
      7 H                     0.134442
      8 H                     0.134230
  ----------------------------------------
  Sum of atomic charges =    -2.000000

  Building new vdw surfaces
         Merz-Kollman RESP Net Atomic Charges

     Atom                 Charge (a.u.)
  ----------------------------------------
      1 Mg                    0.753816
      2 O                    -0.212678
      3 C                    -0.710851
      4 C                    -0.732673
      5 C                    -0.710851
      6 C                    -0.732673
      7 H                     0.172955
      8 H                     0.172955
  ----------------------------------------
  Sum of atomic charges =    -2.000000

  Related Dipole Moment =    58.6940 (X 13.1115 Y 26.5397 Z -50.6825)

 -----------------------------------------------------------------
                    Cartesian Multipole Moments
 -----------------------------------------------------------------
    Charge (ESU x 10^10)
                -9.6064
    Dipole Moment (Debye)
         X      13.0526      Y      26.4852      Z     -50.8627
       Tot      58.8120
    Quadrupole Moments (Debye-Ang)
        XX     -83.6820     XY     -44.2367     YY    -139.3200
        XZ      57.0963     YZ     127.4988     ZZ    -350.7070
    Octopole Moments (Debye-Ang^2)
       XXX     347.2674    XXY     264.2859    XYY     244.3222
       YYY     806.0456    XXZ    -380.8197    XYZ    -181.2033
       YYZ    -637.4376    XZZ     371.7675    YZZ     855.1893
       ZZZ   -2643.0096
    Hexadecapole Moments (Debye-Ang^3)
      XXXX   -1522.3077   XXXY   -1177.4181   XXYY   -1120.1399
      XYYY   -1489.0332   YYYY   -4681.0864   XXXZ    1445.8313
      XXYZ    1125.3392   XYYZ     983.6294   YYYZ    3513.7068
      XXZZ   -2118.3336   XYZZ   -1126.2928   YYZZ   -3814.8349
      XZZZ    2730.2960   YZZZ    6365.3272   ZZZZ  -20579.7246
 -----------------------------------------------------------------

 Begin NBO analysis for the ground state 

 i=           1 atno=          12 znuc=          12
 i=           2 atno=           8 znuc=           8
 i=           3 atno=           6 znuc=           6
 i=           4 atno=           6 znuc=           6
 i=           5 atno=           6 znuc=           6
 i=           6 atno=           6 znuc=           6
 i=           7 atno=           1 znuc=           1
 i=           8 atno=           1 znuc=           1
 Carts
             1             2             3             4             5
    1   -3.12329777   -3.56657271   -3.89773588   -1.78650928   -5.98989702
    2   -5.80391774   -6.22157934   -8.68504521   -4.35008529   -6.71330875
    3    9.50840644    5.51995993    6.89038743   13.14037124    6.91450600
             6             7             8
    1   -0.58482299   -4.14639738   -7.48500865
    2   -3.19104445  -10.18165728   -7.03503084
    3   11.45622086    5.47661150    5.51374651
 Carts
             1             2             3             4             5
    1   -1.65277800   -1.88734900   -2.06259300   -0.94538000   -3.16971700
    2   -3.07130100   -3.29231800   -4.59592800   -2.30196600   -3.55253000
    3    5.03163200    2.92103700    3.64623600    6.95358500    3.65899900
             6             7             8
    1   -0.30947500   -2.19417900   -3.96089600
    2   -1.68862800   -5.38790100   -3.72277800
    3    6.06237100    2.89809800    2.91774900
 Sao
             1             2             3             4             5
    1    1.00000000   -0.21443664    0.23953231    0.04432919    0.02092361
    2   -0.21443664    1.00000000   -0.84379861   -0.22794070   -0.11077888
    3    0.23953231   -0.84379861    1.00000000    0.45511915    0.23704022
    4    0.04432919   -0.22794070    0.45511915    1.00000000    0.83287936
    5    0.02092361   -0.11077888    0.23704022    0.83287936    1.00000000
    6    0.00000000   -0.00000000    0.00000000    0.00000000    0.00000000
    7    0.00000000    0.00000000   -0.00000000   -0.00000000    0.00000000
    8   -0.00000000    0.00000000    0.00000000   -0.00000000    0.00000000
    9    0.00000000   -0.00000000    0.00000000    0.00000000    0.00000000
   10   -0.00000000   -0.00000000    0.00000000   -0.00000000    0.00000000
   11   -0.00000000    0.00000000    0.00000000    0.00000000    0.00000000
   12    0.00000000   -0.00000000   -0.00000000   -0.00000000    0.00000000
   13    0.00000000    0.00000000    0.00000000    0.00000000   -0.00000000
   14   -0.00000000   -0.00000000    0.00000000    0.00000000    0.00000000
   15    0.00000000    0.00000000    0.00000000   -0.00000000    0.00000000
   16   -0.00000000   -0.00000000    0.00000000    0.00000000    0.00000000
   17    0.00000000    0.00000000    0.00000000    0.00000000    0.00000000
   18   -0.00000000   -0.00000000    0.00000000    0.00000000    0.00000000
   19   -0.00000000   -0.00000000   -0.00000000    0.00000000    0.00000000
   20    0.00000000    0.00000000    0.00000000    0.00000000    0.00000000
   21    0.00000000    0.00000000    0.00000000    0.00000000    0.00000000
   22    0.00000000    0.00000000    0.00000000    0.00000000    0.00000000
   23    0.00000000    0.00000000    0.00000000    0.00000000    0.00000000
   24   -0.00000000    0.00000000    0.00000000   -0.00000000    0.00000000
   25    0.00000000    0.00000000    0.00000000    0.00000000    0.00000000
   26    0.00000000    0.00000000    0.00000000    0.00000000    0.00000000
   27    0.00000000    0.00000000    0.00000000    0.00000000    0.00000000
   28    0.00000000    0.00000000    0.00000000    0.00000000    0.00000000
   29    0.00000000    0.00000000    0.00000000    0.00000000    0.00000000
   30    0.00000000    0.00000000    0.00000000    0.00000000    0.00000000
   31    0.00000000    0.00000000    0.00000000    0.00000000    0.00000000
   32   -0.00000000   -0.00000000    0.00000000    0.00000000    0.00000000
   33    0.00000000    0.00000000    0.00000000    0.00000000    0.00000000
   34   -0.00000000   -0.00000000    0.00000000    0.00000000    0.00000000
   35    0.00000000    0.00000000    0.00000000    0.00000000    0.00000000
   36    0.00000000   -0.00000000    0.00000441    0.00619922    0.00825774
   37    0.00000000   -0.00000000    0.00002333    0.02115628    0.02802886
   38    0.00000000   -0.00000124    0.00056710    0.08756874    0.11282639
   39    0.00008420   -0.00092019    0.00692218    0.17366860    0.21622000
   40    0.00351143   -0.02044648    0.05296655    0.32261904    0.38937662
   41    0.01082937   -0.05785865    0.12642976    0.49701018    0.62474126
   42    0.00000000   -0.00000004    0.00006721    0.00389513    0.00191868
   43    0.00000000   -0.00000004    0.00006332    0.00367006    0.00180782
   44    0.00000000   -0.00000040    0.00060471    0.03504715    0.01726370
   45    0.00002136   -0.00025043    0.00178775    0.01632654    0.00830615
   46    0.00002013   -0.00023596    0.00168445    0.01538316    0.00782620
   47    0.00019220   -0.00225333    0.01608556    0.14690104    0.07473608
   48    0.00145680   -0.00795040    0.01771159    0.04528648    0.02598288
   49    0.00137262   -0.00749101    0.01668818    0.04266973    0.02448153
   50    0.01310783   -0.07153514    0.15936323    0.40747325    0.23378565
   51    0.00232807   -0.01221135    0.02550207    0.07032831    0.05809522
   52    0.00219355   -0.01150575    0.02402850    0.06626460    0.05473835
   53    0.02094719   -0.10987381    0.22945945    0.63279171    0.52272222
   54    0.00000000   -0.00000000    0.00000844    0.00015711    0.00002891
   55    0.00000000   -0.00000000    0.00007592    0.00141358    0.00026016
   56    0.00000000   -0.00000002    0.00041371    0.00770277    0.00141764
   57    0.00000000   -0.00000000    0.00008058    0.00150027    0.00027611
   58    0.00000000   -0.00000000    0.00000050    0.00000936    0.00000172
   59    0.00000298   -0.00004431    0.00035663    0.00119597    0.00024075
   60    0.00002681   -0.00039870    0.00320882    0.01076097    0.00216616
   61    0.00014611   -0.00217257    0.01748521    0.05863771    0.01180363
   62    0.00002846   -0.00042315    0.00340560    0.01142090    0.00229900
   63    0.00000018   -0.00000264    0.00002124    0.00007122    0.00001434
   64    0.00058394   -0.00298464    0.00577209    0.00663765    0.00194140
   65    0.00525410   -0.02685482    0.05193539    0.05972349    0.01746806
   66    0.02863015   -0.14633480    0.28300158    0.32543976    0.09518533
   67    0.00557631   -0.02850170    0.05512036    0.06338607    0.01853930
   68    0.00003478   -0.00017775    0.00034375    0.00039530    0.00011562
   69    0.00000000   -0.00000003    0.00000429    0.00001050    0.00000075
   70    0.00000000   -0.00000054    0.00008949    0.00021902    0.00001569
   71    0.00000001   -0.00000303    0.00050631    0.00123912    0.00008879
   72    0.00000002   -0.00001148    0.00191601    0.00468916    0.00033601
   73    0.00000001   -0.00000322    0.00053736    0.00131511    0.00009424
   74    0.00000000   -0.00000003    0.00000533    0.00001304    0.00000093
   75   -0.00000000    0.00000002   -0.00000358   -0.00000877   -0.00000063
   76    0.00000000   -0.00000000    0.00001073    0.01086842    0.01398456
   77    0.00000000   -0.00000000    0.00007597    0.03636161    0.04637082
   78    0.00002340   -0.00035993    0.00447041    0.15515077    0.18976226
   79    0.00227497   -0.01400716    0.04014558    0.29274494    0.34776578
   80    0.00954219   -0.05134990    0.11385908    0.46182385    0.55917564
   81    0.01198343   -0.06382636    0.13858974    0.54072473    0.70898585
   82    0.00000091   -0.00002974    0.00080563    0.01519827    0.00736450
   83    0.00000337   -0.00011062    0.00299717    0.05654184    0.02739801
   84    0.00000306   -0.00010052    0.00272347    0.05137836    0.02489599
   85    0.00089028   -0.00558910    0.01565314    0.05440685    0.02838992
   86    0.00331211   -0.02079303    0.05823407    0.20240879    0.10561848
   87    0.00300964   -0.01889418    0.05291605    0.18392455    0.09597326
   88    0.00446487   -0.02335751    0.04826374    0.11126323    0.07184773
   89    0.01661056   -0.08689650    0.17955468    0.41393050    0.26729376
   90    0.01509366   -0.07896099    0.16315750    0.37612981    0.24288413
   91    0.00000018   -0.00001748    0.00102477    0.00671367    0.00124659
   92    0.00000062   -0.00005910    0.00346428    0.02269582    0.00421414
   93    0.00000011   -0.00001087    0.00063738    0.00417571    0.00077534
   94    0.00000017   -0.00001588    0.00093119    0.00610057    0.00113275
   95   -0.00000031    0.00003017   -0.00176849   -0.01158606   -0.00215129
   96    0.00204895   -0.01235848    0.03033653    0.03899591    0.00867667
   97    0.00692655   -0.04177835    0.10255387    0.13182725    0.02933183
   98    0.00127439   -0.00768662    0.01886845    0.02425433    0.00539664
   99    0.00186183   -0.01122989    0.02756616    0.03543475    0.00788431
  100   -0.00353596    0.02132755   -0.05235303   -0.06729689   -0.01497370
  101    0.00792331   -0.04025531    0.07761883    0.10550501    0.03851179
  102    0.02678506   -0.13608467    0.26239357    0.35666391    0.13019066
  103    0.00492807   -0.02503764    0.04827667    0.06562107    0.02395322
  104    0.00719974   -0.03657914    0.07053058    0.09587015    0.03499484
  105   -0.01367359    0.06947028   -0.13395009   -0.18207444   -0.06646142
  106   -0.00003432    0.00061125   -0.00463447   -0.00413512   -0.00031318
  107    0.00005243   -0.00093382    0.00708016    0.00631729    0.00047845
  108    0.00007570   -0.00134837    0.01022322    0.00912169    0.00069085
  109   -0.00003942    0.00070207   -0.00532302   -0.00474947   -0.00035971
  110    0.00002035   -0.00036244    0.00274797    0.00245188    0.00018570
  111   -0.00009048    0.00161153   -0.01221854   -0.01090201   -0.00082568
  112   -0.00003448    0.00061416   -0.00465652   -0.00415478   -0.00031467
  113    0.00000000   -0.00000000    0.00000530    0.00950272    0.01331326
  114    0.00000000   -0.00000000    0.00004066    0.03188643    0.04416263
  115    0.00001108   -0.00018958    0.00293145    0.13830693    0.18117047
  116    0.00167948   -0.01054889    0.03157262    0.26653353    0.33330288
  117    0.00840740   -0.04540779    0.10154620    0.43253800    0.53965685
  118    0.01123319   -0.05988789    0.13034735    0.51755430    0.68940957
  119   -0.00000055    0.00002198   -0.00084823   -0.02323995   -0.01212472
  120   -0.00000060    0.00002390   -0.00092250   -0.02527474   -0.01318632
  121   -0.00000150    0.00005972   -0.00230458   -0.06314138   -0.03294206
  122   -0.00105047    0.00680097   -0.02027450   -0.08497186   -0.04690885
  123   -0.00114245    0.00739643   -0.02204965   -0.09241166   -0.05101601
  124   -0.00285406    0.01847777   -0.05508445   -0.23086285   -0.12744821
  125   -0.00674204    0.03541368   -0.07385462   -0.17954200   -0.11962541
  126   -0.00733235    0.03851436   -0.08032104   -0.19526200   -0.13009935
  127   -0.01831768    0.09621660   -0.20065806   -0.48780360   -0.32501424
  128    0.00000004   -0.00000526    0.00051622    0.00516756    0.00103523
  129    0.00000011   -0.00001429    0.00140254    0.01403991    0.00281266
  130    0.00000013   -0.00001757    0.00172384    0.01725627    0.00345700
  131    0.00000010   -0.00001314    0.00128962    0.01290960    0.00258622
  132   -0.00000000    0.00000044   -0.00004338   -0.00043424   -0.00008699
  133    0.00117477   -0.00735288    0.01936265    0.03065748    0.00723097
  134    0.00319176   -0.01997727    0.05260703    0.08329433    0.01964607
  135    0.00392295   -0.02455380    0.06465862    0.10237597    0.02414673
  136    0.00293480   -0.01836896    0.04837179    0.07658853    0.01806442
  137   -0.00009872    0.00061787   -0.00162708   -0.00257620   -0.00060763
  138    0.00611435   -0.03116858    0.06055112    0.08619978    0.03238817
  139    0.01661228   -0.08468295    0.16451334    0.23419903    0.08799650
  140    0.02041793   -0.10408272    0.20220120    0.28785098    0.10815535
  141    0.01527487   -0.07786537    0.15126883    0.21534432    0.08091215
  142   -0.00051380    0.00261915   -0.00508821   -0.00724351   -0.00272163
  143   -0.00000326    0.00006903   -0.00069681   -0.00092507   -0.00007531
  144   -0.00002388    0.00050561   -0.00510380   -0.00677567   -0.00055159
  145   -0.00003800    0.00080458   -0.00812173   -0.01078219   -0.00087775
  146   -0.00002328    0.00049306   -0.00497714   -0.00660752   -0.00053790
  147   -0.00003494    0.00073980   -0.00746787   -0.00991415   -0.00080708
  148    0.00000201   -0.00004249    0.00042888    0.00056937    0.00004635
  149    0.00000420   -0.00008901    0.00089849    0.00119281    0.00009710
  150    0.00000000   -0.00000000    0.00001063    0.01084876    0.01397529
  151    0.00000000   -0.00000000    0.00007533    0.03629728    0.04634032
  152    0.00002316   -0.00035684    0.00444491    0.15491054    0.18964374
  153    0.00226568   -0.01395371    0.04001564    0.29237491    0.34756665
  154    0.00952592   -0.05126482    0.11368349    0.46141607    0.55890782
  155    0.01197299   -0.06377157    0.13847521    0.54040551    0.70871823
  156    0.00000330   -0.00010881    0.00296207    0.05616487    0.02724247
  157    0.00000105   -0.00003452    0.00093968    0.01781757    0.00864232
  158    0.00000299   -0.00009846    0.00268029    0.05082192    0.02465090
  159    0.00327854   -0.02059088    0.05771616    0.20111662    0.10502397
  160    0.00104007   -0.00653219    0.01830970    0.06380161    0.03331748
  161    0.00296666   -0.01863208    0.05222564    0.18198445    0.09503307
  162    0.01649702   -0.08630724    0.17835928    0.41146925    0.26581660
  163    0.00523346   -0.02737984    0.05658214    0.13053322    0.08432683
  164    0.01492766   -0.07809686    0.16139201    0.37232629    0.24052954
  165    0.00000021   -0.00002013    0.00118836    0.00783076    0.00145550
  166    0.00000019   -0.00001822    0.00107531    0.00708583    0.00131704
  167    0.00000010   -0.00000984    0.00058063    0.00382610    0.00071115
  168    0.00000060   -0.00005743    0.00338963    0.02233607    0.00415159
  169    0.00000030   -0.00002854    0.00168449    0.01110004    0.00206316
  170    0.00238040   -0.01436487    0.03529479    0.04549748    0.01013125
  171    0.00215396   -0.01299835    0.03193721    0.04116932    0.00916746
  172    0.00116306   -0.00701866    0.01724499    0.02223002    0.00495012
  173    0.00678974   -0.04097363    0.10067307    0.12977470    0.02889785
  174    0.00337420   -0.02036208    0.05003005    0.06449227    0.01436095
  175    0.00924200   -0.04695719    0.09055032    0.12315917    0.04497351
  176    0.00836281   -0.04249017    0.08193630    0.11144307    0.04069519
  177    0.00451563   -0.02294323    0.04424278    0.06017542    0.02197400
  178    0.02636141   -0.13393830    0.25828112    0.35129293    0.12828014
  179    0.01310045   -0.06656139    0.12835426    0.17457700    0.06374954
  180    0.00003917   -0.00069940    0.00532291    0.00477520    0.00036201
  181    0.00005989   -0.00106933    0.00813840    0.00730098    0.00055349
  182    0.00002276   -0.00040631    0.00309233    0.00277414    0.00021031
  183   -0.00004057    0.00072426   -0.00551215   -0.00494497   -0.00037488
  184    0.00007174   -0.00128079    0.00974771    0.00874470    0.00066294
  185    0.00008490   -0.00151577    0.01153611    0.01034908    0.00078457
  186    0.00002973   -0.00053082    0.00403989    0.00362420    0.00027475
  187    0.00000000   -0.00000000    0.00000538    0.00952839    0.01332642
  188    0.00000000   -0.00000000    0.00004118    0.03197066    0.04420593
  189    0.00001125   -0.00019204    0.00295627    0.13862657    0.18133916
  190    0.00168975   -0.01060914    0.03172521    0.26703620    0.33358739
  191    0.00842880   -0.04552010    0.10177989    0.43310757    0.54004213
  192    0.01124779   -0.05996455    0.13050798    0.51800980    0.68979743
  193   -0.00000107    0.00004246   -0.00162667   -0.04423871   -0.02304596
  194   -0.00000110    0.00004370   -0.00167434   -0.04553528   -0.02372140
  195   -0.00000082    0.00003258   -0.00124817   -0.03394511   -0.01768355
  196   -0.00201008    0.01300562   -0.03872238   -0.16168068   -0.08915513
  197   -0.00206899    0.01338680   -0.03985727   -0.16641927   -0.09176812
  198   -0.00154237    0.00997943   -0.02971233   -0.12406031   -0.06841023
  199   -0.01283715    0.06742372   -0.14058489   -0.34140037   -0.22732557
  200   -0.01321338    0.06939980   -0.14470520   -0.35140625   -0.23398811
  201   -0.00985016    0.05173536   -0.10787315   -0.26196225   -0.17443073
  202    0.00000014   -0.00001834    0.00178103    0.01767984    0.00353646
  203    0.00000011   -0.00001407    0.00136661    0.01356604    0.00271358
  204   -0.00000003    0.00000454   -0.00044052   -0.00437294   -0.00087471
  205    0.00000010   -0.00001367    0.00132770    0.01317976    0.00263632
  206   -0.00000000    0.00000053   -0.00005146   -0.00051079   -0.00010217
  207    0.00404309   -0.02528697    0.06649465    0.10484427    0.02469996
  208    0.00310233   -0.01940311    0.05102246    0.08044877    0.01895270
  209   -0.00100002    0.00625450   -0.01644684   -0.02593227   -0.00610931
  210    0.00301399   -0.01885063    0.04956966    0.07815809    0.01841304
  211   -0.00011681    0.00073057   -0.00192110   -0.00302907   -0.00071361
  212    0.02091802   -0.10662483    0.20710847    0.29456328    0.11061312
  213    0.01605075   -0.08181502    0.15891782    0.22602336    0.08487531
  214   -0.00517388    0.02637267   -0.05122637   -0.07285752   -0.02735914
  215    0.01559372   -0.07948544    0.15439282    0.21958761    0.08245858
  216   -0.00060434    0.00308051   -0.00598359   -0.00851026   -0.00319573
  217   -0.00002301    0.00048549   -0.00487211   -0.00641728   -0.00052166
  218   -0.00004457    0.00094046   -0.00943797   -0.01243117   -0.00101052
  219   -0.00000271    0.00005729   -0.00057493   -0.00075727   -0.00006156
  220    0.00002795   -0.00058988    0.00591975    0.00779717    0.00063383
  221   -0.00000264    0.00005566   -0.00055856   -0.00073570   -0.00005980
  222    0.00000129   -0.00002717    0.00027267    0.00035915    0.00002920
  223    0.00002509   -0.00052949    0.00531368    0.00699889    0.00056893
  224    0.00000000   -0.00000000    0.00000025    0.01224119    0.05048301
  225    0.00000085   -0.00001133    0.00018355    0.04690034    0.13998831
  226    0.00107078   -0.00617609    0.01614025    0.15563138    0.30720172
  227    0.00000000   -0.00000000    0.00000133    0.00390753    0.00586371
  228    0.00000000   -0.00000000    0.00000567    0.01671993    0.02509023
  229    0.00000000   -0.00000000    0.00000522    0.01539866    0.02310751
  230    0.00083136   -0.00460069    0.01084867    0.05409642    0.05654316
  231    0.00355731   -0.01968588    0.04642036    0.23147308    0.24194245
  232    0.00327620   -0.01813023    0.04275206    0.21318125    0.22282330
  233    0.00000000   -0.00000000    0.00000025    0.01220610    0.05042745
  234    0.00000084   -0.00001123    0.00018232    0.04678913    0.13984570
  235    0.00106741   -0.00615725    0.01609483    0.15538736    0.30694522
  236    0.00000000   -0.00000000    0.00000560    0.01661282    0.02497128
  237    0.00000000   -0.00000000    0.00000158    0.00468905    0.00704826
  238    0.00000000   -0.00000000    0.00000512    0.01521480    0.02286987
  239    0.00353391   -0.01955804    0.04612822    0.23027708    0.24085929
  240    0.00099746   -0.00552035    0.01301991    0.06499677    0.06798365
  241    0.00323652   -0.01791218    0.04224640    0.21089858    0.22059027
             6             7             8             9            10
    1    0.00000000    0.00000000   -0.00000000    0.00000000   -0.00000000
    2   -0.00000000    0.00000000    0.00000000   -0.00000000   -0.00000000
    3    0.00000000   -0.00000000    0.00000000    0.00000000    0.00000000
    4    0.00000000   -0.00000000   -0.00000000    0.00000000   -0.00000000
    5    0.00000000    0.00000000    0.00000000    0.00000000    0.00000000
    6    1.00000000    0.00000000   -0.00000000    0.53027386    0.00000000
    7    0.00000000    1.00000000   -0.00000000    0.00000000    0.53027386
    8   -0.00000000   -0.00000000    1.00000000   -0.00000000    0.00000000
    9    0.53027386    0.00000000   -0.00000000    1.00000000    0.00000000
   10    0.00000000    0.53027386    0.00000000    0.00000000    1.00000000
   11   -0.00000000    0.00000000    0.53027386    0.00000000    0.00000000
   12    0.19380692   -0.00000000    0.00000000    0.68425809    0.00000000
   13   -0.00000000    0.19380692   -0.00000000    0.00000000    0.68425809
   14    0.00000000   -0.00000000    0.19380692    0.00000000    0.00000000
   15    0.04731283    0.00000000    0.00000000    0.22957764    0.00000000
   16    0.00000000    0.04731283    0.00000000    0.00000000    0.22957764
   17    0.00000000    0.00000000    0.04731283    0.00000000    0.00000000
   18    0.01845057    0.00000000    0.00000000    0.09697824    0.00000000
   19    0.00000000    0.01845057   -0.00000000    0.00000000    0.09697824
   20    0.00000000   -0.00000000    0.01845057    0.00000000    0.00000000
   21    0.00000000   -0.00000000    0.00000000    0.00000000    0.00000000
   22    0.00000000    0.00000000    0.00000000    0.00000000    0.00000000
   23    0.00000000   -0.00000000    0.00000000   -0.00000000   -0.00000000
   24    0.00000000    0.00000000   -0.00000000    0.00000000    0.00000000
   25   -0.00000000   -0.00000000    0.00000000    0.00000000   -0.00000000
   26   -0.00000000    0.00000000    0.00000000    0.00000000    0.00000000
   27    0.00000000    0.00000000   -0.00000000    0.00000000    0.00000000
   28   -0.00000000    0.00000000    0.00000000   -0.00000000   -0.00000000
   29    0.00000000    0.00000000    0.00000000    0.00000000    0.00000000
   30    0.00000000    0.00000000    0.00000000    0.00000000   -0.00000000
   31    0.00000000   -0.00000000    0.00000000    0.00000000    0.00000000
   32    0.00000000    0.00000000    0.00000000    0.00000000    0.00000000
   33    0.00000000   -0.00000000    0.00000000   -0.00000000    0.00000000
   34    0.00000000    0.00000000   -0.00000000    0.00000000    0.00000000
   35   -0.00000000   -0.00000000    0.00000000    0.00000000    0.00000000
   36   -0.00000000   -0.00000000   -0.00000000   -0.00000661   -0.00000623
   37   -0.00000000   -0.00000000   -0.00000000   -0.00003517   -0.00003313
   38   -0.00000334   -0.00000315   -0.00003009   -0.00072103   -0.00067937
   39   -0.00030039   -0.00028303   -0.00270280   -0.00437866   -0.00412565
   40   -0.00230343   -0.00217033   -0.02072551   -0.01304177   -0.01228819
   41   -0.00252358   -0.00237776   -0.02270635   -0.01273871   -0.01200264
   42    0.00000059   -0.00000025   -0.00000241    0.00047383   -0.00009010
   43   -0.00000025    0.00000062   -0.00000227   -0.00009010    0.00048456
   44   -0.00000241   -0.00000227   -0.00002081   -0.00086039   -0.00081067
   45    0.00047734   -0.00008625   -0.00082368    0.00961468   -0.00111113
   46   -0.00008625    0.00048762   -0.00077609   -0.00111113    0.00974702
   47   -0.00082368   -0.00077609   -0.00684231   -0.01061072   -0.00999761
   48    0.01227087   -0.00077744   -0.00742412    0.06877924   -0.00361945
   49   -0.00077744    0.01236347   -0.00699513   -0.00361945    0.06921034
   50   -0.00742412   -0.00699513   -0.05370384   -0.03456384   -0.03256667
   51    0.01942067   -0.00036526   -0.00348800    0.09942827   -0.00176326
   52   -0.00036526    0.01946417   -0.00328646   -0.00176326    0.09963829
   53   -0.00348800   -0.00328646   -0.01157560   -0.01683823   -0.01586528
   54    0.00000002    0.00000003   -0.00000013    0.00006015    0.00006545
   55   -0.00000013    0.00000024   -0.00000113   -0.00012175    0.00058893
   56   -0.00000073   -0.00000069   -0.00000593   -0.00070855   -0.00066761
   57    0.00000022   -0.00000013   -0.00000120    0.00057443   -0.00012175
   58    0.00000004   -0.00000004   -0.00000001    0.00007740   -0.00007444
   59    0.00008840    0.00009624   -0.00018208    0.00189337    0.00204042
   60   -0.00018208    0.00086590   -0.00152965   -0.00233653    0.01835901
   61   -0.00105874   -0.00099756   -0.00772928   -0.01405129   -0.01323938
   62    0.00084421   -0.00018208   -0.00162346    0.01808071   -0.00233653
   63    0.00011410   -0.00010978   -0.00001084    0.00226963   -0.00216763
   64    0.00451869    0.00482636   -0.00230807    0.02070947    0.02209888
   65   -0.00230807    0.04342603   -0.01599204   -0.00901900    0.19883871
   66   -0.01550295   -0.01460715   -0.06050780   -0.06244960   -0.05884114
   67    0.04315112   -0.00230807   -0.01697276    0.19776448   -0.00901900
   68    0.00505278   -0.00478960   -0.00013745    0.02298364   -0.02176809
   69    0.00000064   -0.00000003   -0.00000069    0.00009411    0.00000054
   70    0.00000366    0.00000407   -0.00001374    0.00061380    0.00066570
   71   -0.00000919    0.00002287   -0.00007440   -0.00070296    0.00374188
   72   -0.00003840   -0.00003618   -0.00026830   -0.00316564   -0.00298273
   73    0.00002177   -0.00000919   -0.00007896    0.00365815   -0.00070296
   74    0.00000548   -0.00000534   -0.00000082    0.00077135   -0.00074022
   75    0.00000011   -0.00000065    0.00000057    0.00001074   -0.00009533
   76   -0.00000000   -0.00000000   -0.00000000   -0.00002879   -0.00010710
   77   -0.00000003   -0.00000010   -0.00000009   -0.00020047   -0.00074579
   78   -0.00028259   -0.00105130   -0.00095529   -0.00604198   -0.02247786
   79   -0.00342944   -0.01275849   -0.01159337   -0.02118297   -0.07880662
   80   -0.00524924   -0.01952866   -0.01774527   -0.02635509   -0.09804836
   81   -0.00338658   -0.01259904   -0.01144848   -0.01734313   -0.06452132
   82    0.00002060   -0.00015148   -0.00013765    0.00199058   -0.00522138
   83   -0.00015148   -0.00050223   -0.00051209   -0.00522138   -0.01603094
   84   -0.00013765   -0.00051209   -0.00040401   -0.00474456   -0.01765109
   85    0.00389415   -0.00623820   -0.00566852    0.03129187   -0.03517297
   86   -0.00623820   -0.01763690   -0.02108848   -0.03517297   -0.09010706
   87   -0.00566852   -0.02108848   -0.01359170   -0.03196092   -0.11890362
   88    0.01916688   -0.00923822   -0.00839457    0.09765896   -0.04169615
   89   -0.00923822   -0.01271868   -0.03123016   -0.04169615   -0.04625465
   90   -0.00839457   -0.03123016   -0.00672810   -0.03788840   -0.14095551
   91    0.00001096   -0.00014747   -0.00014733    0.00246418   -0.00652217
   92   -0.00014733   -0.00049853   -0.00044350   -0.00703686   -0.02204847
   93   -0.00003557   -0.00013233   -0.00003440   -0.00200014   -0.00744107
   94    0.00000996   -0.00014733   -0.00011921    0.00223915   -0.00703686
   95    0.00008987    0.00022525    0.00025425    0.00481415    0.00881849
   96    0.00808295   -0.01140589   -0.01329946    0.05498911   -0.04753939
   97   -0.01329946   -0.03855806   -0.03294227   -0.06103932   -0.16070881
   98   -0.00431184   -0.01604125    0.00433705   -0.02256624   -0.08395277
   99    0.00734480   -0.01329946   -0.00885478    0.04996743   -0.06103932
  100    0.01001943    0.01324096    0.02295143    0.05079447    0.04287931
  101    0.03297184   -0.00438571   -0.01297612    0.15152769   -0.01382479
  102   -0.01297612   -0.01482608   -0.00705599   -0.05343360   -0.04673525
  103   -0.00810001   -0.03013432    0.03055251   -0.03579956   -0.13318444
  104    0.02996081   -0.01297612   -0.00189663    0.13768997   -0.05343360
  105    0.01651872   -0.01216635    0.02239344    0.07225632   -0.06585403
  106    0.00105702    0.00126121    0.00191519    0.01438990    0.00789625
  107    0.00048833   -0.00285601   -0.00252539    0.01394949   -0.02793943
  108   -0.00137636   -0.00459500   -0.00251225   -0.01542080   -0.04839213
  109    0.00036882    0.00137212    0.00253391    0.00208664    0.00776289
  110    0.00015549   -0.00137636   -0.00067528    0.00483251   -0.01542080
  111    0.00185754    0.00420290    0.00435817    0.02206198    0.03581525
  112   -0.00027722    0.00162720    0.00192430   -0.00842352    0.01408437
  113    0.00000000    0.00000000    0.00000000    0.00002329    0.00002533
  114    0.00000001    0.00000001    0.00000003    0.00017840    0.00019402
  115    0.00027221    0.00029604    0.00073957    0.00707132    0.00769045
  116    0.00449900    0.00489291    0.01222348    0.02932585    0.03189351
  117    0.00802584    0.00872856    0.02180568    0.04077595    0.04434613
  118    0.00548750    0.00596797    0.01490918    0.02819719    0.03066603
  119   -0.00002852   -0.00006286   -0.00015703   -0.00049205   -0.00286416
  120   -0.00006286   -0.00003909   -0.00017077   -0.00286416   -0.00097341
  121   -0.00015703   -0.00017077   -0.00039736   -0.00715525   -0.00778174
  122    0.00041298   -0.00388303   -0.00970060    0.00971011   -0.02365408
  123   -0.00388303   -0.00023961   -0.01054995   -0.02365408    0.00573473
  124   -0.00970060   -0.01054995   -0.02237247   -0.05909262   -0.06426654
  125    0.01254103   -0.00708069   -0.01768898    0.06728968   -0.03238052
  126   -0.00708069    0.01135103   -0.01923776   -0.03238052    0.06184771
  127   -0.01768898   -0.01923776   -0.02900810   -0.08089302   -0.08797570
  128    0.00001556    0.00001883    0.00007299    0.00050169    0.00077701
  129    0.00007299    0.00005115    0.00018702    0.00510374    0.00211108
  130    0.00009572    0.00010410    0.00021115    0.00700384    0.00761707
  131    0.00003888    0.00007299    0.00017196    0.00125333    0.00510374
  132   -0.00001265    0.00000885   -0.00000613   -0.00142381    0.00120513
  133   -0.00010646    0.00059183    0.01115003   -0.00737264   -0.00331547
  134    0.01115003    0.00160796    0.02608352    0.05599333   -0.00900791
  135    0.01593951    0.01733511    0.02508830    0.08367528    0.09100156
  136   -0.00026595    0.01115003    0.02398361   -0.01841833    0.05599333
  137   -0.00421625    0.00383531   -0.00093696   -0.02746075    0.02609822
  138   -0.01139862   -0.00961749    0.01395882   -0.05460912   -0.04661788
  139    0.01395882   -0.02613008    0.02138885    0.05811409   -0.12665767
  140    0.02593524    0.02820603   -0.00108857    0.11177266    0.12155904
  141   -0.02847604    0.01395882    0.01966689   -0.13642451    0.05811409
  142   -0.01563677    0.01606681   -0.00117298   -0.07167767    0.07404393
  143    0.00008909   -0.00014881   -0.00032773    0.00300966   -0.00222085
  144   -0.00041829   -0.00053310   -0.00222922   -0.00190031   -0.00381502
  145   -0.00146010   -0.00090721   -0.00323139   -0.02078882   -0.00738768
  146   -0.00119294   -0.00129739   -0.00157372   -0.01940699   -0.02110619
  147   -0.00066182   -0.00146010   -0.00297124   -0.00389385   -0.02078882
  148    0.00050202   -0.00038449    0.00018732    0.01059912   -0.00927840
  149    0.00013791   -0.00004056    0.00042258    0.00177182   -0.00233387
  150   -0.00000000   -0.00000000   -0.00000000   -0.00010547   -0.00003346
  151   -0.00000010   -0.00000003   -0.00000009   -0.00073543   -0.00023330
  152   -0.00103779   -0.00032923   -0.00093907   -0.02224765   -0.00705777
  153   -0.01264726   -0.00401218   -0.01144413   -0.07817634   -0.02480042
  154   -0.01939843   -0.00615390   -0.01755306   -0.09741007   -0.03090207
  155   -0.01252482   -0.00397334   -0.01133334   -0.06414417   -0.02034890
  156   -0.00049162   -0.00017522   -0.00049978   -0.01573689   -0.00606237
  157   -0.00017522    0.00000512   -0.00015855   -0.00606237    0.00144983
  158   -0.00049978   -0.00015855   -0.00039153   -0.01729201   -0.00548566
  159   -0.01732471   -0.00725537   -0.02069485   -0.08848160   -0.04095084
  160   -0.00725537    0.00324414   -0.00656517   -0.04095084    0.02761328
  161   -0.02069485   -0.00656517   -0.01318034   -0.11680608   -0.03705520
  162   -0.01235161   -0.01077476   -0.03073338   -0.04462508   -0.04863987
  163   -0.01077476    0.01819464   -0.00974976   -0.04863987    0.09326806
  164   -0.03073338   -0.00974976   -0.00619693   -0.13873788   -0.04401277
  165   -0.00016920   -0.00000545   -0.00016850   -0.00751534    0.00165562
  166   -0.00016850   -0.00000493   -0.00013546   -0.00808982    0.00149812
  167   -0.00012194   -0.00003868   -0.00002630   -0.00696157   -0.00220847
  168   -0.00048263   -0.00016850   -0.00042700   -0.02143637   -0.00808982
  169   -0.00021034   -0.00010075   -0.00023885   -0.00818099   -0.00544525
  170   -0.01315551    0.00652698   -0.01531939   -0.05482598    0.04772749
  171   -0.01531939    0.00590607   -0.01008764   -0.07039552    0.04318719
  172   -0.01514113   -0.00480332    0.00494641   -0.07981556   -0.02532044
  173   -0.03752411   -0.01531939   -0.03179845   -0.15638283   -0.07039552
  174   -0.01210023   -0.01138747   -0.02171509   -0.03786815   -0.05795373
  175   -0.00497347    0.03130946   -0.01499730   -0.01551721    0.14459962
  176   -0.01499730    0.02833100   -0.00197010   -0.06176562    0.13084390
  177   -0.02921019   -0.00926655    0.03087987   -0.12933805   -0.04103080
  178   -0.01418607   -0.01499730   -0.00621019   -0.04426049   -0.06176562
  179    0.01307388   -0.01905350   -0.02125853    0.06949729   -0.08343665
  180   -0.00183466    0.00004245   -0.00217371   -0.01584454    0.00568181
  181   -0.00325353    0.00015667   -0.00286005   -0.03191514    0.01026067
  182   -0.00154212    0.00001304   -0.00073239   -0.01737189    0.00310154
  183    0.00146375    0.00046436    0.00255477    0.00892903    0.00283262
  184   -0.00435884   -0.00154212   -0.00230866   -0.04614746   -0.01737189
  185   -0.00388442   -0.00207095   -0.00405409   -0.03276561   -0.02477574
  186   -0.00101868   -0.00114596   -0.00164977   -0.00561627   -0.01589078
  187    0.00000000    0.00000000    0.00000000    0.00004490    0.00004622
  188    0.00000002    0.00000002    0.00000002    0.00034331    0.00035337
  189    0.00052299    0.00053832    0.00040130    0.01353319    0.01392983
  190    0.00859052    0.00884230    0.00659165    0.05593522    0.05757459
  191    0.01527774    0.01572551    0.01172287    0.07760132    0.07987569
  192    0.01043366    0.01073945    0.00800592    0.05360906    0.05518025
  193   -0.00018182   -0.00021773   -0.00016231   -0.00742365   -0.00986599
  194   -0.00021773   -0.00019440   -0.00016707   -0.00986599   -0.00799373
  195   -0.00016231   -0.00016707   -0.00009484   -0.00735478   -0.00757034
  196   -0.00895161   -0.01334184   -0.00994592   -0.04721343   -0.08114775
  197   -0.01334184   -0.00972253   -0.01023741   -0.08114775   -0.05190232
  198   -0.00994592   -0.01023741   -0.00362134   -0.06049309   -0.06226604
  199   -0.00443681   -0.02422732   -0.01806070   -0.01032289   -0.11076411
  200   -0.02422732   -0.00583671   -0.01859003   -0.11076411   -0.01672308
  201   -0.01806070   -0.01859003    0.00524239   -0.08257114   -0.08499117
  202    0.00015658    0.00016236    0.00013601    0.00979956    0.01023122
  203    0.00013601    0.00012458    0.00008368    0.00943760    0.00785058
  204   -0.00003224   -0.00003319   -0.00005144   -0.00163993   -0.00168799
  205    0.00011672    0.00013601    0.00008130    0.00730526    0.00943760
  206   -0.00002521    0.00001541   -0.00000393   -0.00278409    0.00213417
  207    0.01916962    0.02017190    0.02055814    0.08373428    0.08911037
  208    0.02055814    0.01547824    0.00815198    0.10305289    0.06837588
  209   -0.00235120   -0.00242011   -0.01164637   -0.00485409   -0.00499636
  210    0.01429034    0.02055814    0.00791986    0.06242126    0.10305289
  211   -0.00817964    0.00682588   -0.00059395   -0.05300891    0.04657476
  212    0.00358492    0.00541126    0.02560844    0.00203734    0.01000607
  213    0.02560844    0.00415215   -0.01013931    0.10659090    0.00767783
  214    0.00845427    0.00870205   -0.03197625    0.04241645    0.04365960
  215    0.00267244    0.02560844   -0.00985060    0.00151877    0.10659090
  216   -0.02990510    0.02879662   -0.00073986   -0.13699243    0.13274546
  217   -0.00088206   -0.00167618   -0.00123390   -0.00612423   -0.02339039
  218   -0.00266020   -0.00276445   -0.00179745   -0.03302614   -0.03457862
  219   -0.00037722   -0.00036135    0.00042975   -0.00679721   -0.00639772
  220    0.00161155    0.00165879    0.00130251    0.01944720    0.02001716
  221   -0.00033956   -0.00037722    0.00041751   -0.00600496   -0.00679721
  222    0.00053190   -0.00036222    0.00005193    0.01107462   -0.00883327
  223    0.00173284    0.00107920    0.00134573    0.02382315    0.00885461
  224   -0.00000000   -0.00000000   -0.00000000   -0.00000055   -0.00000235
  225   -0.00000740   -0.00003167   -0.00002917   -0.00024979   -0.00106882
  226   -0.00092955   -0.00397746   -0.00366315   -0.00578071   -0.02473507
  227   -0.00000000   -0.00000001   -0.00000001    0.00000125   -0.00001300
  228   -0.00000001   -0.00000002   -0.00000002   -0.00001300   -0.00005132
  229   -0.00000001   -0.00000002   -0.00000002   -0.00001197   -0.00005122
  230    0.00268111   -0.00270853   -0.00249449    0.01657776   -0.01476768
  231   -0.00270853   -0.00827540   -0.01067366   -0.01476768   -0.04316036
  232   -0.00249449   -0.01067366   -0.00651609   -0.01360068   -0.05819594
  233   -0.00000000   -0.00000000   -0.00000000   -0.00000232   -0.00000065
  234   -0.00003129   -0.00000883   -0.00002866   -0.00105805   -0.00029864
  235   -0.00395099   -0.00111519   -0.00361850   -0.02457815   -0.00693730
  236   -0.00000002   -0.00000001   -0.00000002   -0.00005039   -0.00001542
  237   -0.00000001   -0.00000000   -0.00000001   -0.00001542   -0.00000011
  238   -0.00000002   -0.00000001   -0.00000002   -0.00005004   -0.00001412
  239   -0.00816773   -0.00323818   -0.01050709   -0.04259050   -0.01766036
  240   -0.00323818    0.00239082   -0.00296568   -0.01766036    0.01499367
  241   -0.01050709   -0.00296568   -0.00631808   -0.05730353   -0.01617419
            11            12            13            14            15
    1   -0.00000000    0.00000000    0.00000000   -0.00000000    0.00000000
    2    0.00000000   -0.00000000    0.00000000   -0.00000000    0.00000000
    3    0.00000000   -0.00000000    0.00000000    0.00000000    0.00000000
    4    0.00000000   -0.00000000    0.00000000    0.00000000   -0.00000000
    5    0.00000000    0.00000000   -0.00000000    0.00000000    0.00000000
    6   -0.00000000    0.19380692   -0.00000000    0.00000000    0.04731283
    7    0.00000000   -0.00000000    0.19380692   -0.00000000    0.00000000
    8    0.53027386    0.00000000   -0.00000000    0.19380692    0.00000000
    9    0.00000000    0.68425809    0.00000000    0.00000000    0.22957764
   10    0.00000000    0.00000000    0.68425809    0.00000000    0.00000000
   11    1.00000000    0.00000000    0.00000000    0.68425809    0.00000000
   12    0.00000000    1.00000000    0.00000000    0.00000000    0.62819727
   13    0.00000000    0.00000000    1.00000000    0.00000000    0.00000000
   14    0.68425809    0.00000000    0.00000000    1.00000000    0.00000000
   15    0.00000000    0.62819727    0.00000000    0.00000000    1.00000000
   16    0.00000000    0.00000000    0.62819727    0.00000000    0.00000000
   17    0.22957764    0.00000000    0.00000000    0.62819727    0.00000000
   18    0.00000000    0.32516210    0.00000000    0.00000000    0.82958295
   19    0.00000000    0.00000000    0.32516210    0.00000000    0.00000000
   20    0.09697824    0.00000000    0.00000000    0.32516210   -0.00000000
   21    0.00000000    0.00000000    0.00000000    0.00000000    0.00000000
   22    0.00000000    0.00000000    0.00000000    0.00000000    0.00000000
   23    0.00000000    0.00000000   -0.00000000    0.00000000    0.00000000
   24    0.00000000    0.00000000    0.00000000    0.00000000    0.00000000
   25    0.00000000    0.00000000   -0.00000000    0.00000000    0.00000000
   26    0.00000000    0.00000000    0.00000000    0.00000000    0.00000000
   27    0.00000000    0.00000000   -0.00000000    0.00000000    0.00000000
   28    0.00000000    0.00000000   -0.00000000   -0.00000000    0.00000000
   29    0.00000000   -0.00000000    0.00000000    0.00000000   -0.00000000
   30    0.00000000    0.00000000   -0.00000000    0.00000000    0.00000000
   31    0.00000000    0.00000000    0.00000000    0.00000000    0.00000000
   32    0.00000000    0.00000000    0.00000000    0.00000000    0.00000000
   33    0.00000000   -0.00000000    0.00000000    0.00000000    0.00000000
   34    0.00000000    0.00000000    0.00000000    0.00000000    0.00000000
   35    0.00000000    0.00000000    0.00000000    0.00000000    0.00000000
   36   -0.00005947   -0.00091353   -0.00086075   -0.00821968   -0.00170844
   37   -0.00031640   -0.00314887   -0.00296693   -0.02833256   -0.00576197
   38   -0.00648761   -0.01349562   -0.01271581   -0.12142928   -0.02233474
   39   -0.03939776   -0.02652744   -0.02499463   -0.23868546   -0.04003344
   40   -0.11734572   -0.04158778   -0.03918475   -0.37419355   -0.06172388
   41   -0.11461884   -0.03801264   -0.03581619   -0.34202559   -0.06998867
   42   -0.00086039    0.01484976   -0.00100025   -0.00955184    0.02660200
   43   -0.00081067   -0.00100025    0.01496889   -0.00899992   -0.00052372
   44   -0.00717203   -0.00955184   -0.00899992   -0.07003310   -0.00500126
   45   -0.01061072    0.07120945   -0.00388727   -0.03712134    0.11285795
   46   -0.00999761   -0.00388727    0.07167245   -0.03497639   -0.00207964
   47   -0.08467791   -0.03712134   -0.03497639   -0.25867087   -0.01985942
   48   -0.03456384    0.21935281   -0.00765142   -0.07306697    0.33390356
   49   -0.03256667   -0.00765142    0.22026415   -0.06884501   -0.00516737
   50   -0.23837373   -0.07306697   -0.06884501   -0.42995982   -0.04934561
   51   -0.01683823    0.30983463   -0.00469060   -0.04479273    0.64551218
   52   -0.01586528   -0.00469060    0.31039331   -0.04220452   -0.00632831
   53   -0.05020532   -0.04479273   -0.04220452   -0.08821785   -0.06043202
   54   -0.00012175    0.00105456    0.00112850   -0.00070012    0.00058212
   55   -0.00102174   -0.00070012    0.01015387   -0.00516711   -0.00011044
   56   -0.00515660   -0.00450891   -0.00424838   -0.02184014   -0.00096603
   57   -0.00108440    0.01007048   -0.00070012   -0.00548398    0.00555891
   58   -0.00000725    0.00119718   -0.00113674   -0.00004169    0.00063011
   59   -0.00233653    0.00850949    0.00909315   -0.00466914    0.00468004
   60   -0.01887028   -0.00466914    0.08181723   -0.03298301   -0.00083766
   61   -0.09081715   -0.03097487   -0.02918507   -0.12937046   -0.00748927
   62   -0.02002751    0.08126110   -0.00466914   -0.03500571    0.04469194
   63   -0.00013915    0.00955118   -0.00905753   -0.00027807    0.00506031
   64   -0.00901900    0.04447442    0.04737979   -0.01344302    0.03284704
   65   -0.05943827   -0.01344302    0.42630824   -0.07498757   -0.00464406
   66   -0.20278412   -0.10141998   -0.09555972   -0.15221846   -0.04574949
   67   -0.06308336    0.42470707   -0.01344302   -0.07958622    0.31367179
   68   -0.00053712    0.04869854   -0.04605231   -0.00080058    0.03537846
   69   -0.00005161    0.00037808    0.00001462   -0.00008047    0.00006231
   70   -0.00099548    0.00265663    0.00284178   -0.00136321    0.00045169
   71   -0.00516527   -0.00115576    0.01598311   -0.00590356   -0.00006932
   72   -0.01769534   -0.00633298   -0.00596704   -0.01516420   -0.00058007
   73   -0.00548203    0.01584545   -0.00115576   -0.00626560    0.00269493
   74   -0.00005928    0.00300651   -0.00285373   -0.00008118    0.00048880
   75    0.00004313    0.00003052   -0.00037998    0.00006725    0.00000411
   76   -0.00009732   -0.00293551   -0.01092094   -0.00992362   -0.00509190
   77   -0.00067769   -0.00996023   -0.03705487   -0.03367097   -0.01667870
   78   -0.02042516   -0.04307117   -0.16023685   -0.14560380   -0.06318133
   79   -0.07160989   -0.07156393   -0.26623793   -0.24192472   -0.10170895
   80   -0.08909445   -0.07624636   -0.28365790   -0.25775388   -0.12574794
   81   -0.05862914   -0.05413635   -0.20140245   -0.18301010   -0.11372770
   82   -0.00474456    0.03176598   -0.02715307   -0.02467341    0.05598117
   83   -0.01765109   -0.02715307   -0.06195241   -0.09179203   -0.01347981
   84   -0.01264510   -0.02467341   -0.09179203   -0.04434482   -0.01224881
   85   -0.03196092    0.13480563   -0.07968830   -0.07241105    0.20896446
   86   -0.11890362   -0.07968830   -0.14023726   -0.26938947   -0.04470231
   87   -0.06729892   -0.07241105   -0.26938947   -0.08856286   -0.04062004
   88   -0.03788840    0.28963420   -0.09211808   -0.08370573    0.48895201
   89   -0.14095551   -0.09211808   -0.02830991   -0.31140886   -0.07980181
   90   -0.01921651   -0.08370573   -0.31140886    0.03142467   -0.07251420
   91   -0.00703686    0.02379889   -0.01331302   -0.01930496    0.01366156
   92   -0.01924264   -0.01930496   -0.04500521   -0.03575167   -0.00302549
   93    0.00039292   -0.00813142   -0.03025115    0.01895578   -0.00281568
   94   -0.00517236    0.02162555   -0.01930496   -0.00960994    0.01241397
   95    0.01214381    0.01778711    0.00715403    0.03331538    0.00545724
   96   -0.06103932    0.14760525   -0.04482325   -0.08276223    0.08929363
   97   -0.13330066   -0.08276223   -0.15152680   -0.10769383   -0.01762543
   98    0.03867811   -0.04193328   -0.15600357    0.12908708   -0.01790943
   99   -0.03583080    0.13412574   -0.08276223   -0.02894777    0.08113921
  100    0.10533812    0.08850605   -0.01490703    0.14282627    0.03440096
  101   -0.05343360    0.35059797   -0.00202592   -0.09428685    0.33391698
  102   -0.01330050   -0.09428685   -0.00684870    0.05974855   -0.04769483
  103    0.14234125   -0.07608513   -0.28305808    0.33848658   -0.06278525
  104   -0.00357513    0.31858089   -0.09428685    0.01606022    0.30342323
  105    0.09221261    0.14986946   -0.19942156    0.16271480    0.11789608
  106    0.02031637    0.02294278   -0.00871033    0.01917017    0.00316348
  107   -0.02419532    0.03901098   -0.01941516   -0.01518402    0.00740038
  108   -0.01555768   -0.01696875   -0.04462507    0.01801609   -0.00142159
  109    0.02904443   -0.00341298   -0.01269723    0.03378633   -0.00128295
  110   -0.00418186    0.01394231   -0.01696875    0.00484267    0.00267425
  111    0.04175489    0.02776529    0.00794614    0.02620370    0.00293536
  112    0.02041299   -0.02410937    0.00392504    0.01926134   -0.00461150
  113    0.00006328    0.00394516    0.00429058    0.01071874    0.00818135
  114    0.00048471    0.01352119    0.01470506    0.03673618    0.02682101
  115    0.01921229    0.06145281    0.06683338    0.16696317    0.10211807
  116    0.07967637    0.10753004    0.11694495    0.29215192    0.16562781
  117    0.11078553    0.12092883    0.13151689    0.32855554    0.20731256
  118    0.07660988    0.08874780    0.09651821    0.24112183    0.18973111
  119   -0.00715525    0.01406928   -0.01919752   -0.04795926    0.04561083
  120   -0.00778174   -0.01919752    0.01084288   -0.05215838   -0.01097177
  121   -0.01729881   -0.04795926   -0.05215838   -0.09858082   -0.02740969
  122   -0.05909262    0.07930696   -0.05957239   -0.14882376    0.17428747
  123   -0.06426654   -0.05957239    0.06929503   -0.16185419   -0.03664660
  124   -0.12909084   -0.14882376   -0.16185419   -0.27026086   -0.09155055
  125   -0.08089302    0.22039427   -0.07349275   -0.18359962    0.42605467
  126   -0.08797570   -0.07349275    0.20804284   -0.19967489   -0.06632766
  127   -0.12271759   -0.18359962   -0.19967489   -0.21085755   -0.16569979
  128    0.00510374   -0.00508138   -0.00350931    0.01880094   -0.00560229
  129    0.01248972    0.01880094   -0.00953455    0.03907961    0.00341372
  130    0.01307154    0.02947911    0.03206019    0.02816307    0.00783686
  131    0.01148421   -0.01269430    0.01880094    0.03593342   -0.01399564
  132   -0.00042888   -0.01161659    0.01136888   -0.00157987   -0.00641215
  133    0.05599333   -0.04269090   -0.03397500    0.08534057   -0.03747317
  134    0.12414847    0.08534057   -0.09230780    0.15776310    0.02002757
  135    0.10626322    0.14422922    0.15685737    0.07122311    0.04842224
  136    0.11415363   -0.10665041    0.08534057    0.14506204   -0.09361550
  137   -0.00470521   -0.07077531    0.07123093   -0.00717131   -0.04185368
  138    0.05811409   -0.13729877   -0.11975341    0.10494765   -0.14758105
  139    0.08189339    0.10494765   -0.32536199    0.10920973    0.05508612
  140   -0.02516833    0.22238354    0.24185457   -0.15703246    0.15681533
  141    0.07530038   -0.34299984    0.10494765    0.10041756   -0.36868705
  142   -0.00488342   -0.16500862    0.17239591   -0.00881892   -0.15604629
  143   -0.00456369    0.01027097   -0.00322346   -0.00547374    0.00219728
  144   -0.02959778    0.01249762    0.00901145   -0.03006108    0.00422941
  145   -0.04003361   -0.02665423    0.01089014   -0.02932530   -0.00207221
  146   -0.01544302   -0.03380157   -0.03676110    0.00584444   -0.00457352
  147   -0.03681062    0.01536974   -0.02665423   -0.02696440    0.00563681
  148    0.00248715    0.02629992   -0.02590548    0.00252608    0.00481736
  149    0.00588455    0.00156539   -0.00946041    0.00705799   -0.00003238
  150   -0.00009544   -0.01082926   -0.00343544   -0.00979907   -0.01882957
  151   -0.00066547   -0.03674878   -0.01165807   -0.03325288   -0.06167763
  152   -0.02013124   -0.15901992   -0.05044698   -0.14389239   -0.23365973
  153   -0.07073944   -0.26440044   -0.08387757   -0.23924810   -0.37618223
  154   -0.08814348   -0.28190558   -0.08943085   -0.25508798   -0.46517048
  155   -0.05804215   -0.20024751   -0.06352590   -0.18119802   -0.42077209
  156   -0.01729201   -0.06076480   -0.03163483   -0.09023356    0.00995122
  157   -0.00548566   -0.03163483    0.02891936   -0.02862541   -0.01573458
  158   -0.01227398   -0.09023356   -0.02862541   -0.04269458   -0.04488052
  159   -0.11680608   -0.13697237   -0.09291118   -0.26501510    0.05630208
  160   -0.03705520   -0.09291118    0.12642912   -0.08407256   -0.05218474
  161   -0.06508995   -0.26501510   -0.08407256   -0.08390031   -0.14884907
  162   -0.13873788   -0.02483300   -0.10749771   -0.30662098    0.21636716
  163   -0.04401277   -0.10749771    0.27992106   -0.09727149   -0.09317660
  164   -0.01684136   -0.30662098   -0.09727149    0.03657108   -0.26577218
  165   -0.00808982   -0.01533730    0.02146361   -0.02228202    0.00072349
  166   -0.00589527   -0.02228202    0.01942178   -0.01087509   -0.00349900
  167    0.00074061   -0.02893370   -0.00917884    0.01970158   -0.01024346
  168   -0.01858318   -0.04374733   -0.02228202   -0.03428067    0.00206365
  169   -0.01146724   -0.00562964   -0.02036042   -0.03158456    0.00898853
  170   -0.07039552   -0.05144809    0.13733790   -0.09559881    0.00727632
  171   -0.04072854   -0.09559881    0.12427298   -0.03230342   -0.02038583
  172    0.04125994   -0.15026251   -0.04766881    0.13180776   -0.06525139
  173   -0.12838525   -0.14674790   -0.09559881   -0.10182744    0.02075460
  174   -0.09978501    0.02109696   -0.10170947   -0.13551044    0.06201825
  175   -0.06176562   -0.00115197    0.33794135   -0.10902324    0.04880547
  176   -0.00314799   -0.10902324    0.30579308    0.02068109   -0.05517668
  177    0.14353250   -0.27604696   -0.08757228    0.33976750   -0.22959121
  178   -0.00992317   -0.00328581   -0.10902324    0.06519130    0.13921022
  179   -0.08755219    0.20537732   -0.17351268   -0.15453944    0.25962478
  180   -0.02314395   -0.00408776    0.02084531   -0.02190898    0.00200200
  181   -0.02743906   -0.02215060    0.03512488   -0.01706585    0.00042969
  182   -0.00434991   -0.01926221    0.01169794    0.00607933   -0.00163148
  183    0.02917594   -0.01123126   -0.00356297    0.03345920   -0.00463222
  184   -0.01371186   -0.04291007   -0.01926221    0.01916337   -0.00219580
  185   -0.03889461   -0.00560551   -0.03151523   -0.02419068    0.00487727
  186   -0.01756541    0.01015011   -0.02595415   -0.01662811    0.00371248
  187    0.00003446    0.00752936    0.00775003    0.00577741    0.01555824
  188    0.00026343    0.02580006    0.02655622    0.01979682    0.05100389
  189    0.01038424    0.11714223    0.12057548    0.08988521    0.19417194
  190    0.04292003    0.20476230    0.21076354    0.15711756    0.31488477
  191    0.05954480    0.23002684    0.23676855    0.17650346    0.39403657
  192    0.04113514    0.16870107    0.17364542    0.12944717    0.36053387
  193   -0.00735478   -0.03206529   -0.06579287   -0.04904650    0.01934705
  194   -0.00757034   -0.06579287   -0.03586695   -0.05048398   -0.03749576
  195   -0.00348203   -0.04904650   -0.05048398   -0.00578001   -0.02795191
  196   -0.06049309   -0.06363289   -0.20393533   -0.15202734    0.08658182
  197   -0.06226604   -0.20393533   -0.07541672   -0.15648301   -0.12522084
  198   -0.01479362   -0.15202734   -0.15648301    0.01784248   -0.09334818
  199   -0.08257114    0.04437228   -0.25126068   -0.18730689    0.26737468
  200   -0.08499117   -0.25126068    0.02985389   -0.19279655   -0.22657788
  201    0.03392912   -0.18730689   -0.19279655    0.14475488   -0.16890665
  202    0.00943760    0.02337812    0.02531501    0.03456062   -0.00418973
  203    0.00474170    0.03456062    0.01942463    0.00485619    0.00625671
  204   -0.00448623    0.00101043    0.00104005   -0.02719540    0.00490692
  205    0.00460669    0.01742765    0.03456062    0.00471791   -0.00312331
  206   -0.00027266   -0.02234722    0.02032334   -0.00099849   -0.01222785
  207    0.10305289    0.07061097    0.08040030    0.15669643   -0.03286460
  208    0.02850558    0.15669643    0.06169251   -0.01336669    0.03670159
  209   -0.06901830    0.02442877    0.02514474   -0.15376148    0.03343251
  210    0.02769392    0.05263824    0.15669643   -0.01298609   -0.02449952
  211   -0.00297731   -0.13569827    0.12752963   -0.00452713   -0.07977985
  212    0.10659090   -0.06595550   -0.04958882    0.19240193   -0.17043337
  213   -0.05508747    0.19240193   -0.03805034   -0.16906866    0.10091517
  214   -0.14418654    0.11562173    0.11901041   -0.32020354    0.13683772
  215   -0.05351892   -0.04916774    0.19240193   -0.16425463   -0.12705269
  216   -0.00307953   -0.31492852    0.30924524   -0.00555870   -0.29715231
  217   -0.01708903    0.01551587   -0.02857928   -0.02039823    0.00627854
  218   -0.01991996   -0.02512070   -0.02738100   -0.00513998    0.00175504
  219    0.01077956   -0.01400710   -0.01285664    0.03095617   -0.00224644
  220    0.01638867    0.01245113    0.01281605    0.01337758   -0.00172424
  221    0.01047262   -0.01204728   -0.01400710    0.03007472   -0.00188804
  222    0.00057551    0.02711273   -0.02484456    0.00014850    0.00492634
  223    0.01863786    0.02777690   -0.01225677    0.02224697    0.00158344
  224   -0.00000217   -0.00104670   -0.00447873   -0.00412480   -0.01682904
  225   -0.00098436   -0.00674147   -0.02884605   -0.02656654   -0.04395048
  226   -0.02278041   -0.02574001   -0.11013888   -0.10143531   -0.07950318
  227   -0.00001197    0.00140886   -0.00284021   -0.00261576    0.02343797
  228   -0.00005122   -0.00284021   -0.01008033   -0.01119258   -0.01182509
  229   -0.00004288   -0.00261576   -0.01119258   -0.00823548   -0.01089063
  230   -0.01360068    0.07401963   -0.04862966   -0.04478677    0.23851537
  231   -0.05819594   -0.04862966   -0.12269677   -0.19163806   -0.07929048
  232   -0.03356805   -0.04478677   -0.19163806   -0.09110952   -0.07302466
  233   -0.00000212   -0.00443992   -0.00125319   -0.00406629   -0.07163246
  234   -0.00096901   -0.02863466   -0.00808226   -0.02622497   -0.18710509
  235   -0.02250982   -0.10951063   -0.03090988   -0.10029498   -0.33857227
  236   -0.00005004   -0.00994458   -0.00338917   -0.01099702   -0.02398977
  237   -0.00001412   -0.00338917    0.00110629   -0.00310396   -0.01415528
  238   -0.00004158   -0.01099702   -0.00310396   -0.00800869   -0.04593041
  239   -0.05730353   -0.12093905   -0.05818872   -0.18880812   -0.07966564
  240   -0.01617419   -0.05818872    0.06879375   -0.05329197   -0.09496159
  241   -0.03250288   -0.18880812   -0.05329197   -0.08770157   -0.30812705
            16            17            18            19            20
    1   -0.00000000    0.00000000   -0.00000000   -0.00000000    0.00000000
    2   -0.00000000    0.00000000   -0.00000000   -0.00000000    0.00000000
    3    0.00000000    0.00000000    0.00000000   -0.00000000    0.00000000
    4    0.00000000    0.00000000    0.00000000    0.00000000    0.00000000
    5    0.00000000    0.00000000    0.00000000    0.00000000    0.00000000
    6    0.00000000    0.00000000    0.01845057    0.00000000    0.00000000
    7    0.04731283    0.00000000    0.00000000    0.01845057   -0.00000000
    8    0.00000000    0.04731283    0.00000000   -0.00000000    0.01845057
    9    0.00000000    0.00000000    0.09697824    0.00000000    0.00000000
   10    0.22957764    0.00000000    0.00000000    0.09697824    0.00000000
   11    0.00000000    0.22957764    0.00000000    0.00000000    0.09697824
   12    0.00000000    0.00000000    0.32516210    0.00000000    0.00000000
   13    0.62819727    0.00000000    0.00000000    0.32516210    0.00000000
   14    0.00000000    0.62819727    0.00000000    0.00000000    0.32516210
   15    0.00000000    0.00000000    0.82958295    0.00000000   -0.00000000
   16    1.00000000    0.00000000    0.00000000    0.82958295   -0.00000000
   17    0.00000000    1.00000000   -0.00000000   -0.00000000    0.82958295
   18    0.00000000   -0.00000000    1.00000000    0.00000000    0.00000000
   19    0.82958295   -0.00000000    0.00000000    1.00000000    0.00000000
   20   -0.00000000    0.82958295    0.00000000    0.00000000    1.00000000
   21    0.00000000    0.00000000    0.00000000    0.00000000    0.00000000
   22    0.00000000    0.00000000    0.00000000    0.00000000    0.00000000
   23   -0.00000000    0.00000000   -0.00000000   -0.00000000    0.00000000
   24    0.00000000    0.00000000    0.00000000    0.00000000    0.00000000
   25   -0.00000000    0.00000000    0.00000000   -0.00000000    0.00000000
   26    0.00000000    0.00000000    0.00000000    0.00000000    0.00000000
   27   -0.00000000    0.00000000    0.00000000    0.00000000    0.00000000
   28    0.00000000   -0.00000000    0.00000000    0.00000000    0.00000000
   29    0.00000000    0.00000000    0.00000000    0.00000000    0.00000000
   30    0.00000000    0.00000000    0.00000000    0.00000000    0.00000000
   31    0.00000000    0.00000000    0.00000000    0.00000000    0.00000000
   32    0.00000000    0.00000000    0.00000000   -0.00000000    0.00000000
   33    0.00000000    0.00000000   -0.00000000    0.00000000   -0.00000000
   34    0.00000000    0.00000000   -0.00000000    0.00000000    0.00000000
   35    0.00000000    0.00000000    0.00000000    0.00000000    0.00000000
   36   -0.00160972   -0.01537195   -0.00103374   -0.00097401   -0.00930125
   37   -0.00542903   -0.05184433   -0.00350116   -0.00329885   -0.03150231
   38   -0.02104420   -0.20096090   -0.01391361   -0.01310965   -0.12519019
   39   -0.03772022   -0.36020810   -0.02606280   -0.02455684   -0.23450475
   40   -0.05815735   -0.55537179   -0.04448063   -0.04191044   -0.40022249
   41   -0.06594458   -0.62973574   -0.06279836   -0.05916974   -0.56503963
   42   -0.00052372   -0.00500126    0.01661124   -0.00015039   -0.00143612
   43    0.02666438   -0.00471228   -0.00015039    0.01662916   -0.00135314
   44   -0.00471228   -0.01784192   -0.00143612   -0.00135314    0.00384910
   45   -0.00207964   -0.01985942    0.07357185   -0.00064578   -0.00616687
   46    0.11310565   -0.01871190   -0.00064578    0.07364876   -0.00581054
   47   -0.01871190   -0.06362363   -0.00616687   -0.00581054    0.01876969
   48   -0.00516737   -0.04934561    0.24475769   -0.00196946   -0.01880731
   49    0.33451903   -0.04649432   -0.00196946    0.24499227   -0.01772059
   50   -0.04649432   -0.10460823   -0.01880731   -0.01772059    0.07762574
   51   -0.00632831   -0.06043202    0.64361952   -0.00398125   -0.03801885
   52    0.64626594   -0.05694013   -0.00398125    0.64409371   -0.03582204
   53   -0.05694013    0.10848059   -0.03801885   -0.03582204    0.30576345
   54    0.00061928   -0.00011044    0.00016724    0.00017768   -0.00001452
   55    0.00557206   -0.00039933   -0.00001452    0.00159874    0.00003821
   56   -0.00091021    0.00113933   -0.00018258   -0.00017203    0.00114999
   57   -0.00011044   -0.00042382    0.00159701   -0.00001452    0.00004055
   58   -0.00059508   -0.00000658    0.00017911   -0.00016894   -0.00000086
   59    0.00497814   -0.00083766    0.00143917    0.00152904   -0.00012161
   60    0.04479171   -0.00276385   -0.00012161    0.01375780    0.00035848
   61   -0.00705653    0.01156248   -0.00155281   -0.00146308    0.01005603
   62   -0.00083766   -0.00293335    0.01374332   -0.00012161    0.00038047
   63   -0.00477837   -0.00004989    0.00154097   -0.00145345   -0.00000724
   64    0.03492288   -0.00464406    0.01327335    0.01410053   -0.00099648
   65    0.31422494   -0.00842258   -0.00099648    0.12687210    0.00441810
   66   -0.04310599    0.14019322   -0.01363111   -0.01284348    0.09872674
   67   -0.00464406   -0.00893910    0.12675341   -0.00099648    0.00468904
   68   -0.03339214   -0.00027657    0.01419829   -0.01339031   -0.00005934
   69    0.00000331   -0.00000405    0.00000843    0.00000048   -0.00000025
   70    0.00048051   -0.00003324    0.00006152    0.00006537    0.00000160
   71    0.00270319    0.00010528   -0.00000552    0.00036775    0.00004855
   72   -0.00054655    0.00156215   -0.00006369   -0.00006001    0.00034048
   73   -0.00006932    0.00011173    0.00036709   -0.00000552    0.00005152
   74   -0.00046161   -0.00000198    0.00006589   -0.00006215    0.00000010
   75   -0.00006241    0.00000338    0.00000053   -0.00000843    0.00000021
   76   -0.01894330   -0.01721337   -0.00303742   -0.01130007   -0.01026813
   77   -0.06204945   -0.05638301   -0.01003126   -0.03731911   -0.03391108
   78   -0.23505229   -0.21358700   -0.04002033   -0.14888688   -0.13529033
   79   -0.37838589   -0.34383118   -0.07023461   -0.26129249   -0.23743091
   80   -0.46781770   -0.42509596   -0.10299052   -0.38315367   -0.34816356
   81   -0.42309902   -0.38446105   -0.11447563   -0.42588153   -0.38698945
   82   -0.01347981   -0.01224881    0.03591382   -0.00394479   -0.00358454
   83    0.00945583   -0.04556902   -0.00394479    0.02229845   -0.01333551
   84   -0.04556902    0.01819690   -0.00358454   -0.01333551    0.02485647
   85   -0.04470231   -0.04062004    0.14429709   -0.01499226   -0.01362314
   86    0.05467514   -0.15111795   -0.01499226    0.09255155   -0.05068192
   87   -0.15111795    0.08366265   -0.01362314   -0.05068192    0.10227338
   88   -0.07980181   -0.07251420    0.40246513   -0.03633250   -0.03301457
   89    0.21351731   -0.26977322   -0.03633250    0.27706407   -0.12282348
   90   -0.26977322    0.26526532   -0.03301457   -0.12282348    0.30062412
   91    0.00058320   -0.00302549    0.00407977    0.00067855   -0.00040948
   92    0.00197153    0.00432874   -0.00040948    0.00229387    0.00281662
   93   -0.01047511    0.01339170   -0.00072728   -0.00270567    0.00415311
   94   -0.00302549    0.00116355    0.00370720   -0.00040948    0.00075710
   95   -0.00881059    0.00522122    0.00133823   -0.00342321    0.00070666
   96    0.00600654   -0.01762543    0.03029038    0.00520051   -0.00288099
   97    0.02030533    0.03492396   -0.00288099    0.01758052    0.02140330
   98   -0.06662811    0.08819957   -0.00536308   -0.01995217    0.03088455
   99   -0.01762543    0.00938745    0.02752423   -0.00288099    0.00575314
[...]
    5. CR ( 5)Mg  1             1.99998    -1.60218
 ------ non-Lewis ----------------------------------
   25. LV ( 1)Mg  1             0.36271     0.39198
   34. RY ( 1)Mg  1             0.04193     0.66478
   35. RY ( 2)Mg  1             0.01778     1.07402
   36. RY ( 3)Mg  1             0.00963     0.88453
   37. RY ( 4)Mg  1             0.00367     1.29405
   38. RY ( 5)Mg  1             0.00346     1.31760
   39. RY ( 6)Mg  1             0.00186     1.75371
   40. RY ( 7)Mg  1             0.00087     1.09391
   41. RY ( 8)Mg  1             0.00038     1.41180
   42. RY ( 9)Mg  1             0.00022     1.24052
   43. RY (10)Mg  1             0.00016     2.07849
   44. RY (11)Mg  1             0.00015     1.20373
   45. RY (12)Mg  1             0.00012     0.80194
   46. RY (13)Mg  1             0.00006     1.09346
   47. RY (14)Mg  1             0.00000     2.11254
   48. RY (15)Mg  1             0.00000     3.15228
   49. RY (16)Mg  1             0.00000     5.70340
   50. RY (17)Mg  1             0.00000     4.95563
   51. RY (18)Mg  1             0.00000     5.04223
   52. RY (19)Mg  1             0.00000     1.53346
   53. RY (20)Mg  1             0.00000     3.16535
   54. RY (21)Mg  1             0.00000     3.37849
   55. RY (22)Mg  1             0.00000     5.16134
   56. RY (23)Mg  1             0.00000     5.03304
   57. RY (24)Mg  1             0.00000     1.36867
   58. RY (25)Mg  1             0.00000     0.94303
   59. RY (26)Mg  1             0.00000     3.95568
   60. RY (27)Mg  1             0.00000     4.00032
   61. RY (28)Mg  1             0.00000     1.69239
   62. RY (29)Mg  1             0.00000     1.10909
          -------------------------------
                 Total Lewis    9.99994  ( 95.7576%)
           Valence non-Lewis    0.36271  (  3.4733%)
           Rydberg non-Lewis    0.08032  (  0.7691%)
          -------------------------------
               Total unit  1   10.44296  (100.0000%)
              Charge unit  1    1.55704

 Molecular unit  2  (C2H2O)
 ------ Lewis --------------------------------------
    6. CR ( 1) O  2             2.00000   -19.02252
    7. CR ( 1) C  3             1.99999   -10.02887
    9. CR ( 1) C  5             1.99999   -10.02874
   11. LP ( 1) O  2             1.98346    -0.42201  25(r),164(v),100(v),98(v)
                                                     162(v),36(r),40(r),61(r)
   12. LP ( 2) O  2             1.95806    -0.10501  29(v),33(v),25(r),99(v)
                                                     163(v),36(r),39(r),98(v)
                                                     162(v),35(r),69(g),44(r)
                                                     32(r),40(r),195(r),61(r)
                                                     57(r),54(r)
   13. LP ( 1) C  3             1.88228    -0.02471  25(r),34(r),33(v),162(v)
                                                     104(g),63(v),46(r),27(v)
                                                     35(r),54(r),38(r),36(r)
                                                     37(r),226(v),48(r),40(r)
                                                     195(r),100(g),61(r),60(r)
                                                     42(r),62(r),43(r),47(r)
                                                     45(r),39(r),132(r),50(r)
                                                     44(r),153(r),55(r),49(r)
                                                     216(r),211(r),150(r),197(r)
                                                     56(r),135(r),202(r),131(r)
                                                     194(r),58(r)
   15. LP ( 1) C  5             1.88301    -0.02462  25(r),34(r),29(v),98(v)
                                                     168(g),63(v),38(r),46(r)
                                                     26(v),35(r),54(r),234(v)
                                                     48(r),36(r),61(r),195(r)
                                                     40(r),164(g),60(r),62(r)
                                                     53(r),42(r),45(r),43(r)
                                                     52(r),44(r),132(r),47(r)
                                                     153(r),39(r),216(r),55(r)
                                                     211(r),49(r),56(r),197(r)
                                                     150(r),202(r),135(r),32(r)
   17. BD ( 1) O  2- C  3       1.98076    -0.36488  27(g),28(g),162(v),25(r)
                                                     165(v),33(v),36(r),37(r)
                                                     40(r),132(r),34(r),195(r)
                                                     46(r)
   18. BD ( 1) O  2- C  5       1.98074    -0.36461  26(g),28(g),98(v),25(r)
                                                     101(v),29(v),36(r),40(r)
                                                     132(r),38(r),34(r),37(r)
                                                     195(r),46(r)
   19. BD ( 1) C  3- C  5       1.98860    -0.26158  64(v),25(r),66(v),26(g)
                                                     27(g),41(r),195(r),39(r)
                                                     132(r),48(r),35(r),37(r)
                                                     60(r),36(r),194(r),46(r)
                                                     40(r),43(r),54(r)
   20. BD ( 1) C  3- H  7       1.99206    -0.26644  166(v),33(v),25(r),27(v)
                                                     68(v),34(r),38(r),43(r)
   24. BD ( 1) C  5- H  8       1.99203    -0.26625  102(v),29(v),25(r),26(v)
                                                     68(v),34(r),38(r),43(r)
 ------ non-Lewis ----------------------------------
   26. BD*( 1) O  2- C  3       0.01883     0.61828
   27. BD*( 1) O  2- C  5       0.01882     0.61819
   28. BD*( 1) C  3- C  5       0.00573     0.72416
   29. BD*( 1) C  3- H  7       0.02362     0.79449
   33. BD*( 1) C  5- H  8       0.02356     0.79443
   63. RY ( 1) O  2             0.00577     1.16704
   64. RY ( 2) O  2             0.00256     1.18484
   65. RY ( 3) O  2             0.00186     1.05607
   66. RY ( 4) O  2             0.00115     1.69183
   67. RY ( 5) O  2             0.00037     2.40774
   68. RY ( 6) O  2             0.00034     2.82209
   69. RY ( 7) O  2             0.00004     1.94677
   70. RY ( 8) O  2             0.00002     1.34334
   71. RY ( 9) O  2             0.00002     1.68501
   72. RY (10) O  2             0.00000     2.91729
   73. RY (11) O  2             0.00000     9.06337
   74. RY (12) O  2             0.00000     6.09738
   75. RY (13) O  2             0.00000    18.13664
   76. RY (14) O  2             0.00000     4.93304
   77. RY (15) O  2             0.00000     5.80525
   78. RY (16) O  2             0.00000     4.37317
   79. RY (17) O  2             0.00000     6.80597
   80. RY (18) O  2             0.00000     4.26122
   81. RY (19) O  2             0.00000     8.68404
   82. RY (20) O  2             0.00000     3.31881
   83. RY (21) O  2             0.00000     2.54308
   84. RY (22) O  2             0.00000     2.87737
   85. RY (23) O  2             0.00000     2.90977
   86. RY (24) O  2             0.00000     1.95268
   87. RY (25) O  2             0.00000     2.29226
   88. RY (26) O  2             0.00000     3.33785
   89. RY (27) O  2             0.00000     5.41019
   90. RY (28) O  2             0.00000     4.81524
   91. RY (29) O  2             0.00000     5.21654
   92. RY (30) O  2             0.00000     6.78964
   93. RY (31) O  2             0.00000     4.31357
   94. RY (32) O  2             0.00000     5.92599
   95. RY (33) O  2             0.00000     8.96616
   96. RY (34) O  2             0.00000     5.91190
   97. RY (35) O  2             0.00000    10.97569
   98. RY ( 1) C  3             0.00855     1.24888
   99. RY ( 2) C  3             0.00355     1.77181
  100. RY ( 3) C  3             0.00299     1.82642
  101. RY ( 4) C  3             0.00088     1.73059
  102. RY ( 5) C  3             0.00069     2.88564
  103. RY ( 6) C  3             0.00040     2.36257
  104. RY ( 7) C  3             0.00014     1.36963
  105. RY ( 8) C  3             0.00008     2.46146
  106. RY ( 9) C  3             0.00002     1.89474
  107. RY (10) C  3             0.00001     3.55950
  108. RY (11) C  3             0.00000     2.30964
  109. RY (12) C  3             0.00000     2.68633
  110. RY (13) C  3             0.00000     2.56377
  111. RY (14) C  3             0.00000     5.03559
  112. RY (15) C  3             0.00000     3.38543
  113. RY (16) C  3             0.00000     2.32350
  114. RY (17) C  3             0.00000     2.72420
  115. RY (18) C  3             0.00000     3.64034
  116. RY (19) C  3             0.00000     2.56318
  117. RY (20) C  3             0.00000     2.05583
  118. RY (21) C  3             0.00000     3.93656
  119. RY (22) C  3             0.00000     3.35473
  120. RY (23) C  3             0.00000     2.68753
  121. RY (24) C  3             0.00000     9.45222
  122. RY (25) C  3             0.00000     2.89818
  123. RY (26) C  3             0.00000     3.46246
  124. RY (27) C  3             0.00000     2.80675
  125. RY (28) C  3             0.00000     2.51899
  126. RY (29) C  3             0.00000     3.15580
  127. RY (30) C  3             0.00000     3.54741
  128. RY (31) C  3             0.00000     2.77694
  129. RY (32) C  3             0.00000     2.78421
  162. RY ( 1) C  5             0.00854     1.24848
  163. RY ( 2) C  5             0.00354     1.77969
  164. RY ( 3) C  5             0.00299     1.82250
  165. RY ( 4) C  5             0.00088     1.72984
  166. RY ( 5) C  5             0.00069     2.88405
  167. RY ( 6) C  5             0.00040     2.37707
  168. RY ( 7) C  5             0.00014     1.35020
  169. RY ( 8) C  5             0.00008     2.47145
  170. RY ( 9) C  5             0.00002     1.92156
  171. RY (10) C  5             0.00001     3.51551
  172. RY (11) C  5             0.00000     2.30364
  173. RY (12) C  5             0.00000     2.17541
  174. RY (13) C  5             0.00000     5.00224
  175. RY (14) C  5             0.00000     2.25491
  176. RY (15) C  5             0.00000     3.39373
  177. RY (16) C  5             0.00000     2.40520
  178. RY (17) C  5             0.00000     2.70395
  179. RY (18) C  5             0.00000     3.64881
  180. RY (19) C  5             0.00000     2.53278
  181. RY (20) C  5             0.00000     2.06273
  182. RY (21) C  5             0.00000     3.95527
  183. RY (22) C  5             0.00000     3.25959
  184. RY (23) C  5             0.00000     2.68748
  185. RY (24) C  5             0.00000     9.01203
  186. RY (25) C  5             0.00000     4.45816
  187. RY (26) C  5             0.00000     3.17825
  188. RY (27) C  5             0.00000     2.82623
  189. RY (28) C  5             0.00000     2.01683
  190. RY (29) C  5             0.00000     3.11932
  191. RY (30) C  5             0.00000     3.51339
  192. RY (31) C  5             0.00000     3.19610
  193. RY (32) C  5             0.00000     2.98298
  226. RY ( 1) H  7             0.00388     0.84967
  227. RY ( 2) H  7             0.00215     1.07784
  228. RY ( 3) H  7             0.00060     1.47730
  229. RY ( 4) H  7             0.00035     1.36484
  230. RY ( 5) H  7             0.00005     2.26501
  231. RY ( 6) H  7             0.00002     2.21516
  232. RY ( 7) H  7             0.00001     2.48307
  233. RY ( 8) H  7             0.00000     3.03089
  234. RY ( 1) H  8             0.00389     0.84943
  235. RY ( 2) H  8             0.00215     1.07782
  236. RY ( 3) H  8             0.00060     1.47594
  237. RY ( 4) H  8             0.00035     1.36729
  238. RY ( 5) H  8             0.00005     2.26455
  239. RY ( 6) H  8             0.00002     2.21772
  240. RY ( 7) H  8             0.00001     2.48632
  241. RY ( 8) H  8             0.00000     3.02588
          -------------------------------
                 Total Lewis   23.64098  ( 99.3635%)
           Valence non-Lewis    0.09056  (  0.3806%)
           Rydberg non-Lewis    0.06088  (  0.2559%)
          -------------------------------
               Total unit  2   23.79242  (100.0000%)
              Charge unit  2   -1.79242

 Molecular unit  3  (C2)
 ------ Lewis --------------------------------------
    8. CR ( 1) C  4             2.00000    -9.95170
   10. CR ( 1) C  6             2.00000    -9.95133
   14. LP ( 1) C  4             1.89106    -0.02094  25(r),194(v),135(g),130(g)
                                                     149(g),132(g),39(r),136(g)
                                                     157(g),199(v),150(g),134(g)
                                                     212(v),61(r),37(r),219(v)
                                                     30(g),205(v),46(r),208(v)
                                                     207(v),133(g),35(r),156(g)
                                                     40(r),60(r),54(r),66(r)
                                                     48(r),55(r),41(r),169(r)
                                                     105(r),63(r),56(r),43(r)
                                                     164(r),52(r),100(r),57(r)
                                                     67(r),36(r),168(r),104(r)
                                                     59(r),183(r),162(r),83(r)
                                                     165(r),98(r),38(r),119(r)
                                                     101(r),234(r),226(r),172(r)
                                                     108(r),69(r)
   16. LP ( 1) C  6             1.89237    -0.02053  25(r),130(v),194(g),36(r)
                                                     195(g),219(g),135(v),208(g)
                                                     207(g),150(v),149(v),199(g)
                                                     157(v),198(g),35(r),212(g)
                                                     48(r),39(r),134(v),54(r)
                                                     30(g),205(g),154(v),47(r)
                                                     41(r),60(r),44(r),40(r)
                                                     104(r),105(r),168(r),169(r)
                                                     64(r),46(r),100(r),164(r)
                                                     52(r),63(r),98(r),101(r)
                                                     162(r),165(r),172(r),49(r)
                                                     108(r),70(r),87(r),69(r)
                                                     50(r),86(r),55(r),83(r)
                                                     53(r),119(r),61(r),183(r)
                                                     67(r),37(r),110(r)
   21. BD ( 1) C  4- C  6       1.99444    -0.42723  35(r),25(r),36(r),57(r)
                                                     44(r),100(r),164(r),37(r)
                                                     60(r)
   22. BD ( 2) C  4- C  6       1.99135    -0.00153  34(r),38(r),58(r),37(r)
   23. BD ( 3) C  4- C  6       1.95138    -0.02799  25(r),37(r),36(r),46(r)
                                                     48(r),54(r),43(r),61(r)
                                                     38(r),35(r),60(r),52(r)
                                                     55(r)
 ------ non-Lewis ----------------------------------
   30. BD*( 1) C  4- C  6       0.00010     1.25349
   31. BD*( 2) C  4- C  6       0.00013     0.55705
   32. BD*( 3) C  4- C  6       0.00654     0.57890
  130. RY ( 1) C  4             0.01540     1.60408
  131. RY ( 2) C  4             0.00171     0.87561
  132. RY ( 3) C  4             0.00052     1.41059
  133. RY ( 4) C  4             0.00020     0.97762
  134. RY ( 5) C  4             0.00006     1.75078
  135. RY ( 6) C  4             0.00001     6.85695
  136. RY ( 7) C  4             0.00001     1.49528
  137. RY ( 8) C  4             0.00000     3.26994
  138. RY ( 9) C  4             0.00000     3.24468
  139. RY (10) C  4             0.00000     2.86353
  140. RY (11) C  4             0.00000     2.35438
  141. RY (12) C  4             0.00000     2.92965
  142. RY (13) C  4             0.00000     3.78665
  143. RY (14) C  4             0.00000     4.08785
  144. RY (15) C  4             0.00000     2.37318
  145. RY (16) C  4             0.00000     3.26414
  146. RY (17) C  4             0.00000     3.10189
  147. RY (18) C  4             0.00000     3.80267
  148. RY (19) C  4             0.00000     1.61424
  149. RY (20) C  4             0.00000     5.64827
  150. RY (21) C  4             0.00000     3.86908
  151. RY (22) C  4             0.00000     1.72830
  152. RY (23) C  4             0.00000     1.85964
  153. RY (24) C  4             0.00000     1.87853
  154. RY (25) C  4             0.00000     2.11305
  155. RY (26) C  4             0.00000     1.37514
  156. RY (27) C  4             0.00000     2.74207
  157. RY (28) C  4             0.00000     5.15175
  158. RY (29) C  4             0.00000     2.86275
  159. RY (30) C  4             0.00000     3.74906
  160. RY (31) C  4             0.00000     3.10210
  161. RY (32) C  4             0.00000     2.84374
  194. RY ( 1) C  6             0.01499     1.42571
  195. RY ( 2) C  6             0.00329     1.29437
  196. RY ( 3) C  6             0.00090     0.85839
  197. RY ( 4) C  6             0.00007     1.29395
  198. RY ( 5) C  6             0.00005     1.63023
  199. RY ( 6) C  6             0.00003     2.00508
  200. RY ( 7) C  6             0.00002     0.74008
  201. RY ( 8) C  6             0.00001     1.24840
  202. RY ( 9) C  6             0.00000     2.12440
  203. RY (10) C  6             0.00000     3.07165
  204. RY (11) C  6             0.00000     2.99279
  205. RY (12) C  6             0.00000     3.47837
  206. RY (13) C  6             0.00000     4.81689
  207. RY (14) C  6             0.00000     6.25922
  208. RY (15) C  6             0.00000     7.83681
  209. RY (16) C  6             0.00000     3.25826
  210. RY (17) C  6             0.00000     3.41332
  211. RY (18) C  6             0.00000     4.77837
  212. RY (19) C  6             0.00000     3.06602
  213. RY (20) C  6             0.00000     1.84336
  214. RY (21) C  6             0.00000     2.87361
  215. RY (22) C  6             0.00000     2.94421
  216. RY (23) C  6             0.00000     2.38494
  217. RY (24) C  6             0.00000     1.21020
  218. RY (25) C  6             0.00000     1.89603
  219. RY (26) C  6             0.00000     4.83930
  220. RY (27) C  6             0.00000     3.09420
  221. RY (28) C  6             0.00000     2.97247
  222. RY (29) C  6             0.00000     3.54914
  223. RY (30) C  6             0.00000     3.43374
  224. RY (31) C  6             0.00000     2.79796
  225. RY (32) C  6             0.00000     2.02601
          -------------------------------
                 Total Lewis   13.72060  ( 99.6802%)
           Valence non-Lewis    0.00676  (  0.0491%)
           Rydberg non-Lewis    0.03726  (  0.2707%)
          -------------------------------
               Total unit  3   13.76462  (100.0000%)
              Charge unit  3   -1.76462

 $CHOOSE
   LONE 2 2 3 1 4 1 5 1 6 1 END
   BOND S 2 3 S 2 5 S 3 5 S 3 7 T 4 6 S 5 8 END
 $END

 NBO analysis completed in 0.88 CPU seconds (21 wall seconds)
 Maximum scratch memory used by NBO was 980067 words (7.48 MB)
 Total job time:  31.94s(wall), 267.64s(cpu) 
 Fri Oct 29 07:36:07 2021

        *************************************************************
        *                                                           *
        *  Thank you very much for using Q-Chem.  Have a nice day.  *
        *                                                           *
        *************************************************************


