
Running Job 1 of 1 pod1.inp
qchem pod1.inp_1004474.0 /dev/shm/qchem1004474/ 0
/nopt/nrel/apps/q-chem/5.4/exe/qcprog.exe_s pod1.inp_1004474.0 /dev/shm/qchem1004474/
                  Welcome to Q-Chem
     A Quantum Leap Into The Future Of Chemistry


 Q-Chem 5.4, Q-Chem, Inc., Pleasanton, CA (2021)

 License issued to: National Renewable Energy Laboratory (site)

 E. Epifanovsky,  A. T. B. Gilbert,  Xintian Feng,  Joonho Lee,  Yuezhi Mao,  
 N. Mardirossian,  P. Pokhilko,  A. White,  M. Wormit,  M. P. Coons,  
 A. L. Dempwolff,  Zhengting Gan,  D. Hait,  P. R. Horn,  L. D. Jacobson,  
 I. Kaliman,  J. Kussmann,  A. W. Lange,  Ka Un Lao,  D. S. Levine,  Jie Liu,  
 S. C. McKenzie,  A. F. Morrison,  K. Nanda,  F. Plasser,  D. R. Rehn,  
 M. L. Vidal,  Zhi-Qiang You,  Ying Zhu,  B. Alam,  B. Albrecht,  
 A. Aldossary,  E. Alguire,  J. H. Andersen,  D. Barton,  K. Begam,  A. Behn,  
 Y. A. Bernard,  E. J. Berquist,  H. Burton,  A. Carreras,  K. Carter-Fenk,  
 Romit Chakraborty,  A. D. Chien,  K. D. Closser,  V. Cofer-Shabica,  
 S. Dasgupta,  Jia Deng,  M. de Wergifosse,  M. Diedenhofen,  Hainam Do,  
 S. Ehlert,  Po-Tung Fang,  S. Fatehi,  Qingguo Feng,  T. Friedhoff,  
 J. Gayvert,  Qinghui Ge,  G. Gidofalvi,  M. Goldey,  J. Gomes,  
 C. Gonzalez-Espinoza,  S. Gulania,  A. Gunina,  M. W. D. Hanson-Heine,  
 P. H. P. Harbach,  A. W. Hauser,  M. F. Herbst,  M. Hernandez Vera,  
 M. Hodecker,  Z. C. Holden,  S. Houck,  Xunkun Huang,  Kerwin Hui,  
 B. C. Huynh,  M. Ivanov,  Hyunjun Ji,  Hanjie Jiang,  B. Kaduk,  S. Kaehler,  
 K. Khistyaev,  Jaehoon Kim,  P. Klunzinger,  Z. Koczor-Benda,  
 Joong Hoon Koh,  D. Kosenkov,  L. Koulias,  T. Kowalczyk,  C. M. Krauter,  
 K. Kue,  A. Kunitsa,  T. Kus,  A. Landau,  K. V. Lawler,  D. Lefrancois,  
 S. Lehtola,  Rain Li,  Yi-Pei Li,  Jiashu Liang,  M. Liebenthal,  
 Hung-Hsuan Lin,  You-Sheng Lin,  Fenglai Liu,  Kuan-Yu Liu,  
 M. Loipersberger,  A. Luenser,  A. Manjanath,  P. Manohar,  E. Mansoor,  
 S. F. Manzer,  Shan-Ping Mao,  A. V. Marenich,  T. Markovich,  S. Mason,  
 S. A. Maurer,  P. F. McLaughlin,  M. F. S. J. Menger,  J.-M. Mewes,  
 S. A. Mewes,  P. Morgante,  J. W. Mullinax,  K. J. Oosterbaan,  G. Paran,  
 Alexander C. Paul,  Suranjan K. Paul,  F. Pavosevic,  Zheng Pei,  S. Prager,  
 E. I. Proynov,  E. Ramos,  B. Rana,  A. E. Rask,  A. Rettig,  R. M. Richard,  
 F. Rob,  E. Rossomme,  T. Scheele,  M. Scheurer,  M. Schneider,  
 N. Sergueev,  S. M. Sharada,  W. Skomorowski,  D. W. Small,  C. J. Stein,  
 Yu-Chuan Su,  E. J. Sundstrom,  Zhen Tao,  J. Thirman,  T. Tsuchimochi,  
 N. M. Tubman,  S. P. Veccham,  O. Vydrov,  J. Wenzel,  J. Witte,  A. Yamada,  
 Kun Yao,  S. Yeganeh,  S. R. Yost,  A. Zech,  Igor Ying Zhang,  Xing Zhang,  
 Yu Zhang,  D. Zuev,  A. Aspuru-Guzik,  A. T. Bell,  N. A. Besley,  
 K. B. Bravaya,  B. R. Brooks,  D. Casanova,  Jeng-Da Chai,  S. Coriani,  
 C. J. Cramer,  A. E. DePrince, III,  R. A. DiStasio Jr.,  A. Dreuw,  
 B. D. Dunietz,  T. R. Furlani,  W. A. Goddard III,  S. Grimme,  
 S. Hammes-Schiffer,  T. Head-Gordon,  W. J. Hehre,  Chao-Ping Hsu,  
 T.-C. Jagau,  Yousung Jung,  A. Klamt,  Jing Kong,  D. S. Lambrecht,  
 WanZhen Liang,  N. J. Mayhall,  C. W. McCurdy,  J. B. Neaton,  T. Neudecker,  
 C. Ochsenfeld,  J. A. Parkhill,  R. Peverati,  V. A. Rassolov,  Yihan Shao,  
 L. V. Slipchenko,  R. P. Steele,  J. E. Subotnik,  A. J. W. Thom,  
 A. Tkatchenko,  D. G. Truhlar,  T. Van Voorhis,  T. A. Wesolowski,  
 K. B. Whaley,  H. L. Woodcock III,  P. M. Zimmerman,  S. Faraji,  
 P. M. W. Gill,  M. Head-Gordon,  J. M. Herbert,  A. I. Krylov

 Additional authors since Version 5.4.0: 
 Chandrima Chakravarty,  L. Cunha,  R. Kang,  Yongbin Kim,  S. Kotaru,  
 Shaozhi Li,  Xiangyuan Li,  F. Matz,  A. Molle,  V. Parravicini,  
 Haisheng Ren,  Hengyuan Shen,  Yingli Su,  Hung-Yi Tsai,  C. Utku,  
 Fang Wang,  Jeff Yang,  F. Zeller

 Contributors to earlier versions of Q-Chem not listed above: 
 R. D. Adamson,  B. Austin,  R. Baer,  J. Baker,  G. J. O. Beran,  
 K. Brandhorst,  S. T. Brown,  E. F. C. Byrd,  Arup K. Chakraborty,  
 G. K. L. Chan,  Chun-Min Chang,  Yunqing Chen,  C.-L. Cheng,  
 Siu Hung Chien,  D. M. Chipman,  D. L. Crittenden,  H. Dachsel,  
 R. J. Doerksen,  A. D. Dutoi,  R. G. Edgar,  J. Fosso-Tande,  
 L. Fusti-Molnar,  D. Ghosh,  A. Ghysels,  A. Golubeva-Zadorozhnaya,  
 J. Gonthier,  M. S. Gordon,  S. R. Gwaltney,  G. Hawkins,  J. E. Herr,  
 A. Heyden,  S. Hirata,  E. G. Hohenstein,  G. Kedziora,  F. J. Keil,  
 C. Kelley,  Jihan Kim,  R. A. King,  R. Z. Khaliullin,  P. P. Korambath,  
 W. Kurlancheek,  A. Laurent,  A. M. Lee,  M. S. Lee,  S. V. Levchenko,  
 Ching Yeh Lin,  D. Liotard,  E. Livshits,  R. C. Lochan,  I. Lotan,  
 L. A. Martinez-Martinez,  P. E. Maslen,  N. Nair,  D. P. O'Neill,  
 D. Neuhauser,  E. Neuscamman,  C. M. Oana,  R. Olivares-Amaya,  R. Olson,  
 T. M. Perrine,  B. Peters,  P. A. Pieniazek,  A. Prociuk,  Y. M. Rhee,  
 J. Ritchie,  M. A. Rohrdanz,  E. Rosta,  N. J. Russ,  H. F. Schaefer III,  
 M. W. Schmidt,  N. E. Schultz,  S. Sharma,  N. Shenvi,  C. D. Sherrill,  
 A. C. Simmonett,  A. Sodt,  T. Stein,  D. Stuck,  K. S. Thanthiriwatte,  
 V. Vanovschi,  L. Vogt,  Tao Wang,  A. Warshel,  M. A. Watson,  
 C. F. Williams,  Q. Wu,  X. Xu,  Jun Yang,  W. Zhang,  Yan Zhao

   Please cite Q-Chem as follows:
  "Software for the frontiers of quantum chemistry:
   An overview of developments in the Q-Chem 5 package"
   J. Chem. Phys. 155, 084801 (2021)
   https://doi.org/10.1063/5.0055522 (open access)

 Q-Chem 5.4.2 for Intel X86 EM64T Linux

 Parts of Q-Chem use Armadillo 9.900.5 (Nocturnal Misbehaviour).
 http://arma.sourceforge.net/

 Q-Chem begins on Sat Oct  1 13:02:49 2022  

 Host: 
0

     Scratch files written to /dev/shm/qchem1004474//
 Dec1321 |scratch|qcdevops|jenkins|workspace|build_RNUM 7856   
 Processing $rem in /nopt/nrel/apps/q-chem/5.4/config/preferences:
 Processing $rem in /home/ewcss/.qchemrc:

 Checking the input file for inconsistencies... 	...done.

--------------------------------------------------------------
User input:
--------------------------------------------------------------
$molecule
0 1
--
0 1
C      0.000000    0.000000    0.000000
C      1.332000    0.000000    0.000000
H     -0.574301    0.000000   -0.928785
H     -0.574301    0.000000    0.928785
H      1.906301    0.000000    0.928785
H      1.906301    0.000000   -0.928785
--
0 1
C     -0.000000    4.000000    0.000000
C      1.332000    4.000000   -0.000000
H     -0.574301    4.000000    0.928785
H     -0.574301    4.000000   -0.928785
H      1.906301    4.000000   -0.928785
H      1.906301    4.000000    0.928785
$end

$rem
METHOD               wb97x-d
BASIS                def2-svpd
FRAG_DIABAT_METHOD   pod
SCF_CONVERGENCE      8
THRESH               14
SYMMETRY             false
SYM_IGNORE           true
$end
--------------------------------------------------------------
 ----------------------------------------------------------------
             Standard Nuclear Orientation (Angstroms)
    I     Atom           X                Y                Z
 ----------------------------------------------------------------
    1      C       0.0000000000     0.0000000000     0.0000000000
    2      C       1.3320000000     0.0000000000     0.0000000000
    3      H      -0.5743010000     0.0000000000    -0.9287850000
    4      H      -0.5743010000     0.0000000000     0.9287850000
    5      H       1.9063010000     0.0000000000     0.9287850000
    6      H       1.9063010000     0.0000000000    -0.9287850000
    7      C       0.0000000000     4.0000000000     0.0000000000
    8      C       1.3320000000     4.0000000000     0.0000000000
    9      H      -0.5743010000     4.0000000000     0.9287850000
   10      H      -0.5743010000     4.0000000000    -0.9287850000
   11      H       1.9063010000     4.0000000000    -0.9287850000
   12      H       1.9063010000     4.0000000000     0.9287850000
 ----------------------------------------------------------------
 Nuclear Repulsion Energy =          98.69228250 hartrees
 There are       16 alpha and       16 beta electrons
 Requested basis set is def2-SVPD
 There are 64 shells and 144 basis functions

 Total QAlloc Memory Limit 100000 MB
 Mega-Array Size       188 MB
 MEM_STATIC part       192 MB

                       Distance Matrix (Angstroms)
             C (  1)   C (  2)   H (  3)   H (  4)   H (  5)   H (  6)
   C (  2)  1.332000
   H (  3)  1.092000  2.120525
   H (  4)  1.092000  2.120525  1.857570
   H (  5)  2.120525  1.092000  3.099024  2.480602
   H (  6)  2.120525  1.092000  2.480602  3.099024  1.857570
   C (  7)  4.000000  4.215949  4.146380  4.146380  4.527320  4.527320
   C (  8)  4.215949  4.000000  4.527320  4.527320  4.146380  4.146380
   H (  9)  4.146380  4.527320  4.410280  4.000000  4.706738  5.060035
   H ( 10)  4.146380  4.527320  4.000000  4.410280  5.060035  4.706738
   H ( 11)  4.527320  4.146380  4.706738  5.060035  4.410280  4.000000
   H ( 12)  4.527320  4.146380  5.060035  4.706738  4.000000  4.410280
             C (  7)   C (  8)   H (  9)   H ( 10)   H ( 11)
   C (  8)  1.332000
   H (  9)  1.092000  2.120525
   H ( 10)  1.092000  2.120525  1.857570
   H ( 11)  2.120525  1.092000  3.099024  2.480602
   H ( 12)  2.120525  1.092000  2.480602  3.099024  1.857570
 
 A cutoff of  1.0D-14 yielded   2048 shell pairs
 There are     10464 function pairs (     11684 Cartesian)
 Smallest overlap matrix eigenvalue = 7.35E-05

 Scale SEOQF with 1.000000e-01/1.000000e-01/1.000000e+00

 Standard Electronic Orientation quadrupole field applied
 Nucleus-field energy     =     0.0000000122 hartrees
 Guess from superposition of atomic densities
 Warning:  Energy on first SCF cycle will be non-variational
 SAD guess density has 32.000000 electrons

 -----------------------------------------------------------------------
  General SCF calculation program by
  Eric Jon Sundstrom, Paul Horn, Yuezhi Mao, Dmitri Zuev, Alec White,
  David Stuck, Shaama M.S., Shane Yost, Joonho Lee, David Small,
  Daniel Levine, Susi Lehtola, Hugh Burton, Evgeny Epifanovsky,
  Bang C. Huynh
 -----------------------------------------------------------------------
Compute the electronic coupling using the POD method
 Exchange:     0.2220 Hartree-Fock + 1.0000 wB97X-D + LR-HF
 Correlation:  1.0000 wB97X-D
 Using SG-2 standard quadrature grid
 Dispersion:   Grimme D
Performing a restricted SCF calculation
Energy prior to optimization (guess energy) = -156.955812541169
Begin Timing: Total SCF Calculation
begin iterations for algorithm: DIIS         
the SCF tolerance is set to 1.00e-08
    1    -156.9558125412      4.24e-03     00000 
    2    -156.9858874089      2.90e-03     00000 
    3    -157.0088223611      1.27e-04     00000 
    4    -157.0089243521      1.63e-05     00000 
    5    -157.0089267190      3.92e-06     00000 
    6    -157.0089268105      8.32e-07     00000 
    7    -157.0089268163      1.19e-07     00000 
    8    -157.0089268164      2.19e-08     00000 
    9    -157.0089268164      4.50e-09     00000 Convergence criterion met
Timing for Total SCF: 42.00s (wall), 82.37s (cpu)
 Total energy in the final basis set =     -157.0089268164
====================================================
         POD based on the RSCF Fock matrix          
  Kondov et al. J. Phys. Chem. C 111, 11970 (2007)  
====================================================
NBasis per fragment
        72
        72
NElectron per fragment
        8
        8
The D(8) - A(8) coupling: 0.008459 (230.174 meV)
 
 --------------------------------------------------------------
 
                    Orbital Energies (a.u.)
 --------------------------------------------------------------
 
 Alpha MOs
 -- Occupied --
-10.3000 -10.3000 -10.2991 -10.2991  -0.8515  -0.8501  -0.6655  -0.6641
 -0.5556  -0.5542  -0.5060  -0.5050  -0.4358  -0.4345  -0.3652  -0.3471
 -- Virtual --
  0.0601   0.0841   0.0935   0.1115   0.1233   0.1444   0.1572   0.1774
  0.1989   0.2024   0.2123   0.2209   0.2269   0.2316   0.2322   0.2553
  0.2651   0.2760   0.2798   0.2898   0.3094   0.3149   0.3235   0.3318
  0.3479   0.3723   0.3985   0.4009   0.4034   0.4043   0.4112   0.4190
  0.4226   0.4273   0.4322   0.4482   0.4668   0.4815   0.4883   0.4945
  0.4968   0.5099   0.5143   0.5149   0.5159   0.5226   0.5281   0.5400
  0.5449   0.5486   0.5865   0.5881   0.6077   0.6317   0.6353   0.6683
  0.6716   0.6851   0.7170   0.7801   0.7973   0.8047   0.8542   0.9087
  0.9395   0.9552   0.9843   0.9889   1.0334   1.0411   1.0525   1.0787
  1.0790   1.1064   1.1651   1.1749   1.1761   1.2136   1.2137   1.2177
  1.2997   1.3679   1.3828   1.3875   1.4622   1.4785   1.5345   1.5595
  1.6276   1.7788   1.8087   1.8100   1.8219   1.8329   1.8492   1.9185
  1.9779   1.9786   1.9901   1.9938   2.0018   2.0057   2.0092   2.0285
  2.0582   2.0802   2.2300   2.2590   2.3900   2.4133   2.4159   2.4289
  2.5019   2.5270   2.5370   2.5514   2.6007   2.6174   2.8645   2.8661
  2.9422   2.9564   2.9999   3.0477   3.2623   3.2629   3.4975   3.5051
 --------------------------------------------------------------
 
          Ground-State Mulliken Net Atomic Charges

     Atom                 Charge (a.u.)
  ----------------------------------------
      1 C                     0.088833
      2 C                     0.088833
      3 H                    -0.044416
      4 H                    -0.044416
      5 H                    -0.044416
      6 H                    -0.044416
      7 C                     0.088833
      8 C                     0.088833
      9 H                    -0.044416
     10 H                    -0.044416
     11 H                    -0.044416
     12 H                    -0.044416
  ----------------------------------------
  Sum of atomic charges =     0.000000

 -----------------------------------------------------------------
                    Cartesian Multipole Moments
 -----------------------------------------------------------------
    Charge (ESU x 10^10)
                -0.0000
    Dipole Moment (Debye)
         X      -0.0000      Y      -0.0000      Z       0.0000
       Tot       0.0000
    Quadrupole Moments (Debye-Ang)
        XX     -24.5246     XY      -0.0000     YY     -31.6591
        XZ       0.0000     YZ       0.0000     ZZ     -24.7727
    Octopole Moments (Debye-Ang^2)
       XXX     -49.0001    XXY     -49.0491    XYY     -21.0850
       YYY    -189.9547    XXZ       0.0000    XYZ       0.0000
       YYZ       0.0000    XZZ     -16.4986    YZZ     -49.5453
       ZZZ       0.0000
    Hexadecapole Moments (Debye-Ang^3)
      XXXX    -203.1962   XXXY     -98.0002   XXYY    -241.3904
      XYYY    -126.5098   YYYY   -1549.2193   XXXZ       0.0000
      XXYZ       0.0000   XYYZ       0.0000   YYYZ       0.0000
      XXZZ     -37.6292   XYZZ     -32.9972   YYZZ    -215.2244
      XZZZ       0.0000   YZZZ       0.0000   ZZZZ     -54.7841
 -----------------------------------------------------------------
 Total job time:  55.39s(wall), 109.13s(cpu) 
 Sat Oct  1 13:03:44 2022

        *************************************************************
        *                                                           *
        *  Thank you very much for using Q-Chem.  Have a nice day.  *
        *                                                           *
        *************************************************************


