
Running Job 1 of 1 mol.qin
qchem mol.qin_246853.0 /tmp/scratch/ 0
/clusterfs/mp/software/qchem6.0/exe/qcprog.exe_s mol.qin_246853.0 /tmp/scratch/
                  Welcome to Q-Chem
     A Quantum Leap Into The Future Of Chemistry


 Q-Chem 6.0, Q-Chem, Inc., Pleasanton, CA (2022)

 E. Epifanovsky,  A. T. B. Gilbert,  Xintian Feng,  Joonho Lee,  Yuezhi Mao,  
 N. Mardirossian,  P. Pokhilko,  A. White,  M. Wormit,  M. P. Coons,  
 A. L. Dempwolff,  Zhengting Gan,  D. Hait,  P. R. Horn,  L. D. Jacobson,  
 I. Kaliman,  J. Kussmann,  A. W. Lange,  Ka Un Lao,  D. S. Levine,  Jie Liu,  
 S. C. McKenzie,  A. F. Morrison,  K. Nanda,  F. Plasser,  D. R. Rehn,  
 M. L. Vidal,  Zhi-Qiang You,  Ying Zhu,  B. Alam,  B. Albrecht,  
 A. Aldossary,  E. Alguire,  J. H. Andersen,  V. Athavale,  D. Barton,  
 K. Begam,  A. Behn,  N. Bellonzi,  Y. A. Bernard,  E. J. Berquist,  
 H. Burton,  A. Carreras,  K. Carter-Fenk,  Romit Chakraborty,  
 Chandrima Chakravarty,  Junhan Chen,  A. D. Chien,  K. D. Closser,  
 V. Cofer-Shabica,  L. Cunha,  S. Dasgupta,  Jia Deng,  M. de Wergifosse,  
 M. Diedenhofen,  Hainam Do,  S. Ehlert,  Po-Tung Fang,  S. Fatehi,  
 Qingguo Feng,  T. Friedhoff,  B. Ganoe,  J. Gayvert,  Qinghui Ge,  
 G. Gidofalvi,  M. Goldey,  J. Gomes,  C. Gonzalez-Espinoza,  S. Gulania,  
 A. Gunina,  J. A. Gyamfi,  M. W. D. Hanson-Heine,  P. H. P. Harbach,  
 A. W. Hauser,  M. F. Herbst,  M. Hernandez Vera,  M. Hodecker,  
 Z. C. Holden,  S. Houck,  Xunkun Huang,  Kerwin Hui,  B. C. Huynh,  
 K. Ikeda,  M. Ivanov,  Hyunjun Ji,  Zuxin Jin,  Hanjie Jiang,  B. Kaduk,  
 S. Kaehler,  R. Kang,  K. Khistyaev,  Jaehoon Kim,  Yongbin Kim,  
 P. Klunzinger,  Z. Koczor-Benda,  Joong Hoon Koh,  D. Kosenkov,  
 Saikiran Kotaru,  L. Koulias,  T. Kowalczyk,  C. M. Krauter,  K. Kue,  
 A. Kunitsa,  T. Kus,  A. Landau,  K. V. Lawler,  D. Lefrancois,  S. Lehtola,  
 Rain Li,  Shaozhi Li,  Yi-Pei Li,  Jiashu Liang,  M. Liebenthal,  
 Hung-Hsuan Lin,  You-Sheng Lin,  Fenglai Liu,  Kuan-Yu Liu,  
 M. Loipersberger,  A. Luenser,  C. Malbon,  A. Manjanath,  P. Manohar,  
 E. Mansoor,  S. F. Manzer,  Shan-Ping Mao,  A. V. Marenich,  T. Markovich,  
 S. Mason,  F. Matz,  S. A. Maurer,  P. F. McLaughlin,  M. F. S. J. Menger,  
 J.-M. Mewes,  S. A. Mewes,  P. Morgante,  Mohammad Mostafanejad,  
 J. W. Mullinax,  K. J. Oosterbaan,  G. Paran,  V. Parravicini,  
 Alexander C. Paul,  Suranjan K. Paul,  F. Pavosevic,  Zheng Pei,  S. Prager,  
 E. I. Proynov,  E. Ramos,  B. Rana,  A. E. Rask,  A. Rettig,  R. M. Richard,  
 F. Rob,  E. Rossomme,  T. Scheele,  M. Scheurer,  M. Schneider,  
 P. E. Schneider,  N. Sergueev,  S. M. Sharada,  Hengyuan Shen,  
 W. Skomorowski,  D. W. Small,  C. J. Stein,  Yingli Su,  Yu-Chuan Su,  
 E. J. Sundstrom,  Zhen Tao,  J. Thirman,  Hung-Yi Tsai,  T. Tsuchimochi,  
 N. M. Tubman,  C. Utku,  S. P. Veccham,  O. Vydrov,  J. Wenzel,  
 Jonathan Wong,  J. Witte,  A. Yamada,  Chou-Hsun Yang,  Kun Yao,  
 S. Yeganeh,  S. R. Yost,  A. Zech,  F. Zeller,  Igor Ying Zhang,  
 Xing Zhang,  Yu Zhang,  D. Zuev,  A. Aspuru-Guzik,  A. T. Bell,  
 N. A. Besley,  K. B. Bravaya,  B. R. Brooks,  D. Casanova,  Jeng-Da Chai,  
 Hsing-Ta Chen,  S. Coriani,  C. J. Cramer,  A. E. DePrince, III,  
 R. A. DiStasio Jr.,  A. Dreuw,  B. D. Dunietz,  T. R. Furlani,  
 W. A. Goddard III,  S. Grimme,  S. Hammes-Schiffer,  T. Head-Gordon,  
 W. J. Hehre,  Chao-Ping Hsu,  T.-C. Jagau,  Yousung Jung,  A. Klamt,  
 Jing Kong,  D. S. Lambrecht,  Xiangyuan Li,  WanZhen Liang,  N. J. Mayhall,  
 C. W. McCurdy,  J. B. Neaton,  T. Neudecker,  C. Ochsenfeld,  
 J. A. Parkhill,  R. Peverati,  V. A. Rassolov,  Haisheng Ren,  Yihan Shao,  
 L. V. Slipchenko,  R. P. Steele,  J. E. Subotnik,  A. J. W. Thom,  
 A. Tkatchenko,  D. G. Truhlar,  T. Van Voorhis,  Fan Wang,  
 T. A. Wesolowski,  K. B. Whaley,  H. L. Woodcock III,  P. M. Zimmerman,  
 S. Faraji,  P. M. W. Gill,  M. Head-Gordon,  J. M. Herbert,  A. I. Krylov

 Contributors to earlier versions of Q-Chem not listed above: 
 R. D. Adamson,  B. Austin,  R. Baer,  J. Baker,  G. J. O. Beran,  
 K. Brandhorst,  S. T. Brown,  E. F. C. Byrd,  Arup K. Chakraborty,  
 G. K. L. Chan,  Chun-Min Chang,  Yunqing Chen,  C.-L. Cheng,  
 Siu Hung Chien,  D. M. Chipman,  D. L. Crittenden,  H. Dachsel,  
 R. J. Doerksen,  A. D. Dutoi,  R. G. Edgar,  J. Fosso-Tande,  
 L. Fusti-Molnar,  D. Ghosh,  A. Ghysels,  A. Golubeva-Zadorozhnaya,  
 J. Gonthier,  M. S. Gordon,  S. R. Gwaltney,  G. Hawkins,  J. E. Herr,  
 A. Heyden,  S. Hirata,  E. G. Hohenstein,  G. Kedziora,  F. J. Keil,  
 C. Kelley,  Jihan Kim,  R. A. King,  R. Z. Khaliullin,  P. P. Korambath,  
 W. Kurlancheek,  A. Laurent,  A. M. Lee,  M. S. Lee,  S. V. Levchenko,  
 Ching Yeh Lin,  D. Liotard,  E. Livshits,  R. C. Lochan,  I. Lotan,  
 L. A. Martinez-Martinez,  P. E. Maslen,  N. Nair,  D. P. O'Neill,  
 D. Neuhauser,  E. Neuscamman,  C. M. Oana,  R. Olivares-Amaya,  R. Olson,  
 T. M. Perrine,  B. Peters,  P. A. Pieniazek,  A. Prociuk,  Y. M. Rhee,  
 J. Ritchie,  M. A. Rohrdanz,  E. Rosta,  N. J. Russ,  H. F. Schaefer III,  
 M. W. Schmidt,  N. E. Schultz,  S. Sharma,  N. Shenvi,  C. D. Sherrill,  
 A. C. Simmonett,  A. Sodt,  T. Stein,  D. Stuck,  K. S. Thanthiriwatte,  
 V. Vanovschi,  L. Vogt,  Tao Wang,  A. Warshel,  M. A. Watson,  
 C. F. Williams,  Q. Wu,  X. Xu,  Jun Yang,  W. Zhang,  Yan Zhao

   Please cite Q-Chem as follows:
  "Software for the frontiers of quantum chemistry:
   An overview of developments in the Q-Chem 5 package"
   J. Chem. Phys. 155, 084801 (2021)
   https://doi.org/10.1063/5.0055522 (open access)

 Q-Chem 6.0.0 for Intel X86 EM64T Linux

 Parts of Q-Chem use Armadillo 9.900.5 (Nocturnal Misbehaviour).
 http://arma.sourceforge.net/

 Q-Chem begins on Thu Jul 14 01:17:32 2022  

 Host: 
0

     Scratch files written to /tmp/scratch//
 Jul222 |scratch|qcdevops|jenkins|workspace|build_RNUM -1
 Processing $rem in /clusterfs/mp/software/qchem6.0/config/preferences:
 Processing $rem in /global/home/users/smblau/.qchemrc:
 Symmetry turned off for PCM/SM12/SMD calculation

 Checking the input file for inconsistencies... 	...done.

--------------------------------------------------------------
User input:
--------------------------------------------------------------
$molecule
1 2
S      1.4188260000     -0.1359520000     -0.4629820000
C      0.6825040000     -0.9385960000      1.0703360000
C     -0.3226550000     -2.2462560000      1.0818860000
H     -0.6394500000     -2.7486490000      0.0744740000
C     -0.9901270000     -2.9045570000      2.4598160000
H     -1.7197360000     -3.8165640000      2.3850170000
C     -0.6657940000     -2.2676920000      3.9351770000
H     -1.1645770000     -2.7170310000      4.8982720000
C      0.3564630000     -0.9517090000      3.9581500000
H      0.5698180000     -0.4774320000      5.0142940000
C      1.0222600000     -0.2935600000      2.5758090000
H      1.7175130000      0.6510000000      2.7010830000
C      2.5908990000      1.3675330000     -0.3342280000
C      4.0876910000      1.0603160000      0.2768090000
H      4.3985960000     -0.0169240000      0.6250830000
C      5.1854500000      2.2854390000      0.3835620000
H      6.2634120000      2.0718910000      0.7889380000
C      4.6993620000      3.7658000000     -0.1510760000
H      5.5103290000      4.6304990000     -0.1037560000
C      3.1984690000      4.1143960000     -0.7508870000
H      2.8748590000      5.1935210000     -1.1421420000
C      2.1007400000      2.8790530000     -0.8534530000
H      1.0204030000      3.0114040000     -1.2934900000
S     -1.1572850000      1.1632670000     -2.6598860000
C     -0.5130530000     -0.5820870000     -2.4672080000
C     -1.4831550000     -1.9209320000     -2.7126320000
H     -2.6369290000     -1.8272280000     -2.9818620000
C     -0.8941570000     -3.4729980000     -2.6025290000
H     -1.5253460000     -4.4430690000     -2.7706390000
C      0.7149060000     -3.6039120000     -2.2846290000
H      1.2757150000     -4.6553580000     -2.2132940000
C      1.6423320000     -2.2739760000     -2.0608350000
H      2.8036370000     -2.4070200000     -1.8179890000
C      1.1076010000     -0.7043670000     -2.0724660000
H      1.6616210000     -0.0308650000     -2.8618520000
C     -2.4345660000      1.6289230000     -1.3877100000
C     -2.4258270000      1.2989880000      0.2157920000
H     -1.5423670000      0.6869430000      0.6759050000
C     -3.5949450000      1.8012110000      1.2988690000
H     -3.4949040000      1.5332340000      2.4518810000
C     -4.8554430000      2.7180870000      0.7652460000
H     -5.6744970000      3.1107650000      1.5393410000
C     -4.8994700000      3.0428240000     -0.8555980000
H     -5.8044770000      3.7157370000     -1.2304260000
C     -3.7344540000      2.5306470000     -1.9322660000
H     -3.8565820000      2.8508350000     -3.0765960000
$end

$rem
job_type = opt
basis = def2-svpd
max_scf_cycles = 100
gen_scfman = true
xc_grid = 3
thresh = 14
s2thresh = 16
scf_algorithm = diis
resp_charges = true
symmetry = false
sym_ignore = true
method = b97m-v
geom_opt_max_cycles = 200
solvent_method = pcm
$end

$pcm
heavypoints 194
hpoints 194
radii uff
theory cpcm
vdwscale 1.1
$end

$solvent
dielectric 3.0
$end

$geom_opt
coordinates = redundant
maxiter = 200
$end
--------------------------------------------------------------
 ----------------------------------------------------------------
             Standard Nuclear Orientation (Angstroms)
    I     Atom           X                Y                Z
 ----------------------------------------------------------------
    1      S       1.4188260000    -0.1359520000    -0.4629820000
    2      C       0.6825040000    -0.9385960000     1.0703360000
    3      C      -0.3226550000    -2.2462560000     1.0818860000
    4      H      -0.6394500000    -2.7486490000     0.0744740000
    5      C      -0.9901270000    -2.9045570000     2.4598160000
    6      H      -1.7197360000    -3.8165640000     2.3850170000
    7      C      -0.6657940000    -2.2676920000     3.9351770000
    8      H      -1.1645770000    -2.7170310000     4.8982720000
    9      C       0.3564630000    -0.9517090000     3.9581500000
   10      H       0.5698180000    -0.4774320000     5.0142940000
   11      C       1.0222600000    -0.2935600000     2.5758090000
   12      H       1.7175130000     0.6510000000     2.7010830000
   13      C       2.5908990000     1.3675330000    -0.3342280000
   14      C       4.0876910000     1.0603160000     0.2768090000
   15      H       4.3985960000    -0.0169240000     0.6250830000
   16      C       5.1854500000     2.2854390000     0.3835620000
   17      H       6.2634120000     2.0718910000     0.7889380000
   18      C       4.6993620000     3.7658000000    -0.1510760000
   19      H       5.5103290000     4.6304990000    -0.1037560000
   20      C       3.1984690000     4.1143960000    -0.7508870000
   21      H       2.8748590000     5.1935210000    -1.1421420000
   22      C       2.1007400000     2.8790530000    -0.8534530000
   23      H       1.0204030000     3.0114040000    -1.2934900000
   24      S      -1.1572850000     1.1632670000    -2.6598860000
   25      C      -0.5130530000    -0.5820870000    -2.4672080000
   26      C      -1.4831550000    -1.9209320000    -2.7126320000
   27      H      -2.6369290000    -1.8272280000    -2.9818620000
   28      C      -0.8941570000    -3.4729980000    -2.6025290000
   29      H      -1.5253460000    -4.4430690000    -2.7706390000
   30      C       0.7149060000    -3.6039120000    -2.2846290000
   31      H       1.2757150000    -4.6553580000    -2.2132940000
   32      C       1.6423320000    -2.2739760000    -2.0608350000
   33      H       2.8036370000    -2.4070200000    -1.8179890000
   34      C       1.1076010000    -0.7043670000    -2.0724660000
   35      H       1.6616210000    -0.0308650000    -2.8618520000
   36      C      -2.4345660000     1.6289230000    -1.3877100000
   37      C      -2.4258270000     1.2989880000     0.2157920000
   38      H      -1.5423670000     0.6869430000     0.6759050000
   39      C      -3.5949450000     1.8012110000     1.2988690000
   40      H      -3.4949040000     1.5332340000     2.4518810000
   41      C      -4.8554430000     2.7180870000     0.7652460000
   42      H      -5.6744970000     3.1107650000     1.5393410000
   43      C      -4.8994700000     3.0428240000    -0.8555980000
   44      H      -5.8044770000     3.7157370000    -1.2304260000
   45      C      -3.7344540000     2.5306470000    -1.9322660000
   46      H      -3.8565820000     2.8508350000    -3.0765960000
 ----------------------------------------------------------------
 Nuclear Repulsion Energy =        2277.46168039 hartrees
 There are       98 alpha and       97 beta electrons
 Requested basis set is def2-SVPD
 There are 294 shells and 694 basis functions

 Total QAlloc Memory Limit  90000 MB
 Mega-Array Size       188 MB
 MEM_STATIC part       192 MB

 -----------------------------------------------------------------------
                STARTING GEOMETRY OPTIMIZER USING LIBOPT3
                by Peter F. McLaughlin, Yu Zhang, Evgeny Epifanovsky
 -----------------------------------------------------------------------

              Initial Energy and Gradient Calculation
  Checking Topology for Ill-Behaving Coordinates
  Done Checking Topology
 ----------------------------------------------------------------
             Standard Nuclear Orientation (Angstroms)
    I     Atom           X                Y                Z
 ----------------------------------------------------------------
    1      S       1.4188260000    -0.1359520000    -0.4629820000
    2      C       0.6825040000    -0.9385960000     1.0703360000
    3      C      -0.3226550000    -2.2462560000     1.0818860000
    4      H      -0.6394500000    -2.7486490000     0.0744740000
    5      C      -0.9901270000    -2.9045570000     2.4598160000
    6      H      -1.7197360000    -3.8165640000     2.3850170000
    7      C      -0.6657940000    -2.2676920000     3.9351770000
    8      H      -1.1645770000    -2.7170310000     4.8982720000
    9      C       0.3564630000    -0.9517090000     3.9581500000
   10      H       0.5698180000    -0.4774320000     5.0142940000
   11      C       1.0222600000    -0.2935600000     2.5758090000
   12      H       1.7175130000     0.6510000000     2.7010830000
   13      C       2.5908990000     1.3675330000    -0.3342280000
   14      C       4.0876910000     1.0603160000     0.2768090000
   15      H       4.3985960000    -0.0169240000     0.6250830000
   16      C       5.1854500000     2.2854390000     0.3835620000
   17      H       6.2634120000     2.0718910000     0.7889380000
   18      C       4.6993620000     3.7658000000    -0.1510760000
   19      H       5.5103290000     4.6304990000    -0.1037560000
   20      C       3.1984690000     4.1143960000    -0.7508870000
   21      H       2.8748590000     5.1935210000    -1.1421420000
   22      C       2.1007400000     2.8790530000    -0.8534530000
   23      H       1.0204030000     3.0114040000    -1.2934900000
   24      S      -1.1572850000     1.1632670000    -2.6598860000
   25      C      -0.5130530000    -0.5820870000    -2.4672080000
   26      C      -1.4831550000    -1.9209320000    -2.7126320000
   27      H      -2.6369290000    -1.8272280000    -2.9818620000
   28      C      -0.8941570000    -3.4729980000    -2.6025290000
   29      H      -1.5253460000    -4.4430690000    -2.7706390000
   30      C       0.7149060000    -3.6039120000    -2.2846290000
   31      H       1.2757150000    -4.6553580000    -2.2132940000
   32      C       1.6423320000    -2.2739760000    -2.0608350000
   33      H       2.8036370000    -2.4070200000    -1.8179890000
   34      C       1.1076010000    -0.7043670000    -2.0724660000
   35      H       1.6616210000    -0.0308650000    -2.8618520000
   36      C      -2.4345660000     1.6289230000    -1.3877100000
   37      C      -2.4258270000     1.2989880000     0.2157920000
   38      H      -1.5423670000     0.6869430000     0.6759050000
   39      C      -3.5949450000     1.8012110000     1.2988690000
   40      H      -3.4949040000     1.5332340000     2.4518810000
   41      C      -4.8554430000     2.7180870000     0.7652460000
   42      H      -5.6744970000     3.1107650000     1.5393410000
   43      C      -4.8994700000     3.0428240000    -0.8555980000
   44      H      -5.8044770000     3.7157370000    -1.2304260000
   45      C      -3.7344540000     2.5306470000    -1.9322660000
   46      H      -3.8565820000     2.8508350000    -3.0765960000
 ----------------------------------------------------------------
 Nuclear Repulsion Energy =        2277.46168039 hartrees
 There are       98 alpha and       97 beta electrons
 Discretize the solute cavity surface with Lebedev spheres
	Using 194 Lebedev grid points for each H atom
	Using 194 Lebedev grid points for other atoms
	Atomic van der Waals radii (UFF set) will be scaled by 1.10
 Using smooth SwiG surface discretization
 Remove points where switching function is < 1.0e-08
 Keep 3986 surface tesserae and discard 4938 interior tesserae
 Molecular Surface Area = 531.396 Angst**2

 Requested basis set is def2-SVPD
 There are 294 shells and 694 basis functions
 A cutoff of  1.0D-16 yielded  36536 shell pairs
 There are    204298 function pairs (    236516 Cartesian)
 Smallest overlap matrix eigenvalue = 1.90E-05

 Scale SEOQF with 1.000000e-02/1.000000e-02/1.000000e-01

 Standard Electronic Orientation quadrupole field applied
 Nucleus-field energy     =    -0.0000000713 hartrees
 Guess from superposition of atomic densities
 Warning:  Energy on first SCF cycle will be non-variational
 SAD guess density has 196.000000 electrons

 -----------------------------------------------------------------------
  General SCF calculation program by
  Eric Jon Sundstrom, Paul Horn, Yuezhi Mao, Dmitri Zuev, Alec White,
  David Stuck, Shaama M.S., Shane Yost, Joonho Lee, David Small,
  Daniel Levine, Susi Lehtola, Hugh Burton, Evgeny Epifanovsky,
  Bang C. Huynh
 -----------------------------------------------------------------------
 Exchange:  B97M-V      Correlation:  B97M-V
 Using SG-3 standard quadrature grid
 Nonlocal Correlation:  VV10 with C = 0.0100 and b = 6.00 and scale = 1.00000
 Grid used for NLC:  SG-1 standard quadrature
 using 40 threads for integral computing
 -------------------------------------------------------
 OpenMP Integral computing Module                
 Release: version 1.0, May 2013, Q-Chem Inc. Pittsburgh 
 -------------------------------------------------------
 C-PCM solvent model [f = (eps-1)/eps], solve by matrix inversion
 A unrestricted SCF calculation will be
 performed using DIIS
 SCF converges when DIIS error is below 1.0e-08
 ---------------------------------------
  Cycle       Energy         DIIS error
 ---------------------------------------
    1   -1720.8863630660      7.93e-03  
    2   -1720.3103155482      7.35e-04  
    3   -1718.1309527254      2.44e-03  
    4   -1720.4042407569      5.01e-04  
    5   -1720.4790574640      1.99e-04  
    6   -1720.4830943791      1.74e-04  
    7   -1720.4928954742      5.37e-05  
    8   -1720.4938918602      2.67e-05  
    9   -1720.4943294486      1.90e-05  
   10   -1720.4946831683      1.32e-05  
   11   -1720.4949250545      9.07e-06  
   12   -1720.4949593595      4.55e-06  
   13   -1720.4949648928      2.06e-06  
   14   -1720.4949660355      1.01e-06  
   15   -1720.4949663544      6.48e-07  
   16   -1720.4949665544      2.70e-07  
   17   -1720.4949666430      2.31e-07  
   18   -1720.4949667321      1.77e-07  
   19   -1720.4949668266      1.58e-07  
   20   -1720.4949669396      1.38e-07  
   21   -1720.4949670685      1.13e-07  
   22   -1720.4949671340      9.78e-08  
   23   -1720.4949671675      5.96e-08  
   24   -1720.4949671772      3.59e-08  
   25   -1720.4949671794      3.02e-08  
   26   -1720.4949671804      1.39e-08  
   27   -1720.4949671807      1.10e-08  
   28   -1720.4949671809      8.40e-09  Convergence criterion met
 ---------------------------------------
 SCF time:   CPU 16905.07s  wall 834.00s 
<S^2> =          0.980412627

************** Final PCM Free Energy Summary **************
 G_electrostatic  =      -0.04208910 hartree =     -26.41130978 kcal/mol
 G_cavitation     =       0.00000000 hartree =       0.00000000 kcal/mol
 G_dispersion     =       0.00000000 hartree =       0.00000000 kcal/mol
 G_repulsion      =       0.00000000 hartree =       0.00000000 kcal/mol
 --------------------------------------------------
 Non-electrostatic Free Energy =       0.00000000 hartree =       0.00000000 kcal/mol
 Total                         =      -0.04208910 hartree =     -26.41130978 kcal/mol
 --------------------------------------------------
 SCF Energy (H0 + V/2)                       =   -1720.49496718 
 Solute Internal Energy (H0)                 =   -1720.45287808 
 Total Free Energy (H0 + V/2 + non-elec)     =   -1720.49496718 hartree
                                             = -1079626.88671383 kcal/mol
***********************************************************

 SCF   energy in the final basis set =    -1720.4949671809
 Total energy in the final basis set =    -1720.4949671809
 
 --------------------------------------------------------------
 
                    Orbital Energies (a.u.)
 --------------------------------------------------------------
 
 Alpha MOs
 -- Occupied --
-89.1158 -89.0285 -10.3734 -10.3696 -10.3670 -10.3492 -10.3403 -10.3375
-10.3334 -10.3318 -10.3311 -10.3300 -10.3287 -10.3274 -10.3250 -10.3245
-10.3235 -10.3234 -10.3203 -10.3179 -10.3169 -10.3075 -10.3030 -10.3024
-10.3018 -10.3010  -8.1432  -8.0579  -6.0198  -6.0195  -6.0093  -5.9355
 -5.9309  -5.9245  -0.9136  -0.8235  -0.7997  -0.7951  -0.7760  -0.7568
 -0.7477  -0.7339  -0.7307  -0.7181  -0.7170  -0.7004  -0.6957  -0.6760
 -0.6365  -0.6223  -0.6158  -0.6110  -0.6072  -0.5859  -0.5849  -0.5673
 -0.5381  -0.5315  -0.5134  -0.5066  -0.5002  -0.4918  -0.4802  -0.4630
 -0.4606  -0.4580  -0.4486  -0.4431  -0.4341  -0.4331  -0.4283  -0.4250
 -0.4208  -0.4099  -0.4033  -0.4003  -0.3929  -0.3918  -0.3872  -0.3798
 -0.3759  -0.3720  -0.3684  -0.3599  -0.3546  -0.3517  -0.3332  -0.3279
 -0.3260  -0.3008  -0.2902  -0.2841  -0.2825  -0.2710  -0.2673  -0.2550
 -0.2521  -0.2406
 -- Virtual --
 -0.1725  -0.1568  -0.1485  -0.1463  -0.1446  -0.1406  -0.1282  -0.1227
 -0.1072  -0.0834  -0.0714  -0.0678  -0.0544  -0.0513  -0.0456  -0.0372
 -0.0319  -0.0280  -0.0253  -0.0192  -0.0183  -0.0159  -0.0145  -0.0109
 -0.0077  -0.0059  -0.0039  -0.0020   0.0012   0.0025   0.0055   0.0061
  0.0082   0.0115   0.0214   0.0220   0.0251   0.0312   0.0373   0.0435
  0.0474   0.0493   0.0555   0.0563   0.0670   0.0673   0.0703   0.0729
  0.0743   0.0755   0.0798   0.0825   0.0848   0.0864   0.0872   0.0910
  0.0927   0.0939   0.0967   0.0997   0.1013   0.1038   0.1068   0.1090
  0.1101   0.1116   0.1146   0.1176   0.1192   0.1204   0.1223   0.1249
  0.1277   0.1299   0.1322   0.1338   0.1359   0.1369   0.1409   0.1448
  0.1455   0.1490   0.1520   0.1560   0.1582   0.1653   0.1665   0.1679
  0.1702   0.1733   0.1747   0.1789   0.1837   0.1912   0.1923   0.1967
  0.1976   0.1996   0.2027   0.2055   0.2080   0.2124   0.2138   0.2190
  0.2208   0.2271   0.2280   0.2283   0.2332   0.2350   0.2407   0.2415
  0.2431   0.2455   0.2488   0.2514   0.2526   0.2561   0.2611   0.2618
  0.2635   0.2652   0.2673   0.2686   0.2707   0.2725   0.2757   0.2812
  0.2814   0.2857   0.2880   0.2886   0.2910   0.2915   0.2947   0.2962
  0.2983   0.3013   0.3019   0.3038   0.3069   0.3081   0.3117   0.3148
  0.3159   0.3199   0.3211   0.3231   0.3244   0.3257   0.3281   0.3301
  0.3335   0.3366   0.3419   0.3446   0.3453   0.3489   0.3508   0.3530
  0.3585   0.3599   0.3624   0.3636   0.3688   0.3708   0.3774   0.3793
  0.3829   0.3870   0.3873   0.3895   0.3925   0.3952   0.3960   0.3986
  0.4012   0.4028   0.4052   0.4068   0.4076   0.4123   0.4147   0.4162
  0.4175   0.4210   0.4242   0.4285   0.4301   0.4339   0.4346   0.4368
  0.4408   0.4441   0.4488   0.4504   0.4518   0.4549   0.4583   0.4618
  0.4654   0.4702   0.4752   0.4825   0.4848   0.4857   0.4904   0.4917
  0.4956   0.4963   0.5025   0.5058   0.5106   0.5133   0.5142   0.5166
  0.5203   0.5276   0.5293   0.5344   0.5347   0.5357   0.5396   0.5417
  0.5447   0.5470   0.5491   0.5513   0.5547   0.5592   0.5608   0.5664
  0.5723   0.5745   0.5752   0.5800   0.5848   0.5886   0.5947   0.5975
  0.6004   0.6057   0.6113   0.6187   0.6216   0.6266   0.6319   0.6337
  0.6360   0.6416   0.6451   0.6473   0.6570   0.6588   0.6679   0.6732
  0.6750   0.6802   0.6836   0.6868   0.6909   0.6957   0.6988   0.7012
  0.7027   0.7079   0.7112   0.7128   0.7194   0.7235   0.7252   0.7326
  0.7369   0.7388   0.7397   0.7441   0.7500   0.7580   0.7631   0.7682
  0.7722   0.7838   0.7860   0.7942   0.7984   0.8049   0.8099   0.8194
  0.8211   0.8252   0.8323   0.8392   0.8441   0.8458   0.8497   0.8601
  0.8617   0.8638   0.8667   0.8734   0.8832   0.8879   0.8919   0.8949
  0.9018   0.9048   0.9070   0.9135   0.9164   0.9214   0.9284   0.9303
  0.9355   0.9382   0.9415   0.9526   0.9579   0.9651   0.9711   0.9744
  0.9795   0.9881   0.9928   0.9956   1.0030   1.0074   1.0113   1.0169
  1.0233   1.0305   1.0435   1.0464   1.0539   1.0607   1.0674   1.0703
  1.0764   1.0872   1.0927   1.0964   1.1114   1.1145   1.1251   1.1267
  1.1303   1.1373   1.1455   1.1500   1.1507   1.1524   1.1569   1.1679
  1.1692   1.1733   1.1754   1.1769   1.1817   1.1835   1.1914   1.1921
  1.1999   1.2026   1.2085   1.2130   1.2139   1.2184   1.2226   1.2282
  1.2358   1.2369   1.2402   1.2508   1.2562   1.2648   1.2744   1.2774
  1.2847   1.2885   1.2985   1.3049   1.3076   1.3202   1.3283   1.3313
  1.3368   1.3456   1.3521   1.3552   1.3691   1.3718   1.3758   1.3833
  1.3903   1.3948   1.3998   1.4054   1.4126   1.4185   1.4259   1.4324
  1.4357   1.4415   1.4483   1.4560   1.4612   1.4642   1.4683   1.4767
  1.4879   1.4934   1.4958   1.5055   1.5163   1.5217   1.5255   1.5319
  1.5352   1.5390   1.5409   1.5468   1.5524   1.5571   1.5598   1.5647
  1.5712   1.5726   1.5743   1.5825   1.5861   1.5906   1.5943   1.6038
  1.6094   1.6146   1.6194   1.6292   1.6316   1.6385   1.6442   1.6459
  1.6500   1.6588   1.6718   1.6745   1.6755   1.6801   1.6850   1.6900
  1.6978   1.7093   1.7129   1.7173   1.7219   1.7266   1.7276   1.7367
  1.7439   1.7505   1.7525   1.7585   1.7669   1.7776   1.7805   1.7849
  1.7869   1.7925   1.7966   1.8086   1.8189   1.8317   1.8397   1.8453
  1.8478   1.8503   1.8561   1.8569   1.8605   1.8702   1.8742   1.8888
  1.8913   1.8932   1.9003   1.9134   1.9188   1.9230   1.9271   1.9385
  1.9454   1.9497   1.9538   1.9578   1.9677   1.9746   1.9839   1.9862
  1.9993   2.0017   2.0083   2.0198   2.0267   2.0547   2.0593   2.0689
  2.0739   2.0771   2.0822   2.1348   2.1497   2.1615   2.1640   2.1662
  2.1753   2.1816   2.1841   2.1882   2.1909   2.1930   2.1949   2.1964
  2.2015   2.2032   2.2072   2.2104   2.2117   2.2178   2.2225   2.2261
  2.2296   2.2314   2.2343   2.2386   2.2416   2.2478   2.2486   2.2532
  2.2543   2.2573   2.2606   2.2671   2.2702   2.2720   2.2742   2.2853
  2.2949   2.2975   2.3066   2.3141   2.3216   2.3347   2.3508   2.3810
  2.6159   2.6601   2.6692   2.6823   2.6871   2.6937   2.6996   2.7034
  2.7086   2.7223   2.7242   2.7290   2.7368   2.7470   2.7492   2.7601
  2.7635   2.7675   2.7706   2.7776   2.7794   2.7834   2.7998   2.8013
  2.8115   2.8198   2.8337   2.8389   2.8737   2.9042   2.9097   2.9217
  2.9246   2.9613   2.9752   2.9879   2.9951   3.0006   3.0074   3.0155
  3.0629   3.0865   3.1076   3.1153
 
 Beta MOs
 -- Occupied --
-89.1153 -89.0286 -10.3730 -10.3689 -10.3679 -10.3404 -10.3397 -10.3375
-10.3336 -10.3317 -10.3316 -10.3305 -10.3301 -10.3289 -10.3272 -10.3233
-10.3231 -10.3201 -10.3181 -10.3155 -10.3139 -10.3074 -10.3027 -10.3026
-10.3020 -10.3007  -8.1429  -8.0578  -6.0193  -6.0188  -6.0087  -5.9356
 -5.9311  -5.9242  -0.9107  -0.8179  -0.7983  -0.7940  -0.7737  -0.7539
 -0.7455  -0.7333  -0.7306  -0.7170  -0.7149  -0.6958  -0.6954  -0.6779
 -0.6274  -0.6202  -0.6151  -0.6088  -0.6066  -0.5856  -0.5834  -0.5643
 -0.5369  -0.5291  -0.5111  -0.5058  -0.4976  -0.4908  -0.4783  -0.4603
 -0.4593  -0.4559  -0.4480  -0.4425  -0.4334  -0.4319  -0.4272  -0.4231
 -0.4207  -0.4087  -0.4023  -0.3999  -0.3923  -0.3912  -0.3852  -0.3790
 -0.3741  -0.3716  -0.3667  -0.3573  -0.3540  -0.3508  -0.3303  -0.3249
 -0.3187  -0.2964  -0.2895  -0.2828  -0.2765  -0.2695  -0.2668  -0.2520
 -0.2457
 -- Virtual --
 -0.1935  -0.1693  -0.1524  -0.1481  -0.1460  -0.1416  -0.1369  -0.1253
 -0.1224  -0.1034  -0.0743  -0.0658  -0.0610  -0.0535  -0.0481  -0.0429
 -0.0352  -0.0312  -0.0272  -0.0221  -0.0187  -0.0165  -0.0147  -0.0126
 -0.0099  -0.0067  -0.0053  -0.0022  -0.0006   0.0018   0.0032   0.0060
  0.0068   0.0092   0.0140   0.0227   0.0240   0.0272   0.0335   0.0383
  0.0444   0.0492   0.0507   0.0560   0.0597   0.0681   0.0696   0.0714
  0.0737   0.0758   0.0770   0.0806   0.0827   0.0863   0.0875   0.0879
  0.0924   0.0934   0.0945   0.0977   0.1007   0.1034   0.1050   0.1082
  0.1100   0.1107   0.1123   0.1151   0.1184   0.1197   0.1214   0.1229
  0.1253   0.1298   0.1301   0.1332   0.1350   0.1364   0.1377   0.1419
  0.1456   0.1479   0.1497   0.1529   0.1566   0.1601   0.1674   0.1681
  0.1693   0.1720   0.1737   0.1753   0.1804   0.1844   0.1926   0.1938
  0.1977   0.1993   0.2023   0.2037   0.2075   0.2088   0.2132   0.2155
  0.2204   0.2219   0.2280   0.2295   0.2304   0.2350   0.2357   0.2419
  0.2425   0.2440   0.2463   0.2493   0.2531   0.2535   0.2570   0.2622
  0.2633   0.2651   0.2663   0.2678   0.2694   0.2714   0.2738   0.2766
  0.2818   0.2820   0.2867   0.2886   0.2895   0.2921   0.2928   0.2952
  0.2969   0.2992   0.3023   0.3031   0.3045   0.3080   0.3098   0.3127
  0.3154   0.3165   0.3208   0.3215   0.3239   0.3253   0.3265   0.3289
  0.3312   0.3346   0.3372   0.3429   0.3454   0.3461   0.3501   0.3518
  0.3542   0.3593   0.3608   0.3635   0.3658   0.3696   0.3718   0.3787
  0.3810   0.3839   0.3878   0.3885   0.3903   0.3933   0.3958   0.3973
  0.4000   0.4021   0.4035   0.4059   0.4084   0.4094   0.4131   0.4155
  0.4169   0.4186   0.4216   0.4247   0.4292   0.4314   0.4352   0.4354
  0.4374   0.4434   0.4448   0.4497   0.4514   0.4525   0.4568   0.4597
  0.4639   0.4675   0.4717   0.4761   0.4837   0.4860   0.4871   0.4919
  0.4928   0.4975   0.4977   0.5033   0.5075   0.5126   0.5141   0.5151
  0.5181   0.5213   0.5296   0.5314   0.5350   0.5354   0.5369   0.5407
  0.5429   0.5461   0.5483   0.5505   0.5524   0.5556   0.5604   0.5622
  0.5676   0.5739   0.5753   0.5759   0.5822   0.5862   0.5903   0.5958
  0.5991   0.6022   0.6080   0.6130   0.6201   0.6235   0.6290   0.6341
  0.6350   0.6383   0.6429   0.6467   0.6489   0.6583   0.6609   0.6693
  0.6750   0.6770   0.6828   0.6849   0.6884   0.6924   0.6971   0.7004
  0.7022   0.7035   0.7097   0.7126   0.7151   0.7206   0.7251   0.7265
  0.7339   0.7380   0.7402   0.7414   0.7460   0.7513   0.7592   0.7652
  0.7698   0.7728   0.7849   0.7870   0.7952   0.7992   0.8060   0.8125
  0.8202   0.8227   0.8272   0.8330   0.8401   0.8451   0.8472   0.8507
  0.8604   0.8624   0.8644   0.8683   0.8755   0.8845   0.8898   0.8939
  0.8964   0.9034   0.9056   0.9096   0.9154   0.9180   0.9224   0.9303
  0.9324   0.9367   0.9385   0.9424   0.9531   0.9607   0.9690   0.9731
  0.9764   0.9825   0.9899   0.9950   0.9973   1.0067   1.0091   1.0131
  1.0192   1.0259   1.0333   1.0456   1.0494   1.0562   1.0625   1.0692
  1.0733   1.0799   1.0910   1.0949   1.0995   1.1143   1.1164   1.1271
  1.1293   1.1365   1.1410   1.1472   1.1505   1.1529   1.1547   1.1599
  1.1689   1.1705   1.1744   1.1768   1.1785   1.1829   1.1848   1.1922
  1.1932   1.2011   1.2049   1.2083   1.2140   1.2164   1.2201   1.2249
  1.2318   1.2377   1.2383   1.2430   1.2523   1.2588   1.2665   1.2765
  1.2791   1.2869   1.2903   1.3006   1.3082   1.3103   1.3234   1.3302
  1.3340   1.3397   1.3483   1.3541   1.3580   1.3713   1.3748   1.3785
  1.3855   1.3927   1.3966   1.4022   1.4082   1.4178   1.4231   1.4287
  1.4350   1.4387   1.4446   1.4504   1.4579   1.4639   1.4660   1.4706
  1.4792   1.4904   1.4952   1.4977   1.5081   1.5167   1.5228   1.5270
  1.5333   1.5368   1.5411   1.5426   1.5486   1.5535   1.5587   1.5615
  1.5651   1.5724   1.5736   1.5752   1.5845   1.5872   1.5928   1.5957
  1.6055   1.6104   1.6170   1.6222   1.6307   1.6332   1.6395   1.6457
  1.6472   1.6539   1.6621   1.6738   1.6773   1.6782   1.6826   1.6873
  1.6941   1.7070   1.7107   1.7154   1.7184   1.7238   1.7286   1.7302
  1.7392   1.7462   1.7520   1.7603   1.7620   1.7690   1.7797   1.7829
  1.7867   1.7889   1.7956   1.7983   1.8109   1.8251   1.8334   1.8408
  1.8456   1.8492   1.8521   1.8569   1.8596   1.8617   1.8754   1.8763
  1.8913   1.8932   1.8981   1.9030   1.9124   1.9207   1.9271   1.9311
  1.9394   1.9463   1.9511   1.9579   1.9615   1.9690   1.9782   1.9871
  1.9956   2.0017   2.0028   2.0118   2.0211   2.0283   2.0569   2.0626
  2.0745   2.0766   2.0828   2.0859   2.1416   2.1518   2.1648   2.1666
  2.1702   2.1800   2.1833   2.1846   2.1890   2.1924   2.1952   2.1975
  2.1984   2.2021   2.2068   2.2086   2.2114   2.2133   2.2193   2.2254
  2.2284   2.2315   2.2351   2.2388   2.2423   2.2426   2.2508   2.2510
  2.2537   2.2580   2.2595   2.2616   2.2685   2.2719   2.2731   2.2768
  2.2880   2.2975   2.3020   2.3085   2.3156   2.3250   2.3428   2.3575
  2.3938   2.6292   2.6609   2.6698   2.6832   2.6878   2.6949   2.7010
  2.7051   2.7111   2.7234   2.7246   2.7299   2.7431   2.7507   2.7557
  2.7605   2.7657   2.7710   2.7731   2.7795   2.7805   2.7845   2.8004
  2.8021   2.8117   2.8201   2.8358   2.8409   2.8740   2.9057   2.9099
  2.9224   2.9252   2.9667   2.9788   2.9887   2.9963   3.0016   3.0094
  3.0220   3.0649   3.0867   3.1081   3.1157
 --------------------------------------------------------------
 
          Ground-State Mulliken Net Atomic Charges

     Atom                 Charge (a.u.)    Spin (a.u.)
  --------------------------------------------------------
      1 S                    -0.522337       0.020037
      2 C                    -0.304771       0.036675
      3 C                     0.350276      -0.031217
      4 H                     0.109741       0.002921
      5 C                    -0.024596       0.015898
      6 H                     0.031983      -0.000655
      7 C                     0.009251      -0.016040
      8 H                     0.016655       0.000862
      9 C                     0.043050       0.015213
     10 H                    -0.000435      -0.000556
     11 C                     0.328408      -0.014971
     12 H                     0.027473       0.000942
     13 C                    -0.407535       0.043201
     14 C                     0.333408      -0.005727
     15 H                     0.137412       0.000926
     16 C                    -0.020875       0.009417
     17 H                    -0.021649       0.000046
     18 C                     0.109925      -0.010089
     19 H                     0.121528       0.000386
     20 C                    -0.008183       0.009348
     21 H                     0.081761       0.000130
     22 C                     0.301920      -0.007382
     23 H                     0.025354       0.001136
     24 S                    -1.024713      -0.022744
     25 C                    -0.069139       0.693482
     26 C                     0.204857      -0.558121
     27 H                     0.043941       0.016427
     28 C                     0.115236       0.763738
     29 H                    -0.014800      -0.044022
     30 C                     0.063493      -0.573905
     31 H                     0.052068       0.019867
     32 C                     0.132231       0.744682
     33 H                    -0.099767      -0.023731
     34 C                     0.038732      -0.165228
     35 H                     0.150388       0.032775
     36 C                    -0.294471       0.016431
     37 C                     0.493121       0.021835
     38 H                     0.153635       0.001210
     39 C                    -0.137850      -0.018279
     40 H                     0.043457       0.001371
     41 C                    -0.021817       0.021097
     42 H                     0.054018      -0.001414
     43 C                     0.019630      -0.015899
     44 H                     0.027618       0.000728
     45 C                     0.268901       0.018688
     46 H                     0.083468       0.000513
  --------------------------------------------------------
  Sum of atomic charges =     1.000000
  Sum of spin   charges =     1.000000

  Building new vdw surfaces
         Merz-Kollman RESP Net Atomic Charges

     Atom                 Charge (a.u.)
  ----------------------------------------
      1 S                    -0.373397
      2 C                     0.478771
      3 C                    -0.368452
      4 H                     0.223663
      5 C                    -0.091885
      6 H                     0.195462
      7 C                    -0.189713
      8 H                     0.212649
      9 C                    -0.121917
     10 H                     0.206255
     11 C                    -0.372399
     12 H                     0.246087
     13 C                     0.186491
     14 C                    -0.187199
     15 H                     0.223663
     16 C                    -0.175105
     17 H                     0.222478
     18 C                    -0.115852
     19 H                     0.186376
     20 C                    -0.121917
     21 H                     0.206255
     22 C                    -0.231122
     23 H                     0.230502
     24 S                    -0.144532
     25 C                     0.052903
     26 C                    -0.292121
     27 H                     0.222083
     28 C                    -0.028832
     29 H                     0.179591
     30 C                    -0.210298
     31 H                     0.210275
     32 C                    -0.318100
     33 H                     0.221674
     34 C                     0.358613
     35 H                     0.162906
     36 C                     0.161546
     37 C                    -0.250532
     38 H                     0.176521
     39 C                    -0.166201
     40 H                     0.188616
     41 C                    -0.166187
     42 H                     0.191787
     43 C                    -0.157356
     44 H                     0.178876
     45 C                    -0.243309
     46 H                     0.202382
  ----------------------------------------
  Sum of atomic charges =     1.000000

  Related Dipole Moment =     5.9164 (X  5.9043 Y -0.3662 Z  0.0982)

 -----------------------------------------------------------------
                    Cartesian Multipole Moments
 -----------------------------------------------------------------
    Charge (ESU x 10^10)
                 4.8032
    Dipole Moment (Debye)
         X       5.9041      Y      -0.3484      Z       0.1077
       Tot       5.9154
    Quadrupole Moments (Debye-Ang)
        XX    -109.1427     XY      16.7883     YY    -118.2533
        XZ      -2.2122     YZ      -1.1284     ZZ    -137.8133
    Octopole Moments (Debye-Ang^2)
       XXX     120.8749    XXY     103.6902    XYY      21.7187
       YYY    -146.0815    XXZ      70.0919    XYZ      14.3191
       YYZ      -5.6635    XZZ     -51.9656    YZZ     -88.4400
       ZZZ     265.2624
    Hexadecapole Moments (Debye-Ang^3)
      XXXX   -5481.5409   XXXY      24.2594   XXYY   -1311.7467
      XYYY     383.0954   YYYY   -4262.7392   XXXZ      -1.0502
      XXYZ     118.9676   XYYZ    -109.7922   YYYZ     183.4175
      XXZZ   -1777.2238   XYZZ     -10.5631   YYZZ   -1372.3873
      XZZZ    -187.4023   YZZZ      22.9286   ZZZZ   -3622.7487
 -----------------------------------------------------------------
 Calculating analytic gradient of the SCF energy
 Gradient of SCF Energy
            1           2           3           4           5           6
    1  -0.0417617   0.0344964  -0.0015341  -0.0144444  -0.0430782  -0.0450239
    2  -0.0447710   0.0437741  -0.0145537  -0.0354842  -0.0605005  -0.0565702
    3  -0.0864839  -0.0965610  -0.0288815  -0.0619774  -0.0118022   0.0022787
            7           8           9          10          11          12
    1  -0.0314459  -0.0322926   0.0207831   0.0082673   0.0365199   0.0501677
    2  -0.0292510  -0.0300054   0.0303938   0.0253899   0.0304326   0.0586466
    3   0.0783054   0.0572133   0.0527303   0.0729318  -0.0146277   0.0063277
           13          14          15          16          17          18
    1  -0.0603881   0.0134711   0.0191523   0.0796794   0.0695872   0.0276748
    2  -0.0658030  -0.0544068  -0.0696018  -0.0137621  -0.0161860   0.0388897
    3  -0.0039640   0.0137877   0.0182159   0.0364658   0.0267519   0.0018660
           19          20          21          22          23          24
    1   0.0600037  -0.0161100  -0.0267375  -0.0551822  -0.0665428   0.0065904
    2   0.0582735   0.0700482   0.0740179   0.0225574   0.0047101   0.0316883
    3   0.0040913  -0.0170910  -0.0284603  -0.0277517  -0.0257574  -0.0459911
           25          26          27          28          29          30
    1   0.0402998  -0.0512762  -0.0755808  -0.0516485  -0.0343307  -0.0063652
    2   0.0747537   0.0016245   0.0012654  -0.0519788  -0.0643193  -0.0649172
    3   0.0261668  -0.0168575  -0.0221351  -0.0064872  -0.0137562   0.0023478
           31          32          33          34          35          36
    1   0.0454551   0.0159722   0.0875953   0.0504496   0.0275465   0.0632331
    2  -0.0714278   0.0685774  -0.0112416   0.0553330   0.0430414  -0.0295410
    3   0.0024764   0.0265308   0.0157677   0.0903466  -0.0717818  -0.0498980
           37          38          39          40          41          42
    1   0.0495308   0.0475039   0.0021733   0.0029502  -0.0611256  -0.0489424
    2  -0.0303785  -0.0311673  -0.0209727  -0.0142282   0.0304386   0.0221929
    3   0.0087537   0.0251955   0.0684095   0.0736247   0.0431137   0.0505551
           43          44          45          46
    1  -0.0452217  -0.0567652   0.0144718  -0.0077773
    2   0.0257955   0.0429537   0.0061578   0.0201121
    3  -0.0267371  -0.0179335  -0.0596086  -0.0697099
 Max gradient component =       9.656E-02
 RMS gradient           =       4.404E-02
 Computing fast CPCM-SWIG gradient
 Updating gradient with PCM contributions...
 -- total gradient after adding PCM contribution --
---------------------------------------------------
  Atom         X              Y              Z     
---------------------------------------------------
   1      -0.028824      -0.050559      -0.059031
   2       0.047089       0.043960      -0.104768
   3      -0.006448      -0.020780      -0.044636
   4      -0.014824      -0.021889      -0.038467
   5      -0.051282      -0.071362      -0.017246
   6      -0.030626      -0.036685       0.002467
   7      -0.035954      -0.035580       0.089925
   8      -0.023028      -0.020800       0.038821
   9       0.023268       0.035296       0.062074
  10       0.004667       0.015967       0.047875
  11       0.041719       0.049476      -0.002915
  12       0.029643       0.040818       0.007783
  13      -0.054258      -0.055707      -0.010548
  14       0.010790      -0.070909       0.021593
  15       0.016799      -0.043532       0.015293
  16       0.095252      -0.010865       0.039078
  17       0.044642      -0.010979       0.017173
  18       0.032154       0.041969       0.001246
  19       0.038333       0.036956       0.002364
  20      -0.013532       0.086722      -0.020253
  21      -0.018450       0.050686      -0.019798
  22      -0.074235       0.012500      -0.030725
  23      -0.044320       0.006035      -0.018619
  24       0.005384       0.022651      -0.026083
  25       0.039487       0.071074       0.002137
  26      -0.059620       0.009992      -0.014618
  27      -0.053692      -0.003115      -0.013333
  28      -0.059550      -0.068618      -0.010759
  29      -0.022068      -0.042510      -0.005922
  30       0.008770      -0.072116       0.000623
  31       0.028842      -0.049122       0.002895
  32       0.039400       0.055006       0.015976
  33       0.054741      -0.004925       0.011554
  34       0.048589       0.067759       0.067341
  35       0.011327       0.021129      -0.036483
  36       0.082140      -0.028941      -0.062447
  37       0.044910      -0.032652       0.012781
  38       0.033223      -0.021978       0.019962
  39       0.008276      -0.026037       0.079529
  40       0.002151      -0.010768       0.053759
  41      -0.068396       0.035619       0.050559
  42      -0.036974       0.017949       0.039625
  43      -0.050079       0.028947      -0.028627
  44      -0.042346       0.031200      -0.012500
  45       0.004707       0.011658      -0.070702
  46      -0.007798       0.017062      -0.053955
---------------------------------------------------
 Number of fixed atoms: 0
 Gradient time:  CPU 672.81 s  wall 92.92 s

 *****************************************************
             Starting BFGS Algorithm
 *****************************************************
            LIBOPT3 RUN PARAMETERS

  Geometry Optimization Coordinates :
	Internal Coordinates

  Step Length Selection Method :
	Eigenvector Following Algorithm

  Convergence Criteria :
	Max Gradient Component    	3.00000000e-04
	Max Displacement Component	1.20000000e-03
	Absolute Energy Difference	1.00000000e-06

  Initial Hessian :
	Approximate Hessian - Simple Internal Coordinate Scaled

  Type of Verification :
	Verify with final updated Hessian
 *****************************************************

	OPTIMIZATION CYCLE:	1

 Scaling Magnitude of Eigenvalues
 	Minimum: -25.00000000	 Maximum: 25.00000000
 246 Hessian Eigenvalues to form next step
   0.10000000   0.10000000   0.10000000   0.10000000   0.10000000
   0.10000000   0.10000000   0.10000000   0.10000000   0.10000000
   0.10000000   0.10000000   0.10000000   0.10000000   0.10000000
   0.10000000   0.10000000   0.10000000   0.10000000   0.10000000
   0.10000000   0.10000000   0.10000000   0.10000000   0.10000000
   0.10000000   0.10000000   0.10000000   0.10000000   0.10000000
   0.10000000   0.10000000   0.10000000   0.10000000   0.10000000
   0.10000000   0.10000000   0.10000000   0.10000000   0.10000000
   0.10000000   0.10000000   0.10000000   0.10000000   0.10000000
   0.10000000   0.10000000   0.10000000   0.10000000   0.10000000
   0.10000000   0.10000000   0.10000000   0.10000000   0.10000000
   0.10000000   0.10000000   0.10000000   0.10000000   0.10000000
   0.10000000   0.10000000   0.10000000   0.10000000   0.10000000
   0.10000000   0.10000000   0.10000000   0.10000000   0.10000000
   0.10000000   0.10000000   0.10000000   0.10000000   0.10000000
   0.10000000   0.10000000   0.10000000   0.10000000   0.10000000
   0.10000000   0.10000000   0.10000000   0.10000000   0.10000000
   0.10000000   0.10000000   0.10000000   0.10000000   0.10000000
   0.10000000   0.10000000   0.10000000   0.10000000   0.10000000
   0.10000000   0.10000000   0.10000000   0.10000000   0.10000000
   0.10000000   0.10000000   0.10000000   0.10000000   0.10000000
   0.10000000   0.10000000   0.10000000   0.10000000   0.10000000
   0.10000000   0.10000000   0.10000000   0.10000000   0.10000000
   0.10000000   0.10000000   0.10000000   0.20000000   0.20000000
   0.20000000   0.20000000   0.20000000   0.20000000   0.20000000
   0.20000000   0.20000000   0.20000000   0.20000000   0.20000000
   0.20000000   0.20000000   0.20000000   0.20000000   0.20000000
   0.20000000   0.20000000   0.20000000   0.20000000   0.20000000
   0.20000000   0.20000000   0.20000000   0.20000000   0.20000000
   0.20000000   0.20000000   0.20000000   0.20000000   0.20000000
   0.20000000   0.20000000   0.20000000   0.20000000   0.20000000
   0.20000000   0.20000000   0.20000000   0.20000000   0.20000000
   0.20000000   0.20000000   0.20000000   0.20000000   0.20000000
   0.20000000   0.20000000   0.20000000   0.20000000   0.20000000
   0.20000000   0.20000000   0.20000000   0.20000000   0.20000000
   0.20000000   0.20000000   0.20000000   0.20000000   0.20000000
   0.20000000   0.20000000   0.20000000   0.20000000   0.20000000
   0.20000000   0.20000000   0.20000000   0.20000000   0.20000000
   0.20000000   0.20000000   0.20000000   0.20000000   0.20000000
   0.20000000   0.20000000   0.50000000   0.50000000   0.50000000
   0.50000000   0.50000000   0.50000000   0.50000000   0.50000000
   0.50000000   0.50000000   0.50000000   0.50000000   0.50000000
   0.50000000   0.50000000   0.50000000   0.50000000   0.50000000
   0.50000000   0.50000000   0.50000000   0.50000000   0.50000000
   0.50000000   0.50000000   0.50000000   0.50000000   0.50000000
   0.50000000   0.50000000   0.50000000   0.50000000   0.50000000
   0.50000000   0.50000000   0.50000000   0.50000000   0.50000000
   0.50000000   0.50000000   0.50000000   0.50000000   0.50000000
   0.50000000   0.50000000   0.50000000   0.50000000   0.50000000
   0.50000000

 Minimum Search taking a RFO step
 Searching for Lambda that minimizes along all modes
	Value of Lambda  -0.47666653
	Norm of Stepsize  0.70253827
	RMS of Stepsize  0.04479220

	Performing Iterative Coordinate Back-Transformation

	  Starting from Previous Position

	  iter:	0	rms: 2.3093846962e-01	maxdev: 6.0991877843e-01
	  iter:	1	rms: 4.8960520105e-03	maxdev: 1.6021297180e-02
	  iter:	2	rms: 7.2282693677e-06	maxdev: 2.4093932697e-05
	  iter:	3	rms: 2.3176539074e-09	maxdev: 7.6323882752e-09	 Success!

	Finished Iterative Coordinate Back-Transformation
 ----------------------------------------------------------------
             Standard Nuclear Orientation (Angstroms)
    I     Atom           X                Y                Z
 ----------------------------------------------------------------
    1      S       1.3880648273    -0.0935956627    -0.4496410256
    2      C       0.6168963990    -0.8496487442     1.0578502601
    3      C      -0.3617838552    -2.0868141557     1.0353807420
    4      H      -0.6495570300    -2.5813493354     0.0444717618
    5      C      -1.0330431897    -2.6757418158     2.3553749205
    6      H      -1.7583730530    -3.5578473069     2.2787745664
    7      C      -0.7374270309    -2.0408139470     3.7596312321
    8      H      -1.2499139625    -2.4541625794     4.6989789563
    9      C       0.2589785614    -0.7949432100     3.7988868310
   10      H       0.4561394930    -0.3144009183     4.8249298094
   11      C       0.9344884693    -0.1966396182     2.4856201026
   12      H       1.6272060548     0.7170413916     2.5959926364
   13      C       2.5576780845     1.3735448908    -0.3095406052
   14      C       3.9739462832     1.0777205023     0.3112766468
   15      H       4.2613412352     0.0265812038     0.6709566830
   16      C       5.0186063451     2.2552703402     0.4169858829
   17      H       6.0633747142     2.0532360680     0.8389487635
   18      C       4.5776310867     3.6698646391    -0.1214798130
   19      H       5.3665270915     4.5154496419    -0.0701405836
   20      C       3.1529739390     3.9899252170    -0.7304504801
   21      H       2.8530009129     5.0381622298    -1.1308972592
   22      C       2.0992156533     2.8131958254    -0.8365910562
   23      H       1.0525605167     2.9383307916    -1.2906698556
   24      S      -1.1055659000     1.1641024632    -2.6509663275
   25      C      -0.5057977923    -0.5666779449    -2.4451283800
   26      C      -1.4566791173    -1.8298850203    -2.6616552722
   27      H      -2.5796323886    -1.7095253246    -2.9207462673
   28      C      -0.9093647089    -3.3259460601    -2.5417216238
   29      H      -1.5547224541    -4.2570999531    -2.6965674846
   30      C       0.6346957760    -3.4973732810    -2.2407711971
   31      H       1.1435624652    -4.5403246702    -2.1654594168
   32      C       1.5631831822    -2.2582874809    -2.0370670713
   33      H       2.6903734746    -2.4218981401    -1.7998628005
   34      C       1.0766806668    -0.7109243770    -2.0595297940
   35      H       1.6432689520    -0.0716691624    -2.8348324479
   36      C      -2.3412828913     1.5505465018    -1.3473314552
   37      C      -2.2608657193     1.1631348007     0.1696345470
   38      H      -1.3678965090     0.5627332384     0.5610072663
   39      C      -3.3608558170     1.5835564029     1.2498119988
   40      H      -3.2240190911     1.2790305354     2.3589314066
   41      C      -4.5975504800     2.4561621338     0.8064100216
   42      H      -5.3808917294     2.7925340693     1.5968258476
   43      C      -4.7064036328     2.8359812434    -0.7265291911
   44      H      -5.6114705439     3.4877932408    -1.0424979044
   45      C      -3.6161569036     2.4091471438    -1.8057969681
   46      H      -3.7675303840     2.7581031933    -2.9054976025
 ----------------------------------------------------------------
 Nuclear Repulsion Energy =        2356.87266113 hartrees
 There are       98 alpha and       97 beta electrons
 Discretize the solute cavity surface with Lebedev spheres
	Using 194 Lebedev grid points for each H atom
	Using 194 Lebedev grid points for other atoms
	Atomic van der Waals radii (UFF set) will be scaled by 1.10
 Using smooth SwiG surface discretization
 Remove points where switching function is < 1.0e-08
 Keep 3816 surface tesserae and discard 5108 interior tesserae
 Molecular Surface Area = 502.590 Angst**2

 Applying Cartesian multipole field
    Component          Value
    ---------          -----
     (2,0,0)        1.00000E-12
     (0,2,0)        2.00000E-12
     (0,0,2)       -3.00000E-11
 Nucleus-field energy     =-6.7757755680e-08 hartrees
 Requested basis set is def2-SVPD
 There are 294 shells and 694 basis functions
 A cutoff of  1.0D-16 yielded  37174 shell pairs
 There are    208134 function pairs (    240884 Cartesian)
 Smallest overlap matrix eigenvalue = 1.33E-05
 Guess MOs from SCF MO coefficient file

 -----------------------------------------------------------------------
  General SCF calculation program by
  Eric Jon Sundstrom, Paul Horn, Yuezhi Mao, Dmitri Zuev, Alec White,
  David Stuck, Shaama M.S., Shane Yost, Joonho Lee, David Small,
  Daniel Levine, Susi Lehtola, Hugh Burton, Evgeny Epifanovsky,
  Bang C. Huynh
 -----------------------------------------------------------------------
 Exchange:  B97M-V      Correlation:  B97M-V
 Using SG-3 standard quadrature grid
 Nonlocal Correlation:  VV10 with C = 0.0100 and b = 6.00 and scale = 1.00000
 Grid used for NLC:  SG-1 standard quadrature
 A unrestricted SCF calculation will be
 performed using Roothaan-Hall, DIIS
 SCF converges when DIIS error is below 1.0e-08
 ---------------------------------------
  Cycle       Energy         DIIS error
 ---------------------------------------
    1   -1720.8074030759      1.24e-03  Roothaan Step
 ---------------------------------------
  Cycle       Energy         DIIS error
 ---------------------------------------
    1   -1720.9276451423      1.89e-04  
    2   -1720.8646200171      4.75e-04  
    3   -1720.9395319160      8.20e-05  
    4   -1720.9414372385      2.50e-05  
    5   -1720.9416075520      1.15e-05  
    6   -1720.9416458671      4.98e-06  
    7   -1720.9416557098      2.35e-06  
    8   -1720.9416595611      1.60e-06  
    9   -1720.9416617327      1.12e-06  
   10   -1720.9416626162      5.29e-07  
   11   -1720.9416627525      3.29e-07  
   12   -1720.9416628087      1.39e-07  
   13   -1720.9416628319      1.00e-07  
   14   -1720.9416628547      8.92e-08  
   15   -1720.9416628773      6.32e-08  
   16   -1720.9416628874      4.09e-08  
   17   -1720.9416628896      2.70e-08  
   18   -1720.9416628900      1.16e-08  
   19   -1720.9416628901      6.41e-09  Convergence criterion met
 ---------------------------------------
 SCF time:   CPU 12366.82s  wall 592.00s 
<S^2> =          0.886786092

************** Final PCM Free Energy Summary **************
 G_electrostatic  =      -0.04108218 hartree =     -25.77945536 kcal/mol
 G_cavitation     =       0.00000000 hartree =       0.00000000 kcal/mol
 G_dispersion     =       0.00000000 hartree =       0.00000000 kcal/mol
 G_repulsion      =       0.00000000 hartree =       0.00000000 kcal/mol
 --------------------------------------------------
 Non-electrostatic Free Energy =       0.00000000 hartree =       0.00000000 kcal/mol
 Total                         =      -0.04108218 hartree =     -25.77945536 kcal/mol
 --------------------------------------------------
 SCF Energy (H0 + V/2)                       =   -1720.94166289 
 Solute Internal Energy (H0)                 =   -1720.90058071 
 Total Free Energy (H0 + V/2 + non-elec)     =   -1720.94166289 hartree
                                             = -1079907.19250201 kcal/mol
***********************************************************

 SCF   energy in the final basis set =    -1720.9416628901
 Total energy in the final basis set =    -1720.9416628901
 
 --------------------------------------------------------------
 
                    Orbital Energies (a.u.)
 --------------------------------------------------------------
 
 Alpha MOs
 -- Occupied --
-89.1119 -89.0236 -10.3621 -10.3598 -10.3584 -10.3388 -10.3245 -10.3222
-10.3183 -10.3180 -10.3147 -10.3138 -10.3135 -10.3124 -10.3115 -10.3111
-10.3109 -10.3080 -10.3050 -10.3039 -10.3022 -10.2914 -10.2872 -10.2867
-10.2857 -10.2845  -8.1398  -8.0537  -6.0164  -6.0161  -6.0059  -5.9312
 -5.9268  -5.9204  -0.9177  -0.8404  -0.8226  -0.8157  -0.7985  -0.7772
 -0.7634  -0.7502  -0.7473  -0.7346  -0.7336  -0.7129  -0.7120  -0.6874
 -0.6446  -0.6300  -0.6241  -0.6179  -0.6159  -0.5940  -0.5923  -0.5738
 -0.5409  -0.5324  -0.5141  -0.5124  -0.5063  -0.5039  -0.4873  -0.4731
 -0.4699  -0.4664  -0.4590  -0.4526  -0.4464  -0.4445  -0.4383  -0.4346
 -0.4312  -0.4226  -0.4135  -0.4076  -0.3972  -0.3965  -0.3927  -0.3840
 -0.3821  -0.3778  -0.3749  -0.3699  -0.3629  -0.3555  -0.3432  -0.3387
 -0.3356  -0.3057  -0.2965  -0.2901  -0.2884  -0.2778  -0.2713  -0.2582
 -0.2550  -0.2396
 -- Virtual --
 -0.1598  -0.1464  -0.1388  -0.1378  -0.1359  -0.1309  -0.1168  -0.1121
 -0.0928  -0.0684  -0.0520  -0.0507  -0.0438  -0.0359  -0.0315  -0.0233
 -0.0230  -0.0172  -0.0105  -0.0096  -0.0067  -0.0032  -0.0024   0.0018
  0.0047   0.0063   0.0079   0.0104   0.0116   0.0143   0.0162   0.0195
  0.0222   0.0277   0.0303   0.0387   0.0419   0.0471   0.0486   0.0501
  0.0575   0.0630   0.0661   0.0674   0.0774   0.0806   0.0814   0.0833
  0.0877   0.0918   0.0925   0.0950   0.0978   0.1009   0.1022   0.1042
  0.1056   0.1076   0.1099   0.1125   0.1152   0.1173   0.1199   0.1224
  0.1232   0.1248   0.1264   0.1268   0.1303   0.1315   0.1335   0.1374
  0.1381   0.1395   0.1429   0.1450   0.1482   0.1509   0.1537   0.1572
  0.1617   0.1628   0.1681   0.1692   0.1721   0.1731   0.1797   0.1818
  0.1854   0.1879   0.1899   0.1947   0.1958   0.1999   0.2049   0.2064
  0.2077   0.2108   0.2138   0.2171   0.2212   0.2223   0.2275   0.2334
  0.2390   0.2402   0.2426   0.2453   0.2496   0.2506   0.2543   0.2565
  0.2592   0.2606   0.2652   0.2674   0.2692   0.2723   0.2755   0.2779
  0.2785   0.2794   0.2822   0.2843   0.2857   0.2901   0.2916   0.2943
  0.2955   0.2983   0.3030   0.3038   0.3059   0.3083   0.3111   0.3129
  0.3141   0.3172   0.3181   0.3212   0.3224   0.3244   0.3272   0.3315
  0.3321   0.3338   0.3367   0.3387   0.3410   0.3426   0.3480   0.3494
  0.3526   0.3532   0.3546   0.3564   0.3583   0.3618   0.3643   0.3681
  0.3696   0.3732   0.3749   0.3790   0.3819   0.3825   0.3870   0.3895
  0.3923   0.3929   0.3955   0.3965   0.3997   0.4021   0.4041   0.4057
  0.4079   0.4112   0.4130   0.4167   0.4180   0.4214   0.4245   0.4248
  0.4298   0.4318   0.4367   0.4391   0.4434   0.4478   0.4482   0.4519
  0.4548   0.4593   0.4629   0.4647   0.4678   0.4697   0.4728   0.4794
  0.4797   0.4868   0.4929   0.4959   0.4986   0.5032   0.5057   0.5091
  0.5113   0.5146   0.5168   0.5205   0.5235   0.5276   0.5290   0.5344
  0.5364   0.5386   0.5422   0.5450   0.5478   0.5515   0.5540   0.5563
  0.5594   0.5607   0.5632   0.5648   0.5674   0.5696   0.5795   0.5816
  0.5828   0.5876   0.5931   0.5973   0.6002   0.6044   0.6058   0.6111
  0.6159   0.6199   0.6261   0.6334   0.6357   0.6408   0.6445   0.6538
  0.6547   0.6596   0.6631   0.6688   0.6709   0.6732   0.6809   0.6900
  0.6953   0.6990   0.7013   0.7040   0.7056   0.7088   0.7134   0.7181
  0.7187   0.7222   0.7260   0.7273   0.7312   0.7342   0.7378   0.7418
  0.7495   0.7540   0.7568   0.7591   0.7656   0.7693   0.7811   0.7842
  0.7930   0.8049   0.8145   0.8158   0.8225   0.8279   0.8322   0.8380
  0.8427   0.8496   0.8516   0.8593   0.8641   0.8652   0.8727   0.8792
  0.8813   0.8847   0.8893   0.8927   0.8988   0.9085   0.9132   0.9159
  0.9217   0.9226   0.9275   0.9297   0.9354   0.9408   0.9447   0.9524
  0.9592   0.9626   0.9673   0.9738   0.9774   0.9905   0.9956   0.9988
  1.0030   1.0147   1.0160   1.0192   1.0291   1.0341   1.0411   1.0444
  1.0559   1.0647   1.0717   1.0822   1.0866   1.0906   1.0958   1.1006
  1.1053   1.1096   1.1126   1.1219   1.1250   1.1314   1.1326   1.1398
  1.1411   1.1465   1.1532   1.1559   1.1605   1.1628   1.1669   1.1683
  1.1767   1.1798   1.1858   1.1907   1.1946   1.2007   1.2025   1.2097
  1.2172   1.2197   1.2234   1.2275   1.2325   1.2424   1.2442   1.2456
  1.2544   1.2598   1.2630   1.2665   1.2753   1.2817   1.2880   1.2954
  1.2963   1.3046   1.3126   1.3200   1.3244   1.3372   1.3394   1.3508
  1.3550   1.3581   1.3660   1.3753   1.3805   1.3869   1.3922   1.4031
  1.4039   1.4112   1.4167   1.4229   1.4315   1.4363   1.4433   1.4492
  1.4525   1.4693   1.4758   1.4803   1.4861   1.4916   1.4978   1.5082
  1.5151   1.5204   1.5261   1.5334   1.5352   1.5364   1.5421   1.5517
  1.5565   1.5599   1.5653   1.5666   1.5689   1.5737   1.5789   1.5801
  1.5869   1.5885   1.5919   1.6001   1.6101   1.6146   1.6197   1.6344
  1.6399   1.6437   1.6523   1.6539   1.6626   1.6688   1.6733   1.6767
  1.6813   1.6977   1.7011   1.7067   1.7169   1.7206   1.7245   1.7272
  1.7343   1.7355   1.7460   1.7502   1.7558   1.7606   1.7656   1.7720
  1.7756   1.7813   1.7932   1.7947   1.8032   1.8039   1.8125   1.8200
  1.8234   1.8312   1.8344   1.8397   1.8509   1.8559   1.8632   1.8705
  1.8717   1.8759   1.8822   1.8882   1.8929   1.9053   1.9106   1.9164
  1.9270   1.9309   1.9382   1.9531   1.9634   1.9691   1.9785   1.9821
  1.9883   1.9921   1.9959   2.0052   2.0097   2.0199   2.0350   2.0376
  2.0491   2.0575   2.0688   2.0698   2.0788   2.0877   2.0934   2.1180
  2.1235   2.1322   2.1456   2.1711   2.1880   2.2000   2.2072   2.2229
  2.2237   2.2249   2.2315   2.2369   2.2406   2.2461   2.2499   2.2529
  2.2578   2.2586   2.2614   2.2675   2.2701   2.2757   2.2787   2.2855
  2.2888   2.2982   2.3002   2.3070   2.3100   2.3174   2.3205   2.3221
  2.3305   2.3323   2.3349   2.3381   2.3412   2.3481   2.3507   2.3587
  2.3666   2.3714   2.3778   2.3872   2.3925   2.4001   2.4078   2.4367
  2.6406   2.7078   2.7191   2.7341   2.7396   2.7486   2.7615   2.7619
  2.7666   2.7726   2.7778   2.7838   2.7850   2.7930   2.8041   2.8225
  2.8258   2.8279   2.8326   2.8363   2.8457   2.8463   2.8544   2.8602
  2.8725   2.8735   2.8814   2.8935   2.9187   2.9577   2.9677   2.9770
  2.9897   3.0239   3.0446   3.0532   3.0737   3.0946   3.1009   3.1115
  3.1648   3.2107   3.2237   3.2365
 
 Beta MOs
 -- Occupied --
-89.1113 -89.0236 -10.3618 -10.3605 -10.3578 -10.3305 -10.3245 -10.3222
-10.3184 -10.3175 -10.3174 -10.3146 -10.3139 -10.3135 -10.3109 -10.3086
-10.3079 -10.3049 -10.3035 -10.3029 -10.3023 -10.2913 -10.2870 -10.2868
-10.2858 -10.2843  -8.1394  -8.0537  -6.0158  -6.0154  -6.0053  -5.9313
 -5.9268  -5.9202  -0.9146  -0.8355  -0.8220  -0.8142  -0.7959  -0.7739
 -0.7605  -0.7497  -0.7471  -0.7345  -0.7306  -0.7120  -0.7081  -0.6887
 -0.6356  -0.6285  -0.6235  -0.6164  -0.6138  -0.5937  -0.5908  -0.5709
 -0.5396  -0.5297  -0.5140  -0.5113  -0.5039  -0.5003  -0.4870  -0.4709
 -0.4678  -0.4648  -0.4583  -0.4518  -0.4458  -0.4442  -0.4367  -0.4327
 -0.4310  -0.4215  -0.4128  -0.4066  -0.3963  -0.3953  -0.3908  -0.3834
 -0.3804  -0.3773  -0.3736  -0.3693  -0.3607  -0.3544  -0.3405  -0.3338
 -0.3280  -0.3009  -0.2957  -0.2887  -0.2831  -0.2755  -0.2706  -0.2578
 -0.2478
 -- Virtual --
 -0.1940  -0.1582  -0.1418  -0.1373  -0.1358  -0.1320  -0.1278  -0.1145
 -0.1117  -0.0892  -0.0584  -0.0481  -0.0437  -0.0417  -0.0314  -0.0307
 -0.0223  -0.0217  -0.0166  -0.0087  -0.0086  -0.0048  -0.0020  -0.0009
  0.0025   0.0061   0.0068   0.0082   0.0117   0.0123   0.0159   0.0176
  0.0204   0.0236   0.0305   0.0322   0.0397   0.0434   0.0483   0.0507
  0.0511   0.0595   0.0644   0.0668   0.0703   0.0780   0.0820   0.0836
  0.0848   0.0882   0.0928   0.0940   0.0964   0.0989   0.1016   0.1029
  0.1059   0.1075   0.1085   0.1101   0.1135   0.1165   0.1187   0.1208
  0.1234   0.1241   0.1255   0.1272   0.1275   0.1304   0.1324   0.1347
  0.1384   0.1390   0.1405   0.1443   0.1455   0.1490   0.1515   0.1549
  0.1576   0.1627   0.1643   0.1691   0.1712   0.1747   0.1751   0.1807
  0.1833   0.1859   0.1891   0.1914   0.1958   0.1969   0.2005   0.2072
  0.2081   0.2091   0.2119   0.2154   0.2185   0.2222   0.2239   0.2284
  0.2343   0.2402   0.2421   0.2437   0.2476   0.2508   0.2521   0.2552
  0.2576   0.2605   0.2620   0.2664   0.2683   0.2707   0.2727   0.2762
  0.2792   0.2793   0.2804   0.2830   0.2851   0.2869   0.2910   0.2922
  0.2948   0.2961   0.2994   0.3036   0.3047   0.3069   0.3093   0.3119
  0.3138   0.3153   0.3177   0.3190   0.3224   0.3240   0.3254   0.3279
  0.3324   0.3324   0.3350   0.3373   0.3398   0.3425   0.3438   0.3493
  0.3499   0.3532   0.3540   0.3556   0.3572   0.3597   0.3634   0.3652
  0.3694   0.3710   0.3747   0.3757   0.3795   0.3833   0.3836   0.3877
  0.3900   0.3930   0.3941   0.3967   0.3971   0.4010   0.4031   0.4053
  0.4070   0.4086   0.4124   0.4141   0.4175   0.4193   0.4231   0.4249
  0.4255   0.4315   0.4327   0.4375   0.4407   0.4440   0.4487   0.4499
  0.4528   0.4571   0.4610   0.4638   0.4662   0.4694   0.4709   0.4743
  0.4805   0.4812   0.4887   0.4945   0.4971   0.5000   0.5043   0.5065
  0.5109   0.5128   0.5156   0.5185   0.5219   0.5251   0.5286   0.5296
  0.5351   0.5385   0.5400   0.5442   0.5466   0.5485   0.5527   0.5558
  0.5570   0.5611   0.5624   0.5645   0.5659   0.5687   0.5704   0.5806
  0.5828   0.5840   0.5888   0.5938   0.5988   0.6014   0.6056   0.6076
  0.6122   0.6181   0.6222   0.6275   0.6345   0.6374   0.6437   0.6462
  0.6551   0.6563   0.6610   0.6654   0.6708   0.6718   0.6751   0.6825
  0.6913   0.6965   0.7005   0.7037   0.7050   0.7074   0.7103   0.7146
  0.7193   0.7198   0.7235   0.7277   0.7284   0.7324   0.7352   0.7391
  0.7431   0.7511   0.7552   0.7585   0.7608   0.7676   0.7703   0.7830
  0.7851   0.7944   0.8057   0.8156   0.8169   0.8235   0.8287   0.8340
  0.8395   0.8442   0.8513   0.8527   0.8603   0.8652   0.8665   0.8735
  0.8802   0.8819   0.8861   0.8910   0.8941   0.9000   0.9100   0.9154
  0.9171   0.9232   0.9241   0.9288   0.9306   0.9368   0.9420   0.9472
  0.9545   0.9610   0.9640   0.9681   0.9743   0.9795   0.9925   0.9984
  1.0039   1.0057   1.0165   1.0195   1.0205   1.0308   1.0371   1.0446
  1.0466   1.0580   1.0674   1.0734   1.0838   1.0886   1.0920   1.0975
  1.1022   1.1070   1.1129   1.1148   1.1238   1.1280   1.1350   1.1370
  1.1419   1.1443   1.1475   1.1536   1.1574   1.1614   1.1646   1.1681
  1.1708   1.1781   1.1818   1.1867   1.1927   1.1963   1.2027   1.2057
  1.2118   1.2196   1.2215   1.2264   1.2294   1.2327   1.2433   1.2466
  1.2477   1.2561   1.2614   1.2653   1.2677   1.2772   1.2836   1.2900
  1.2970   1.2988   1.3065   1.3149   1.3221   1.3265   1.3404   1.3430
  1.3533   1.3565   1.3600   1.3674   1.3774   1.3832   1.3887   1.3955
  1.4054   1.4073   1.4144   1.4196   1.4259   1.4339   1.4380   1.4496
  1.4507   1.4562   1.4721   1.4782   1.4816   1.4888   1.4937   1.5013
  1.5096   1.5176   1.5216   1.5274   1.5346   1.5362   1.5379   1.5438
  1.5524   1.5586   1.5609   1.5669   1.5683   1.5701   1.5756   1.5803
  1.5813   1.5878   1.5891   1.5931   1.6023   1.6113   1.6172   1.6217
  1.6378   1.6413   1.6464   1.6541   1.6553   1.6638   1.6719   1.6747
  1.6790   1.6822   1.6994   1.7030   1.7094   1.7193   1.7253   1.7262
  1.7292   1.7375   1.7394   1.7472   1.7551   1.7587   1.7640   1.7668
  1.7734   1.7771   1.7853   1.7949   1.8011   1.8054   1.8066   1.8180
  1.8223   1.8269   1.8338   1.8364   1.8424   1.8519   1.8570   1.8646
  1.8722   1.8735   1.8788   1.8833   1.8897   1.8958   1.9070   1.9154
  1.9226   1.9300   1.9336   1.9409   1.9541   1.9676   1.9716   1.9789
  1.9836   1.9898   1.9930   1.9970   2.0076   2.0161   2.0230   2.0390
  2.0413   2.0514   2.0593   2.0703   2.0716   2.0804   2.0901   2.0982
  2.1231   2.1279   2.1339   2.1490   2.1770   2.1923   2.2033   2.2101
  2.2236   2.2252   2.2282   2.2341   2.2383   2.2442   2.2484   2.2532
  2.2535   2.2595   2.2603   2.2633   2.2704   2.2737   2.2780   2.2815
  2.2866   2.2911   2.3002   2.3042   2.3105   2.3128   2.3200   2.3224
  2.3238   2.3315   2.3332   2.3360   2.3390   2.3436   2.3502   2.3523
  2.3603   2.3679   2.3730   2.3809   2.3892   2.3966   2.4022   2.4130
  2.4482   2.6533   2.7086   2.7196   2.7348   2.7404   2.7515   2.7623
  2.7635   2.7686   2.7740   2.7787   2.7844   2.7900   2.7965   2.8104
  2.8230   2.8263   2.8302   2.8333   2.8390   2.8463   2.8493   2.8551
  2.8609   2.8739   2.8750   2.8829   2.8940   2.9190   2.9591   2.9679
  2.9777   2.9901   3.0273   3.0493   3.0598   3.0764   3.0958   3.1018
  3.1125   3.1671   3.2109   3.2242   3.2368
 --------------------------------------------------------------
 
          Ground-State Mulliken Net Atomic Charges

     Atom                 Charge (a.u.)    Spin (a.u.)
  --------------------------------------------------------
      1 S                    -0.652319       0.023570
      2 C                    -0.659153       0.028940
      3 C                     0.516985      -0.024300
      4 H                     0.094085       0.003946
      5 C                    -0.095764       0.006713
      6 H                     0.112272       0.000092
      7 C                    -0.033165      -0.007279
      8 H                     0.086997       0.000371
      9 C                     0.001174       0.006117
     10 H                     0.042538       0.000190
     11 C                     0.493676      -0.005356
     12 H                     0.029703       0.000548
     13 C                    -0.675867       0.035950
     14 C                     0.457885       0.000276
     15 H                     0.139873       0.000890
     16 C                    -0.054980       0.003208
     17 H                     0.006608       0.000206
     18 C                     0.090790      -0.002905
     19 H                     0.188187       0.000078
     20 C                    -0.056490       0.003062
     21 H                     0.120182       0.000279
     22 C                     0.448787      -0.001381
     23 H                     0.066434       0.001576
     24 S                    -1.133191      -0.014968
     25 C                    -0.202099       0.640601
     26 C                     0.300475      -0.487052
     27 H                     0.044670       0.017828
     28 C                     0.092748       0.741174
     29 H                     0.039705      -0.052090
     30 C                     0.058463      -0.500882
     31 H                     0.064131       0.019442
     32 C                     0.191572       0.679616
     33 H                    -0.184013      -0.024105
     34 C                     0.117977      -0.171261
     35 H                     0.057495       0.034765
     36 C                    -0.595162       0.015850
     37 C                     0.722294       0.014456
     38 H                     0.316132       0.002157
     39 C                    -0.228671      -0.011978
     40 H                     0.069612       0.000821
     41 C                    -0.040618       0.015793
     42 H                     0.127327      -0.001301
     43 C                    -0.011254      -0.009138
     44 H                     0.053212       0.000307
     45 C                     0.385208       0.013780
     46 H                     0.085552       0.001394
  --------------------------------------------------------
  Sum of atomic charges =     1.000000
  Sum of spin   charges =     1.000000

  Building new vdw surfaces
         Merz-Kollman RESP Net Atomic Charges

     Atom                 Charge (a.u.)
  ----------------------------------------
      1 S                    -0.395246
      2 C                     0.512597
      3 C                    -0.367153
      4 H                     0.215662
      5 C                    -0.085131
      6 H                     0.186346
      7 C                    -0.186267
      8 H                     0.201337
      9 C                    -0.101693
     10 H                     0.193421
     11 C                    -0.384313
     12 H                     0.242485
     13 C                     0.220071
     14 C                    -0.186094
     15 H                     0.215662
     16 C                    -0.160108
     17 H                     0.208749
     18 C                    -0.118188
     19 H                     0.179381
     20 C                    -0.101693
     21 H                     0.193421
     22 C                    -0.247093
     23 H                     0.226294
     24 S                    -0.159855
     25 C                     0.054182
     26 C                    -0.289408
     27 H                     0.213081
     28 C                    -0.010126
     29 H                     0.165992
     30 C                    -0.199573
     31 H                     0.203671
     32 C                    -0.335485
     33 H                     0.219545
     34 C                     0.392863
     35 H                     0.152200
     36 C                     0.185777
     37 C                    -0.246628
     38 H                     0.170616
     39 C                    -0.161843
     40 H                     0.178453
     41 C                    -0.152930
     42 H                     0.178588
     43 C                    -0.148993
     44 H                     0.170433
     45 C                    -0.235319
     46 H                     0.192315
  ----------------------------------------
  Sum of atomic charges =     1.000000

  Related Dipole Moment =     5.6275 (X  5.6182 Y -0.3210 Z -0.0407)

 -----------------------------------------------------------------
                    Cartesian Multipole Moments
 -----------------------------------------------------------------
    Charge (ESU x 10^10)
                 4.8032
    Dipole Moment (Debye)
         X       5.6231      Y      -0.3025      Z      -0.0281
       Tot       5.6313
    Quadrupole Moments (Debye-Ang)
        XX    -112.7846     XY      16.2427     YY    -122.6293
        XZ      -2.1310     YZ       0.1316     ZZ    -139.5515
    Octopole Moments (Debye-Ang^2)
       XXX     104.3107    XXY      81.7601    XYY      24.9319
       YYY    -145.1077    XXZ      67.9535    XYZ      13.3755
       YYZ      -3.1552    XZZ     -44.0317    YZZ     -81.5170
       ZZZ     245.7469
    Hexadecapole Moments (Debye-Ang^3)
      XXXX   -5242.0671   XXXY     -36.8973   XXYY   -1267.5412
      XYYY     237.0965   YYYY   -3943.9694   XXXZ      19.0501
      XXYZ      87.9904   XYYZ     -82.0006   YYYZ     137.0898
      XXZZ   -1660.4083   XYZZ     -33.6062   YYZZ   -1299.7373
      XZZZ    -172.0390   YZZZ      21.3146   ZZZZ   -3488.2381
 -----------------------------------------------------------------
 Calculating analytic gradient of the SCF energy
 Gradient of SCF Energy
            1           2           3           4           5           6
    1  -0.0391612   0.0165507  -0.0013925  -0.0038648  -0.0419949  -0.0394658
    2  -0.0370259   0.0426919  -0.0172195  -0.0334643  -0.0581820  -0.0487294
    3  -0.0765238  -0.0836413  -0.0389382  -0.0516644  -0.0107609   0.0000438
            7           8           9          10          11          12
    1  -0.0374211  -0.0305207   0.0221882   0.0069156   0.0449915   0.0483078
    2  -0.0291162  -0.0246967   0.0310770   0.0236814   0.0329019   0.0448251
    3   0.0796896   0.0512335   0.0539324   0.0615501  -0.0158214   0.0005801
           13          14          15          16          17          18
    1  -0.0434152   0.0086668   0.0124336   0.0747544   0.0599533   0.0335146
    2  -0.0467969  -0.0597124  -0.0606837  -0.0153846  -0.0147653   0.0431152
    3   0.0001726   0.0119999   0.0151715   0.0375769   0.0251548   0.0026251
           19          20          21          22          23          24
    1   0.0529015  -0.0167743  -0.0245508  -0.0605113  -0.0574640   0.0045934
    2   0.0513411   0.0663382   0.0644253   0.0189435  -0.0015658   0.0320357
    3   0.0036251  -0.0185923  -0.0260393  -0.0307952  -0.0231428  -0.0463592
           25          26          27          28          29          30
    1   0.0412705  -0.0576695  -0.0626620  -0.0507010  -0.0313586  -0.0044340
    2   0.0687763  -0.0003109   0.0064675  -0.0508668  -0.0554909  -0.0693453
    3   0.0362910  -0.0206549  -0.0213809  -0.0047652  -0.0121740   0.0052617
           31          32          33          34          35          36
    1   0.0413273   0.0163987   0.0742621   0.0469135   0.0253150   0.0496810
    2  -0.0638845   0.0701067  -0.0124266   0.0549528   0.0357292  -0.0258674
    3   0.0006404   0.0260525   0.0150192   0.0744011  -0.0664683  -0.0398847
           37          38          39          40          41          42
    1   0.0573522   0.0459723   0.0025516   0.0049391  -0.0590522  -0.0418534
    2  -0.0334429  -0.0257896  -0.0216452  -0.0150882   0.0270016   0.0167443
    3   0.0055588   0.0183949   0.0634354   0.0630693   0.0471735   0.0461014
           43          44          45          46
    1  -0.0475642  -0.0493796   0.0153858  -0.0059294
    2   0.0264622   0.0359685   0.0087067   0.0192086
    3  -0.0252906  -0.0132341  -0.0616310  -0.0569919
 Max gradient component =       8.364E-02
 RMS gradient           =       4.066E-02
 Computing fast CPCM-SWIG gradient
 Updating gradient with PCM contributions...
 -- total gradient after adding PCM contribution --
---------------------------------------------------
  Atom         X              Y              Z     
---------------------------------------------------
   1      -0.025176      -0.043866      -0.048674
   2       0.040688       0.035524      -0.092827
   3      -0.007597      -0.022492      -0.047163
   4      -0.010838      -0.016943      -0.029714
   5      -0.049174      -0.065928      -0.011320
   6      -0.023708      -0.027220       0.001765
   7      -0.036463      -0.032524       0.080454
   8      -0.018701      -0.015196       0.029030
   9       0.019858       0.032834       0.061516
  10       0.002712       0.012796       0.036501
  11       0.043723       0.051278      -0.001805
  12       0.023091       0.031060       0.006116
  13      -0.044737      -0.050233      -0.009413
  14       0.010899      -0.067683       0.022377
  15       0.012468      -0.033095       0.012439
[...]

     Atom                 Charge (a.u.)    Spin (a.u.)
  --------------------------------------------------------
      1 S                    -1.413355       0.313160
      2 C                    -1.400443      -0.067790
      3 C                     0.643536       0.115864
      4 H                     0.152836      -0.006793
      5 C                    -0.325169      -0.089745
      6 H                     0.309340       0.006011
      7 C                    -0.053277       0.167126
      8 H                     0.599989      -0.013948
      9 C                    -0.285980      -0.091335
     10 H                     0.129465       0.006346
     11 C                     0.796851       0.124256
     12 H                     0.292323      -0.009136
     13 C                    -1.505482      -0.073861
     14 C                     0.819327       0.053164
     15 H                     0.462869      -0.001938
     16 C                    -0.357813      -0.034428
     17 H                     0.235519       0.002412
     18 C                    -0.060027       0.058879
     19 H                     0.453289      -0.005224
     20 C                    -0.429001      -0.028356
     21 H                     0.246699       0.002685
     22 C                     0.831812       0.054536
     23 H                     0.331253       0.004773
     24 S                    -1.413728       0.332530
     25 C                    -1.546593      -0.082604
     26 C                     0.934159       0.072208
     27 H                     0.507583      -0.004265
     28 C                    -0.419441      -0.054045
     29 H                     0.189637       0.002003
     30 C                     0.016476       0.093881
     31 H                     0.505830      -0.008361
     32 C                    -0.447825      -0.048297
     33 H                     0.102289       0.004488
     34 C                     0.819319       0.080928
     35 H                     0.342137       0.003216
     36 C                    -1.313120      -0.072535
     37 C                     0.828599       0.121542
     38 H                     0.367982      -0.011883
     39 C                    -0.378731      -0.088447
     40 H                     0.095056       0.007108
     41 C                    -0.062025       0.152191
     42 H                     0.686342      -0.013850
     43 C                    -0.387892      -0.076637
     44 H                     0.384032       0.005445
     45 C                     0.418235       0.102215
     46 H                     0.297117      -0.003489
  --------------------------------------------------------
  Sum of atomic charges =     1.000000
  Sum of spin   charges =     1.000000

  Building new vdw surfaces
         Merz-Kollman RESP Net Atomic Charges

     Atom                 Charge (a.u.)
  ----------------------------------------
      1 S                    -0.137140
      2 C                     0.145914
      3 C                    -0.133676
      4 H                     0.156227
      5 C                    -0.149434
      6 H                     0.152273
      7 C                    -0.035908
      8 H                     0.133553
      9 C                    -0.186431
     10 H                     0.160857
     11 C                    -0.086054
     12 H                     0.126312
     13 C                     0.296826
     14 C                    -0.197888
     15 H                     0.156227
     16 C                    -0.144986
     17 H                     0.159891
     18 C                    -0.073168
     19 H                     0.147420
     20 C                    -0.186431
     21 H                     0.160857
     22 C                    -0.139412
     23 H                     0.163757
     24 S                    -0.110367
     25 C                     0.279446
     26 C                    -0.182196
     27 H                     0.155346
     28 C                    -0.155794
     29 H                     0.164491
     30 C                    -0.081145
     31 H                     0.149252
     32 C                    -0.151942
     33 H                     0.154524
     34 C                    -0.152338
     35 H                     0.169712
     36 C                     0.106938
     37 C                     0.011388
     38 H                     0.081268
     39 C                    -0.210502
     40 H                     0.156964
     41 C                    -0.026066
     42 H                     0.136088
     43 C                    -0.177432
     44 H                     0.165356
     45 C                    -0.142931
     46 H                     0.170355
  ----------------------------------------
  Sum of atomic charges =     1.000000

  Related Dipole Moment =     1.2569 (X -0.4592 Y  1.1700 Z -0.0050)

 -----------------------------------------------------------------
                    Cartesian Multipole Moments
 -----------------------------------------------------------------
    Charge (ESU x 10^10)
                 4.8032
    Dipole Moment (Debye)
         X      -0.4669      Y       1.1757      Z      -0.0052
       Tot       1.2650
    Quadrupole Moments (Debye-Ang)
        XX    -142.6938     XY      10.2565     YY    -109.1423
        XZ      -0.8679     YZ       7.1825     ZZ    -141.8571
    Octopole Moments (Debye-Ang^2)
       XXX     -95.6304    XXY     -15.5088    XYY     -15.3288
       YYY     -84.4534    XXZ      65.3872    XYZ       5.7219
       YYZ      18.8378    XZZ     -24.5215    YZZ     -43.3542
       ZZZ     173.5483
    Hexadecapole Moments (Debye-Ang^3)
      XXXX   -3576.5208   XXXY    -596.6826   XXYY   -1266.1547
      XYYY    -453.7356   YYYY   -4530.5750   XXXZ    -295.6392
      XXYZ     -13.3220   XYYZ     -80.5389   YYYZ    -288.6510
      XXZZ   -1018.4400   XYZZ    -176.3439   YYZZ   -1255.0106
      XZZZ    -421.6526   YZZZ    -435.1350   ZZZZ   -3007.9425
 -----------------------------------------------------------------
 Calculating analytic gradient of the SCF energy
 Gradient of SCF Energy
            1           2           3           4           5           6
    1   0.0042436  -0.0418940   0.0147474   0.0354946   0.0091301  -0.0001353
    2  -0.0078795  -0.0062040   0.0087989   0.0040946  -0.0121117  -0.0432766
    3  -0.0349217   0.0127264   0.0006580  -0.0200449  -0.0159249  -0.0086286
            7           8           9          10          11          12
    1  -0.0284811  -0.0307095   0.0028200  -0.0013728  -0.0079663   0.0292040
    2  -0.0155677  -0.0205142   0.0150132   0.0285196   0.0096293   0.0304568
    3   0.0277817   0.0376960  -0.0210673   0.0378289  -0.0103397  -0.0191047
           13          14          15          16          17          18
    1  -0.0130921   0.0032826   0.0065900   0.0058340   0.0128575   0.0050140
    2   0.0286679  -0.0203898  -0.0433387  -0.0146579   0.0058621   0.0325004
    3   0.0309714   0.0093975  -0.0002753   0.0016810   0.0347365   0.0098608
           19          20          21          22          23          24
    1   0.0120035  -0.0066107  -0.0093600  -0.0140827   0.0198949   0.0397983
    2   0.0422694  -0.0066936   0.0256028  -0.0094778  -0.0226049   0.0135180
    3   0.0098233  -0.0115489  -0.0267204  -0.0131098  -0.0284849  -0.0161221
           25          26          27          28          29          30
    1  -0.0133640  -0.0171262  -0.0057086  -0.0044050  -0.0380716  -0.0066037
    2  -0.0257830   0.0206293   0.0451048   0.0133064  -0.0085066  -0.0341716
    3   0.0325513   0.0073236  -0.0111755  -0.0066849   0.0040945   0.0016750
           31          32          33          34          35          36
    1  -0.0080416   0.0108395   0.0298817   0.0072989   0.0141135  -0.0152821
    2  -0.0457176   0.0082649  -0.0246038   0.0032139   0.0247561   0.0102962
    3  -0.0000181   0.0008347  -0.0127671   0.0055223  -0.0329004   0.0286969
           37          38          39          40          41          42
    1   0.0258650   0.0045882   0.0217289  -0.0242299  -0.0214367  -0.0261323
    2  -0.0153255  -0.0325981  -0.0069803  -0.0307352   0.0200775   0.0228472
    3   0.0022103  -0.0253513  -0.0067322   0.0244012   0.0335319   0.0399691
           43          44          45          46
    1   0.0117821  -0.0028427  -0.0072685   0.0172054
    2   0.0162413   0.0407317  -0.0163943  -0.0068700
    3  -0.0155010  -0.0133830  -0.0061360  -0.0370299
 Max gradient component =       4.572E-02
 RMS gradient           =       2.127E-02
 Computing fast CPCM-SWIG gradient
 Updating gradient with PCM contributions...
 -- total gradient after adding PCM contribution --
---------------------------------------------------
  Atom         X              Y              Z     
---------------------------------------------------
   1      -0.000092      -0.000047       0.000115
   2      -0.000016      -0.000016      -0.000033
   3       0.000046      -0.000020       0.000027
   4       0.000002       0.000001      -0.000020
   5       0.000011      -0.000002      -0.000024
   6       0.000015      -0.000008      -0.000016
   7      -0.000005      -0.000006       0.000002
   8       0.000038      -0.000013       0.000001
   9      -0.000004       0.000002      -0.000017
  10       0.000032      -0.000011       0.000014
  11       0.000038      -0.000007      -0.000008
  12      -0.000004      -0.000007       0.000007
  13       0.000081      -0.000094      -0.000120
  14      -0.000029      -0.000012      -0.000013
  15       0.000012       0.000014      -0.000006
  16       0.000019       0.000017      -0.000001
  17       0.000001      -0.000001      -0.000013
  18       0.000005       0.000011      -0.000001
  19      -0.000019      -0.000000       0.000003
  20      -0.000002       0.000023       0.000018
  21      -0.000015       0.000007       0.000002
  22      -0.000018       0.000048      -0.000013
  23      -0.000034      -0.000026      -0.000011
  24      -0.000097       0.000125      -0.000222
  25       0.000220       0.000017       0.000252
  26       0.000017      -0.000032       0.000067
  27       0.000009      -0.000004       0.000027
  28      -0.000045       0.000019       0.000020
  29       0.000005      -0.000021      -0.000002
  30       0.000053      -0.000033       0.000051
  31      -0.000006       0.000007      -0.000001
  32      -0.000078       0.000004      -0.000118
  33      -0.000001       0.000024       0.000006
  34       0.000022       0.000068      -0.000204
  35       0.000005       0.000002       0.000038
  36      -0.000013      -0.000092       0.000027
  37      -0.000066       0.000019       0.000019
  38       0.000011       0.000055       0.000030
  39      -0.000032      -0.000030       0.000028
  40       0.000015      -0.000005       0.000009
  41      -0.000046       0.000012       0.000029
  42       0.000004      -0.000027       0.000024
  43      -0.000035       0.000062       0.000002
  44      -0.000003      -0.000024       0.000015
  45       0.000034       0.000008      -0.000004
  46      -0.000036      -0.000004       0.000013
---------------------------------------------------
 Number of fixed atoms: 0
 Gradient time:  CPU 789.44 s  wall 79.87 s

     Step 12	:
        Energy is -1721.6918789059
                            Maximum         Tolerance       Converged?
         Gradient           2.52165572e-04	3.00000000e-04	true
         Displacement       6.14299069e-03	1.20000000e-03	false
         Energy change      4.95072527e-07	1.00000000e-06	true

	 Optimization Converged in 12 cycles

 *****************************************************
             End of BFGS Algorithm
 *****************************************************
		----------------------------------
		   Verification of Optimization
		----------------------------------

 Eigenvalues of Hessian in Optimization Verification
   0.00009611   0.00025820   0.00039667   0.00067205   0.00093223
   0.00148294   0.00170698   0.00216912   0.00264884   0.00344973
   0.00764142   0.00798633   0.01075161   0.01426190   0.01758625
   0.01848240   0.02371476   0.02723692   0.03520002   0.05381303
   0.06208290   0.07028514   0.07156843   0.07338356   0.07780728
   0.08214719   0.08344387   0.08383160   0.08444943   0.08469855
   0.08473011   0.08492213   0.08600243   0.08708946   0.08789342
   0.08805100   0.08826839   0.08844203   0.08858234   0.09073847
   0.09408079   0.09565255   0.09660786   0.09751040   0.10141450
   0.10378514   0.10527065   0.11097398   0.11374112   0.11715825
   0.12264850   0.12900238   0.13384692   0.14294275   0.14702153
   0.15918810   0.19443143   0.19730374   0.20110029   0.20490459
   0.21112112   0.21629369   0.23100954   0.24068303   0.25783696
   0.27698235   0.33258274   0.35235368   0.35832295   0.36849547
   0.37829336   0.38647153   0.39384690   0.39479202   0.41832287
   0.47683276   0.54605435   0.56521440   0.57504791   0.58357281
   0.59672399   0.61009309   0.61225454   0.62840547   0.63648903
   0.68835962   0.74045496   0.76666192   0.78215549   0.78759982
   0.79829104   0.80784023   0.83544920   0.86221460   0.88199630
   0.89247194   0.90260194   0.91907392   0.93331601   1.04584420
   1.07737743   1.11504913   1.13419214   1.15674087   1.16154660
   1.22391844   1.27792719   1.29949196   1.31856584   1.32079413
   1.36237846   1.40669222   1.42282443   1.46319272   1.47525953
   1.48310044   1.49691088   1.50343317   1.53326663   1.54931938
   1.55903957   1.59104770   1.60547950   1.66591022   1.73469035
   1.74891120   1.75558918   1.76817155   1.78238273   1.82196698
   1.84701024   2.01614876

 Found a minimum
		---------------------------------
		       End of Verification
		---------------------------------

 Final energy is -1721.691878905881

	******************************
	**  OPTIMIZATION CONVERGED  **
	******************************
 ----------------------------------------------------------------
             Standard Nuclear Orientation (Angstroms)
    I     Atom           X                Y                Z
 ----------------------------------------------------------------
    1      S       2.1601372314    -0.0582981815    -0.4439587947
    2      C       1.1722323413    -0.7413354969     0.8292495678
    3      C       0.9587896362    -2.1295848416     0.7427535613
    4      H       1.4420518505    -2.7037482550    -0.0429901703
    5      C       0.1335259294    -2.7565382567     1.6633084681
    6      H      -0.0321291609    -3.8269946863     1.5918914929
    7      C      -0.4602219913    -2.0183518984     2.6902769103
    8      H      -1.0934186466    -2.5144983205     3.4203263213
    9      C      -0.2397000356    -0.6442465490     2.7792692080
   10      H      -0.7071977290    -0.0666766134     3.5717926667
   11      C       0.5576038225     0.0048783612     1.8458878038
   12      H       0.6846207127     1.0798533908     1.8946339755
   13      C       2.4825600300     1.6097064897     0.0302282862
   14      C       2.9965375008     1.9230226194     1.2951009908
   15      H       3.1750271179     1.1362430165     2.0223251868
   16      C       3.2829729355     3.2460254199     1.6057468126
   17      H       3.6755140253     3.4897345193     2.5885066567
   18      C       3.0827125818     4.2502995714     0.6583772676
   19      H       3.3087530569     5.2830722801     0.9057797433
   20      C       2.6012017281     3.9297855145    -0.6090860939
   21      H       2.4547551263     4.7093313396    -1.3513199388
   22      C       2.3006817621     2.6103213029    -0.9307625610
   23      H       1.9325023951     2.3577882368    -1.9206653688
   24      S      -0.3422032978     0.4851148050    -2.3693628648
   25      C      -0.7847978451    -1.2157422463    -2.3297249105
   26      C      -2.1006875430    -1.6505485907    -2.1226843613
   27      H      -2.8963072581    -0.9335521652    -1.9464754167
   28      C      -2.3842734735    -3.0090941088    -2.1732941255
   29      H      -3.4045556012    -3.3453654968    -2.0153605461
   30      C      -1.3749703621    -3.9313507252    -2.4521633561
   31      H      -1.6038989946    -4.9918673902    -2.4913317300
   32      C      -0.0743837047    -3.4912774010    -2.6934144695
   33      H       0.7125349380    -4.2047522171    -2.9206865162
   34      C       0.2268625169    -2.1359532529    -2.6355361146
   35      H       1.2414216192    -1.7915543697    -2.8141747156
   36      C      -1.2641563256     1.2882159757    -1.1173454032
   37      C      -1.8366141689     0.6402788769    -0.0122841636
   38      H      -1.7589640813    -0.4348933632     0.0994855378
   39      C      -2.4997152688     1.3935127199     0.9482975805
   40      H      -2.9449824108     0.8915743566     1.8026149321
   41      C      -2.5740697063     2.7803530347     0.8336567861
   42      H      -3.0888397119     3.3603702463     1.5943881055
   43      C      -1.9825204593     3.4258729310    -0.2551478047
   44      H      -2.0386673571     4.5059638504    -0.3457968326
   45      C      -1.3334534677     2.6882240398    -1.2325255133
   46      H      -0.8886602565     3.1822605282    -2.0924970899
 ----------------------------------------------------------------
 Nuclear Repulsion Energy =        2579.78507037 hartrees
 There are       98 alpha and       97 beta electrons

Z-matrix Print:
$molecule
1 2
S 
C  1 1.750302
C  2 1.402910 1 124.530457
H  3 1.083550 2 120.593193 1 -0.815564 0
C  3 1.388617 2 119.340565 1 177.957807 0
H  5 1.086386 3 119.268631 2 179.403051 0
C  5 1.394530 3 120.565029 2 -1.744217 0
H  7 1.086311 5 119.955273 3 -179.414228 0
C  7 1.397183 5 120.020262 3 0.625454 0
H  9 1.085550 7 120.298201 5 179.774965 0
C  9 1.386201 7 120.142998 5 0.973107 0
H  11 1.086554 9 120.399408 7 178.496966 0
C  1 1.763817 2 106.060687 3 11.932038 0
C  13 1.399219 1 117.896439 2 -132.690829 0
H  14 1.085927 13 120.254551 1 2.485325 0
C  14 1.390961 13 119.435933 1 -177.225413 0
H  16 1.086301 14 119.576720 13 -179.605094 0
C  16 1.393214 14 120.217711 13 0.180438 0
H  18 1.085782 16 119.871920 14 -179.562126 0
C  18 1.395055 16 120.119015 14 0.867363 0
H  20 1.085956 18 120.324229 16 178.864641 0
C  20 1.388842 18 120.281890 16 -0.389604 0
H  22 1.086156 20 120.423117 18 178.461071 0
C  12 2.918967 11 110.752698 9 108.105446 0
H  24 1.086210 12 79.566037 11 117.945729 0
C  24 1.389605 12 86.417959 11 -120.325444 0
H  26 1.086250 24 119.491027 12 -75.823076 0
C  26 1.394056 24 120.194237 12 103.727486 0
H  28 1.085651 26 119.924318 24 -179.550098 0
C  28 1.395356 26 120.051063 24 1.064646 0
H  30 1.085816 28 120.268396 26 178.092762 0
C  30 1.388751 28 120.407680 26 -0.544014 0
H  32 1.085424 30 120.161311 28 177.445036 0
C  32 1.401245 30 119.335971 28 -1.192243 0
S  34 1.757946 32 122.682703 30 176.691105 0
C  35 1.750005 34 107.171946 32 39.838632 0
C  36 1.403100 35 124.505775 34 21.105022 0
H  37 1.083752 36 120.672272 35 -2.270970 0
C  37 1.389166 36 119.272244 35 177.275067 0
H  39 1.086307 37 119.270139 36 179.853530 0
C  39 1.393556 37 120.543445 36 -1.313084 0
H  41 1.086333 39 119.935466 37 -179.551750 0
C  41 1.397184 39 120.086469 37 0.170484 0
H  43 1.085341 41 120.196304 39 -179.951279 0
C  43 1.385886 41 120.129667 39 0.749693 0
H  45 1.086952 43 120.510622 41 178.750436 0
$end

 -----------------------------------------------------------------------
                  END OF GEOMETRY OPTIMIZER USING LIBOPT3               
 -----------------------------------------------------------------------
 Total job time:  46670.86s(wall), 919896.27s(cpu) 
 Thu Jul 14 14:15:23 2022

        *************************************************************
        *                                                           *
        *  Thank you very much for using Q-Chem.  Have a nice day.  *
        *                                                           *
        *************************************************************


