
Running Job 1 of 1 mol.qin
qchem mol.qin_190784.0 /tmp/scratch/ 0
/clusterfs/mp/software/qchem6.0/exe/qcprog.exe_s mol.qin_190784.0 /tmp/scratch/
                  Welcome to Q-Chem
     A Quantum Leap Into The Future Of Chemistry


 Q-Chem 6.0, Q-Chem, Inc., Pleasanton, CA (2022)

 E. Epifanovsky,  A. T. B. Gilbert,  Xintian Feng,  Joonho Lee,  Yuezhi Mao,  
 N. Mardirossian,  P. Pokhilko,  A. White,  M. Wormit,  M. P. Coons,  
 A. L. Dempwolff,  Zhengting Gan,  D. Hait,  P. R. Horn,  L. D. Jacobson,  
 I. Kaliman,  J. Kussmann,  A. W. Lange,  Ka Un Lao,  D. S. Levine,  Jie Liu,  
 S. C. McKenzie,  A. F. Morrison,  K. Nanda,  F. Plasser,  D. R. Rehn,  
 M. L. Vidal,  Zhi-Qiang You,  Ying Zhu,  B. Alam,  B. Albrecht,  
 A. Aldossary,  E. Alguire,  J. H. Andersen,  V. Athavale,  D. Barton,  
 K. Begam,  A. Behn,  N. Bellonzi,  Y. A. Bernard,  E. J. Berquist,  
 H. Burton,  A. Carreras,  K. Carter-Fenk,  Romit Chakraborty,  
 Chandrima Chakravarty,  Junhan Chen,  A. D. Chien,  K. D. Closser,  
 V. Cofer-Shabica,  L. Cunha,  S. Dasgupta,  Jia Deng,  M. de Wergifosse,  
 M. Diedenhofen,  Hainam Do,  S. Ehlert,  Po-Tung Fang,  S. Fatehi,  
 Qingguo Feng,  T. Friedhoff,  B. Ganoe,  J. Gayvert,  Qinghui Ge,  
 G. Gidofalvi,  M. Goldey,  J. Gomes,  C. Gonzalez-Espinoza,  S. Gulania,  
 A. Gunina,  J. A. Gyamfi,  M. W. D. Hanson-Heine,  P. H. P. Harbach,  
 A. W. Hauser,  M. F. Herbst,  M. Hernandez Vera,  M. Hodecker,  
 Z. C. Holden,  S. Houck,  Xunkun Huang,  Kerwin Hui,  B. C. Huynh,  
 K. Ikeda,  M. Ivanov,  Hyunjun Ji,  Zuxin Jin,  Hanjie Jiang,  B. Kaduk,  
 S. Kaehler,  R. Kang,  K. Khistyaev,  Jaehoon Kim,  Yongbin Kim,  
 P. Klunzinger,  Z. Koczor-Benda,  Joong Hoon Koh,  D. Kosenkov,  
 Saikiran Kotaru,  L. Koulias,  T. Kowalczyk,  C. M. Krauter,  K. Kue,  
 A. Kunitsa,  T. Kus,  A. Landau,  K. V. Lawler,  D. Lefrancois,  S. Lehtola,  
 Rain Li,  Shaozhi Li,  Yi-Pei Li,  Jiashu Liang,  M. Liebenthal,  
 Hung-Hsuan Lin,  You-Sheng Lin,  Fenglai Liu,  Kuan-Yu Liu,  
 M. Loipersberger,  A. Luenser,  C. Malbon,  A. Manjanath,  P. Manohar,  
 E. Mansoor,  S. F. Manzer,  Shan-Ping Mao,  A. V. Marenich,  T. Markovich,  
 S. Mason,  F. Matz,  S. A. Maurer,  P. F. McLaughlin,  M. F. S. J. Menger,  
 J.-M. Mewes,  S. A. Mewes,  P. Morgante,  Mohammad Mostafanejad,  
 J. W. Mullinax,  K. J. Oosterbaan,  G. Paran,  V. Parravicini,  
 Alexander C. Paul,  Suranjan K. Paul,  F. Pavosevic,  Zheng Pei,  S. Prager,  
 E. I. Proynov,  E. Ramos,  B. Rana,  A. E. Rask,  A. Rettig,  R. M. Richard,  
 F. Rob,  E. Rossomme,  T. Scheele,  M. Scheurer,  M. Schneider,  
 P. E. Schneider,  N. Sergueev,  S. M. Sharada,  Hengyuan Shen,  
 W. Skomorowski,  D. W. Small,  C. J. Stein,  Yingli Su,  Yu-Chuan Su,  
 E. J. Sundstrom,  Zhen Tao,  J. Thirman,  Hung-Yi Tsai,  T. Tsuchimochi,  
 N. M. Tubman,  C. Utku,  S. P. Veccham,  O. Vydrov,  J. Wenzel,  
 Jonathan Wong,  J. Witte,  A. Yamada,  Chou-Hsun Yang,  Kun Yao,  
 S. Yeganeh,  S. R. Yost,  A. Zech,  F. Zeller,  Igor Ying Zhang,  
 Xing Zhang,  Yu Zhang,  D. Zuev,  A. Aspuru-Guzik,  A. T. Bell,  
 N. A. Besley,  K. B. Bravaya,  B. R. Brooks,  D. Casanova,  Jeng-Da Chai,  
 Hsing-Ta Chen,  S. Coriani,  C. J. Cramer,  A. E. DePrince, III,  
 R. A. DiStasio Jr.,  A. Dreuw,  B. D. Dunietz,  T. R. Furlani,  
 W. A. Goddard III,  S. Grimme,  S. Hammes-Schiffer,  T. Head-Gordon,  
 W. J. Hehre,  Chao-Ping Hsu,  T.-C. Jagau,  Yousung Jung,  A. Klamt,  
 Jing Kong,  D. S. Lambrecht,  Xiangyuan Li,  WanZhen Liang,  N. J. Mayhall,  
 C. W. McCurdy,  J. B. Neaton,  T. Neudecker,  C. Ochsenfeld,  
 J. A. Parkhill,  R. Peverati,  V. A. Rassolov,  Haisheng Ren,  Yihan Shao,  
 L. V. Slipchenko,  R. P. Steele,  J. E. Subotnik,  A. J. W. Thom,  
 A. Tkatchenko,  D. G. Truhlar,  T. Van Voorhis,  Fan Wang,  
 T. A. Wesolowski,  K. B. Whaley,  H. L. Woodcock III,  P. M. Zimmerman,  
 S. Faraji,  P. M. W. Gill,  M. Head-Gordon,  J. M. Herbert,  A. I. Krylov

 Contributors to earlier versions of Q-Chem not listed above: 
 R. D. Adamson,  B. Austin,  R. Baer,  J. Baker,  G. J. O. Beran,  
 K. Brandhorst,  S. T. Brown,  E. F. C. Byrd,  Arup K. Chakraborty,  
 G. K. L. Chan,  Chun-Min Chang,  Yunqing Chen,  C.-L. Cheng,  
 Siu Hung Chien,  D. M. Chipman,  D. L. Crittenden,  H. Dachsel,  
 R. J. Doerksen,  A. D. Dutoi,  R. G. Edgar,  J. Fosso-Tande,  
 L. Fusti-Molnar,  D. Ghosh,  A. Ghysels,  A. Golubeva-Zadorozhnaya,  
 J. Gonthier,  M. S. Gordon,  S. R. Gwaltney,  G. Hawkins,  J. E. Herr,  
 A. Heyden,  S. Hirata,  E. G. Hohenstein,  G. Kedziora,  F. J. Keil,  
 C. Kelley,  Jihan Kim,  R. A. King,  R. Z. Khaliullin,  P. P. Korambath,  
 W. Kurlancheek,  A. Laurent,  A. M. Lee,  M. S. Lee,  S. V. Levchenko,  
 Ching Yeh Lin,  D. Liotard,  E. Livshits,  R. C. Lochan,  I. Lotan,  
 L. A. Martinez-Martinez,  P. E. Maslen,  N. Nair,  D. P. O'Neill,  
 D. Neuhauser,  E. Neuscamman,  C. M. Oana,  R. Olivares-Amaya,  R. Olson,  
 T. M. Perrine,  B. Peters,  P. A. Pieniazek,  A. Prociuk,  Y. M. Rhee,  
 J. Ritchie,  M. A. Rohrdanz,  E. Rosta,  N. J. Russ,  H. F. Schaefer III,  
 M. W. Schmidt,  N. E. Schultz,  S. Sharma,  N. Shenvi,  C. D. Sherrill,  
 A. C. Simmonett,  A. Sodt,  T. Stein,  D. Stuck,  K. S. Thanthiriwatte,  
 V. Vanovschi,  L. Vogt,  Tao Wang,  A. Warshel,  M. A. Watson,  
 C. F. Williams,  Q. Wu,  X. Xu,  Jun Yang,  W. Zhang,  Yan Zhao

   Please cite Q-Chem as follows:
  "Software for the frontiers of quantum chemistry:
   An overview of developments in the Q-Chem 5 package"
   J. Chem. Phys. 155, 084801 (2021)
   https://doi.org/10.1063/5.0055522 (open access)

 Q-Chem 6.0.0 for Intel X86 EM64T Linux

 Parts of Q-Chem use Armadillo 9.900.5 (Nocturnal Misbehaviour).
 http://arma.sourceforge.net/

 Q-Chem begins on Sat Jul 16 13:59:23 2022  

 Host: 
0

     Scratch files written to /tmp/scratch//
 Jul222 |scratch|qcdevops|jenkins|workspace|build_RNUM -1
 Processing $rem in /clusterfs/mp/software/qchem6.0/config/preferences:
 Processing $rem in /global/home/users/smblau/.qchemrc:
 Symmetry turned off for PCM/SM12/SMD calculation

 Checking the input file for inconsistencies... 	...done.

--------------------------------------------------------------
User input:
--------------------------------------------------------------
$molecule
1 2
S      1.4188260000     -0.1359520000     -0.4629820000
C      0.6825040000     -0.9385960000      1.0703360000
C     -0.3226550000     -2.2462560000      1.0818860000
H     -0.6394500000     -2.7486490000      0.0744740000
C     -0.9901270000     -2.9045570000      2.4598160000
H     -1.7197360000     -3.8165640000      2.3850170000
C     -0.6657940000     -2.2676920000      3.9351770000
H     -1.1645770000     -2.7170310000      4.8982720000
C      0.3564630000     -0.9517090000      3.9581500000
H      0.5698180000     -0.4774320000      5.0142940000
C      1.0222600000     -0.2935600000      2.5758090000
H      1.7175130000      0.6510000000      2.7010830000
C      2.5908990000      1.3675330000     -0.3342280000
C      4.0876910000      1.0603160000      0.2768090000
H      4.3985960000     -0.0169240000      0.6250830000
C      5.1854500000      2.2854390000      0.3835620000
H      6.2634120000      2.0718910000      0.7889380000
C      4.6993620000      3.7658000000     -0.1510760000
H      5.5103290000      4.6304990000     -0.1037560000
C      3.1984690000      4.1143960000     -0.7508870000
H      2.8748590000      5.1935210000     -1.1421420000
C      2.1007400000      2.8790530000     -0.8534530000
H      1.0204030000      3.0114040000     -1.2934900000
S     -1.1572850000      1.1632670000     -2.6598860000
C     -0.5130530000     -0.5820870000     -2.4672080000
C     -1.4831550000     -1.9209320000     -2.7126320000
H     -2.6369290000     -1.8272280000     -2.9818620000
C     -0.8941570000     -3.4729980000     -2.6025290000
H     -1.5253460000     -4.4430690000     -2.7706390000
C      0.7149060000     -3.6039120000     -2.2846290000
H      1.2757150000     -4.6553580000     -2.2132940000
C      1.6423320000     -2.2739760000     -2.0608350000
H      2.8036370000     -2.4070200000     -1.8179890000
C      1.1076010000     -0.7043670000     -2.0724660000
H      1.6616210000     -0.0308650000     -2.8618520000
C     -2.4345660000      1.6289230000     -1.3877100000
C     -2.4258270000      1.2989880000      0.2157920000
H     -1.5423670000      0.6869430000      0.6759050000
C     -3.5949450000      1.8012110000      1.2988690000
H     -3.4949040000      1.5332340000      2.4518810000
C     -4.8554430000      2.7180870000      0.7652460000
H     -5.6744970000      3.1107650000      1.5393410000
C     -4.8994700000      3.0428240000     -0.8555980000
H     -5.8044770000      3.7157370000     -1.2304260000
C     -3.7344540000      2.5306470000     -1.9322660000
H     -3.8565820000      2.8508350000     -3.0765960000
$end

$rem
job_type = opt
basis = def2-svpd
max_scf_cycles = 100
gen_scfman = true
xc_grid = 3
thresh = 14
s2thresh = 16
scf_algorithm = diis
resp_charges = true
symmetry = false
sym_ignore = true
method = b97m-v
geom_opt_max_cycles = 200
solvent_method = pcm
$end

$pcm
heavypoints 194
hpoints 194
radii uff
theory cpcm
vdwscale 1.1
$end

$solvent
dielectric 3.0
$end

$geom_opt
coordinates = redundant
maxiter = 200
max_displacement = 0.019127302
optimization_restart = false
$end
--------------------------------------------------------------
 ----------------------------------------------------------------
             Standard Nuclear Orientation (Angstroms)
    I     Atom           X                Y                Z
 ----------------------------------------------------------------
    1      S       1.4188260000    -0.1359520000    -0.4629820000
    2      C       0.6825040000    -0.9385960000     1.0703360000
    3      C      -0.3226550000    -2.2462560000     1.0818860000
    4      H      -0.6394500000    -2.7486490000     0.0744740000
    5      C      -0.9901270000    -2.9045570000     2.4598160000
    6      H      -1.7197360000    -3.8165640000     2.3850170000
    7      C      -0.6657940000    -2.2676920000     3.9351770000
    8      H      -1.1645770000    -2.7170310000     4.8982720000
    9      C       0.3564630000    -0.9517090000     3.9581500000
   10      H       0.5698180000    -0.4774320000     5.0142940000
   11      C       1.0222600000    -0.2935600000     2.5758090000
   12      H       1.7175130000     0.6510000000     2.7010830000
   13      C       2.5908990000     1.3675330000    -0.3342280000
   14      C       4.0876910000     1.0603160000     0.2768090000
   15      H       4.3985960000    -0.0169240000     0.6250830000
   16      C       5.1854500000     2.2854390000     0.3835620000
   17      H       6.2634120000     2.0718910000     0.7889380000
   18      C       4.6993620000     3.7658000000    -0.1510760000
   19      H       5.5103290000     4.6304990000    -0.1037560000
   20      C       3.1984690000     4.1143960000    -0.7508870000
   21      H       2.8748590000     5.1935210000    -1.1421420000
   22      C       2.1007400000     2.8790530000    -0.8534530000
   23      H       1.0204030000     3.0114040000    -1.2934900000
   24      S      -1.1572850000     1.1632670000    -2.6598860000
   25      C      -0.5130530000    -0.5820870000    -2.4672080000
   26      C      -1.4831550000    -1.9209320000    -2.7126320000
   27      H      -2.6369290000    -1.8272280000    -2.9818620000
   28      C      -0.8941570000    -3.4729980000    -2.6025290000
   29      H      -1.5253460000    -4.4430690000    -2.7706390000
   30      C       0.7149060000    -3.6039120000    -2.2846290000
   31      H       1.2757150000    -4.6553580000    -2.2132940000
   32      C       1.6423320000    -2.2739760000    -2.0608350000
   33      H       2.8036370000    -2.4070200000    -1.8179890000
   34      C       1.1076010000    -0.7043670000    -2.0724660000
   35      H       1.6616210000    -0.0308650000    -2.8618520000
   36      C      -2.4345660000     1.6289230000    -1.3877100000
   37      C      -2.4258270000     1.2989880000     0.2157920000
   38      H      -1.5423670000     0.6869430000     0.6759050000
   39      C      -3.5949450000     1.8012110000     1.2988690000
   40      H      -3.4949040000     1.5332340000     2.4518810000
   41      C      -4.8554430000     2.7180870000     0.7652460000
   42      H      -5.6744970000     3.1107650000     1.5393410000
   43      C      -4.8994700000     3.0428240000    -0.8555980000
   44      H      -5.8044770000     3.7157370000    -1.2304260000
   45      C      -3.7344540000     2.5306470000    -1.9322660000
   46      H      -3.8565820000     2.8508350000    -3.0765960000
 ----------------------------------------------------------------
 Nuclear Repulsion Energy =        2277.46168039 hartrees
 There are       98 alpha and       97 beta electrons
 Requested basis set is def2-SVPD
 There are 294 shells and 694 basis functions

 Total QAlloc Memory Limit  90000 MB
 Mega-Array Size       188 MB
 MEM_STATIC part       192 MB

 -----------------------------------------------------------------------
                STARTING GEOMETRY OPTIMIZER USING LIBOPT3
                by Peter F. McLaughlin, Yu Zhang, Evgeny Epifanovsky
 -----------------------------------------------------------------------

              Initial Energy and Gradient Calculation
  Checking Topology for Ill-Behaving Coordinates
  Done Checking Topology
 ----------------------------------------------------------------
             Standard Nuclear Orientation (Angstroms)
    I     Atom           X                Y                Z
 ----------------------------------------------------------------
    1      S       1.4188260000    -0.1359520000    -0.4629820000
    2      C       0.6825040000    -0.9385960000     1.0703360000
    3      C      -0.3226550000    -2.2462560000     1.0818860000
    4      H      -0.6394500000    -2.7486490000     0.0744740000
    5      C      -0.9901270000    -2.9045570000     2.4598160000
    6      H      -1.7197360000    -3.8165640000     2.3850170000
    7      C      -0.6657940000    -2.2676920000     3.9351770000
    8      H      -1.1645770000    -2.7170310000     4.8982720000
    9      C       0.3564630000    -0.9517090000     3.9581500000
   10      H       0.5698180000    -0.4774320000     5.0142940000
   11      C       1.0222600000    -0.2935600000     2.5758090000
   12      H       1.7175130000     0.6510000000     2.7010830000
   13      C       2.5908990000     1.3675330000    -0.3342280000
   14      C       4.0876910000     1.0603160000     0.2768090000
   15      H       4.3985960000    -0.0169240000     0.6250830000
   16      C       5.1854500000     2.2854390000     0.3835620000
   17      H       6.2634120000     2.0718910000     0.7889380000
   18      C       4.6993620000     3.7658000000    -0.1510760000
   19      H       5.5103290000     4.6304990000    -0.1037560000
   20      C       3.1984690000     4.1143960000    -0.7508870000
   21      H       2.8748590000     5.1935210000    -1.1421420000
   22      C       2.1007400000     2.8790530000    -0.8534530000
   23      H       1.0204030000     3.0114040000    -1.2934900000
   24      S      -1.1572850000     1.1632670000    -2.6598860000
   25      C      -0.5130530000    -0.5820870000    -2.4672080000
   26      C      -1.4831550000    -1.9209320000    -2.7126320000
   27      H      -2.6369290000    -1.8272280000    -2.9818620000
   28      C      -0.8941570000    -3.4729980000    -2.6025290000
   29      H      -1.5253460000    -4.4430690000    -2.7706390000
   30      C       0.7149060000    -3.6039120000    -2.2846290000
   31      H       1.2757150000    -4.6553580000    -2.2132940000
   32      C       1.6423320000    -2.2739760000    -2.0608350000
   33      H       2.8036370000    -2.4070200000    -1.8179890000
   34      C       1.1076010000    -0.7043670000    -2.0724660000
   35      H       1.6616210000    -0.0308650000    -2.8618520000
   36      C      -2.4345660000     1.6289230000    -1.3877100000
   37      C      -2.4258270000     1.2989880000     0.2157920000
   38      H      -1.5423670000     0.6869430000     0.6759050000
   39      C      -3.5949450000     1.8012110000     1.2988690000
   40      H      -3.4949040000     1.5332340000     2.4518810000
   41      C      -4.8554430000     2.7180870000     0.7652460000
   42      H      -5.6744970000     3.1107650000     1.5393410000
   43      C      -4.8994700000     3.0428240000    -0.8555980000
   44      H      -5.8044770000     3.7157370000    -1.2304260000
   45      C      -3.7344540000     2.5306470000    -1.9322660000
   46      H      -3.8565820000     2.8508350000    -3.0765960000
 ----------------------------------------------------------------
 Nuclear Repulsion Energy =        2277.46168039 hartrees
 There are       98 alpha and       97 beta electrons
 Discretize the solute cavity surface with Lebedev spheres
	Using 194 Lebedev grid points for each H atom
	Using 194 Lebedev grid points for other atoms
	Atomic van der Waals radii (UFF set) will be scaled by 1.10
 Using smooth SwiG surface discretization
 Remove points where switching function is < 1.0e-08
 Keep 3986 surface tesserae and discard 4938 interior tesserae
 Molecular Surface Area = 531.396 Angst**2

 Requested basis set is def2-SVPD
 There are 294 shells and 694 basis functions
 A cutoff of  1.0D-16 yielded  36536 shell pairs
 There are    204298 function pairs (    236516 Cartesian)
 Smallest overlap matrix eigenvalue = 1.90E-05

 Scale SEOQF with 1.000000e-02/1.000000e-02/1.000000e-01

 Standard Electronic Orientation quadrupole field applied
 Nucleus-field energy     =    -0.0000000713 hartrees
 Guess from superposition of atomic densities
 Warning:  Energy on first SCF cycle will be non-variational
 SAD guess density has 196.000000 electrons

 -----------------------------------------------------------------------
  General SCF calculation program by
  Eric Jon Sundstrom, Paul Horn, Yuezhi Mao, Dmitri Zuev, Alec White,
  David Stuck, Shaama M.S., Shane Yost, Joonho Lee, David Small,
  Daniel Levine, Susi Lehtola, Hugh Burton, Evgeny Epifanovsky,
  Bang C. Huynh
 -----------------------------------------------------------------------
 Exchange:  B97M-V      Correlation:  B97M-V
 Using SG-3 standard quadrature grid
 Nonlocal Correlation:  VV10 with C = 0.0100 and b = 6.00 and scale = 1.00000
 Grid used for NLC:  SG-1 standard quadrature
 using 40 threads for integral computing
 -------------------------------------------------------
 OpenMP Integral computing Module                
 Release: version 1.0, May 2013, Q-Chem Inc. Pittsburgh 
 -------------------------------------------------------
 C-PCM solvent model [f = (eps-1)/eps], solve by matrix inversion
 A unrestricted SCF calculation will be
 performed using DIIS
 SCF converges when DIIS error is below 1.0e-08
 ---------------------------------------
  Cycle       Energy         DIIS error
 ---------------------------------------
    1   -1720.8863630660      7.93e-03  
    2   -1720.3103155482      7.35e-04  
    3   -1718.1309527254      2.44e-03  
    4   -1720.4042407569      5.01e-04  
    5   -1720.4790574640      1.99e-04  
    6   -1720.4830943791      1.74e-04  
    7   -1720.4928954742      5.37e-05  
    8   -1720.4938918602      2.67e-05  
    9   -1720.4943294486      1.90e-05  
   10   -1720.4946831683      1.32e-05  
   11   -1720.4949250545      9.07e-06  
   12   -1720.4949593595      4.55e-06  
   13   -1720.4949648929      2.06e-06  
   14   -1720.4949660355      1.01e-06  
   15   -1720.4949663544      6.48e-07  
   16   -1720.4949665544      2.70e-07  
   17   -1720.4949666430      2.31e-07  
   18   -1720.4949667321      1.77e-07  
   19   -1720.4949668266      1.58e-07  
   20   -1720.4949669396      1.38e-07  
   21   -1720.4949670685      1.13e-07  
   22   -1720.4949671340      9.78e-08  
   23   -1720.4949671675      5.96e-08  
   24   -1720.4949671772      3.59e-08  
   25   -1720.4949671794      3.02e-08  
   26   -1720.4949671804      1.39e-08  
   27   -1720.4949671807      1.10e-08  
   28   -1720.4949671809      8.40e-09  Convergence criterion met
 ---------------------------------------
 SCF time:   CPU 14791.05s  wall 727.00s 
<S^2> =          0.980412627

************** Final PCM Free Energy Summary **************
 G_electrostatic  =      -0.04208910 hartree =     -26.41130978 kcal/mol
 G_cavitation     =       0.00000000 hartree =       0.00000000 kcal/mol
 G_dispersion     =       0.00000000 hartree =       0.00000000 kcal/mol
 G_repulsion      =       0.00000000 hartree =       0.00000000 kcal/mol
 --------------------------------------------------
 Non-electrostatic Free Energy =       0.00000000 hartree =       0.00000000 kcal/mol
 Total                         =      -0.04208910 hartree =     -26.41130978 kcal/mol
 --------------------------------------------------
 SCF Energy (H0 + V/2)                       =   -1720.49496718 
 Solute Internal Energy (H0)                 =   -1720.45287808 
 Total Free Energy (H0 + V/2 + non-elec)     =   -1720.49496718 hartree
                                             = -1079626.88671383 kcal/mol
***********************************************************

 SCF   energy in the final basis set =    -1720.4949671809
 Total energy in the final basis set =    -1720.4949671809
 
 --------------------------------------------------------------
 
                    Orbital Energies (a.u.)
 --------------------------------------------------------------
 
 Alpha MOs
 -- Occupied --
-89.1158 -89.0285 -10.3734 -10.3696 -10.3670 -10.3492 -10.3403 -10.3375
-10.3334 -10.3318 -10.3311 -10.3300 -10.3287 -10.3274 -10.3250 -10.3245
-10.3235 -10.3234 -10.3203 -10.3179 -10.3169 -10.3075 -10.3030 -10.3024
-10.3018 -10.3010  -8.1432  -8.0579  -6.0198  -6.0195  -6.0093  -5.9355
 -5.9309  -5.9245  -0.9136  -0.8235  -0.7997  -0.7951  -0.7760  -0.7568
 -0.7477  -0.7339  -0.7307  -0.7181  -0.7170  -0.7004  -0.6957  -0.6760
 -0.6365  -0.6223  -0.6158  -0.6110  -0.6072  -0.5859  -0.5849  -0.5673
 -0.5381  -0.5315  -0.5134  -0.5066  -0.5002  -0.4918  -0.4802  -0.4630
 -0.4606  -0.4580  -0.4486  -0.4431  -0.4341  -0.4331  -0.4283  -0.4250
 -0.4208  -0.4099  -0.4033  -0.4003  -0.3929  -0.3918  -0.3872  -0.3798
 -0.3759  -0.3720  -0.3684  -0.3599  -0.3546  -0.3517  -0.3332  -0.3279
 -0.3260  -0.3008  -0.2902  -0.2841  -0.2825  -0.2710  -0.2673  -0.2550
 -0.2521  -0.2406
 -- Virtual --
 -0.1725  -0.1568  -0.1485  -0.1463  -0.1446  -0.1406  -0.1282  -0.1227
 -0.1072  -0.0834  -0.0714  -0.0678  -0.0544  -0.0513  -0.0456  -0.0372
 -0.0319  -0.0280  -0.0253  -0.0192  -0.0183  -0.0159  -0.0145  -0.0109
 -0.0077  -0.0059  -0.0039  -0.0020   0.0012   0.0025   0.0055   0.0061
  0.0082   0.0115   0.0214   0.0220   0.0251   0.0312   0.0373   0.0435
  0.0474   0.0493   0.0555   0.0563   0.0670   0.0673   0.0703   0.0729
  0.0743   0.0755   0.0798   0.0825   0.0848   0.0864   0.0872   0.0910
  0.0927   0.0939   0.0967   0.0997   0.1013   0.1038   0.1068   0.1090
  0.1101   0.1116   0.1146   0.1176   0.1192   0.1204   0.1223   0.1249
  0.1277   0.1299   0.1322   0.1338   0.1359   0.1369   0.1409   0.1448
  0.1455   0.1490   0.1520   0.1560   0.1582   0.1653   0.1665   0.1679
  0.1702   0.1733   0.1747   0.1789   0.1837   0.1912   0.1923   0.1967
  0.1976   0.1996   0.2027   0.2055   0.2080   0.2124   0.2138   0.2190
  0.2208   0.2271   0.2280   0.2283   0.2332   0.2350   0.2407   0.2415
  0.2431   0.2455   0.2488   0.2514   0.2526   0.2561   0.2611   0.2618
  0.2635   0.2652   0.2673   0.2686   0.2707   0.2725   0.2757   0.2812
  0.2814   0.2857   0.2880   0.2886   0.2910   0.2915   0.2947   0.2962
  0.2983   0.3013   0.3019   0.3038   0.3069   0.3081   0.3117   0.3148
  0.3159   0.3199   0.3211   0.3231   0.3244   0.3257   0.3281   0.3301
  0.3335   0.3366   0.3419   0.3446   0.3453   0.3489   0.3508   0.3530
  0.3585   0.3599   0.3624   0.3636   0.3688   0.3708   0.3774   0.3793
  0.3829   0.3870   0.3873   0.3895   0.3925   0.3952   0.3960   0.3986
  0.4012   0.4028   0.4052   0.4068   0.4076   0.4123   0.4147   0.4162
  0.4175   0.4210   0.4242   0.4285   0.4301   0.4339   0.4346   0.4368
  0.4408   0.4441   0.4488   0.4504   0.4518   0.4549   0.4583   0.4618
  0.4654   0.4702   0.4752   0.4825   0.4848   0.4857   0.4904   0.4917
  0.4956   0.4963   0.5025   0.5058   0.5106   0.5133   0.5142   0.5166
  0.5203   0.5276   0.5293   0.5344   0.5347   0.5357   0.5396   0.5417
  0.5447   0.5470   0.5491   0.5513   0.5547   0.5592   0.5608   0.5664
  0.5723   0.5745   0.5752   0.5800   0.5848   0.5886   0.5947   0.5975
  0.6004   0.6057   0.6113   0.6187   0.6216   0.6266   0.6319   0.6337
  0.6360   0.6416   0.6451   0.6473   0.6570   0.6588   0.6679   0.6732
  0.6750   0.6802   0.6836   0.6868   0.6909   0.6957   0.6988   0.7012
  0.7027   0.7079   0.7112   0.7128   0.7194   0.7235   0.7252   0.7326
  0.7369   0.7388   0.7397   0.7441   0.7500   0.7580   0.7631   0.7682
  0.7722   0.7838   0.7860   0.7942   0.7984   0.8049   0.8099   0.8194
  0.8211   0.8252   0.8323   0.8392   0.8441   0.8458   0.8497   0.8601
  0.8617   0.8638   0.8667   0.8734   0.8832   0.8879   0.8919   0.8949
  0.9018   0.9048   0.9070   0.9135   0.9164   0.9214   0.9284   0.9303
  0.9355   0.9382   0.9415   0.9526   0.9579   0.9651   0.9711   0.9744
  0.9795   0.9881   0.9928   0.9956   1.0030   1.0074   1.0113   1.0169
  1.0233   1.0305   1.0435   1.0464   1.0539   1.0607   1.0674   1.0703
  1.0764   1.0872   1.0927   1.0964   1.1114   1.1145   1.1251   1.1267
  1.1303   1.1373   1.1455   1.1500   1.1507   1.1524   1.1569   1.1679
  1.1692   1.1733   1.1754   1.1769   1.1817   1.1835   1.1914   1.1921
  1.1999   1.2026   1.2085   1.2130   1.2139   1.2184   1.2226   1.2282
  1.2358   1.2369   1.2402   1.2508   1.2562   1.2648   1.2744   1.2774
  1.2847   1.2885   1.2985   1.3049   1.3076   1.3202   1.3283   1.3313
  1.3368   1.3456   1.3521   1.3552   1.3691   1.3718   1.3758   1.3833
  1.3903   1.3948   1.3998   1.4054   1.4126   1.4185   1.4259   1.4324
  1.4357   1.4415   1.4483   1.4560   1.4612   1.4642   1.4683   1.4767
  1.4879   1.4934   1.4958   1.5055   1.5163   1.5217   1.5255   1.5319
  1.5352   1.5390   1.5409   1.5468   1.5524   1.5571   1.5598   1.5647
  1.5712   1.5726   1.5743   1.5825   1.5861   1.5906   1.5943   1.6038
  1.6094   1.6146   1.6194   1.6292   1.6316   1.6385   1.6442   1.6459
  1.6500   1.6588   1.6718   1.6745   1.6755   1.6801   1.6850   1.6900
  1.6978   1.7093   1.7129   1.7173   1.7219   1.7266   1.7276   1.7367
  1.7439   1.7505   1.7525   1.7585   1.7669   1.7776   1.7805   1.7849
  1.7869   1.7925   1.7966   1.8086   1.8189   1.8317   1.8397   1.8453
  1.8478   1.8503   1.8561   1.8569   1.8605   1.8702   1.8742   1.8888
  1.8913   1.8932   1.9003   1.9134   1.9188   1.9230   1.9271   1.9385
  1.9454   1.9497   1.9538   1.9578   1.9677   1.9746   1.9839   1.9862
  1.9993   2.0017   2.0083   2.0198   2.0267   2.0547   2.0593   2.0689
  2.0739   2.0771   2.0822   2.1348   2.1497   2.1615   2.1640   2.1662
  2.1753   2.1816   2.1841   2.1882   2.1909   2.1930   2.1949   2.1964
  2.2015   2.2032   2.2072   2.2104   2.2117   2.2178   2.2225   2.2261
  2.2296   2.2314   2.2343   2.2386   2.2416   2.2478   2.2486   2.2532
  2.2543   2.2573   2.2606   2.2671   2.2702   2.2720   2.2742   2.2853
  2.2949   2.2975   2.3066   2.3141   2.3216   2.3347   2.3508   2.3810
  2.6159   2.6601   2.6692   2.6823   2.6871   2.6937   2.6996   2.7034
  2.7086   2.7223   2.7242   2.7290   2.7368   2.7470   2.7492   2.7601
  2.7635   2.7675   2.7706   2.7776   2.7794   2.7834   2.7998   2.8013
  2.8115   2.8198   2.8337   2.8389   2.8737   2.9042   2.9097   2.9217
  2.9246   2.9613   2.9752   2.9879   2.9951   3.0006   3.0074   3.0155
  3.0629   3.0865   3.1076   3.1153
 
 Beta MOs
 -- Occupied --
-89.1153 -89.0286 -10.3730 -10.3689 -10.3679 -10.3404 -10.3397 -10.3375
-10.3336 -10.3317 -10.3316 -10.3305 -10.3301 -10.3289 -10.3272 -10.3233
-10.3231 -10.3201 -10.3181 -10.3155 -10.3139 -10.3074 -10.3027 -10.3026
-10.3020 -10.3007  -8.1429  -8.0578  -6.0193  -6.0188  -6.0087  -5.9356
 -5.9311  -5.9242  -0.9107  -0.8179  -0.7983  -0.7940  -0.7737  -0.7539
 -0.7455  -0.7333  -0.7306  -0.7170  -0.7149  -0.6958  -0.6954  -0.6779
 -0.6274  -0.6202  -0.6151  -0.6088  -0.6066  -0.5856  -0.5834  -0.5643
 -0.5369  -0.5291  -0.5111  -0.5058  -0.4976  -0.4908  -0.4783  -0.4603
 -0.4593  -0.4559  -0.4480  -0.4425  -0.4334  -0.4319  -0.4272  -0.4231
 -0.4207  -0.4087  -0.4023  -0.3999  -0.3923  -0.3912  -0.3852  -0.3790
 -0.3741  -0.3716  -0.3667  -0.3573  -0.3540  -0.3508  -0.3303  -0.3249
 -0.3187  -0.2964  -0.2895  -0.2828  -0.2765  -0.2695  -0.2668  -0.2520
 -0.2457
 -- Virtual --
 -0.1935  -0.1693  -0.1524  -0.1481  -0.1460  -0.1416  -0.1369  -0.1253
 -0.1224  -0.1034  -0.0743  -0.0658  -0.0610  -0.0535  -0.0481  -0.0429
 -0.0352  -0.0312  -0.0272  -0.0221  -0.0187  -0.0165  -0.0147  -0.0126
 -0.0099  -0.0067  -0.0053  -0.0022  -0.0006   0.0018   0.0032   0.0060
  0.0068   0.0092   0.0140   0.0227   0.0240   0.0272   0.0335   0.0383
  0.0444   0.0492   0.0507   0.0560   0.0597   0.0681   0.0696   0.0714
  0.0737   0.0758   0.0770   0.0806   0.0827   0.0863   0.0875   0.0879
  0.0924   0.0934   0.0945   0.0977   0.1007   0.1034   0.1050   0.1082
  0.1100   0.1107   0.1123   0.1151   0.1184   0.1197   0.1214   0.1229
  0.1253   0.1298   0.1301   0.1332   0.1350   0.1364   0.1377   0.1419
  0.1456   0.1479   0.1497   0.1529   0.1566   0.1601   0.1674   0.1681
  0.1693   0.1720   0.1737   0.1753   0.1804   0.1844   0.1926   0.1938
  0.1977   0.1993   0.2023   0.2037   0.2075   0.2088   0.2132   0.2155
  0.2204   0.2219   0.2280   0.2295   0.2304   0.2350   0.2357   0.2419
  0.2425   0.2440   0.2463   0.2493   0.2531   0.2535   0.2570   0.2622
  0.2633   0.2651   0.2663   0.2678   0.2694   0.2714   0.2738   0.2766
  0.2818   0.2820   0.2867   0.2886   0.2895   0.2921   0.2928   0.2952
  0.2969   0.2992   0.3023   0.3031   0.3045   0.3080   0.3098   0.3127
  0.3154   0.3165   0.3208   0.3215   0.3239   0.3253   0.3265   0.3289
  0.3312   0.3346   0.3372   0.3429   0.3454   0.3461   0.3501   0.3518
  0.3542   0.3593   0.3608   0.3635   0.3658   0.3696   0.3718   0.3787
  0.3810   0.3839   0.3878   0.3885   0.3903   0.3933   0.3958   0.3973
  0.4000   0.4021   0.4035   0.4059   0.4084   0.4094   0.4131   0.4155
  0.4169   0.4186   0.4216   0.4247   0.4292   0.4314   0.4352   0.4354
  0.4374   0.4434   0.4448   0.4497   0.4514   0.4525   0.4568   0.4597
  0.4639   0.4675   0.4717   0.4761   0.4837   0.4860   0.4871   0.4919
  0.4928   0.4975   0.4977   0.5033   0.5075   0.5126   0.5141   0.5151
  0.5181   0.5213   0.5296   0.5314   0.5350   0.5354   0.5369   0.5407
  0.5429   0.5461   0.5483   0.5505   0.5524   0.5556   0.5604   0.5622
  0.5676   0.5739   0.5753   0.5759   0.5822   0.5862   0.5903   0.5958
  0.5991   0.6022   0.6080   0.6130   0.6201   0.6235   0.6290   0.6341
  0.6350   0.6383   0.6429   0.6467   0.6489   0.6583   0.6609   0.6693
  0.6750   0.6770   0.6828   0.6849   0.6884   0.6924   0.6971   0.7004
  0.7022   0.7035   0.7097   0.7126   0.7151   0.7206   0.7251   0.7265
  0.7339   0.7380   0.7402   0.7414   0.7460   0.7513   0.7592   0.7652
  0.7698   0.7728   0.7849   0.7870   0.7952   0.7992   0.8060   0.8125
  0.8202   0.8227   0.8272   0.8330   0.8401   0.8451   0.8472   0.8507
  0.8604   0.8624   0.8644   0.8683   0.8755   0.8845   0.8898   0.8939
  0.8964   0.9034   0.9056   0.9096   0.9154   0.9180   0.9224   0.9303
  0.9324   0.9367   0.9385   0.9424   0.9531   0.9607   0.9690   0.9731
  0.9764   0.9825   0.9899   0.9950   0.9973   1.0067   1.0091   1.0131
  1.0192   1.0259   1.0333   1.0456   1.0494   1.0562   1.0625   1.0692
  1.0733   1.0799   1.0910   1.0949   1.0995   1.1143   1.1164   1.1271
  1.1293   1.1365   1.1410   1.1472   1.1505   1.1529   1.1547   1.1599
  1.1689   1.1705   1.1744   1.1768   1.1785   1.1829   1.1848   1.1922
  1.1932   1.2011   1.2049   1.2083   1.2140   1.2164   1.2201   1.2249
  1.2318   1.2377   1.2383   1.2430   1.2523   1.2588   1.2665   1.2765
  1.2791   1.2869   1.2903   1.3006   1.3082   1.3103   1.3234   1.3302
  1.3340   1.3397   1.3483   1.3541   1.3580   1.3713   1.3748   1.3785
  1.3855   1.3927   1.3966   1.4022   1.4082   1.4178   1.4231   1.4287
  1.4350   1.4387   1.4446   1.4504   1.4579   1.4639   1.4660   1.4706
  1.4792   1.4904   1.4952   1.4977   1.5081   1.5167   1.5228   1.5270
  1.5333   1.5368   1.5411   1.5426   1.5486   1.5535   1.5587   1.5615
  1.5651   1.5724   1.5736   1.5752   1.5845   1.5872   1.5928   1.5957
  1.6055   1.6104   1.6170   1.6222   1.6307   1.6332   1.6395   1.6457
  1.6472   1.6539   1.6621   1.6738   1.6773   1.6782   1.6826   1.6873
  1.6941   1.7070   1.7107   1.7154   1.7184   1.7238   1.7286   1.7302
  1.7392   1.7462   1.7520   1.7603   1.7620   1.7690   1.7797   1.7829
  1.7867   1.7889   1.7956   1.7983   1.8109   1.8251   1.8334   1.8408
  1.8456   1.8492   1.8521   1.8569   1.8596   1.8617   1.8754   1.8763
  1.8913   1.8932   1.8981   1.9030   1.9124   1.9207   1.9271   1.9311
  1.9394   1.9463   1.9511   1.9579   1.9615   1.9690   1.9782   1.9871
  1.9956   2.0017   2.0028   2.0118   2.0211   2.0283   2.0569   2.0626
  2.0745   2.0766   2.0828   2.0859   2.1416   2.1518   2.1648   2.1666
  2.1702   2.1800   2.1833   2.1846   2.1890   2.1924   2.1952   2.1975
  2.1984   2.2021   2.2068   2.2086   2.2114   2.2133   2.2193   2.2254
  2.2284   2.2315   2.2351   2.2388   2.2423   2.2426   2.2508   2.2510
  2.2537   2.2580   2.2595   2.2616   2.2685   2.2719   2.2731   2.2768
  2.2880   2.2975   2.3020   2.3085   2.3156   2.3250   2.3428   2.3575
  2.3938   2.6292   2.6609   2.6698   2.6832   2.6878   2.6949   2.7010
  2.7051   2.7111   2.7234   2.7246   2.7299   2.7431   2.7507   2.7557
  2.7605   2.7657   2.7710   2.7731   2.7795   2.7805   2.7845   2.8004
  2.8021   2.8117   2.8201   2.8358   2.8409   2.8740   2.9057   2.9099
  2.9224   2.9252   2.9667   2.9788   2.9887   2.9963   3.0016   3.0094
  3.0220   3.0649   3.0867   3.1081   3.1157
 --------------------------------------------------------------
 
          Ground-State Mulliken Net Atomic Charges

     Atom                 Charge (a.u.)    Spin (a.u.)
  --------------------------------------------------------
      1 S                    -0.522337       0.020037
      2 C                    -0.304771       0.036675
      3 C                     0.350276      -0.031217
      4 H                     0.109741       0.002921
      5 C                    -0.024596       0.015898
      6 H                     0.031983      -0.000655
      7 C                     0.009251      -0.016040
      8 H                     0.016655       0.000862
      9 C                     0.043050       0.015213
     10 H                    -0.000435      -0.000556
     11 C                     0.328408      -0.014971
     12 H                     0.027473       0.000942
     13 C                    -0.407535       0.043201
     14 C                     0.333408      -0.005727
     15 H                     0.137412       0.000926
     16 C                    -0.020875       0.009417
     17 H                    -0.021649       0.000046
     18 C                     0.109925      -0.010089
     19 H                     0.121528       0.000386
     20 C                    -0.008183       0.009348
     21 H                     0.081761       0.000130
     22 C                     0.301920      -0.007382
     23 H                     0.025354       0.001136
     24 S                    -1.024713      -0.022744
     25 C                    -0.069139       0.693482
     26 C                     0.204857      -0.558121
     27 H                     0.043941       0.016427
     28 C                     0.115236       0.763738
     29 H                    -0.014800      -0.044022
     30 C                     0.063493      -0.573905
     31 H                     0.052068       0.019867
     32 C                     0.132231       0.744682
     33 H                    -0.099767      -0.023731
     34 C                     0.038732      -0.165228
     35 H                     0.150388       0.032775
     36 C                    -0.294471       0.016431
     37 C                     0.493121       0.021835
     38 H                     0.153635       0.001210
     39 C                    -0.137850      -0.018279
     40 H                     0.043457       0.001371
     41 C                    -0.021817       0.021097
     42 H                     0.054018      -0.001414
     43 C                     0.019630      -0.015899
     44 H                     0.027618       0.000728
     45 C                     0.268901       0.018688
     46 H                     0.083468       0.000513
  --------------------------------------------------------
  Sum of atomic charges =     1.000000
  Sum of spin   charges =     1.000000

  Building new vdw surfaces
         Merz-Kollman RESP Net Atomic Charges

     Atom                 Charge (a.u.)
  ----------------------------------------
      1 S                    -0.373397
      2 C                     0.478771
      3 C                    -0.368452
      4 H                     0.223663
      5 C                    -0.091885
      6 H                     0.195462
      7 C                    -0.189713
      8 H                     0.212649
      9 C                    -0.121917
     10 H                     0.206255
     11 C                    -0.372399
     12 H                     0.246087
     13 C                     0.186491
     14 C                    -0.187199
     15 H                     0.223663
     16 C                    -0.175105
     17 H                     0.222478
     18 C                    -0.115852
     19 H                     0.186376
     20 C                    -0.121917
     21 H                     0.206255
     22 C                    -0.231122
     23 H                     0.230502
     24 S                    -0.144532
     25 C                     0.052903
     26 C                    -0.292121
     27 H                     0.222083
     28 C                    -0.028832
     29 H                     0.179591
     30 C                    -0.210298
     31 H                     0.210275
     32 C                    -0.318100
     33 H                     0.221674
     34 C                     0.358613
     35 H                     0.162906
     36 C                     0.161546
     37 C                    -0.250532
     38 H                     0.176521
     39 C                    -0.166201
     40 H                     0.188616
     41 C                    -0.166187
     42 H                     0.191787
     43 C                    -0.157356
     44 H                     0.178876
     45 C                    -0.243309
     46 H                     0.202382
  ----------------------------------------
  Sum of atomic charges =     1.000000

  Related Dipole Moment =     5.9164 (X  5.9043 Y -0.3662 Z  0.0982)

 -----------------------------------------------------------------
                    Cartesian Multipole Moments
 -----------------------------------------------------------------
    Charge (ESU x 10^10)
                 4.8032
    Dipole Moment (Debye)
         X       5.9041      Y      -0.3484      Z       0.1077
       Tot       5.9154
    Quadrupole Moments (Debye-Ang)
        XX    -109.1427     XY      16.7883     YY    -118.2533
        XZ      -2.2122     YZ      -1.1284     ZZ    -137.8133
    Octopole Moments (Debye-Ang^2)
       XXX     120.8749    XXY     103.6902    XYY      21.7187
       YYY    -146.0815    XXZ      70.0919    XYZ      14.3191
       YYZ      -5.6635    XZZ     -51.9656    YZZ     -88.4400
       ZZZ     265.2624
    Hexadecapole Moments (Debye-Ang^3)
      XXXX   -5481.5409   XXXY      24.2594   XXYY   -1311.7467
      XYYY     383.0954   YYYY   -4262.7392   XXXZ      -1.0502
      XXYZ     118.9676   XYYZ    -109.7922   YYYZ     183.4175
      XXZZ   -1777.2238   XYZZ     -10.5631   YYZZ   -1372.3873
      XZZZ    -187.4023   YZZZ      22.9286   ZZZZ   -3622.7487
 -----------------------------------------------------------------
 Calculating analytic gradient of the SCF energy
 Gradient of SCF Energy
            1           2           3           4           5           6
    1  -0.0417617   0.0344964  -0.0015341  -0.0144444  -0.0430782  -0.0450239
    2  -0.0447710   0.0437741  -0.0145537  -0.0354842  -0.0605005  -0.0565702
    3  -0.0864839  -0.0965610  -0.0288815  -0.0619774  -0.0118022   0.0022787
            7           8           9          10          11          12
    1  -0.0314459  -0.0322926   0.0207831   0.0082673   0.0365199   0.0501677
    2  -0.0292510  -0.0300054   0.0303938   0.0253899   0.0304326   0.0586466
    3   0.0783054   0.0572133   0.0527303   0.0729318  -0.0146277   0.0063277
           13          14          15          16          17          18
    1  -0.0603881   0.0134711   0.0191523   0.0796794   0.0695872   0.0276748
    2  -0.0658030  -0.0544068  -0.0696018  -0.0137621  -0.0161860   0.0388897
    3  -0.0039640   0.0137877   0.0182159   0.0364658   0.0267519   0.0018660
           19          20          21          22          23          24
    1   0.0600037  -0.0161100  -0.0267375  -0.0551822  -0.0665428   0.0065904
    2   0.0582735   0.0700482   0.0740179   0.0225574   0.0047101   0.0316883
    3   0.0040913  -0.0170910  -0.0284603  -0.0277517  -0.0257574  -0.0459911
           25          26          27          28          29          30
    1   0.0402998  -0.0512762  -0.0755808  -0.0516485  -0.0343307  -0.0063652
    2   0.0747537   0.0016245   0.0012654  -0.0519788  -0.0643193  -0.0649172
    3   0.0261668  -0.0168575  -0.0221351  -0.0064872  -0.0137562   0.0023478
           31          32          33          34          35          36
    1   0.0454551   0.0159722   0.0875953   0.0504496   0.0275465   0.0632331
    2  -0.0714278   0.0685774  -0.0112416   0.0553330   0.0430414  -0.0295410
    3   0.0024764   0.0265308   0.0157677   0.0903466  -0.0717818  -0.0498980
           37          38          39          40          41          42
    1   0.0495308   0.0475039   0.0021733   0.0029502  -0.0611256  -0.0489424
    2  -0.0303785  -0.0311673  -0.0209727  -0.0142282   0.0304386   0.0221929
    3   0.0087537   0.0251955   0.0684095   0.0736247   0.0431137   0.0505551
           43          44          45          46
    1  -0.0452217  -0.0567652   0.0144718  -0.0077773
    2   0.0257955   0.0429537   0.0061578   0.0201121
    3  -0.0267371  -0.0179335  -0.0596086  -0.0697099
 Max gradient component =       9.656E-02
 RMS gradient           =       4.404E-02
 Computing fast CPCM-SWIG gradient
 Updating gradient with PCM contributions...
 -- total gradient after adding PCM contribution --
---------------------------------------------------
  Atom         X              Y              Z     
---------------------------------------------------
   1      -0.028824      -0.050559      -0.059031
   2       0.047089       0.043960      -0.104768
   3      -0.006448      -0.020780      -0.044636
   4      -0.014824      -0.021889      -0.038467
   5      -0.051282      -0.071362      -0.017246
   6      -0.030626      -0.036685       0.002467
   7      -0.035954      -0.035580       0.089925
   8      -0.023028      -0.020800       0.038821
   9       0.023268       0.035296       0.062074
  10       0.004667       0.015967       0.047875
  11       0.041719       0.049476      -0.002915
  12       0.029643       0.040818       0.007783
  13      -0.054258      -0.055707      -0.010548
  14       0.010790      -0.070909       0.021593
  15       0.016799      -0.043532       0.015293
  16       0.095252      -0.010865       0.039078
  17       0.044642      -0.010979       0.017173
  18       0.032154       0.041969       0.001246
  19       0.038333       0.036956       0.002364
  20      -0.013532       0.086722      -0.020253
  21      -0.018450       0.050686      -0.019798
  22      -0.074235       0.012500      -0.030725
  23      -0.044320       0.006035      -0.018619
  24       0.005384       0.022651      -0.026083
  25       0.039487       0.071074       0.002137
  26      -0.059620       0.009992      -0.014618
  27      -0.053692      -0.003115      -0.013333
  28      -0.059550      -0.068618      -0.010759
  29      -0.022068      -0.042510      -0.005922
  30       0.008770      -0.072116       0.000623
  31       0.028842      -0.049122       0.002895
  32       0.039400       0.055006       0.015976
  33       0.054741      -0.004925       0.011554
  34       0.048589       0.067759       0.067341
  35       0.011327       0.021129      -0.036483
  36       0.082140      -0.028941      -0.062447
  37       0.044910      -0.032652       0.012781
  38       0.033223      -0.021978       0.019962
  39       0.008276      -0.026037       0.079529
  40       0.002151      -0.010768       0.053759
  41      -0.068396       0.035619       0.050559
  42      -0.036974       0.017949       0.039625
  43      -0.050079       0.028947      -0.028627
  44      -0.042346       0.031200      -0.012500
  45       0.004707       0.011658      -0.070702
  46      -0.007798       0.017062      -0.053955
---------------------------------------------------
 Number of fixed atoms: 0
 Gradient time:  CPU 593.87 s  wall 63.09 s

 *****************************************************
             Starting BFGS Algorithm
 *****************************************************
            LIBOPT3 RUN PARAMETERS

  Geometry Optimization Coordinates :
	Internal Coordinates

  Step Length Selection Method :
	Eigenvector Following Algorithm

  Convergence Criteria :
	Max Gradient Component    	3.00000000e-04
	Max Displacement Component	1.20000000e-03
	Absolute Energy Difference	1.00000000e-06

  Initial Hessian :
	Approximate Hessian - Simple Internal Coordinate Scaled

  Type of Verification :
	Verify with final updated Hessian
 *****************************************************

	OPTIMIZATION CYCLE:	1

 Scaling Magnitude of Eigenvalues
 	Minimum: -25.00000000	 Maximum: 25.00000000
 246 Hessian Eigenvalues to form next step
   0.10000000   0.10000000   0.10000000   0.10000000   0.10000000
   0.10000000   0.10000000   0.10000000   0.10000000   0.10000000
   0.10000000   0.10000000   0.10000000   0.10000000   0.10000000
   0.10000000   0.10000000   0.10000000   0.10000000   0.10000000
   0.10000000   0.10000000   0.10000000   0.10000000   0.10000000
   0.10000000   0.10000000   0.10000000   0.10000000   0.10000000
   0.10000000   0.10000000   0.10000000   0.10000000   0.10000000
   0.10000000   0.10000000   0.10000000   0.10000000   0.10000000
   0.10000000   0.10000000   0.10000000   0.10000000   0.10000000
   0.10000000   0.10000000   0.10000000   0.10000000   0.10000000
   0.10000000   0.10000000   0.10000000   0.10000000   0.10000000
   0.10000000   0.10000000   0.10000000   0.10000000   0.10000000
   0.10000000   0.10000000   0.10000000   0.10000000   0.10000000
   0.10000000   0.10000000   0.10000000   0.10000000   0.10000000
   0.10000000   0.10000000   0.10000000   0.10000000   0.10000000
   0.10000000   0.10000000   0.10000000   0.10000000   0.10000000
   0.10000000   0.10000000   0.10000000   0.10000000   0.10000000
   0.10000000   0.10000000   0.10000000   0.10000000   0.10000000
   0.10000000   0.10000000   0.10000000   0.10000000   0.10000000
   0.10000000   0.10000000   0.10000000   0.10000000   0.10000000
   0.10000000   0.10000000   0.10000000   0.10000000   0.10000000
   0.10000000   0.10000000   0.10000000   0.10000000   0.10000000
   0.10000000   0.10000000   0.10000000   0.10000000   0.10000000
   0.10000000   0.10000000   0.10000000   0.20000000   0.20000000
   0.20000000   0.20000000   0.20000000   0.20000000   0.20000000
   0.20000000   0.20000000   0.20000000   0.20000000   0.20000000
   0.20000000   0.20000000   0.20000000   0.20000000   0.20000000
   0.20000000   0.20000000   0.20000000   0.20000000   0.20000000
   0.20000000   0.20000000   0.20000000   0.20000000   0.20000000
   0.20000000   0.20000000   0.20000000   0.20000000   0.20000000
   0.20000000   0.20000000   0.20000000   0.20000000   0.20000000
   0.20000000   0.20000000   0.20000000   0.20000000   0.20000000
   0.20000000   0.20000000   0.20000000   0.20000000   0.20000000
   0.20000000   0.20000000   0.20000000   0.20000000   0.20000000
   0.20000000   0.20000000   0.20000000   0.20000000   0.20000000
   0.20000000   0.20000000   0.20000000   0.20000000   0.20000000
   0.20000000   0.20000000   0.20000000   0.20000000   0.20000000
   0.20000000   0.20000000   0.20000000   0.20000000   0.20000000
   0.20000000   0.20000000   0.20000000   0.20000000   0.20000000
   0.20000000   0.20000000   0.50000000   0.50000000   0.50000000
   0.50000000   0.50000000   0.50000000   0.50000000   0.50000000
   0.50000000   0.50000000   0.50000000   0.50000000   0.50000000
   0.50000000   0.50000000   0.50000000   0.50000000   0.50000000
   0.50000000   0.50000000   0.50000000   0.50000000   0.50000000
   0.50000000   0.50000000   0.50000000   0.50000000   0.50000000
   0.50000000   0.50000000   0.50000000   0.50000000   0.50000000
   0.50000000   0.50000000   0.50000000   0.50000000   0.50000000
   0.50000000   0.50000000   0.50000000   0.50000000   0.50000000
   0.50000000   0.50000000   0.50000000   0.50000000   0.50000000
   0.50000000

 Minimum Search taking a RFO step
 Searching for Lambda that minimizes along all modes
	Value of Lambda  -0.47666653
	Norm of Stepsize  0.30000001
	RMS of Stepsize  0.04479220

	Performing Iterative Coordinate Back-Transformation

	  Starting from Previous Position

	  iter:	0	rms: 9.8616041668e-02	maxdev: 2.6044935589e-01
	  iter:	1	rms: 8.8974919254e-04	maxdev: 2.9035610107e-03
	  iter:	2	rms: 2.6700565356e-07	maxdev: 9.4523904681e-07	 Success!

	Finished Iterative Coordinate Back-Transformation
 ----------------------------------------------------------------
             Standard Nuclear Orientation (Angstroms)
    I     Atom           X                Y                Z
 ----------------------------------------------------------------
    1      S       1.4058984621    -0.1178302038    -0.4576380707
    2      C       0.6543674401    -0.9004988607     1.0647997501
    3      C      -0.3398867656    -2.1778987101     1.0615023376
    4      H      -0.6441297781    -2.6769372242     0.0610235750
    5      C      -1.0094941442    -2.8061501773     2.4148923864
    6      H      -1.7373390175    -3.7053737937     2.3393477145
    7      C      -0.6978112970    -2.1697441664     3.8598970910
    8      H      -1.2027051722    -2.6035926118     4.8129398574
    9      C       0.3136797100    -0.8838343604     3.8899804295
   10      H       0.5198834571    -0.4067382636     4.9333063194
   11      C       0.9842652606    -0.2515345128     2.5370755773
   12      H       1.6784307126     0.6799105178     2.6558887801
   13      C       2.5770033453     1.3701170037    -0.3240076955
   14      C       4.0392911192     1.0677233839     0.2917936392
   15      H       4.3401073497     0.0016097667     0.6451514178
   16      C       5.1142684478     2.2726183667     0.3982914139
   17      H       6.1780383757     2.0640112927     0.8110464702
   18      C       4.6476571923     3.7249126606    -0.1384303014
   19      H       5.4491683271     4.5814764041    -0.0892641225
   20      C       3.1794032214     4.0611891383    -0.7427579665
   21      H       2.8659460681     5.1271306354    -1.1381632358
   22      C       2.1004225478     2.8509030182    -0.8470015019
   23      H       1.0345013302     2.9801526366    -1.2933094237
   24      S      -1.1346742864     1.1636485591    -2.6569457606
   25      C      -0.5094713413    -0.5755827801    -2.4583946506
   26      C      -1.4716698179    -1.8820729209    -2.6911829372
   27      H      -2.6123651116    -1.7768649642    -2.9560857884
   28      C      -0.9005907838    -3.4102748856    -2.5765375248
   29      H      -1.5379521205    -4.3638273829    -2.7388322915
   30      C       0.6808565847    -3.5586572338    -2.2658929245
   31      H       1.2195050675    -4.6066679201    -2.1926941498
   32      C       1.6091192909    -2.2674572201    -2.0509536095
   33      H       2.7559750294    -2.4135675499    -1.8104774119
   34      C       1.0949294716    -0.7072247973    -2.0674835273
   35      H       1.6544819252    -0.0484112129    -2.8509497101
   36      C      -2.3944700410     1.5955288529    -1.3708129288
   37      C      -2.3544117474     1.2402093894     0.1963953069
   38      H      -1.4664398256     0.6328570607     0.6270721230
   39      C      -3.4941107273     1.7070901704     1.2790009992
   40      H      -3.3781208152     1.4232709584     2.4135897354
   41      C      -4.7451018530     2.6052089089     0.7844202884
   42      H      -5.5490696640     2.9737594158     1.5659439058
   43      C      -4.8174776916     2.9542416813    -0.7994566308
   44      H      -5.7228911361     3.6182648642    -1.1490049577
   45      C      -3.6842844426     2.4789273079    -1.8781393040
   46      H      -3.8191221561     2.8115587588    -3.0036336922
 ----------------------------------------------------------------
 Nuclear Repulsion Energy =        2310.63714676 hartrees
 There are       98 alpha and       97 beta electrons
 Discretize the solute cavity surface with Lebedev spheres
	Using 194 Lebedev grid points for each H atom
	Using 194 Lebedev grid points for other atoms
	Atomic van der Waals radii (UFF set) will be scaled by 1.10
 Using smooth SwiG surface discretization
 Remove points where switching function is < 1.0e-08
 Keep 3919 surface tesserae and discard 5005 interior tesserae
 Molecular Surface Area = 519.045 Angst**2

 Applying Cartesian multipole field
    Component          Value
    ---------          -----
     (2,0,0)        1.00000E-12
     (0,2,0)        2.00000E-12
     (0,0,2)       -3.00000E-11
 Nucleus-field energy     =-6.9800317568e-08 hartrees
 Requested basis set is def2-SVPD
 There are 294 shells and 694 basis functions
 A cutoff of  1.0D-16 yielded  36842 shell pairs
 There are    206286 function pairs (    238806 Cartesian)
 Smallest overlap matrix eigenvalue = 1.63E-05
 Guess MOs from SCF MO coefficient file

 -----------------------------------------------------------------------
  General SCF calculation program by
  Eric Jon Sundstrom, Paul Horn, Yuezhi Mao, Dmitri Zuev, Alec White,
  David Stuck, Shaama M.S., Shane Yost, Joonho Lee, David Small,
  Daniel Levine, Susi Lehtola, Hugh Burton, Evgeny Epifanovsky,
  Bang C. Huynh
 -----------------------------------------------------------------------
 Exchange:  B97M-V      Correlation:  B97M-V
 Using SG-3 standard quadrature grid
 Nonlocal Correlation:  VV10 with C = 0.0100 and b = 6.00 and scale = 1.00000
 Grid used for NLC:  SG-1 standard quadrature
 A unrestricted SCF calculation will be
 performed using Roothaan-Hall, DIIS
 SCF converges when DIIS error is below 1.0e-08
 ---------------------------------------
  Cycle       Energy         DIIS error
 ---------------------------------------
    1   -1720.6351865674      5.25e-04  Roothaan Step
 ---------------------------------------
  Cycle       Energy         DIIS error
 ---------------------------------------
    1   -1720.6865470230      1.21e-04  
    2   -1720.6499538773      3.50e-04  
    3   -1720.6929994363      4.24e-05  
    4   -1720.6934994669      2.12e-05  
    5   -1720.6936185324      9.59e-06  
    6   -1720.6936434051      4.00e-06  
    7   -1720.6936488343      1.39e-06  
    8   -1720.6936497107      9.02e-07  
    9   -1720.6936502273      5.72e-07  
   10   -1720.6936505537      3.72e-07  
   11   -1720.6936506721      2.52e-07  
   12   -1720.6936507154      1.29e-07  
   13   -1720.6936507324      8.46e-08  
   14   -1720.6936507462      7.16e-08  
   15   -1720.6936507652      5.97e-08  
   16   -1720.6936507818      4.51e-08  
   17   -1720.6936507901      3.45e-08  
   18   -1720.6936507915      1.54e-08  
   19   -1720.6936507918      9.13e-09  Convergence criterion met
 ---------------------------------------
 SCF time:   CPU 10668.42s  wall 525.00s 
<S^2> =          0.934895797

************** Final PCM Free Energy Summary **************
 G_electrostatic  =      -0.04163138 hartree =     -26.12408503 kcal/mol
 G_cavitation     =       0.00000000 hartree =       0.00000000 kcal/mol
 G_dispersion     =       0.00000000 hartree =       0.00000000 kcal/mol
 G_repulsion      =       0.00000000 hartree =       0.00000000 kcal/mol
 --------------------------------------------------
 Non-electrostatic Free Energy =       0.00000000 hartree =       0.00000000 kcal/mol
 Total                         =      -0.04163138 hartree =     -26.12408503 kcal/mol
 --------------------------------------------------
 SCF Energy (H0 + V/2)                       =   -1720.69365079 
 Solute Internal Energy (H0)                 =   -1720.65201941 
 Total Free Energy (H0 + V/2 + non-elec)     =   -1720.69365079 hartree
                                             = -1079751.56256141 kcal/mol
***********************************************************

 SCF   energy in the final basis set =    -1720.6936507918
 Total energy in the final basis set =    -1720.6936507918
 
 --------------------------------------------------------------
 
                    Orbital Energies (a.u.)
 --------------------------------------------------------------
 
 Alpha MOs
 -- Occupied --
-89.1143 -89.0265 -10.3689 -10.3652 -10.3641 -10.3450 -10.3339 -10.3313
-10.3272 -10.3258 -10.3248 -10.3233 -10.3226 -10.3206 -10.3200 -10.3191
-10.3186 -10.3171 -10.3140 -10.3117 -10.3115 -10.3009 -10.2966 -10.2960
-10.2952 -10.2942  -8.1419  -8.0562  -6.0185  -6.0183  -6.0080  -5.9337
 -5.9292  -5.9228  -0.9152  -0.8302  -0.8086  -0.8041  -0.7854  -0.7655
 -0.7544  -0.7407  -0.7377  -0.7247  -0.7242  -0.7057  -0.7026  -0.6809
 -0.6399  -0.6255  -0.6192  -0.6139  -0.6108  -0.5892  -0.5880  -0.5699
 -0.5389  -0.5315  -0.5132  -0.5094  -0.5028  -0.4969  -0.4832  -0.4670
 -0.4649  -0.4620  -0.4524  -0.4475  -0.4388  -0.4382  -0.4331  -0.4289
 -0.4252  -0.4154  -0.4073  -0.4036  -0.3947  -0.3940  -0.3898  -0.3817
 -0.3785  -0.3746  -0.3712  -0.3625  -0.3596  -0.3535  -0.3373  -0.3324
 -0.3302  -0.3029  -0.2928  -0.2866  -0.2849  -0.2738  -0.2690  -0.2554
 -0.2542  -0.2403
 -- Virtual --
 -0.1670  -0.1525  -0.1441  -0.1430  -0.1414  -0.1366  -0.1235  -0.1183
 -0.1009  -0.0771  -0.0628  -0.0602  -0.0475  -0.0448  -0.0411  -0.0302
 -0.0266  -0.0231  -0.0173  -0.0160  -0.0129  -0.0108  -0.0085  -0.0052
 -0.0015   0.0001   0.0027   0.0043   0.0052   0.0074   0.0096   0.0116
  0.0124   0.0195   0.0255   0.0300   0.0306   0.0385   0.0414   0.0465
  0.0524   0.0547   0.0595   0.0609   0.0725   0.0737   0.0738   0.0771
  0.0807   0.0818   0.0854   0.0878   0.0917   0.0936   0.0954   0.0961
  0.0971   0.1001   0.1018   0.1033   0.1069   0.1108   0.1126   0.1142
  0.1154   0.1183   0.1207   0.1210   0.1211   0.1240   0.1266   0.1294
  0.1323   0.1327   0.1362   0.1393   0.1402   0.1424   0.1455   0.1502
  0.1538   0.1549   0.1565   0.1610   0.1635   0.1682   0.1723   0.1743
  0.1763   0.1801   0.1809   0.1841   0.1882   0.1952   0.1972   0.2007
  0.2011   0.2048   0.2062   0.2107   0.2138   0.2166   0.2196   0.2261
  0.2289   0.2320   0.2342   0.2363   0.2404   0.2429   0.2472   0.2492
  0.2508   0.2523   0.2549   0.2572   0.2588   0.2637   0.2661   0.2673
  0.2696   0.2718   0.2742   0.2752   0.2762   0.2785   0.2813   0.2866
  0.2870   0.2921   0.2942   0.2952   0.2966   0.2982   0.3022   0.3026
  0.3061   0.3080   0.3088   0.3107   0.3130   0.3142   0.3181   0.3221
  0.3232   0.3248   0.3261   0.3302   0.3318   0.3326   0.3352   0.3373
  0.3417   0.3440   0.3467   0.3488   0.3506   0.3531   0.3565   0.3578
  0.3637   0.3659   0.3673   0.3701   0.3738   0.3758   0.3819   0.3836
  0.3865   0.3893   0.3908   0.3927   0.3945   0.3969   0.4005   0.4018
  0.4037   0.4062   0.4068   0.4105   0.4115   0.4149   0.4177   0.4195
  0.4222   0.4243   0.4295   0.4338   0.4349   0.4390   0.4401   0.4427
  0.4457   0.4511   0.4546   0.4562   0.4585   0.4616   0.4648   0.4664
  0.4696   0.4761   0.4845   0.4878   0.4919   0.4941   0.4948   0.4988
  0.5018   0.5025   0.5098   0.5120   0.5143   0.5190   0.5200   0.5259
  0.5274   0.5333   0.5337   0.5379   0.5403   0.5424   0.5454   0.5489
  0.5505   0.5534   0.5540   0.5566   0.5595   0.5622   0.5678   0.5716
  0.5776   0.5796   0.5816   0.5871   0.5909   0.5970   0.5991   0.6011
  0.6059   0.6125   0.6145   0.6249   0.6275   0.6332   0.6379   0.6419
  0.6445   0.6475   0.6528   0.6570   0.6635   0.6645   0.6749   0.6792
  0.6852   0.6869   0.6909   0.6940   0.6976   0.7016   0.7041   0.7086
  0.7111   0.7123   0.7161   0.7174   0.7246   0.7292   0.7315   0.7356
  0.7429   0.7436   0.7474   0.7484   0.7570   0.7616   0.7716   0.7757
  0.7778   0.7922   0.7988   0.8036   0.8071   0.8135   0.8201   0.8246
  0.8307   0.8353   0.8403   0.8468   0.8529   0.8539   0.8593   0.8673
  0.8695   0.8732   0.8760   0.8812   0.8908   0.8972   0.9006   0.9055
  0.9095   0.9129   0.9168   0.9196   0.9223   0.9306   0.9369   0.9399
  0.9455   0.9465   0.9528   0.9608   0.9666   0.9786   0.9804   0.9866
  0.9904   0.9990   1.0034   1.0080   1.0109   1.0180   1.0228   1.0288
  1.0392   1.0468   1.0536   1.0611   1.0678   1.0737   1.0803   1.0823
  1.0876   1.0963   1.1001   1.1077   1.1162   1.1223   1.1301   1.1315
  1.1318   1.1463   1.1526   1.1536   1.1562   1.1575   1.1613   1.1663
  1.1718   1.1756   1.1769   1.1849   1.1869   1.1933   1.1950   1.2055
  1.2065   1.2084   1.2159   1.2187   1.2200   1.2296   1.2311   1.2354
  1.2402   1.2451   1.2512   1.2597   1.2604   1.2758   1.2785   1.2828
  1.2889   1.2947   1.3061   1.3087   1.3141   1.3274   1.3328   1.3399
  1.3435   1.3504   1.3583   1.3661   1.3709   1.3798   1.3857   1.3907
  1.3984   1.4029   1.4067   1.4170   1.4209   1.4248   1.4307   1.4392
  1.4442   1.4542   1.4612   1.4664   1.4730   1.4770   1.4802   1.4893
  1.5019   1.5053   1.5112   1.5144   1.5211   1.5309   1.5332   1.5400
  1.5472   1.5497   1.5504   1.5521   1.5567   1.5591   1.5651   1.5706
  1.5771   1.5802   1.5827   1.5891   1.5953   1.5984   1.6037   1.6183
  1.6203   1.6251   1.6314   1.6366   1.6435   1.6522   1.6541   1.6560
  1.6606   1.6766   1.6885   1.6897   1.6928   1.6980   1.7031   1.7097
  1.7106   1.7190   1.7266   1.7295   1.7325   1.7381   1.7410   1.7490
  1.7511   1.7565   1.7655   1.7733   1.7800   1.7892   1.7916   1.7951
  1.7985   1.8069   1.8108   1.8210   1.8272   1.8436   1.8465   1.8550
  1.8577   1.8624   1.8664   1.8702   1.8729   1.8849   1.8884   1.9014
  1.9052   1.9107   1.9135   1.9278   1.9396   1.9425   1.9476   1.9556
  1.9622   1.9664   1.9703   1.9760   1.9872   1.9903   2.0067   2.0101
  2.0180   2.0239   2.0296   2.0409   2.0467   2.0694   2.0757   2.0910
  2.0942   2.1009   2.1068   2.1500   2.1666   2.1786   2.1814   2.1884
  2.1958   2.2007   2.2032   2.2113   2.2120   2.2172   2.2175   2.2215
  2.2239   2.2264   2.2289   2.2333   2.2350   2.2419   2.2464   2.2528
  2.2541   2.2581   2.2605   2.2673   2.2710   2.2774   2.2779   2.2821
  2.2861   2.2887   2.2913   2.2954   2.3006   2.3033   2.3074   2.3131
  2.3222   2.3251   2.3391   2.3415   2.3522   2.3550   2.3728   2.4032
  2.6265   2.6825   2.6925   2.7058   2.7110   2.7199   2.7265   2.7300
  2.7339   2.7442   2.7491   2.7516   2.7577   2.7670   2.7743   2.7877
  2.7907   2.7928   2.7956   2.8030   2.8082   2.8147   2.8236   2.8327
  2.8365   2.8388   2.8479   2.8514   2.8912   2.9261   2.9324   2.9446
  2.9512   2.9898   3.0062   3.0131   3.0271   3.0423   3.0433   3.0528
  3.1040   3.1362   3.1541   3.1624
 
 Beta MOs
 -- Occupied --
-89.1138 -89.0266 -10.3686 -10.3649 -10.3645 -10.3360 -10.3339 -10.3313
-10.3274 -10.3259 -10.3252 -10.3247 -10.3233 -10.3228 -10.3205 -10.3172
-10.3170 -10.3139 -10.3116 -10.3104 -10.3098 -10.3008 -10.2964 -10.2961
-10.2953 -10.2940  -8.1416  -8.0561  -6.0180  -6.0175  -6.0074  -5.9338
 -5.9293  -5.9226  -0.9122  -0.8249  -0.8078  -0.8027  -0.7830  -0.7624
 -0.7519  -0.7402  -0.7375  -0.7243  -0.7215  -0.7024  -0.7010  -0.6825
 -0.6308  -0.6237  -0.6185  -0.6116  -0.6099  -0.5889  -0.5864  -0.5670
 -0.5376  -0.5289  -0.5116  -0.5090  -0.4992  -0.4958  -0.4821  -0.4645
 -0.4631  -0.4602  -0.4518  -0.4468  -0.4382  -0.4374  -0.4315  -0.4271
 -0.4250  -0.4142  -0.4065  -0.4029  -0.3941  -0.3931  -0.3877  -0.3810
 -0.3767  -0.3741  -0.3697  -0.3612  -0.3579  -0.3526  -0.3345  -0.3288
 -0.3226  -0.2984  -0.2921  -0.2853  -0.2792  -0.2719  -0.2684  -0.2544
 -0.2466
 -- Virtual --
 -0.1936  -0.1647  -0.1480  -0.1436  -0.1418  -0.1376  -0.1332  -0.1208
 -0.1180  -0.0972  -0.0676  -0.0578  -0.0531  -0.0449  -0.0441  -0.0376
 -0.0283  -0.0261  -0.0224  -0.0161  -0.0140  -0.0111  -0.0096  -0.0067
 -0.0036  -0.0011   0.0007   0.0035   0.0054   0.0059   0.0088   0.0101
  0.0127   0.0134   0.0224   0.0267   0.0314   0.0327   0.0407   0.0426
  0.0474   0.0542   0.0558   0.0607   0.0639   0.0736   0.0742   0.0771
  0.0782   0.0814   0.0829   0.0864   0.0885   0.0930   0.0947   0.0961
  0.0970   0.0982   0.1016   0.1029   0.1043   0.1085   0.1117   0.1138
  0.1153   0.1163   0.1188   0.1212   0.1213   0.1219   0.1248   0.1279
  0.1298   0.1327   0.1348   0.1374   0.1395   0.1410   0.1433   0.1462
  0.1514   0.1542   0.1559   0.1590   0.1617   0.1654   0.1707   0.1738
  0.1760   0.1769   0.1810   0.1817   0.1854   0.1891   0.1959   0.1992
  0.2014   0.2033   0.2064   0.2078   0.2123   0.2150   0.2175   0.2209
  0.2273   0.2303   0.2331   0.2355   0.2388   0.2418   0.2439   0.2484
  0.2500   0.2519   0.2538   0.2558   0.2588   0.2595   0.2647   0.2671
  0.2679   0.2708   0.2727   0.2754   0.2758   0.2773   0.2794   0.2822
  0.2871   0.2876   0.2931   0.2950   0.2958   0.2978   0.2995   0.3032
  0.3032   0.3067   0.3091   0.3096   0.3118   0.3146   0.3156   0.3188
  0.3229   0.3237   0.3255   0.3267   0.3316   0.3323   0.3333   0.3362
  0.3383   0.3427   0.3448   0.3475   0.3497   0.3515   0.3543   0.3578
  0.3592   0.3647   0.3667   0.3689   0.3717   0.3745   0.3768   0.3828
  0.3849   0.3874   0.3902   0.3917   0.3932   0.3958   0.3981   0.4019
  0.4031   0.4044   0.4068   0.4075   0.4115   0.4134   0.4160   0.4184
  0.4203   0.4230   0.4254   0.4301   0.4351   0.4355   0.4399   0.4415
  0.4435   0.4483   0.4522   0.4558   0.4569   0.4603   0.4628   0.4669
  0.4675   0.4713   0.4779   0.4856   0.4889   0.4931   0.4952   0.4962
  0.5000   0.5034   0.5040   0.5109   0.5137   0.5162   0.5200   0.5207
  0.5268   0.5289   0.5347   0.5367   0.5386   0.5413   0.5432   0.5474
  0.5495   0.5522   0.5549   0.5552   0.5581   0.5599   0.5633   0.5693
  0.5728   0.5791   0.5805   0.5821   0.5888   0.5925   0.5986   0.6004
  0.6023   0.6081   0.6145   0.6163   0.6260   0.6295   0.6361   0.6397
  0.6430   0.6467   0.6488   0.6544   0.6587   0.6651   0.6661   0.6765
  0.6806   0.6872   0.6892   0.6920   0.6957   0.6992   0.7034   0.7049
  0.7096   0.7122   0.7136   0.7177   0.7192   0.7259   0.7308   0.7329
  0.7366   0.7445   0.7448   0.7490   0.7503   0.7587   0.7629   0.7736
  0.7768   0.7789   0.7933   0.7998   0.8045   0.8082   0.8145   0.8218
  0.8263   0.8323   0.8373   0.8411   0.8476   0.8537   0.8554   0.8604
  0.8681   0.8698   0.8740   0.8778   0.8830   0.8919   0.8996   0.9021
  0.9067   0.9110   0.9143   0.9187   0.9210   0.9238   0.9318   0.9391
  0.9420   0.9462   0.9488   0.9527   0.9613   0.9688   0.9811   0.9843
  0.9896   0.9931   1.0004   1.0052   1.0095   1.0154   1.0200   1.0254
  1.0309   1.0419   1.0483   1.0567   1.0627   1.0694   1.0757   1.0824
  1.0841   1.0900   1.1008   1.1018   1.1110   1.1188   1.1241   1.1333
  1.1348   1.1382   1.1476   1.1529   1.1555   1.1571   1.1587   1.1649
  1.1674   1.1731   1.1770   1.1782   1.1864   1.1891   1.1946   1.1962
  1.2071   1.2082   1.2104   1.2172   1.2202   1.2220   1.2316   1.2329
  1.2380   1.2416   1.2471   1.2537   1.2615   1.2620   1.2778   1.2801
  1.2850   1.2910   1.2966   1.3089   1.3117   1.3156   1.3304   1.3356
  1.3428   1.3453   1.3531   1.3601   1.3682   1.3735   1.3818   1.3883
  1.3948   1.4007   1.4042   1.4101   1.4197   1.4250   1.4286   1.4344
  1.4416   1.4476   1.4573   1.4639   1.4682   1.4753   1.4787   1.4826
  1.4915   1.5044   1.5075   1.5125   1.5160   1.5220   1.5319   1.5348
  1.5410   1.5490   1.5505   1.5526   1.5535   1.5584   1.5608   1.5668
  1.5713   1.5780   1.5814   1.5835   1.5905   1.5962   1.6016   1.6053
  1.6206   1.6222   1.6270   1.6344   1.6382   1.6453   1.6539   1.6554
  1.6578   1.6635   1.6797   1.6912   1.6942   1.6945   1.6999   1.7055
  1.7110   1.7197   1.7218   1.7288   1.7316   1.7346   1.7395   1.7416
  1.7499   1.7526   1.7600   1.7724   1.7776   1.7819   1.7913   1.7958
  1.7968   1.8008   1.8100   1.8125   1.8257   1.8299   1.8441   1.8484
  1.8559   1.8594   1.8648   1.8680   1.8712   1.8747   1.8878   1.8936
  1.9063   1.9092   1.9117   1.9163   1.9277   1.9431   1.9465   1.9495
  1.9561   1.9634   1.9675   1.9718   1.9797   1.9891   1.9977   2.0098
  2.0166   2.0198   2.0257   2.0311   2.0422   2.0486   2.0722   2.0796
  2.0954   2.0986   2.1062   2.1083   2.1567   2.1699   2.1820   2.1845
  2.1904   2.2002   2.2012   2.2059   2.2124   2.2133   2.2197   2.2218
  2.2230   2.2248   2.2277   2.2307   2.2361   2.2371   2.2444   2.2496
  2.2545   2.2551   2.2604   2.2658   2.2711   2.2725   2.2795   2.2814
  2.2832   2.2880   2.2902   2.2919   2.2966   2.3031   2.3046   2.3085
  2.3156   2.3249   2.3284   2.3410   2.3428   2.3542   2.3621   2.3794
  2.4154   2.6396   2.6832   2.6931   2.7066   2.7118   2.7220   2.7273
  2.7314   2.7366   2.7453   2.7497   2.7524   2.7637   2.7709   2.7800
  2.7880   2.7935   2.7960   2.7969   2.8050   2.8100   2.8155   2.8242
  2.8331   2.8368   2.8396   2.8484   2.8546   2.8915   2.9276   2.9326
  2.9453   2.9516   2.9934   3.0120   3.0152   3.0302   3.0430   3.0468
  3.0546   3.1061   3.1364   3.1546   3.1627
 --------------------------------------------------------------
 
          Ground-State Mulliken Net Atomic Charges

     Atom                 Charge (a.u.)    Spin (a.u.)
  --------------------------------------------------------
      1 S                    -0.574870       0.020962
      2 C                    -0.457267       0.032200
      3 C                     0.426021      -0.026726
      4 H                     0.105291       0.003070
      5 C                    -0.050257       0.010303
      6 H                     0.059656      -0.000282
      7 C                    -0.004640      -0.010608
      8 H                     0.042207       0.000575
      9 C                     0.028711       0.009597
     10 H                     0.013600      -0.000166
     11 C                     0.403372      -0.009218
     12 H                     0.028845       0.000717
     13 C                    -0.519403       0.039018
     14 C                     0.388735      -0.002018
     15 H                     0.140505       0.000856
     16 C                    -0.032036       0.005531
     17 H                    -0.012774       0.000203
     18 C                     0.104734      -0.005822
     19 H                     0.143926       0.000198
     20 C                    -0.023026       0.005413
     21 H                     0.094869       0.000280
     22 C                     0.363393      -0.003702
     23 H                     0.039370       0.001194
     24 S                    -1.069680      -0.019241
     25 C                    -0.125433       0.669078
     26 C                     0.247062      -0.524737
     27 H                     0.042026       0.016864
     28 C                     0.110120       0.752666
     29 H                     0.003260      -0.047556
     30 C                     0.063121      -0.540617
     31 H                     0.053709       0.019618
     32 C                     0.157960       0.716051
     33 H                    -0.135811      -0.023706
     34 C                     0.069219      -0.167890
     35 H                     0.112515       0.033580
     36 C                    -0.420802       0.016895
     37 C                     0.589424       0.017532
     38 H                     0.211555       0.001780
     39 C                    -0.171626      -0.014390
     40 H                     0.052684       0.001069
     41 C                    -0.026859       0.017634
     42 H                     0.077344      -0.001314
     43 C                     0.010872      -0.011773
     44 H                     0.034279       0.000491
     45 C                     0.322015       0.015464
     46 H                     0.084083       0.000926
  --------------------------------------------------------
  Sum of atomic charges =     1.000000
  Sum of spin   charges =     1.000000

  Building new vdw surfaces
         Merz-Kollman RESP Net Atomic Charges

     Atom                 Charge (a.u.)
  ----------------------------------------
      1 S                    -0.386047
      2 C                     0.499796
      3 C                    -0.371291
      4 H                     0.221132
      5 C                    -0.090890
      6 H                     0.192518
      7 C                    -0.185762
      8 H                     0.207145
      9 C                    -0.114333
     10 H                     0.201161
     11 C                    -0.380226
     12 H                     0.245282
     13 C                     0.199656
     14 C                    -0.188969
     15 H                     0.221132
     16 C                    -0.165816
     17 H                     0.215802
     18 C                    -0.117923
     19 H                     0.183712
     20 C                    -0.114333
     21 H                     0.201161
     22 C                    -0.235489
     23 H                     0.227608
     24 S                    -0.149572
     25 C                     0.048739
     26 C                    -0.289506
     27 H                     0.218364
     28 C                    -0.021860
     29 H                     0.174233
     30 C                    -0.205334
     31 H                     0.207625
     32 C                    -0.326305
     33 H                     0.220780
     34 C                     0.377987
     35 H                     0.157760
     36 C                     0.171366
     37 C                    -0.248337
     38 H                     0.173829
     39 C                    -0.166008
     40 H                     0.184338
     41 C                    -0.156655
     42 H                     0.185067
     43 C                    -0.156714
     44 H                     0.175794
     45 C                    -0.238359
     46 H                     0.197741
  ----------------------------------------
  Sum of atomic charges =     1.000000

  Related Dipole Moment =     5.7939 (X  5.7830 Y -0.3533 Z  0.0323)

 -----------------------------------------------------------------
                    Cartesian Multipole Moments
 -----------------------------------------------------------------
    Charge (ESU x 10^10)
                 4.8032
    Dipole Moment (Debye)
         X       5.7837      Y      -0.3337      Z       0.0444
       Tot       5.7935
    Quadrupole Moments (Debye-Ang)
        XX    -110.7472     XY      16.5695     YY    -120.2111
        XZ      -2.1815     YZ      -0.5659     ZZ    -138.6104
    Octopole Moments (Debye-Ang^2)
       XXX     113.5843    XXY      93.9691    XYY      23.2546
       YYY    -145.7631    XXZ      69.2471    XYZ      13.9593
       YYZ      -4.7896    XZZ     -48.6168    YZZ     -85.2981
       ZZZ     256.7294
    Hexadecapole Moments (Debye-Ang^3)
      XXXX   -5382.2861   XXXY      -2.2768   XXYY   -1294.0682
      XYYY     318.9518   YYYY   -4125.5004   XXXZ       9.0567
      XXYZ     105.1958   XYYZ     -97.1399   YYYZ     163.4206
      XXZZ   -1726.9903   XYZZ     -20.5146   YYZZ   -1342.0680
      XZZZ    -180.7535   YZZZ      22.9115   ZZZZ   -3567.5895
 -----------------------------------------------------------------
 Calculating analytic gradient of the SCF energy
 Gradient of SCF Energy
            1           2           3           4           5           6
    1  -0.0404738   0.0276703  -0.0016387  -0.0099875  -0.0432976  -0.0427213
    2  -0.0415596   0.0429705  -0.0159697  -0.0345192  -0.0599574  -0.0532404
    3  -0.0825706  -0.0911299  -0.0332813  -0.0579113  -0.0111444   0.0013984
            7           8           9          10          11          12
    1  -0.0341628  -0.0314729   0.0211569   0.0076335   0.0403396   0.0493344
    2  -0.0293206  -0.0278696   0.0307805   0.0246929   0.0322255   0.0530904
    3   0.0792910   0.0546787   0.0538757   0.0682537  -0.0154044   0.0037952
           13          14          15          16          17          18
    1  -0.0537468   0.0116800   0.0161927   0.0785267   0.0656886   0.0303314
    2  -0.0585891  -0.0573544  -0.0659177  -0.0143867  -0.0155596   0.0409367
    3  -0.0023427   0.0132351   0.0169585   0.0373197   0.0261516   0.0021718
           19          20          21          22          23          24
    1   0.0569778  -0.0164723  -0.0257453  -0.0577721  -0.0627329   0.0059721
    2   0.0553296   0.0693666   0.0701383   0.0211642   0.0021658   0.0320651
    3   0.0039700  -0.0179185  -0.0275907  -0.0291583  -0.0247834  -0.0464952
           25          26          27          28          29          30
    1   0.0411444  -0.0545763  -0.0703522  -0.0514732  -0.0331267  -0.0059522
    2   0.0730938   0.0005625   0.0034122  -0.0520526  -0.0606763  -0.0673380
    3   0.0301766  -0.0184569  -0.0216932  -0.0058150  -0.0131651   0.0034854
           31          32          33          34          35          36
    1   0.0435885   0.0167349   0.0823147   0.0492935   0.0266885   0.0581117
    2  -0.0683091   0.0697866  -0.0119677   0.0551489   0.0399706  -0.0278809
    3   0.0018404   0.0264938   0.0154135   0.0837340  -0.0697644  -0.0462511
           37          38          39          40          41          42
    1   0.0532668   0.0466117   0.0023193   0.0038359  -0.0606278  -0.0460286
    2  -0.0319906  -0.0288546  -0.0215378  -0.0146618   0.0291350   0.0197995
    3   0.0077985   0.0219579   0.0672011   0.0692745   0.0451457   0.0488135
           43          44          45          46
    1  -0.0468400  -0.0537986   0.0147813  -0.0071958
    2   0.0264543   0.0401490   0.0072415   0.0198336
    3  -0.0260356  -0.0157812  -0.0611848  -0.0645563
 Max gradient component =       9.113E-02
 RMS gradient           =       4.274E-02
 Computing fast CPCM-SWIG gradient
 Updating gradient with PCM contributions...
 -- total gradient after adding PCM contribution --
---------------------------------------------------
  Atom         X              Y              Z     
---------------------------------------------------
   1      -0.027219      -0.047907      -0.054768
   2       0.045183       0.040655      -0.100504
   3      -0.007107      -0.021991      -0.046431
   4      -0.013140      -0.019912      -0.034939
   5      -0.050974      -0.069854      -0.014803
   6      -0.027883      -0.032828       0.002165
   7      -0.036590      -0.034534       0.086779
   8      -0.021380      -0.018457       0.034870
   9       0.021923       0.034525       0.062709
  10       0.003830       0.014763       0.043277
  11       0.043130       0.050914      -0.002507
  12       0.027044       0.036862       0.007076
  13      -0.050914      -0.054037      -0.010256
  14       0.011106      -0.070397       0.022263
  15       0.014999      -0.039315       0.014214
[...]
     27 H                     0.452390      -0.004092
     28 C                    -0.376607      -0.062037
     29 H                     0.159361       0.002821
     30 C                     0.044009       0.125285
     31 H                     0.474697      -0.011457
     32 C                    -0.338536      -0.066618
     33 H                     0.015472       0.007292
     34 C                     0.766806       0.077984
     35 H                     0.341225       0.000461
     36 C                    -1.505511      -0.064531
     37 C                     1.343400       0.097533
     38 H                     0.090274      -0.012216
     39 C                    -0.420059      -0.071518
     40 H                     0.156913       0.004795
     41 C                    -0.059723       0.143764
     42 H                     0.500593      -0.011890
     43 C                    -0.239890      -0.074468
     44 H                     0.313809       0.005500
     45 C                     0.600256       0.101365
     46 H                     0.197364      -0.001002
  --------------------------------------------------------
  Sum of atomic charges =     1.000000
  Sum of spin   charges =     1.000000

  Building new vdw surfaces
         Merz-Kollman RESP Net Atomic Charges

     Atom                 Charge (a.u.)
  ----------------------------------------
      1 S                    -0.109337
      2 C                     0.150051
      3 C                    -0.161115
      4 H                     0.173491
      5 C                    -0.142295
      6 H                     0.158110
      7 C                    -0.049258
      8 H                     0.139653
      9 C                    -0.172677
     10 H                     0.156249
     11 C                    -0.101430
     12 H                     0.127001
     13 C                     0.240954
     14 C                    -0.217675
     15 H                     0.173491
     16 C                    -0.139831
     17 H                     0.155228
     18 C                    -0.037737
     19 H                     0.132260
     20 C                    -0.172677
     21 H                     0.156249
     22 C                    -0.136491
     23 H                     0.176242
     24 S                    -0.107209
     25 C                     0.220117
     26 C                    -0.169769
     27 H                     0.153816
     28 C                    -0.161584
     29 H                     0.159200
     30 C                    -0.037287
     31 H                     0.133874
     32 C                    -0.171872
     33 H                     0.156126
     34 C                    -0.134719
     35 H                     0.176754
     36 C                     0.145812
     37 C                    -0.045182
     38 H                     0.108441
     39 C                    -0.205454
     40 H                     0.162439
     41 C                    -0.039528
     42 H                     0.137945
     43 C                    -0.137970
     44 H                     0.156429
     45 C                    -0.180838
     46 H                     0.182004
  ----------------------------------------
  Sum of atomic charges =     1.000000

  Related Dipole Moment =     1.2348 (X -0.1574 Y  1.2247 Z -0.0089)

 -----------------------------------------------------------------
                    Cartesian Multipole Moments
 -----------------------------------------------------------------
    Charge (ESU x 10^10)
                 4.8032
    Dipole Moment (Debye)
         X      -0.1787      Y       1.2208      Z       0.0328
       Tot       1.2343
    Quadrupole Moments (Debye-Ang)
        XX    -148.7141     XY      -6.4492     YY     -99.8471
        XZ      -1.7506     YZ      -2.7767     ZZ    -147.5068
    Octopole Moments (Debye-Ang^2)
       XXX     -93.9349    XXY     -71.5087    XYY     -36.5197
       YYY     -80.1083    XXZ      50.9448    XYZ      14.0802
       YYZ      53.6110    XZZ     -20.7626    YZZ      -5.6643
       ZZZ     163.7132
    Hexadecapole Moments (Debye-Ang^3)
      XXXX   -2934.0427   XXXY      -2.5400   XXYY   -1486.1132
      XYYY    -124.5959   YYYY   -5554.8849   XXXZ    -529.7690
      XXYZ       2.7761   XYYZ    -144.6753   YYYZ     -78.0419
      XXZZ    -864.8197   XYZZ       0.0971   YYZZ   -1324.7383
      XZZZ    -470.4193   YZZZ     -25.1208   ZZZZ   -2045.4724
 -----------------------------------------------------------------
 Calculating analytic gradient of the SCF energy
 Gradient of SCF Energy
            1           2           3           4           5           6
    1   0.0077640  -0.0112574  -0.0069503   0.0254822   0.0216251   0.0307108
    2  -0.0043975  -0.0396346   0.0184148   0.0209871  -0.0018930  -0.0298049
    3  -0.0597287   0.0254188   0.0039794  -0.0207650  -0.0223385  -0.0056817
            7           8           9          10          11          12
    1  -0.0161488  -0.0143029   0.0119016  -0.0359672  -0.0365604   0.0223461
    2  -0.0378657  -0.0428324   0.0117010   0.0082119   0.0494288   0.0183854
    3   0.0185825   0.0306667  -0.0167778   0.0254078  -0.0310456   0.0161495
           13          14          15          16          17          18
    1  -0.0365871  -0.0024071   0.0312087   0.0071623   0.0000882  -0.0169426
    2   0.0268145  -0.0277645  -0.0384051  -0.0159669  -0.0031737   0.0287845
    3   0.0208902   0.0088139  -0.0085402  -0.0030471   0.0398723   0.0193077
           19          20          21          22          23          24
    1  -0.0081600  -0.0089602   0.0030969   0.0099666   0.0306487   0.0508034
    2   0.0442560  -0.0060758   0.0332297  -0.0102513  -0.0113147   0.0072135
    3   0.0211364  -0.0197360  -0.0255322   0.0113096  -0.0238501  -0.0314049
           25          26          27          28          29          30
    1  -0.0033010  -0.0076234  -0.0057670  -0.0006470  -0.0372853  -0.0097213
    2  -0.0284987   0.0270608   0.0395075   0.0164557   0.0009398  -0.0296376
    3   0.0404325   0.0068318  -0.0297315  -0.0065285   0.0150071   0.0222304
           31          32          33          34          35          36
    1  -0.0137770   0.0215154   0.0228817  -0.0146033   0.0084850  -0.0189775
    2  -0.0449697   0.0065326  -0.0320511   0.0097899   0.0132893   0.0377276
    3   0.0154898   0.0002745  -0.0151421  -0.0036322  -0.0374162   0.0225677
           37          38          39          40          41          42
    1   0.0445195  -0.0243209   0.0109037  -0.0088955  -0.0103460  -0.0211442
    2  -0.0488350  -0.0181455  -0.0110355  -0.0102646   0.0365632   0.0415108
    3   0.0177624  -0.0142783  -0.0182269   0.0426234   0.0241320   0.0283320
           43          44          45          46
    1   0.0109220  -0.0095868  -0.0003516   0.0085601
    2   0.0033471   0.0307390  -0.0186215  -0.0194513
    3  -0.0288827  -0.0289830   0.0067628  -0.0327120
 Max gradient component =       5.973E-02
 RMS gradient           =       2.409E-02
 Computing fast CPCM-SWIG gradient
 Updating gradient with PCM contributions...
 -- total gradient after adding PCM contribution --
---------------------------------------------------
  Atom         X              Y              Z     
---------------------------------------------------
   1       0.000018      -0.000060      -0.000018
   2       0.000037       0.000047      -0.000000
   3      -0.000009      -0.000005      -0.000005
   4      -0.000014      -0.000005      -0.000023
   5      -0.000025      -0.000004       0.000005
   6       0.000017       0.000002       0.000008
   7       0.000025       0.000013       0.000026
   8      -0.000018      -0.000012      -0.000025
   9       0.000015      -0.000017       0.000014
  10       0.000003       0.000005       0.000009
  11      -0.000002       0.000013      -0.000011
  12      -0.000016      -0.000003      -0.000004
  13      -0.000019       0.000011       0.000031
  14      -0.000029      -0.000021      -0.000033
  15       0.000015      -0.000005       0.000005
  16       0.000016       0.000021       0.000004
  17       0.000003       0.000002       0.000002
  18       0.000007      -0.000012      -0.000008
  19       0.000009       0.000003       0.000008
  20      -0.000022      -0.000008       0.000005
  21      -0.000003      -0.000002      -0.000018
  22       0.000008       0.000019      -0.000020
  23       0.000008      -0.000004      -0.000007
  24      -0.000000      -0.000004      -0.000030
  25       0.000037       0.000015       0.000038
  26      -0.000020      -0.000012       0.000006
  27      -0.000007      -0.000001       0.000006
  28      -0.000011       0.000049       0.000006
  29      -0.000007      -0.000013       0.000007
  30       0.000041      -0.000009       0.000022
  31      -0.000017      -0.000006      -0.000003
  32      -0.000075      -0.000018      -0.000090
  33       0.000027       0.000015       0.000027
  34       0.000046      -0.000029       0.000065
  35      -0.000022       0.000021      -0.000010
  36      -0.000036       0.000007      -0.000005
  37      -0.000033      -0.000017       0.000006
  38       0.000031       0.000010      -0.000004
  39       0.000022       0.000011       0.000012
  40      -0.000026      -0.000007      -0.000002
  41       0.000011       0.000012      -0.000017
  42       0.000030       0.000014       0.000011
  43      -0.000024      -0.000011       0.000009
  44      -0.000005       0.000006      -0.000002
  45       0.000006      -0.000015       0.000007
  46       0.000007       0.000008      -0.000006
---------------------------------------------------
 Number of fixed atoms: 0
 Gradient time:  CPU 712.28 s  wall 59.65 s

     Step 100	:
        Energy is -1721.6982505295
                            Maximum         Tolerance       Converged?
         Gradient           7.16701265e-05	3.00000000e-04	true
         Displacement       2.11016027e-03	1.20000000e-03	false
         Energy change      4.16701823e-07	1.00000000e-06	true

	 Optimization Converged in 100 cycles

 *****************************************************
             End of BFGS Algorithm
 *****************************************************
		----------------------------------
		   Verification of Optimization
		----------------------------------

 Eigenvalues of Hessian in Optimization Verification
   0.00524571   0.00686745   0.01124017   0.01543725   0.02131455
   0.02305600   0.02481519   0.02792603   0.03084077   0.03254350
   0.03632496   0.04267207   0.04770750   0.06595522   0.06995722
   0.08145041   0.08585747   0.09376120   0.09506598   0.09798347
   0.09923649   0.09929816   0.09965562   0.09987440   0.09993545
   0.09998534   0.09999510   0.09999770   0.09999878   0.09999996
   0.09999999   0.10000000   0.10000000   0.10000000   0.10000000
   0.10000000   0.10000000   0.10000000   0.10000000   0.10000000
   0.10000000   0.10000000   0.10000000   0.10000000   0.10000000
   0.10000000   0.10000000   0.10000000   0.10000000   0.10000000
   0.10000000   0.10000000   0.10000000   0.10000000   0.10000000
   0.10000000   0.10000000   0.10000000   0.10000000   0.10000000
   0.10000000   0.10000000   0.10000000   0.10000000   0.10000000
   0.10000000   0.10000000   0.10000000   0.10000000   0.10000000
   0.10000000   0.10000001   0.10000001   0.10000001   0.10000002
   0.10000003   0.10000003   0.10000006   0.10000008   0.10000012
   0.10000013   0.10000017   0.10000022   0.10000029   0.10000040
   0.10000052   0.10000065   0.10000144   0.10000251   0.10000288
   0.10000313   0.10000575   0.10000881   0.10001194   0.10001728
   0.10001834   0.10002739   0.10003925   0.10005155   0.10005347
   0.10006721   0.10008898   0.10014221   0.10017153   0.10023633
   0.10027632   0.10034986   0.10050528   0.10062361   0.10068673
   0.10088631   0.10102375   0.10127837   0.10350792   0.10461022
   0.11140039   0.12832695   0.13315467   0.16179003   0.17336852
   0.18154991   0.18797181   0.19412160   0.19534103   0.19619325
   0.19776014   0.19821935   0.19851947   0.19877854   0.19932487
   0.19936422   0.19966326   0.19975965   0.19985741   0.19992410
   0.19994225   0.19997304   0.19998708   0.19999445   0.19999839
   0.19999894   0.19999927   0.19999965   0.19999982   0.19999989
   0.19999995   0.19999997   0.19999999   0.20000000   0.20000000
   0.20000000   0.20000000   0.20000000   0.20000000   0.20000000
   0.20000000   0.20000001   0.20000001   0.20000003   0.20000004
   0.20000011   0.20000071   0.20000108   0.20000385   0.20000749
   0.20000953   0.20001919   0.20002587   0.20006214   0.20008674
   0.20010950   0.20014207   0.20017050   0.20020632   0.20023345
   0.20034155   0.20044521   0.20056340   0.20059208   0.20073573
   0.20090842   0.20106997   0.20158420   0.20233645   0.20332346
   0.20411930   0.20552219   0.20835634   0.21326486   0.21425998
   0.22160572   0.22946524   0.24135017   0.25502205   0.28200505
   0.36602234   0.43353170   0.46116194   0.47530252   0.48334464
   0.48808324   0.49183397   0.49437653   0.49709425   0.49754250
   0.49887350   0.49909913   0.49946999   0.49976814   0.49979581
   0.49988274   0.49995881   0.49998903   0.49999866   0.50000371
   0.50000678   0.50000825   0.50001907   0.50002935   0.50004421
   0.50007700   0.50014262   0.50025153   0.50028203   0.50032153
   0.50049915   0.50063634   0.50082037   0.50100597   0.50152768
   0.50160220   0.50206500   0.50247371   0.50360395   0.50369720
   0.50522360   0.50718935   0.50994628   0.51714484   0.52453538
   0.53746630   0.56259186   0.59455198   0.67191968   1.07802096
   1.74386631

 Found a minimum
		---------------------------------
		       End of Verification
		---------------------------------

 Final energy is -1721.698250529519

	******************************
	**  OPTIMIZATION CONVERGED  **
	******************************
 ----------------------------------------------------------------
             Standard Nuclear Orientation (Angstroms)
    I     Atom           X                Y                Z
 ----------------------------------------------------------------
    1      S       2.3896943192     0.2316160483    -0.6613594410
    2      C       1.8888168059    -1.1658473213     0.2688840878
    3      C       2.6219083662    -2.3417609296     0.0399943791
    4      H       3.4921791155    -2.3177324675    -0.6102863465
    5      C       2.2318091465    -3.5242067167     0.6521942055
    6      H       2.8019370273    -4.4321728763     0.4792443351
    7      C       1.1164119631    -3.5470214559     1.4906132313
    8      H       0.8164336859    -4.4764966860     1.9656830577
    9      C       0.3861946374    -2.3790701236     1.7139746096
   10      H      -0.4891256194    -2.3958156142     2.3567403495
   11      C       0.7621019243    -1.1908085935     1.1047025275
   12      H       0.1898401749    -0.2872391778     1.2759789889
   13      C       1.9349243816     1.6655062621     0.2406312322
   14      C       1.8505896304     1.7153163628     1.6393801875
   15      H       2.0491707998     0.8297770629     2.2341491014
   16      C       1.5409458997     2.9186050089     2.2584920531
   17      H       1.4791389801     2.9596381885     3.3415755421
   18      C       1.3380801353     4.0728568662     1.5001754102
   19      H       1.1027007127     5.0121034106     1.9922278337
   20      C       1.4564718215     4.0266613587     0.1109838324
   21      H       1.3095693404     4.9261099894    -0.4793829996
   22      C       1.7520362542     2.8291020163    -0.5228014282
   23      H       1.8359610171     2.7850148340    -1.6050625255
   24      S      -0.4457119329     0.3659922079    -2.4782841388
   25      C      -1.0374294921    -1.1172397736    -1.7518390299
   26      C      -2.2777481823    -1.2300904794    -1.1075491880
   27      H      -2.9288480894    -0.3672095253    -1.0126502899
   28      C      -2.6802529196    -2.4661781211    -0.6207066991
   29      H      -3.6439219537    -2.5568135624    -0.1281765822
   30      C      -1.8699342489    -3.5906188893    -0.7883519460
   31      H      -2.1930959311    -4.5556809618    -0.4091507863
   32      C      -0.6539052930    -3.4816160909    -1.4627049600
   33      H      -0.0279666341    -4.3575922062    -1.6044712254
   34      C      -0.2324544134    -2.2508713158    -1.9435202120
   35      H       0.7191398991    -2.1579474724    -2.4600634492
   36      C      -1.1229225019     1.7070890483    -1.5766242644
   37      C      -1.4150278772     1.6632063164    -0.2048762461
   38      H      -1.3127661028     0.7358963788     0.3452771566
   39      C      -1.8371670500     2.8147625342     0.4433780340
   40      H      -2.0541245329     2.7795091859     1.5064428501
   41      C      -1.9632413015     4.0133844691    -0.2601034554
   42      H      -2.2860964918     4.9143268925     0.2535784528
   43      C      -1.6705177930     4.0575415045    -1.6238387436
   44      H      -1.7740882656     4.9885358966    -2.1731625354
   45      C      -1.2506924111     2.9126168057    -2.2859181514
   46      H      -1.0254070005     2.9404407120    -3.3481078141
 ----------------------------------------------------------------
 Nuclear Repulsion Energy =        2611.73972770 hartrees
 There are       98 alpha and       97 beta electrons

Z-matrix Print:
$molecule
1 2
S 
C  1 1.751895
C  2 1.403104 1 124.061769
H  3 1.083170 2 120.238731 1 -5.456012 0
C  3 1.387258 2 119.633856 1 174.704617 0
H  5 1.086100 3 119.439785 2 -179.722859 0
C  5 1.395428 3 120.319756 2 -0.495765 0
H  7 1.086095 5 120.115171 3 -179.716176 0
C  7 1.395556 5 120.047823 3 0.068212 0
H  9 1.085983 7 120.106261 5 179.879516 0
C  9 1.387496 7 120.246604 5 0.158571 0
H  11 1.086652 9 120.534297 7 179.732793 0
C  1 1.753979 2 107.753345 3 31.768346 0
C  13 1.402174 1 123.892253 2 29.423002 0
H  14 1.085064 13 120.451175 1 -1.444053 0
C  14 1.388194 13 119.281571 1 177.040905 0
H  16 1.085621 14 119.367049 13 -179.760517 0
C  16 1.395885 14 120.456912 13 -1.099809 0
H  18 1.086141 16 120.029743 14 -179.588663 0
C  18 1.394992 16 120.084414 14 -0.528215 0
H  20 1.085873 18 120.165997 16 -179.333918 0
C  20 1.386791 18 120.119138 16 1.173557 0
H  22 1.086405 20 120.449575 18 179.404159 0
H  4 2.042263 3 137.270726 2 84.175455 0
C  24 1.083065 4 136.877377 3 -108.559881 0
C  25 1.387270 24 120.137801 4 -95.857179 0
H  26 1.085551 25 119.437092 24 0.585816 0
C  26 1.395520 25 120.324689 24 179.647481 0
H  28 1.086187 26 120.058057 25 -179.485239 0
C  28 1.395497 26 120.056534 25 0.304708 0
H  30 1.085925 28 120.097057 26 179.634844 0
C  30 1.387608 28 120.240700 26 -0.130491 0
H  32 1.086174 30 120.545215 28 179.750979 0
C  25 1.403191 24 120.244966 4 84.204149 0
S  34 1.752183 25 124.026938 24 -5.815006 0
C  35 1.754374 34 107.677323 25 31.764061 0
C  36 1.402225 35 123.823567 34 29.962852 0
H  37 1.085127 36 120.459394 35 -1.436615 0
C  37 1.388142 36 119.293868 35 176.964335 0
H  39 1.086029 37 119.383916 36 -179.536389 0
C  39 1.396098 37 120.449689 36 -1.008862 0
H  41 1.086081 39 120.069072 37 -179.707116 0
C  41 1.394762 39 120.076280 37 -0.776692 0
H  43 1.085924 41 120.173723 39 -179.261506 0
C  43 1.386916 41 120.125991 39 1.388774 0
H  45 1.086731 43 120.447670 41 179.324117 0
$end

 -----------------------------------------------------------------------
                  END OF GEOMETRY OPTIMIZER USING LIBOPT3               
 -----------------------------------------------------------------------
 Total job time:  48994.27s(wall), 974947.82s(cpu) 
 Sun Jul 17 03:35:57 2022

        *************************************************************
        *                                                           *
        *  Thank you very much for using Q-Chem.  Have a nice day.  *
        *                                                           *
        *************************************************************


