Process 0 of 8 is on nid01365 - thread support 0
Process 1 of 8 is on nid01365 - thread support 0
Process 2 of 8 is on nid01365 - thread support 0
Process 3 of 8 is on nid01365 - thread support 0
Process 4 of 8 is on nid01365 - thread support 0
Process 5 of 8 is on nid01365 - thread support 0
Process 6 of 8 is on nid01365 - thread support 0
Process 7 of 8 is on nid01365 - thread support 0
initial socket setup ...start
initial socket setup ...done 
now start server 0 ... 
nid01365 10.128.5
Q-Chem Developer Version! Running on 10.128.5.*
                  Welcome to Q-Chem
     A Quantum Leap Into The Future Of Chemistry


 Q-Chem 5.0 (beta), Q-Chem, Inc., Pleasanton, CA (2017)

 Yihan Shao,  Zhengting Gan,  E. Epifanovsky,  A. T. B. Gilbert,  M. Wormit,  
 J. Kussmann,  A. W. Lange,  A. Behn,  Jia Deng,  Xintian Feng,  D. Ghosh,  
 M. Goldey,  P. R. Horn,  L. D. Jacobson,  I. Kaliman,  R. Z. Khaliullin,  
 T. Kus,  A. Landau,  Jie Liu,  E. I. Proynov,  Y. M. Rhee,  R. M. Richard,  
 M. A. Rohrdanz,  R. P. Steele,  E. J. Sundstrom,  H. L. Woodcock III,  
 P. M. Zimmerman,  D. Zuev,  B. Albrecht,  E. Alguire,  B. Austin,  
 S. A. Baeppler,  Z. Benda,  G. J. O. Beran,  Y. A. Bernard,  E. J. Berquist,  
 K. Brandhorst,  K. B. Bravaya,  S. T. Brown,  D. Casanova,  Chun-Min Chang,  
 Yunqing Chen,  Siu Hung Chien,  K. D. Closser,  M. P. Coons,  
 D. L. Crittenden,  S. Dasgupta,  M. Diedenhofen,  R. A. DiStasio Jr.,  
 Hainam Do,  A. D. Dutoi,  R. G. Edgar,  Po-Tung Fang,  S. Fatehi,  
 Qingguo Feng,  L. Fusti-Molnar,  Qinghui Ge,  A. Ghysels,  
 A. Golubeva-Zadorozhnaya,  J. Gomes,  J. Gonthier,  A. Gunina,  
 M. W. D. Hanson-Heine,  P. H. P. Harbach,  A. W. Hauser,  J. E. Herr,  
 E. G. Hohenstein,  Z. C. Holden,  Kerwin Hui,  T.-C. Jagau,  Hyunjun Ji,  
 B. Kaduk,  K. Khistyaev,  Jaehoon Kim,  Jihan Kim,  R. A. King,  
 P. Klunzinger,  K. Koh,  D. Kosenkov,  T. Kowalczyk,  C. M. Krauter,  
 A. Kunitsa,  Ka Un Lao,  A. Laurent,  K. V. Lawler,  Joonho Lee,  
 D. Lefrancois,  S. Lehtola,  S. V. Levchenko,  D. S. Levine,  Yi-Pei Li,  
 Ching Yeh Lin,  You-Sheng Lin,  Fenglai Liu,  E. Livshits,  R. C. Lochan,  
 A. Luenser,  P. Manohar,  E. Mansoor,  S. F. Manzer,  Shan-Ping Mao,  
 Yuezhi Mao,  N. Mardirossian,  A. V. Marenich,  L. A. Martinez-Martinez,  
 S. A. Maurer,  N. J. Mayhall,  J.-M. Mewes,  A. F. Morrison,  K. Nanda,  
 T. S. Nguyen-Beck,  C. M. Oana,  R. Olivares-Amaya,  D. P. O'Neill,  
 J. A. Parkhill,  T. M. Perrine,  R. Peverati,  P. A. Pieniazek,  F. Plasser,  
 S. Prager,  A. Prociuk,  D. R. Rehn,  F. Rob,  E. Rosta,  N. J. Russ,  
 N. Sergueev,  S. M. Sharada,  S. Sharma,  D. W. Small,  A. Sodt,  T. Stauch,  
 T. Stein,  D. Stuck,  Yu-Chuan Su,  A. J. W. Thom,  T. Tsuchimochi,  
 V. Vanovschi,  L. Vogt,  O. Vydrov,  Tao Wang,  M. A. Watson,  J. Wenzel,  
 T. A. Wesolowski,  A. White,  C. F. Williams,  J. Witte,  Jun Yang,  K. Yao,  
 S. Yeganeh,  S. R. Yost,  Zhi-Qiang You,  A. Zech,  Igor Ying Zhang,  
 Xing Zhang,  Yan Zhao,  Ying Zhu,  B. R. Brooks,  G. K. L. Chan,  
 D. M. Chipman,  C. J. Cramer,  W. A. Goddard III,  M. S. Gordon,  
 W. J. Hehre,  A. Klamt,  H. F. Schaefer III,  M. W. Schmidt,  
 C. D. Sherrill,  D. G. Truhlar,  A. Warshel,  X. Xu,  A. Aspuru-Guzik,  
 R. Baer,  A. T. Bell,  N. A. Besley,  J.-D. Chai,  A. Dreuw,  B. D. Dunietz,  
 T. R. Furlani,  S. R. Gwaltney,  C.-P. Hsu,  Y. Jung,  J. Kong,  
 D. S. Lambrecht,  W. Liang,  C. Ochsenfeld,  V. A. Rassolov,  
 L. V. Slipchenko,  J. E. Subotnik,  T. Van Voorhis,  J. M. Herbert,  
 A. I. Krylov,  P. M. W. Gill,  M. Head-Gordon

 Contributors to earlier versions of Q-Chem not listed above: 
 R. D. Adamson,  J. Baker,  E. F. C. Byrd,  A. K. Chakraborty,  C.-L. Cheng,  
 H. Dachsel,  R. J. Doerksen,  G. Hawkins,  A. Heyden,  S. Hirata,  
 G. Kedziora,  F. J. Keil,  C. Kelley,  P. P. Korambath,  W. Kurlancheek,  
 A. M. Lee,  M. S. Lee,  D. Liotard,  I. Lotan,  P. E. Maslen,  N. Nair,  
 D. Neuhauser,  R. Olson,  B. Peters,  J. Ritchie,  N. E. Schultz,  
 N. Shenvi,  A. C. Simmonett,  K. S. Thanthiriwatte,  Q. Wu,  W. Zhang

 Please cite Q-Chem as follows:
 Y. Shao et al., Mol. Phys. 113, 184-215 (2015)
 DOI: 10.1080/00268976.2014.952696

 Q-Chem 4.4.2 for Intel X86 EM64T Linux

 Parts of Q-Chem use Armadillo 5.200.1 (Boston Tea Smuggler).
 http://arma.sourceforge.net/

 Q-Chem begins on Mon Jan 29 17:03:29 2018  

Host: nid01365
0

     Scratch files written to /dev/shm/eg_qchem/qchem4641.0//
 Parallel job on  8  processors

Checking the input file for inconsistencies... 	...done.
[HyperChem begin]
[HyperChem end]
[HyperChem begin]
[HyperChem end]
[HyperChem begin]
[HyperChem end]
[HyperChem begin]
[HyperChem end]
[HyperChem begin]
[HyperChem end]
[HyperChem begin]
[HyperChem end]
[HyperChem begin]
[HyperChem end]
[HyperChem begin]
[HyperChem end]

--------------------------------------------------------------
User input:
--------------------------------------------------------------
$molecule
0 1
  O    0.8010000    0.1690000   -0.0030000
  C    1.0790000   -1.1530000   -0.0060000
  C   -0.5330000    0.2830000    0.0020000
  O    2.2120000   -1.6520000   -0.0110000
  O   -0.0850000   -1.8400000   -0.0040000
  C   -1.0690000   -0.9320000    0.0010000
  H   -0.9340000    1.2920000    0.0050000
  H   -2.0840000   -1.3170000    0.0040000
$end

$rem
   BASIS  =  6-311++G**
   SYM_IGNORE = true
   GUI  =  1
   METHOD  =  B3LYP
   JOB_TYPE  =  Frequency
   gen_scfman = True     
$end

--------------------------------------------------------------
 ----------------------------------------------------------------
             Standard Nuclear Orientation (Angstroms)
    I     Atom           X                Y                Z
 ----------------------------------------------------------------
    1      O       0.8010000000     0.1690000000    -0.0030000000
    2      C       1.0790000000    -1.1530000000    -0.0060000000
    3      C      -0.5330000000     0.2830000000     0.0020000000
    4      O       2.2120000000    -1.6520000000    -0.0110000000
    5      O      -0.0850000000    -1.8400000000    -0.0040000000
    6      C      -1.0690000000    -0.9320000000     0.0010000000
    7      H      -0.9340000000     1.2920000000     0.0050000000
    8      H      -2.0840000000    -1.3170000000     0.0040000000
 ----------------------------------------------------------------
 Nuclear Repulsion Energy =   230.9639918768 hartrees
 There are       22 alpha and       22 beta electrons
[HyperChem begin]
[HyperChem end]
[HyperChem begin]
;Nuclear Cartesian coordinates in Angstroms
[coordinates]
      0.801000000000      0.169000000000     -0.003000000000
      1.079000000000     -1.153000000000     -0.006000000000
     -0.533000000000      0.283000000000      0.002000000000
      2.212000000000     -1.652000000000     -0.011000000000
     -0.085000000000     -1.840000000000     -0.004000000000
     -1.069000000000     -0.932000000000      0.001000000000
     -0.934000000000      1.292000000000      0.005000000000
     -2.084000000000     -1.317000000000      0.004000000000
[HyperChem end]
[HyperChem begin]
[HyperChem end]
 Requested basis set is 6-311++G(d,p)
[HyperChem begin]
[basis]
;
1:
;
Shells = 6
Shell1 =[ S   6   1.00 ]
   1    8.588500E+03    1.895150E-03
   2    1.297230E+03    1.438590E-02
   3    2.992960E+02    7.073200E-02
   4    8.737710E+01    2.400010E-01
   5    2.567890E+01    5.947970E-01
   6    3.740040E+00    2.808020E-01
Shell2 =[ SP  3   1.00 ]
   1    4.211750E+01    1.138890E-01    3.651140E-02
   2    9.628370E+00    9.208110E-01    2.371530E-01
   3    2.853320E+00   -3.274470E-03    8.197020E-01
Shell3 =[ SP  1   1.00 ]
   1    9.056610E-01    1.000000E+00    1.000000E+00
Shell4 =[ SP  1   1.00 ]
   1    2.556110E-01    1.000000E+00    1.000000E+00
Shell5 =[ SP  1   1.00 ]
   1    8.450000E-02    1.000000E+00    1.000000E+00
Shell6 =[ D   1   1.00 ]
   1    1.292000E+00    1.000000E+00
;
2:
;
Shells = 6
Shell1 =[ S   6   1.00 ]
   1    4.563240E+03    1.966650E-03
   2    6.820240E+02    1.523060E-02
   3    1.549730E+02    7.612690E-02
   4    4.445530E+01    2.608010E-01
   5    1.302900E+01    6.164620E-01
   6    1.827730E+00    2.210060E-01
Shell2 =[ SP  3   1.00 ]
   1    2.096420E+01    1.146600E-01    4.024870E-02
   2    4.803310E+00    9.199990E-01    2.375940E-01
   3    1.459330E+00   -3.030680E-03    8.158540E-01
Shell3 =[ SP  1   1.00 ]
   1    4.834560E-01    1.000000E+00    1.000000E+00
Shell4 =[ SP  1   1.00 ]
   1    1.455850E-01    1.000000E+00    1.000000E+00
Shell5 =[ SP  1   1.00 ]
   1    4.380000E-02    1.000000E+00    1.000000E+00
Shell6 =[ D   1   1.00 ]
   1    6.260000E-01    1.000000E+00
;
3:
;
Shells = 6
Shell1 =[ S   6   1.00 ]
   1    4.563240E+03    1.966650E-03
   2    6.820240E+02    1.523060E-02
   3    1.549730E+02    7.612690E-02
   4    4.445530E+01    2.608010E-01
   5    1.302900E+01    6.164620E-01
   6    1.827730E+00    2.210060E-01
Shell2 =[ SP  3   1.00 ]
   1    2.096420E+01    1.146600E-01    4.024870E-02
   2    4.803310E+00    9.199990E-01    2.375940E-01
   3    1.459330E+00   -3.030680E-03    8.158540E-01
Shell3 =[ SP  1   1.00 ]
   1    4.834560E-01    1.000000E+00    1.000000E+00
Shell4 =[ SP  1   1.00 ]
   1    1.455850E-01    1.000000E+00    1.000000E+00
Shell5 =[ SP  1   1.00 ]
   1    4.380000E-02    1.000000E+00    1.000000E+00
Shell6 =[ D   1   1.00 ]
   1    6.260000E-01    1.000000E+00
;
4:
;
Shells = 6
Shell1 =[ S   6   1.00 ]
   1    8.588500E+03    1.895150E-03
   2    1.297230E+03    1.438590E-02
   3    2.992960E+02    7.073200E-02
   4    8.737710E+01    2.400010E-01
   5    2.567890E+01    5.947970E-01
   6    3.740040E+00    2.808020E-01
Shell2 =[ SP  3   1.00 ]
   1    4.211750E+01    1.138890E-01    3.651140E-02
   2    9.628370E+00    9.208110E-01    2.371530E-01
   3    2.853320E+00   -3.274470E-03    8.197020E-01
Shell3 =[ SP  1   1.00 ]
   1    9.056610E-01    1.000000E+00    1.000000E+00
Shell4 =[ SP  1   1.00 ]
   1    2.556110E-01    1.000000E+00    1.000000E+00
Shell5 =[ SP  1   1.00 ]
   1    8.450000E-02    1.000000E+00    1.000000E+00
Shell6 =[ D   1   1.00 ]
   1    1.292000E+00    1.000000E+00
;
5:
;
Shells = 6
Shell1 =[ S   6   1.00 ]
   1    8.588500E+03    1.895150E-03
   2    1.297230E+03    1.438590E-02
   3    2.992960E+02    7.073200E-02
   4    8.737710E+01    2.400010E-01
   5    2.567890E+01    5.947970E-01
   6    3.740040E+00    2.808020E-01
Shell2 =[ SP  3   1.00 ]
   1    4.211750E+01    1.138890E-01    3.651140E-02
   2    9.628370E+00    9.208110E-01    2.371530E-01
   3    2.853320E+00   -3.274470E-03    8.197020E-01
Shell3 =[ SP  1   1.00 ]
   1    9.056610E-01    1.000000E+00    1.000000E+00
Shell4 =[ SP  1   1.00 ]
   1    2.556110E-01    1.000000E+00    1.000000E+00
Shell5 =[ SP  1   1.00 ]
   1    8.450000E-02    1.000000E+00    1.000000E+00
Shell6 =[ D   1   1.00 ]
   1    1.292000E+00    1.000000E+00
;
6:
;
Shells = 6
Shell1 =[ S   6   1.00 ]
   1    4.563240E+03    1.966650E-03
   2    6.820240E+02    1.523060E-02
   3    1.549730E+02    7.612690E-02
   4    4.445530E+01    2.608010E-01
   5    1.302900E+01    6.164620E-01
   6    1.827730E+00    2.210060E-01
Shell2 =[ SP  3   1.00 ]
   1    2.096420E+01    1.146600E-01    4.024870E-02
   2    4.803310E+00    9.199990E-01    2.375940E-01
   3    1.459330E+00   -3.030680E-03    8.158540E-01
Shell3 =[ SP  1   1.00 ]
   1    4.834560E-01    1.000000E+00    1.000000E+00
Shell4 =[ SP  1   1.00 ]
   1    1.455850E-01    1.000000E+00    1.000000E+00
Shell5 =[ SP  1   1.00 ]
   1    4.380000E-02    1.000000E+00    1.000000E+00
Shell6 =[ D   1   1.00 ]
   1    6.260000E-01    1.000000E+00
;
7:
;
Shells = 5
Shell1 =[ S   3   1.00 ]
   1    3.386500E+01    2.549380E-02
   2    5.094790E+00    1.903730E-01
   3    1.158790E+00    8.521610E-01
Shell2 =[ S   1   1.00 ]
   1    3.258400E-01    1.000000E+00
Shell3 =[ S   1   1.00 ]
   1    1.027410E-01    1.000000E+00
Shell4 =[ S   1   1.00 ]
   1    3.600000E-02    1.000000E+00
Shell5 =[ P   1   1.00 ]
   1    7.500000E-01    1.000000E+00
;
8:
;
Shells = 5
Shell1 =[ S   3   1.00 ]
   1    3.386500E+01    2.549380E-02
   2    5.094790E+00    1.903730E-01
   3    1.158790E+00    8.521610E-01
Shell2 =[ S   1   1.00 ]
   1    3.258400E-01    1.000000E+00
Shell3 =[ S   1   1.00 ]
   1    1.027410E-01    1.000000E+00
Shell4 =[ S   1   1.00 ]
   1    3.600000E-02    1.000000E+00
Shell5 =[ P   1   1.00 ]
   1    7.500000E-01    1.000000E+00
[HyperChem end]
 There are 46 shells and 146 basis functions

 Total QAlloc Memory Limit   2000 MB
 Mega-Array Size        61 MB
 MEM_STATIC part        62 MB

                       Distance Matrix (Angstroms)
             O (  1)   C (  2)   C (  3)   O (  4)   O (  5)   C (  6)
   C (  2)  1.350917
   C (  3)  1.338872  2.158866
   O (  4)  2.303698  1.238029  3.358485
   O (  5)  2.195695  1.351617  2.169762  2.304691
   C (  6)  2.170050  2.159350  1.327977  3.359093  1.338934
   H (  7)  2.066741  3.167067  1.085767  4.308678  3.245043  2.228097
   H (  8)  3.245223  3.167265  2.228364  4.309068  2.066300  1.085569
             H (  7)
   H (  8)  2.851207
 
 A cutoff of  1.0D-11 yielded   1036 shell pairs
 There are     10682 function pairs (     11591 Cartesian)
 Smallest overlap matrix eigenvalue = 3.19E-05
 Guess from superposition of atomic densities
 Warning:  Energy on first SCF cycle will be non-variational

 ==================================================
    GEN_SCFMAN: A general SCF calculation manager  
                                                   
    Authors:                                       
        -- Eric Jon Sundstrom 2008-2014            
        -- Paul Horn 2010-2015                     
        -- Yuezhi Mao 2012-                        
        -- Dmitri Zuev 2014                        
        -- Alec White 2015-                        
        -- David Stuck 2015                        
        -- Shaama M.S. 2015                        
        -- Shane Yost 2015-                         
        -- Joonho Lee 2016-                        
        -- David Small 2016-                       
        -- Daniel Levine 2016-                     
 ==================================================
 Exchange:     0.2000 Hartree-Fock + 0.0800 Slater + 0.7200 B88
 Correlation:  0.1900 VWN1RPA + 0.8100 LYP
 Using SG-1 standard quadrature grid
 A restricted SCF calculation will be
 performed using DIIS
 ---------------------------------------
  Cycle       Energy         DIIS error
 ---------------------------------------
 -------------------------------------------------------
 OpenMP Integral computing Module                
 -------------------------------------------------------
    1    -342.7262736950      5.84e-02  
    2    -341.1295952112      8.13e-03  
    3    -340.6665224449      1.73e-02  
    4    -341.2439588120      3.04e-03  
    5    -341.2616172017      9.81e-04  
    6    -341.2632582802      2.31e-04  
    7    -341.2633719836      6.84e-05  
    8    -341.2633808067      1.82e-05  
    9    -341.2633815383      3.78e-06  
   10    -341.2633815680      8.37e-07  
   11    -341.2633815681      8.28e-07  
   12    -341.2633815696      3.88e-08  
   13    -341.2633815696      1.64e-08  
   14    -341.2633815696      3.80e-09  Convergence criterion met
 ---------------------------------------
 SCF time:   CPU 3.17s  wall 3.00s 
Wall 1 = 3
Clock 1 = 3.17
 ==================================================
                  Done GEN_SCFMAN                  
 ==================================================

 
 --------------------------------------------------------------
 
                    Orbital Energies (a.u.)
 --------------------------------------------------------------
 
 Alpha MOs
 -- Occupied --
-19.233 -19.233 -19.128 -10.375 -10.269 -10.268  -1.233  -1.117
 -1.047  -0.812  -0.707  -0.678  -0.578  -0.552  -0.518  -0.459
 -0.451  -0.437  -0.432  -0.380  -0.314  -0.268
 -- Virtual --
 -0.020  -0.015  -0.005   0.007   0.008   0.041   0.052   0.065
  0.074   0.088   0.094   0.100   0.108   0.112   0.129   0.140
  0.146   0.176   0.199   0.216   0.235   0.236   0.255   0.256
  0.273   0.276   0.277   0.302   0.303   0.314   0.320   0.361
  0.362   0.398   0.448   0.450   0.491   0.512   0.537   0.545
  0.558   0.652   0.693   0.735   0.749   0.766   0.787   0.791
  0.906   0.907   0.953   1.022   1.026   1.109   1.115   1.132
  1.136   1.164   1.175   1.183   1.235   1.235   1.262   1.316
  1.400   1.450   1.542   1.637   1.671   1.680   1.696   1.714
  1.716   1.721   1.811   1.850   1.893   2.022   2.091   2.109
  2.363   2.476   2.500   2.606   2.652   2.674   2.689   2.740
  2.809   2.857   2.898   2.971   3.050   3.073   3.078   3.092
  3.147   3.211   3.334   3.364   3.374   3.513   3.597   3.598
  3.914   3.936   4.031   4.056   4.140   4.903   4.919   5.018
  5.112   5.226   5.435   5.484   5.822   5.945  23.669  23.725
 24.239  49.781  49.886  49.984
 --------------------------------------------------------------
 
          Ground-State Mulliken Net Atomic Charges

     Atom                 Charge (a.u.)
  ----------------------------------------
      1 O                    -0.064626
      2 C                     0.242421
      3 C                    -0.069524
      4 O                    -0.348749
      5 O                    -0.065788
      6 C                    -0.067832
      7 H                     0.187056
      8 H                     0.187042
  ----------------------------------------
  Sum of atomic charges =    -0.000000

 -----------------------------------------------------------------
                    Cartesian Multipole Moments
 -----------------------------------------------------------------
    Charge (ESU x 10^10)
                -0.0000
    Dipole Moment (Debye)
         X      -4.6626      Y       2.0560      Z       0.0202
       Tot       5.0958
    Quadrupole Moments (Debye-Ang)
        XX     -38.6549     XY       5.7473     YY     -36.7138
        XZ       0.0309     YZ      -0.0276     ZZ     -33.4269
    Octopole Moments (Debye-Ang^2)
       XXX     -63.2333    XXY      37.1987    XYY     -25.9042
       YYY      97.5778    XXZ       0.2400    XYZ      -0.0689
       YYZ       0.1906    XZZ      -9.2634    YZZ      26.7315
       ZZZ       0.2990
    Hexadecapole Moments (Debye-Ang^3)
      XXXX    -356.7723   XXXY     105.0517   XXYY    -123.2190
      XYYY      82.1564   YYYY    -343.0505   XXXZ       0.8009
      XXYZ      -0.3603   XYYZ       0.3114   YYYZ      -0.6551
      XXZZ     -60.6478   XYZZ      19.2862   YYZZ     -57.7233
      XZZZ       0.6147   YZZZ      -0.5076   ZZZZ     -32.4401
 -----------------------------------------------------------------
[HyperChem begin]
;Total dipole moment in Debye
[dipole-moment]
      5.095775856266
;Dipole moment components in Debye
[dipole-moment-components]
     -4.662553059951      2.055996658156      0.020205991602
[HyperChem end]
[HyperChem begin]
[HyperChem end]
[HyperChem begin]
[HyperChem end]
[HyperChem begin]
[HyperChem end]
 Calculating MO derivatives via CPSCF
 CPSCF will be done in 8 segments to save memory.
   1         0           3      0.025704    0.012751
   2         0           3      0.005132    0.002483
   3         0           3      0.002154    0.001065
   4         0           3      0.000599    0.000291
   5         0           3      0.000113    0.000056
   6         1           2      0.000021    0.000012
   7         1           2      0.000003    0.000002
   8         3           0      0.000000    0.000000    Roots Converged
 Time for AOints: 1.2 s (CPU) 1.2 s (wall)
 ------------------------------------------------------------------------------
                     AOints        : Timing summary (seconds)
 ------------------------------------------------------------------------------
     job step          cpu (% of tot)      sys (% of tot)     wall (% of tot)
 ------------------------------------------------------------------------------
  cpscf_lag         0.1614E+02 (32.8)   0.5300E-04 (13.6)   0.1615E+02 (32.8)
  iterzp            0.3169E+02 (64.4)   0.3360E-03 (86.4)   0.3169E+02 (64.4)
  make_fx           0.0000E+00 ( 0.0)   0.0000E+00 ( 0.0)   0.0000E+00 ( 0.0)
  AOints            0.1184E+01 ( 2.4)   0.0000E+00 ( 0.0)   0.1186E+01 ( 2.4)
 ------------------------------------------------------------------------------
   Grand Totals     0.4919E+02          0.3890E-03          0.4921E+02
 ------------------------------------------------------------------------------
 Calculating analytic Hessian of the SCF energy
 Polarizability Matrix (a.u.)
            1           2           3
    1 -52.7455986   4.6087509   0.0938818
    2   4.6087509 -44.3074601  -0.0529085
    3   0.0938818  -0.0529085 -26.7732298

 Q-Chem warning in module /project/projectdirs/jcesr/qchem/qc5.x/qc500/compile/cori/qc_src/drvman/find_multipole_der.C, line 180:

 Net Molecular Charges From Derivative of Dipole Moment are Inconsistent

 Derivative of Dipole Moment Matrix (a.u.)
            1           2           3
    1  -0.8730446  -0.1054322   0.0021744
    2   0.6366539  -0.8000710  -0.0033436
    3   0.0034771  -0.0005092  -0.0898143
    4   2.2638798  -0.5676932  -0.0068425
    5  -0.5677194   1.2259432   0.0030801
    6  -0.0068060   0.0033679   0.4083843
    7   0.6845747   0.1213391  -0.0023030
    8   0.0309732   0.0834867   0.0002295
    9  -0.0022728  -0.0005672  -0.1014884
   10  -1.3767798   0.4198076   0.0037339
   11   0.4197674  -0.6089935  -0.0015993
   12   0.0043652  -0.0019325  -0.4173079
   13  -1.0980499   0.4315216   0.0043457
   14  -0.3107869  -0.5756140   0.0000114
   15   0.0022533  -0.0022534  -0.0871539
   16   0.2801655  -0.3376480  -0.0021191
   17  -0.2468944   0.4865911   0.0021245
   18  -0.0022076   0.0021184  -0.1025200
   19   0.0716108   0.0171512   0.0004643
   20   0.0434211   0.0819673  -0.0003488
   21   0.0004523  -0.0000684   0.1948257
   22   0.0474255   0.0210479   0.0005515
   23  -0.0053819   0.1066562  -0.0001384
   24   0.0007169  -0.0001072   0.1950643
 -----------------------------------------
 Net:  -0.00021   0.00011   0.00001
 -----------------------------------------

 
 Direct stationary perturbation theory relativistic correction:
 
 rels  =       0.116798847833
 relv  =      -0.519409525818
 rel2e =       0.206764058739
 E_rel =      -0.195846619245
 
 Hessian of the SCF Energy
            1           2           3           4           5           6
    1   0.5656607  -0.0098699  -0.0017603  -0.1204808   0.0068613   0.0001853
    2  -0.0098699   0.4291119   0.0006816  -0.0080013  -0.2055596  -0.0001909
    3  -0.0017603   0.0006816   0.0570558   0.0001775  -0.0002125  -0.0714582
    4  -0.1204808  -0.0080013   0.0001775   0.8674555  -0.1750178  -0.0025024
    5   0.0068613  -0.2055596  -0.0002125  -0.1750178   0.5492108   0.0012636
    6   0.0001853  -0.0001909  -0.0714582  -0.0025024   0.0012636   0.2204622
    7  -0.3367152   0.0228142   0.0010962  -0.0215818   0.0990852   0.0002894
    8  -0.0176031  -0.0910195   0.0000087   0.0386414  -0.0399562  -0.0002598
    9   0.0010018  -0.0001419  -0.0403876   0.0001416  -0.0004485   0.0096420
   10  -0.0079053   0.0436532   0.0001510  -0.4543268   0.1513279   0.0015276
   11   0.0622482  -0.0392722  -0.0003183   0.1511913  -0.1775081  -0.0007048
   12   0.0001743  -0.0002429   0.0168496   0.0015635  -0.0007221  -0.0973630
   13   0.0114482  -0.0810108  -0.0001753  -0.1653020  -0.0489710   0.0001871
   14   0.0020571  -0.0608612  -0.0001698  -0.0338026  -0.1593756  -0.0000829
   15   0.0000100   0.0001355   0.0099456   0.0002084  -0.0000500  -0.0713550
   16  -0.0988260  -0.0019409   0.0003762  -0.0999517  -0.0334407   0.0002836
   17  -0.0398685  -0.0336799   0.0000190   0.0268582   0.0387894  -0.0000126
   18   0.0003022  -0.0000832   0.0193254   0.0003961   0.0001577   0.0095835
   19  -0.0168899   0.0358311   0.0001072  -0.0068041  -0.0058204   0.0000170
   20  -0.0003314   0.0042249   0.0000063  -0.0011857   0.0011292   0.0000065
   21   0.0000585  -0.0001236  -0.0018013   0.0000221   0.0000289   0.0002448
   22   0.0037182  -0.0014432   0.0000242   0.0009928   0.0059428   0.0000127
   23  -0.0035061  -0.0029680  -0.0000197   0.0013261  -0.0066840  -0.0000194
   24   0.0000285  -0.0000324   0.0104725  -0.0000048  -0.0000199   0.0002391
            7           8           9          10          11          12
    1  -0.3367152  -0.0176031   0.0010018  -0.0079053   0.0622482   0.0001743
    2   0.0228142  -0.0910195  -0.0001419   0.0436532  -0.0392722  -0.0002429
    3   0.0010962   0.0000087  -0.0403876   0.0001510  -0.0003183   0.0168496
    4  -0.0215818   0.0386414   0.0001416  -0.4543268   0.1511913   0.0015635
    5   0.0990852  -0.0399562  -0.0004485   0.1513279  -0.1775081  -0.0007221
    6   0.0002894  -0.0002598   0.0096420   0.0015276  -0.0007048  -0.0973630
    7   0.6394096  -0.0124391  -0.0018034  -0.0071359  -0.0085174   0.0000224
    8  -0.0124391   0.9769284   0.0017540   0.0009559  -0.0035872  -0.0000061
    9  -0.0018034   0.0017540   0.0978859   0.0000396   0.0000249   0.0014583
   10  -0.0071359   0.0009559   0.0000396   0.5505860  -0.1929741  -0.0020456
   11  -0.0085174  -0.0035872   0.0000249  -0.1929741   0.1976810   0.0009555
   12   0.0000224  -0.0000061   0.0014583  -0.0020456   0.0009555   0.0591283
   13  -0.0425942   0.0495678   0.0003247  -0.0775503  -0.0201764   0.0002459
   14   0.0113438  -0.0901882  -0.0002498  -0.0017255   0.0304471   0.0000421
   15   0.0002169  -0.0003991   0.0194922   0.0002966   0.0000964   0.0167515
   16  -0.1403814  -0.1456624  -0.0000623  -0.0014612   0.0061907   0.0000250
   17  -0.1899695  -0.4462552  -0.0002118  -0.0032908  -0.0093104  -0.0000207
   18  -0.0001195  -0.0003454  -0.0577875   0.0000074  -0.0000422   0.0014488
   19  -0.0902356   0.0853810   0.0003572  -0.0008171   0.0027044   0.0000096
   20   0.0973942  -0.3120960  -0.0008069  -0.0001237   0.0004776  -0.0000013
   21   0.0003616  -0.0007405  -0.0294197   0.0000066  -0.0000111   0.0008638
   22  -0.0007129   0.0011651   0.0000042  -0.0013905  -0.0006553   0.0000054
   23  -0.0197148   0.0061710   0.0000948   0.0021682   0.0010616  -0.0000060
   24  -0.0000687  -0.0000063  -0.0008832   0.0000133  -0.0000008   0.0008644
           13          14          15          16          17          18
    1   0.0114482   0.0020571   0.0000100  -0.0988260  -0.0398685   0.0003022
    2  -0.0810108  -0.0608612   0.0001355  -0.0019409  -0.0336799  -0.0000832
    3  -0.0001753  -0.0001698   0.0099456   0.0003762   0.0000190   0.0193254
    4  -0.1653020  -0.0338026   0.0002084  -0.0999517   0.0268582   0.0003961
    5  -0.0489710  -0.1593756  -0.0000500  -0.0334407   0.0387894   0.0001577
    6   0.0001871  -0.0000829  -0.0713550   0.0002836  -0.0000126   0.0095835
    7  -0.0425942   0.0113438   0.0002169  -0.1403814  -0.1899695  -0.0001195
    8   0.0495678  -0.0901882  -0.0003991  -0.1456624  -0.4462552  -0.0003454
    9   0.0003247  -0.0002498   0.0194922  -0.0000623  -0.0002118  -0.0577875
   10  -0.0775503  -0.0017255   0.0002966  -0.0014612  -0.0032908   0.0000074
   11  -0.0201764   0.0304471   0.0000964   0.0061907  -0.0093104  -0.0000422
   12   0.0002459   0.0000421   0.0167515   0.0000250  -0.0000207   0.0014488
   13   0.4996194  -0.0700797  -0.0015597  -0.2051209   0.1430193   0.0008426
   14  -0.0700797   0.4938382   0.0011521   0.1027700  -0.2224550  -0.0007249
   15  -0.0015597   0.0011521   0.0571209   0.0007507  -0.0008403  -0.0407269
   16  -0.2051209   0.1027700   0.0007507   0.8356817   0.1677364  -0.0021894
   17   0.1430193  -0.2224550  -0.0008403   0.1677364   0.7801769   0.0008265
   18   0.0008426  -0.0007249  -0.0407269  -0.0021894   0.0008265   0.0985155
   19   0.0025649  -0.0045846   0.0000161   0.0122453  -0.0078653  -0.0000584
   20  -0.0025513  -0.0017960  -0.0000104   0.0130401  -0.0068266  -0.0000581
   21   0.0000126  -0.0000091   0.0104825  -0.0000119  -0.0000123  -0.0009297
   22  -0.0230499  -0.0059729   0.0000603  -0.3022699  -0.0966402   0.0008182
   23   0.0301925   0.0103945  -0.0000785  -0.1086672  -0.1004541   0.0002587
   24   0.0001211   0.0000446  -0.0017120   0.0008336   0.0002442  -0.0294268
           19          20          21          22          23          24
    1  -0.0168899  -0.0003314   0.0000585   0.0037182  -0.0035061   0.0000285
    2   0.0358311   0.0042249  -0.0001236  -0.0014432  -0.0029680  -0.0000324
    3   0.0001072   0.0000063  -0.0018013   0.0000242  -0.0000197   0.0104725
    4  -0.0068041  -0.0011857   0.0000221   0.0009928   0.0013261  -0.0000048
    5  -0.0058204   0.0011292   0.0000289   0.0059428  -0.0066840  -0.0000199
    6   0.0000170   0.0000065   0.0002448   0.0000127  -0.0000194   0.0002391
    7  -0.0902356   0.0973942   0.0003616  -0.0007129  -0.0197148  -0.0000687
    8   0.0853810  -0.3120960  -0.0007405   0.0011651   0.0061710  -0.0000063
    9   0.0003572  -0.0008069  -0.0294197   0.0000042   0.0000948  -0.0008832
   10  -0.0008171  -0.0001237   0.0000066  -0.0013905   0.0021682   0.0000133
   11   0.0027044   0.0004776  -0.0000111  -0.0006553   0.0010616  -0.0000008
   12   0.0000096  -0.0000013   0.0008638   0.0000054  -0.0000060   0.0008644
   13   0.0025649  -0.0025513   0.0000126  -0.0230499   0.0301925   0.0001211
   14  -0.0045846  -0.0017960  -0.0000091  -0.0059729   0.0103945   0.0000446
   15   0.0000161  -0.0000104   0.0104825   0.0000603  -0.0000785  -0.0017120
   16   0.0122453   0.0130401  -0.0000119  -0.3022699  -0.1086672   0.0008336
   17  -0.0078653  -0.0068266  -0.0000123  -0.0966402  -0.1004541   0.0002442
   18  -0.0000584  -0.0000581  -0.0009297   0.0008182   0.0002587  -0.0294268
   19   0.1001936  -0.1059039  -0.0004403  -0.0002494   0.0002556  -0.0000084
   20  -0.1059039   0.3152151   0.0008630  -0.0003452  -0.0003222   0.0000008
   21  -0.0004403   0.0008630   0.0231062  -0.0000089   0.0000040  -0.0025470
   22  -0.0002494  -0.0003452  -0.0000089   0.3229601   0.0979497  -0.0009144
   23   0.0002556  -0.0003222   0.0000040   0.0979497   0.0927968  -0.0002325
   24  -0.0000084   0.0000008  -0.0025470  -0.0009144  -0.0002325   0.0229931
 Gradient time:  CPU 58.38 s  wall 58.82 s
[HyperChem begin]
[HyperChem end]
 **********************************************************************
 **                                                                  **
 **                       VIBRATIONAL ANALYSIS                       **
 **                       --------------------                       **
 **                                                                  **
 **        VIBRATIONAL FREQUENCIES (CM**-1) AND NORMAL MODES         **
 **     FORCE CONSTANTS (mDYN/ANGSTROM) AND REDUCED MASSES (AMU)     **
 **                  INFRARED INTENSITIES (KM/MOL)                   **
 **                                                                  **
 **********************************************************************
 

 Symmetry:           ???                    ???                    ???

 Mode:                 1                      2                      3
 Frequency:       226.53                 548.39                 561.70
 Force Cnst:      0.2274                 1.6337                 0.9535
 Red. Mass:       7.5224                 9.2202                 5.1294
 IR Active:          YES                    YES                    YES
 IR Intens:        0.157                  0.002                  0.000
 Raman Active:       YES                    YES                    YES
               X      Y      Z        X      Y      Z        X      Y      Z
 O          0.001 -0.001  0.342    0.069 -0.312 -0.001   -0.001  0.000 -0.209
 C          0.000 -0.000  0.100   -0.092 -0.210  0.000    0.000  0.000 -0.000
 C         -0.001  0.000 -0.246    0.180  0.025 -0.000    0.001 -0.001  0.358
 O         -0.001  0.001 -0.325    0.205  0.463  0.000   -0.000 -0.000 -0.000
 O          0.001 -0.001  0.341   -0.277 -0.159  0.001    0.001 -0.000  0.209
 C         -0.001  0.000 -0.245   -0.104  0.150  0.000   -0.001  0.001 -0.357
 H         -0.002  0.001 -0.514    0.439  0.129 -0.001    0.002 -0.001  0.568
 H         -0.002  0.001 -0.516   -0.202  0.412  0.002   -0.002  0.001 -0.579
 TransDip  -0.000  0.000 -0.013    0.001  0.001  0.000    0.000 -0.000 -0.001

 Symmetry:           ???                    ???                    ???

 Mode:                 4                      5                      6
 Frequency:       744.31                 775.30                 819.10
 Force Cnst:      4.2135                 0.8575                 0.7862
 Red. Mass:      12.9086                 2.4212                 1.9889
 IR Active:          YES                    YES                    YES
 IR Intens:       11.523                 80.407                 10.572
 Raman Active:       YES                    YES                    YES
               X      Y      Z        X      Y      Z        X      Y      Z
 O         -0.281 -0.222  0.001   -0.000  0.000 -0.056   -0.000 -0.000 -0.074
 C          0.292 -0.128 -0.001    0.001 -0.001  0.312    0.001 -0.000  0.228
 C         -0.287  0.115  0.001   -0.000  0.000 -0.081    0.000 -0.000  0.087
 O          0.520 -0.230 -0.002   -0.000  0.000 -0.084   -0.000  0.000 -0.069
 O         -0.024  0.357  0.001   -0.000  0.000 -0.055   -0.000  0.000 -0.075
 C         -0.279  0.135  0.001   -0.000  0.000 -0.083    0.000 -0.000  0.090
 H          0.031  0.250 -0.001    0.002 -0.001  0.659   -0.002  0.001 -0.672
 H         -0.164 -0.193 -0.001    0.002 -0.001  0.665   -0.002  0.001 -0.682
 TransDip  -0.099  0.044  0.000    0.001 -0.000  0.287   -0.000 -0.000 -0.104

 Symmetry:           ???                    ???                    ???

 Mode:                 7                      8                      9
 Frequency:       882.60                 931.01                 946.54
 Force Cnst:      0.5702                 3.2919                 4.2829
 Red. Mass:       1.2423                 6.4458                 8.1135
 IR Active:          YES                    YES                    YES
 IR Intens:        0.003                 26.052                  2.855
 Raman Active:       YES                    YES                    YES
               X      Y      Z        X      Y      Z        X      Y      Z
 O          0.000  0.000 -0.011    0.052  0.372  0.000   -0.285 -0.054  0.001
 C          0.000  0.000 -0.000    0.123 -0.047 -0.000   -0.082 -0.192 -0.000
 C         -0.000  0.000 -0.103   -0.053  0.009  0.000   -0.131  0.410  0.001
 O          0.000  0.000  0.000    0.229 -0.101 -0.001   -0.005 -0.023  0.000
 O         -0.000  0.000  0.011   -0.246 -0.284  0.000    0.142 -0.258 -0.001
 C          0.000 -0.000  0.102   -0.053  0.027  0.000    0.390  0.180 -0.001
 H          0.002 -0.001  0.705   -0.532 -0.176  0.001   -0.186  0.417  0.003
 H         -0.003  0.001 -0.694   -0.241  0.509  0.002    0.425  0.163 -0.002
 TransDip  -0.000  0.000  0.002    0.150 -0.065 -0.001    0.024  0.048  0.000

 Symmetry:           ???                    ???                    ???

 Mode:                10                     11                     12
 Frequency:      1121.72                1178.94                1201.02
 Force Cnst:      5.8267                 1.1767                 1.7164
 Red. Mass:       7.8597                 1.4370                 2.0196
 IR Active:          YES                    YES                    YES
 IR Intens:       72.398                  0.163                 50.546
 Raman Active:       YES                    YES                    YES
               X      Y      Z        X      Y      Z        X      Y      Z
 O          0.042 -0.250 -0.001   -0.056 -0.047  0.000   -0.139  0.036  0.001
 C          0.243  0.552  0.000    0.003  0.000 -0.000    0.025  0.057  0.000
 C         -0.189  0.070  0.001    0.039 -0.105 -0.000    0.105 -0.063 -0.000
 O         -0.028 -0.059 -0.000   -0.006  0.002  0.000   -0.011 -0.024 -0.000
 O         -0.211 -0.134  0.000   -0.001  0.072  0.000    0.120 -0.081 -0.001
 C          0.180 -0.093 -0.001    0.102  0.043 -0.000   -0.120  0.034  0.000
 H          0.371  0.288  0.000   -0.577 -0.374  0.001    0.668  0.165 -0.002
 H         -0.032  0.450  0.002   -0.120  0.691  0.002   -0.327  0.586  0.002
 TransDip   0.110  0.249  0.000   -0.010  0.008  0.000    0.092  0.208  0.000

 Symmetry:           ???                    ???                    ???

 Mode:                13                     14                     15
 Frequency:      1302.97                1439.70                1645.47
 Force Cnst:      4.2308                 2.9238                17.6821
 Red. Mass:       4.2296                 2.3941                11.0842
 IR Active:          YES                    YES                    YES
 IR Intens:      143.966                 43.921                558.515
 Raman Active:       YES                    YES                    YES
               X      Y      Z        X      Y      Z        X      Y      Z
 O          0.228 -0.097 -0.001   -0.079 -0.056  0.000   -0.028  0.045  0.000
 C         -0.005  0.003  0.000    0.062  0.138  0.000    0.704 -0.312 -0.003
 C         -0.223  0.113  0.001    0.194  0.020 -0.001   -0.164 -0.160  0.000
 O         -0.042  0.019  0.000   -0.011 -0.024 -0.000   -0.360  0.159  0.002
 O          0.224 -0.103 -0.001    0.013 -0.096 -0.000   -0.052 -0.008  0.000
 C         -0.232  0.087  0.001   -0.117  0.157  0.001    0.008  0.227  0.000
 H         -0.612 -0.013  0.002   -0.588 -0.308  0.001    0.267 -0.016 -0.001
 H         -0.403  0.464  0.002    0.171 -0.641 -0.002    0.192 -0.182 -0.001
 TransDip  -0.352  0.155  0.001    0.087  0.194  0.000    0.692 -0.306 -0.003

 Symmetry:           ???                    ???                    ???

 Mode:                16                     17                     18
 Frequency:      1690.35                3189.91                3214.83
 Force Cnst:      9.3913                 6.5428                 6.8070
 Red. Mass:       5.5785                 1.0913                 1.1179
 IR Active:          YES                    YES                    YES
 IR Intens:      152.480                 10.360                  0.018
 Raman Active:       YES                    YES                    YES
               X      Y      Z        X      Y      Z        X      Y      Z
 O          0.062  0.016 -0.000    0.001 -0.000 -0.000    0.002 -0.000 -0.000
 C         -0.188  0.083  0.001    0.001  0.003  0.000    0.002 -0.001 -0.000
 C         -0.233 -0.348  0.000    0.025 -0.059 -0.000   -0.019  0.066  0.000
 O          0.086 -0.038 -0.000   -0.000 -0.000  0.000   -0.000  0.000  0.000
 O          0.030 -0.057 -0.000   -0.001  0.000  0.000    0.001 -0.001 -0.000
 C          0.100  0.406  0.001   -0.056 -0.020  0.000   -0.065 -0.032  0.000
 H          0.525 -0.141 -0.002   -0.276  0.674  0.002    0.250 -0.631 -0.002
 H          0.459 -0.290 -0.002    0.638  0.235 -0.002    0.680  0.259 -0.002
 TransDip  -0.362  0.159  0.001    0.042  0.094 -0.000    0.003  0.003 -0.000

 STANDARD THERMODYNAMIC QUANTITIES AT   298.15 K  AND     1.00 ATM

   This Molecule has  0 Imaginary Frequencies
   Zero point vibrational energy:       32.052 kcal/mol

   Atom    1 Element O  Has Mass   15.99491
   Atom    2 Element C  Has Mass   12.00000
   Atom    3 Element C  Has Mass   12.00000
   Atom    4 Element O  Has Mass   15.99491
   Atom    5 Element O  Has Mass   15.99491
   Atom    6 Element C  Has Mass   12.00000
   Atom    7 Element H  Has Mass    1.00783
   Atom    8 Element H  Has Mass    1.00783
   Molecular Mass:    86.000390 amu
   Principal axes and moments of inertia in amu*Bohr^2:
                             1           2           3
    Eigenvalues --      190.10205   426.24964   616.35167
          X               0.91522     0.40294     0.00325
          Y              -0.40293     0.91523    -0.00199
          Z              -0.00377     0.00051     0.99999
   Rotational Symmetry Number is   1
   The Molecule is an Asymmetric Top
   Translational Enthalpy:        0.889 kcal/mol
   Rotational Enthalpy:           0.889 kcal/mol
   Vibrational Enthalpy:         32.917 kcal/mol
   gas constant (RT):             0.592 kcal/mol
   Translational Entropy:        39.268  cal/mol.K
   Rotational Entropy:           25.416  cal/mol.K
   Vibrational Entropy:           4.239  cal/mol.K

   Total Enthalpy:               35.287 kcal/mol
   Total Entropy:                68.923  cal/mol.K
Archival summary:
1\1\nid01365\FREQ\ProcedureUnspecified\BasisUnspecified\332\jself\MonJan2917:04:322018MonJan2917:04:322018\0\\#,FREQ,ProcedureUnspecified,BasisUnspecified,\\0,1\O\C,1,1.33887\H,2,1.08577,1,116.559\C,2,1.32798,1,108.92,3,179.951,0\H,4,1.08557,2,134.577,1,179.976,0\O,4,1.33893,2,108.895,1,0.0296011,0\C,1,1.35092,2,106.76,3,179.998,0\O,7,1.23803,1,125.646,2,179.992,0\\\@

 Total job time:  62.42s(wall), 61.64s(cpu) 
 Mon Jan 29 17:04:32 2018

        *************************************************************
        *                                                           *
        *  Thank you very much for using Q-Chem.  Have a nice day.  *
        *                                                           *
        *************************************************************


0 sent ACK to 0 
now end server 0 ... 
 
*************************************************************
Job 2 of 5 
*************************************************************
 
Process 2 of 8 is on nid01365 - thread support 0
Process 5 of 8 is on nid01365 - thread support 0
Process 7 of 8 is on nid01365 - thread support 0
Process 0 of 8 is on nid01365 - thread support 0
Process 1 of 8 is on nid01365 - thread support 0
Process 3 of 8 is on nid01365 - thread support 0
Process 4 of 8 is on nid01365 - thread support 0
Process 6 of 8 is on nid01365 - thread support 0
initial socket setup ...start
initial socket setup ...done 
now start server 0 ... 
nid01365 10.128.5
Q-Chem Developer Version! Running on 10.128.5.*
                  Welcome to Q-Chem
     A Quantum Leap Into The Future Of Chemistry


 Q-Chem 5.0 (beta), Q-Chem, Inc., Pleasanton, CA (2017)

 Yihan Shao,  Zhengting Gan,  E. Epifanovsky,  A. T. B. Gilbert,  M. Wormit,  
 J. Kussmann,  A. W. Lange,  A. Behn,  Jia Deng,  Xintian Feng,  D. Ghosh,  
 M. Goldey,  P. R. Horn,  L. D. Jacobson,  I. Kaliman,  R. Z. Khaliullin,  
 T. Kus,  A. Landau,  Jie Liu,  E. I. Proynov,  Y. M. Rhee,  R. M. Richard,  
 M. A. Rohrdanz,  R. P. Steele,  E. J. Sundstrom,  H. L. Woodcock III,  
 P. M. Zimmerman,  D. Zuev,  B. Albrecht,  E. Alguire,  B. Austin,  
 S. A. Baeppler,  Z. Benda,  G. J. O. Beran,  Y. A. Bernard,  E. J. Berquist,  
 K. Brandhorst,  K. B. Bravaya,  S. T. Brown,  D. Casanova,  Chun-Min Chang,  
 Yunqing Chen,  Siu Hung Chien,  K. D. Closser,  M. P. Coons,  
 D. L. Crittenden,  S. Dasgupta,  M. Diedenhofen,  R. A. DiStasio Jr.,  
 Hainam Do,  A. D. Dutoi,  R. G. Edgar,  Po-Tung Fang,  S. Fatehi,  
 Qingguo Feng,  L. Fusti-Molnar,  Qinghui Ge,  A. Ghysels,  
 A. Golubeva-Zadorozhnaya,  J. Gomes,  J. Gonthier,  A. Gunina,  
 M. W. D. Hanson-Heine,  P. H. P. Harbach,  A. W. Hauser,  J. E. Herr,  
 E. G. Hohenstein,  Z. C. Holden,  Kerwin Hui,  T.-C. Jagau,  Hyunjun Ji,  
 B. Kaduk,  K. Khistyaev,  Jaehoon Kim,  Jihan Kim,  R. A. King,  
 P. Klunzinger,  K. Koh,  D. Kosenkov,  T. Kowalczyk,  C. M. Krauter,  
 A. Kunitsa,  Ka Un Lao,  A. Laurent,  K. V. Lawler,  Joonho Lee,  
 D. Lefrancois,  S. Lehtola,  S. V. Levchenko,  D. S. Levine,  Yi-Pei Li,  
 Ching Yeh Lin,  You-Sheng Lin,  Fenglai Liu,  E. Livshits,  R. C. Lochan,  
 A. Luenser,  P. Manohar,  E. Mansoor,  S. F. Manzer,  Shan-Ping Mao,  
 Yuezhi Mao,  N. Mardirossian,  A. V. Marenich,  L. A. Martinez-Martinez,  
 S. A. Maurer,  N. J. Mayhall,  J.-M. Mewes,  A. F. Morrison,  K. Nanda,  
 T. S. Nguyen-Beck,  C. M. Oana,  R. Olivares-Amaya,  D. P. O'Neill,  
 J. A. Parkhill,  T. M. Perrine,  R. Peverati,  P. A. Pieniazek,  F. Plasser,  
 S. Prager,  A. Prociuk,  D. R. Rehn,  F. Rob,  E. Rosta,  N. J. Russ,  
 N. Sergueev,  S. M. Sharada,  S. Sharma,  D. W. Small,  A. Sodt,  T. Stauch,  
 T. Stein,  D. Stuck,  Yu-Chuan Su,  A. J. W. Thom,  T. Tsuchimochi,  
 V. Vanovschi,  L. Vogt,  O. Vydrov,  Tao Wang,  M. A. Watson,  J. Wenzel,  
 T. A. Wesolowski,  A. White,  C. F. Williams,  J. Witte,  Jun Yang,  K. Yao,  
 S. Yeganeh,  S. R. Yost,  Zhi-Qiang You,  A. Zech,  Igor Ying Zhang,  
 Xing Zhang,  Yan Zhao,  Ying Zhu,  B. R. Brooks,  G. K. L. Chan,  
 D. M. Chipman,  C. J. Cramer,  W. A. Goddard III,  M. S. Gordon,  
 W. J. Hehre,  A. Klamt,  H. F. Schaefer III,  M. W. Schmidt,  
 C. D. Sherrill,  D. G. Truhlar,  A. Warshel,  X. Xu,  A. Aspuru-Guzik,  
 R. Baer,  A. T. Bell,  N. A. Besley,  J.-D. Chai,  A. Dreuw,  B. D. Dunietz,  
 T. R. Furlani,  S. R. Gwaltney,  C.-P. Hsu,  Y. Jung,  J. Kong,  
 D. S. Lambrecht,  W. Liang,  C. Ochsenfeld,  V. A. Rassolov,  
 L. V. Slipchenko,  J. E. Subotnik,  T. Van Voorhis,  J. M. Herbert,  
 A. I. Krylov,  P. M. W. Gill,  M. Head-Gordon

 Contributors to earlier versions of Q-Chem not listed above: 
 R. D. Adamson,  J. Baker,  E. F. C. Byrd,  A. K. Chakraborty,  C.-L. Cheng,  
 H. Dachsel,  R. J. Doerksen,  G. Hawkins,  A. Heyden,  S. Hirata,  
 G. Kedziora,  F. J. Keil,  C. Kelley,  P. P. Korambath,  W. Kurlancheek,  
 A. M. Lee,  M. S. Lee,  D. Liotard,  I. Lotan,  P. E. Maslen,  N. Nair,  
 D. Neuhauser,  R. Olson,  B. Peters,  J. Ritchie,  N. E. Schultz,  
 N. Shenvi,  A. C. Simmonett,  K. S. Thanthiriwatte,  Q. Wu,  W. Zhang

 Please cite Q-Chem as follows:
 Y. Shao et al., Mol. Phys. 113, 184-215 (2015)
 DOI: 10.1080/00268976.2014.952696

 Q-Chem 4.4.2 for Intel X86 EM64T Linux

 Parts of Q-Chem use Armadillo 5.200.1 (Boston Tea Smuggler).
 http://arma.sourceforge.net/

 Q-Chem begins on Mon Jan 29 17:04:36 2018  

Host: nid01365
0

     Scratch files written to /dev/shm/eg_qchem/qchem4641.0//
 Parallel job on  8  processors
The previous job contains 0 fragments, simply inherited here

Checking the input file for inconsistencies... 	...done.
[HyperChem begin]
[HyperChem end]
[HyperChem begin]
[HyperChem end]
[HyperChem begin]
[HyperChem end]
[HyperChem begin]
[HyperChem end]
[HyperChem begin]
[HyperChem end]
[HyperChem begin]
[HyperChem end]
[HyperChem begin]
[HyperChem end]
[HyperChem begin]
[HyperChem end]

--------------------------------------------------------------
User input:
--------------------------------------------------------------

$molecule
read
$end

$rem
   BASIS  =  6-311++G**
   GUI  =  1
   SYM_IGNORE = true
   METHOD  =  B3LYP
   JOB_TYPE  =  Optimization
   MAX_SCF_CYCLES  =  300
   gen_scfman = True 
   geom_opt_hessian = read    
$end

--------------------------------------------------------------
 ----------------------------------------------------------------
             Standard Nuclear Orientation (Angstroms)
    I     Atom           X                Y                Z
 ----------------------------------------------------------------
    1      O       0.8010000000     0.1690000000    -0.0030000000
    2      C       1.0790000000    -1.1530000000    -0.0060000000
    3      C      -0.5330000000     0.2830000000     0.0020000000
    4      O       2.2120000000    -1.6520000000    -0.0110000000
    5      O      -0.0850000000    -1.8400000000    -0.0040000000
    6      C      -1.0690000000    -0.9320000000     0.0010000000
    7      H      -0.9340000000     1.2920000000     0.0050000000
    8      H      -2.0840000000    -1.3170000000     0.0040000000
 ----------------------------------------------------------------
 Nuclear Repulsion Energy =   230.9639918768 hartrees
 There are       22 alpha and       22 beta electrons
[HyperChem begin]
[HyperChem end]
[HyperChem begin]
;Nuclear Cartesian coordinates in Angstroms
[coordinates]
      0.801000000000      0.169000000000     -0.003000000000
      1.079000000000     -1.153000000000     -0.006000000000
     -0.533000000000      0.283000000000      0.002000000000
      2.212000000000     -1.652000000000     -0.011000000000
     -0.085000000000     -1.840000000000     -0.004000000000
     -1.069000000000     -0.932000000000      0.001000000000
     -0.934000000000      1.292000000000      0.005000000000
     -2.084000000000     -1.317000000000      0.004000000000
[HyperChem end]
[HyperChem begin]
[HyperChem end]
 Requested basis set is 6-311++G(d,p)
[HyperChem begin]
[basis]
;
1:
;
Shells = 6
Shell1 =[ S   6   1.00 ]
   1    8.588500E+03    1.895150E-03
   2    1.297230E+03    1.438590E-02
   3    2.992960E+02    7.073200E-02
   4    8.737710E+01    2.400010E-01
   5    2.567890E+01    5.947970E-01
   6    3.740040E+00    2.808020E-01
Shell2 =[ SP  3   1.00 ]
   1    4.211750E+01    1.138890E-01    3.651140E-02
   2    9.628370E+00    9.208110E-01    2.371530E-01
   3    2.853320E+00   -3.274470E-03    8.197020E-01
Shell3 =[ SP  1   1.00 ]
   1    9.056610E-01    1.000000E+00    1.000000E+00
Shell4 =[ SP  1   1.00 ]
   1    2.556110E-01    1.000000E+00    1.000000E+00
Shell5 =[ SP  1   1.00 ]
   1    8.450000E-02    1.000000E+00    1.000000E+00
Shell6 =[ D   1   1.00 ]
   1    1.292000E+00    1.000000E+00
;
2:
;
Shells = 6
Shell1 =[ S   6   1.00 ]
   1    4.563240E+03    1.966650E-03
   2    6.820240E+02    1.523060E-02
   3    1.549730E+02    7.612690E-02
   4    4.445530E+01    2.608010E-01
   5    1.302900E+01    6.164620E-01
   6    1.827730E+00    2.210060E-01
Shell2 =[ SP  3   1.00 ]
   1    2.096420E+01    1.146600E-01    4.024870E-02
   2    4.803310E+00    9.199990E-01    2.375940E-01
   3    1.459330E+00   -3.030680E-03    8.158540E-01
Shell3 =[ SP  1   1.00 ]
   1    4.834560E-01    1.000000E+00    1.000000E+00
Shell4 =[ SP  1   1.00 ]
   1    1.455850E-01    1.000000E+00    1.000000E+00
Shell5 =[ SP  1   1.00 ]
   1    4.380000E-02    1.000000E+00    1.000000E+00
Shell6 =[ D   1   1.00 ]
   1    6.260000E-01    1.000000E+00
;
3:
;
Shells = 6
Shell1 =[ S   6   1.00 ]
   1    4.563240E+03    1.966650E-03
   2    6.820240E+02    1.523060E-02
   3    1.549730E+02    7.612690E-02
   4    4.445530E+01    2.608010E-01
   5    1.302900E+01    6.164620E-01
   6    1.827730E+00    2.210060E-01
Shell2 =[ SP  3   1.00 ]
   1    2.096420E+01    1.146600E-01    4.024870E-02
   2    4.803310E+00    9.199990E-01    2.375940E-01
   3    1.459330E+00   -3.030680E-03    8.158540E-01
Shell3 =[ SP  1   1.00 ]
   1    4.834560E-01    1.000000E+00    1.000000E+00
Shell4 =[ SP  1   1.00 ]
   1    1.455850E-01    1.000000E+00    1.000000E+00
Shell5 =[ SP  1   1.00 ]
   1    4.380000E-02    1.000000E+00    1.000000E+00
Shell6 =[ D   1   1.00 ]
   1    6.260000E-01    1.000000E+00
;
4:
;
Shells = 6
Shell1 =[ S   6   1.00 ]
   1    8.588500E+03    1.895150E-03
   2    1.297230E+03    1.438590E-02
   3    2.992960E+02    7.073200E-02
   4    8.737710E+01    2.400010E-01
   5    2.567890E+01    5.947970E-01
   6    3.740040E+00    2.808020E-01
Shell2 =[ SP  3   1.00 ]
   1    4.211750E+01    1.138890E-01    3.651140E-02
   2    9.628370E+00    9.208110E-01    2.371530E-01
   3    2.853320E+00   -3.274470E-03    8.197020E-01
Shell3 =[ SP  1   1.00 ]
   1    9.056610E-01    1.000000E+00    1.000000E+00
Shell4 =[ SP  1   1.00 ]
   1    2.556110E-01    1.000000E+00    1.000000E+00
Shell5 =[ SP  1   1.00 ]
   1    8.450000E-02    1.000000E+00    1.000000E+00
Shell6 =[ D   1   1.00 ]
   1    1.292000E+00    1.000000E+00
;
5:
;
Shells = 6
Shell1 =[ S   6   1.00 ]
   1    8.588500E+03    1.895150E-03
   2    1.297230E+03    1.438590E-02
   3    2.992960E+02    7.073200E-02
   4    8.737710E+01    2.400010E-01
   5    2.567890E+01    5.947970E-01
   6    3.740040E+00    2.808020E-01
Shell2 =[ SP  3   1.00 ]
   1    4.211750E+01    1.138890E-01    3.651140E-02
   2    9.628370E+00    9.208110E-01    2.371530E-01
   3    2.853320E+00   -3.274470E-03    8.197020E-01
Shell3 =[ SP  1   1.00 ]
   1    9.056610E-01    1.000000E+00    1.000000E+00
Shell4 =[ SP  1   1.00 ]
   1    2.556110E-01    1.000000E+00    1.000000E+00
Shell5 =[ SP  1   1.00 ]
   1    8.450000E-02    1.000000E+00    1.000000E+00
Shell6 =[ D   1   1.00 ]
   1    1.292000E+00    1.000000E+00
;
6:
;
Shells = 6
Shell1 =[ S   6   1.00 ]
   1    4.563240E+03    1.966650E-03
   2    6.820240E+02    1.523060E-02
   3    1.549730E+02    7.612690E-02
   4    4.445530E+01    2.608010E-01
   5    1.302900E+01    6.164620E-01
   6    1.827730E+00    2.210060E-01
Shell2 =[ SP  3   1.00 ]
   1    2.096420E+01    1.146600E-01    4.024870E-02
   2    4.803310E+00    9.199990E-01    2.375940E-01
   3    1.459330E+00   -3.030680E-03    8.158540E-01
Shell3 =[ SP  1   1.00 ]
   1    4.834560E-01    1.000000E+00    1.000000E+00
Shell4 =[ SP  1   1.00 ]
   1    1.455850E-01    1.000000E+00    1.000000E+00
Shell5 =[ SP  1   1.00 ]
   1    4.380000E-02    1.000000E+00    1.000000E+00
Shell6 =[ D   1   1.00 ]
   1    6.260000E-01    1.000000E+00
;
7:
;
Shells = 5
Shell1 =[ S   3   1.00 ]
   1    3.386500E+01    2.549380E-02
   2    5.094790E+00    1.903730E-01
   3    1.158790E+00    8.521610E-01
Shell2 =[ S   1   1.00 ]
   1    3.258400E-01    1.000000E+00
Shell3 =[ S   1   1.00 ]
   1    1.027410E-01    1.000000E+00
Shell4 =[ S   1   1.00 ]
   1    3.600000E-02    1.000000E+00
Shell5 =[ P   1   1.00 ]
   1    7.500000E-01    1.000000E+00
;
8:
;
Shells = 5
Shell1 =[ S   3   1.00 ]
   1    3.386500E+01    2.549380E-02
   2    5.094790E+00    1.903730E-01
   3    1.158790E+00    8.521610E-01
Shell2 =[ S   1   1.00 ]
   1    3.258400E-01    1.000000E+00
Shell3 =[ S   1   1.00 ]
   1    1.027410E-01    1.000000E+00
Shell4 =[ S   1   1.00 ]
   1    3.600000E-02    1.000000E+00
Shell5 =[ P   1   1.00 ]
   1    7.500000E-01    1.000000E+00
[HyperChem end]
 There are 46 shells and 146 basis functions

 Total QAlloc Memory Limit   2000 MB
 Mega-Array Size        61 MB
 MEM_STATIC part        62 MB
 A cutoff of  1.0D-11 yielded   1036 shell pairs
 There are     10682 function pairs (     11591 Cartesian)
 Smallest overlap matrix eigenvalue = 3.19E-05

 Scale SEOQF with 1.000000e-01/1.000000e-01/1.000000e-01

 Standard Electronic Orientation quadrupole field applied
 Nucleus-field energy     =     0.0000000071 hartrees
 Guess from superposition of atomic densities
 Warning:  Energy on first SCF cycle will be non-variational

 ==================================================
    GEN_SCFMAN: A general SCF calculation manager  
                                                   
    Authors:                                       
        -- Eric Jon Sundstrom 2008-2014            
        -- Paul Horn 2010-2015                     
        -- Yuezhi Mao 2012-                        
        -- Dmitri Zuev 2014                        
        -- Alec White 2015-                        
        -- David Stuck 2015                        
        -- Shaama M.S. 2015                        
        -- Shane Yost 2015-                         
        -- Joonho Lee 2016-                        
        -- David Small 2016-                       
        -- Daniel Levine 2016-                     
 ==================================================
 Exchange:     0.2000 Hartree-Fock + 0.0800 Slater + 0.7200 B88
 Correlation:  0.1900 VWN1RPA + 0.8100 LYP
 Using SG-1 standard quadrature grid
 A restricted SCF calculation will be
 performed using DIIS
 ---------------------------------------
  Cycle       Energy         DIIS error
 ---------------------------------------
 -------------------------------------------------------
 OpenMP Integral computing Module                
 -------------------------------------------------------
    1    -342.7262736950      5.84e-02  
    2    -341.1295952112      8.13e-03  
    3    -340.6665224443      1.73e-02  
    4    -341.2439588120      3.04e-03  
    5    -341.2616172017      9.81e-04  
    6    -341.2632582802      2.31e-04  
    7    -341.2633719837      6.84e-05  
    8    -341.2633808068      1.82e-05  
    9    -341.2633815384      3.78e-06  
   10    -341.2633815681      8.37e-07  
   11    -341.2633815682      8.28e-07  
   12    -341.2633815697      3.88e-08  
   13    -341.2633815697      1.64e-08  
   14    -341.2633815697      3.80e-09  Convergence criterion met
 ---------------------------------------
 SCF time:   CPU 3.18s  wall 3.00s 
Wall 1 = 3
Clock 1 = 3.18
 ==================================================
                  Done GEN_SCFMAN                  
 ==================================================

 
 --------------------------------------------------------------
 
                    Orbital Energies (a.u.)
 --------------------------------------------------------------
 
 Alpha MOs
 -- Occupied --
-19.233 -19.233 -19.128 -10.375 -10.269 -10.268  -1.233  -1.117
 -1.047  -0.812  -0.707  -0.678  -0.578  -0.552  -0.518  -0.459
 -0.451  -0.437  -0.432  -0.380  -0.314  -0.268
 -- Virtual --
 -0.020  -0.015  -0.005   0.007   0.008   0.041   0.052   0.065
  0.074   0.088   0.094   0.100   0.108   0.112   0.129   0.140
  0.146   0.176   0.199   0.216   0.235   0.236   0.255   0.256
  0.273   0.276   0.277   0.302   0.303   0.314   0.320   0.361
  0.362   0.398   0.448   0.450   0.491   0.512   0.537   0.545
  0.558   0.652   0.693   0.735   0.749   0.766   0.787   0.791
  0.906   0.907   0.953   1.022   1.026   1.109   1.115   1.132
  1.136   1.164   1.175   1.183   1.235   1.235   1.262   1.316
  1.400   1.450   1.542   1.637   1.671   1.680   1.696   1.714
  1.716   1.721   1.811   1.850   1.893   2.022   2.091   2.109
  2.363   2.476   2.500   2.606   2.652   2.674   2.689   2.740
  2.809   2.857   2.898   2.971   3.050   3.073   3.078   3.092
  3.147   3.211   3.334   3.364   3.374   3.513   3.597   3.598
  3.914   3.936   4.031   4.056   4.140   4.903   4.919   5.018
  5.112   5.226   5.435   5.484   5.822   5.945  23.669  23.725
 24.239  49.781  49.886  49.984
 --------------------------------------------------------------
 
          Ground-State Mulliken Net Atomic Charges

     Atom                 Charge (a.u.)
  ----------------------------------------
      1 O                    -0.064626
      2 C                     0.242421
      3 C                    -0.069524
      4 O                    -0.348749
      5 O                    -0.065788
      6 C                    -0.067832
      7 H                     0.187056
      8 H                     0.187042
  ----------------------------------------
  Sum of atomic charges =    -0.000000

 -----------------------------------------------------------------
                    Cartesian Multipole Moments
 -----------------------------------------------------------------
    Charge (ESU x 10^10)
                -0.0000
    Dipole Moment (Debye)
         X      -4.6626      Y       2.0560      Z       0.0202
       Tot       5.0958
    Quadrupole Moments (Debye-Ang)
        XX     -38.6549     XY       5.7473     YY     -36.7138
        XZ       0.0309     YZ      -0.0276     ZZ     -33.4269
    Octopole Moments (Debye-Ang^2)
       XXX     -63.2333    XXY      37.1987    XYY     -25.9042
       YYY      97.5778    XXZ       0.2400    XYZ      -0.0689
       YYZ       0.1906    XZZ      -9.2634    YZZ      26.7315
       ZZZ       0.2990
    Hexadecapole Moments (Debye-Ang^3)
      XXXX    -356.7723   XXXY     105.0517   XXYY    -123.2190
      XYYY      82.1564   YYYY    -343.0505   XXXZ       0.8009
      XXYZ      -0.3603   XYYZ       0.3114   YYYZ      -0.6551
      XXZZ     -60.6478   XYZZ      19.2862   YYZZ     -57.7233
      XZZZ       0.6147   YZZZ      -0.5076   ZZZZ     -32.4401
 -----------------------------------------------------------------
[HyperChem begin]
;Total dipole moment in Debye
[dipole-moment]
      5.095775861272
;Dipole moment components in Debye
[dipole-moment-components]
     -4.662553062651      2.055996664441      0.020205991604
[HyperChem end]
[HyperChem begin]
[HyperChem end]
[HyperChem begin]
[HyperChem end]
[HyperChem begin]
[HyperChem end]
 Calculating analytic gradient of the SCF energy
 Gradient of SCF Energy
            1           2           3           4           5           6
    1  -0.0284462  -0.0848929   0.0359472   0.0625965  -0.0201877   0.0397939
    2   0.0008453   0.0376628  -0.0218265  -0.0274207   0.0203246  -0.0117756
    3   0.0000074   0.0005274  -0.0000820  -0.0003243   0.0000556  -0.0002040
            7           8
    1   0.0005774  -0.0053882
    2   0.0080334  -0.0058432
    3  -0.0000037   0.0000236
 Max gradient component =       8.489E-02
 RMS gradient           =       2.780E-02
[HyperChem begin]
[HyperChem end]
 Gradient time:  CPU 0.83 s  wall 0.99 s
 Geometry Optimization Parameters
   NAtoms,    NIC,     NZ,  NCons,   NDum,   NFix, NCnnct, MaxDiis
        8      47       0       0       0       0       0       0

 Cartesian Hessian read from HESS file


** GEOMETRY OPTIMIZATION IN DELOCALIZED INTERNAL COORDINATES **
   Searching for a Minimum

   Optimization Cycle:   1

                       Coordinates (Angstroms)
     ATOM                X               Y               Z
      1  O         0.8010000000    0.1690000000   -0.0030000000
      2  C         1.0790000000   -1.1530000000   -0.0060000000
      3  C        -0.5330000000    0.2830000000    0.0020000000
      4  O         2.2120000000   -1.6520000000   -0.0110000000
      5  O        -0.0850000000   -1.8400000000   -0.0040000000
      6  C        -1.0690000000   -0.9320000000    0.0010000000
      7  H        -0.9340000000    1.2920000000    0.0050000000
      8  H        -2.0840000000   -1.3170000000    0.0040000000
   Point Group: c1    Number of degrees of freedom:    18


   Energy is   -341.263381570


 Attempting to Generate Delocalized Internal Coordinates

 Transforming Cartesian Hessian to Internal Coordinates
 Hessian Transformation does not Include Derivative of B-matrix

 18 Hessian modes will be used to form the next step
  Hessian Eigenvalues:
     0.012431    0.021078    0.025292    0.043132    0.103697    0.110418
     0.114622    0.190093    0.268208    0.285231    0.323758    0.357159
     0.359603    0.376351    0.450723    0.522870    0.583577    0.677164

 Minimum Search - Taking Simple RFO Step
 Searching for Lamda that Minimizes Along All modes
 Value Taken    Lamda =  -0.01514310
 Step Taken.  Stepsize is  0.169917

                             Maximum     Tolerance    Cnvgd?
         Gradient           0.069766      0.000300      NO
         Displacement       0.130114      0.001200      NO
         Energy change     *********      0.000001      NO


 New Cartesian Coordinates Obtained by Inverse Iteration

 Displacement from previous Coordinates is:  0.134070
 ----------------------------------------------------------------
             Standard Nuclear Orientation (Angstroms)
    I     Atom           X                Y                Z
 ----------------------------------------------------------------
    1      O       0.8234560947     0.1682896491    -0.0028403105
    2      C       1.1188740063    -1.1706428262    -0.0063918788
    3      C      -0.5473702330     0.2898495564     0.0019264637
    4      O       2.1957172623    -1.6453664464    -0.0109603681
    5      O      -0.0688161536    -1.8559001518    -0.0039309093
    6      C      -1.0832461827    -0.9260114991     0.0011399027
    7      H      -0.9581687482     1.2831346072     0.0050417637
    8      H      -2.0934460459    -1.2933528893     0.0040153366
 ----------------------------------------------------------------
 Nuclear Repulsion Energy =   229.9453882703 hartrees
 There are       22 alpha and       22 beta electrons
[HyperChem begin]
;Nuclear Cartesian coordinates in Angstroms
[coordinates]
      0.823456094721      0.168289649118     -0.002840310516
      1.118874006346     -1.170642826185     -0.006391878830
     -0.547370233046      0.289849556432      0.001926463682
      2.195717262345     -1.645366446396     -0.010960368123
     -0.068816153626     -1.855900151751     -0.003930909346
     -1.083246182677     -0.926011499096      0.001139902738
     -0.958168748173      1.283134607166      0.005041763749
     -2.093446045890     -1.293352889290      0.004015336646
[HyperChem end]
 Applying Cartesian multipole field
    Component          Value
    ---------          -----
     (2,0,0)        1.00000E-11
     (0,2,0)        2.00000E-11
     (0,0,2)       -3.00000E-11
 Nucleus-field energy     =     0.0000000071 hartrees
 Requested basis set is 6-311++G(d,p)
[HyperChem begin]
[basis]
;
1:
;
Shells = 6
Shell1 =[ S   6   1.00 ]
   1    8.588500E+03    1.895150E-03
   2    1.297230E+03    1.438590E-02
   3    2.992960E+02    7.073200E-02
   4    8.737710E+01    2.400010E-01
   5    2.567890E+01    5.947970E-01
   6    3.740040E+00    2.808020E-01
Shell2 =[ SP  3   1.00 ]
   1    4.211750E+01    1.138890E-01    3.651140E-02
   2    9.628370E+00    9.208110E-01    2.371530E-01
   3    2.853320E+00   -3.274470E-03    8.197020E-01
Shell3 =[ SP  1   1.00 ]
   1    9.056610E-01    1.000000E+00    1.000000E+00
Shell4 =[ SP  1   1.00 ]
   1    2.556110E-01    1.000000E+00    1.000000E+00
Shell5 =[ SP  1   1.00 ]
   1    8.450000E-02    1.000000E+00    1.000000E+00
Shell6 =[ D   1   1.00 ]
   1    1.292000E+00    1.000000E+00
;
2:
;
Shells = 6
Shell1 =[ S   6   1.00 ]
   1    4.563240E+03    1.966650E-03
   2    6.820240E+02    1.523060E-02
   3    1.549730E+02    7.612690E-02
   4    4.445530E+01    2.608010E-01
   5    1.302900E+01    6.164620E-01
   6    1.827730E+00    2.210060E-01
Shell2 =[ SP  3   1.00 ]
   1    2.096420E+01    1.146600E-01    4.024870E-02
   2    4.803310E+00    9.199990E-01    2.375940E-01
   3    1.459330E+00   -3.030680E-03    8.158540E-01
Shell3 =[ SP  1   1.00 ]
   1    4.834560E-01    1.000000E+00    1.000000E+00
Shell4 =[ SP  1   1.00 ]
   1    1.455850E-01    1.000000E+00    1.000000E+00
Shell5 =[ SP  1   1.00 ]
   1    4.380000E-02    1.000000E+00    1.000000E+00
Shell6 =[ D   1   1.00 ]
   1    6.260000E-01    1.000000E+00
;
3:
;
Shells = 6
Shell1 =[ S   6   1.00 ]
   1    4.563240E+03    1.966650E-03
   2    6.820240E+02    1.523060E-02
   3    1.549730E+02    7.612690E-02
   4    4.445530E+01    2.608010E-01
   5    1.302900E+01    6.164620E-01
   6    1.827730E+00    2.210060E-01
Shell2 =[ SP  3   1.00 ]
   1    2.096420E+01    1.146600E-01    4.024870E-02
   2    4.803310E+00    9.199990E-01    2.375940E-01
   3    1.459330E+00   -3.030680E-03    8.158540E-01
Shell3 =[ SP  1   1.00 ]
   1    4.834560E-01    1.000000E+00    1.000000E+00
Shell4 =[ SP  1   1.00 ]
   1    1.455850E-01    1.000000E+00    1.000000E+00
Shell5 =[ SP  1   1.00 ]
   1    4.380000E-02    1.000000E+00    1.000000E+00
Shell6 =[ D   1   1.00 ]
   1    6.260000E-01    1.000000E+00
;
4:
;
Shells = 6
Shell1 =[ S   6   1.00 ]
   1    8.588500E+03    1.895150E-03
   2    1.297230E+03    1.438590E-02
   3    2.992960E+02    7.073200E-02
   4    8.737710E+01    2.400010E-01
   5    2.567890E+01    5.947970E-01
   6    3.740040E+00    2.808020E-01
Shell2 =[ SP  3   1.00 ]
   1    4.211750E+01    1.138890E-01    3.651140E-02
   2    9.628370E+00    9.208110E-01    2.371530E-01
   3    2.853320E+00   -3.274470E-03    8.197020E-01
Shell3 =[ SP  1   1.00 ]
   1    9.056610E-01    1.000000E+00    1.000000E+00
Shell4 =[ SP  1   1.00 ]
   1    2.556110E-01    1.000000E+00    1.000000E+00
Shell5 =[ SP  1   1.00 ]
   1    8.450000E-02    1.000000E+00    1.000000E+00
Shell6 =[ D   1   1.00 ]
   1    1.292000E+00    1.000000E+00
;
5:
;
Shells = 6
Shell1 =[ S   6   1.00 ]
   1    8.588500E+03    1.895150E-03
   2    1.297230E+03    1.438590E-02
   3    2.992960E+02    7.073200E-02
   4    8.737710E+01    2.400010E-01
   5    2.567890E+01    5.947970E-01
   6    3.740040E+00    2.808020E-01
Shell2 =[ SP  3   1.00 ]
   1    4.211750E+01    1.138890E-01    3.651140E-02
   2    9.628370E+00    9.208110E-01    2.371530E-01
   3    2.853320E+00   -3.274470E-03    8.197020E-01
Shell3 =[ SP  1   1.00 ]
   1    9.056610E-01    1.000000E+00    1.000000E+00
Shell4 =[ SP  1   1.00 ]
   1    2.556110E-01    1.000000E+00    1.000000E+00
Shell5 =[ SP  1   1.00 ]
   1    8.450000E-02    1.000000E+00    1.000000E+00
Shell6 =[ D   1   1.00 ]
   1    1.292000E+00    1.000000E+00
;
6:
;
Shells = 6
Shell1 =[ S   6   1.00 ]
   1    4.563240E+03    1.966650E-03
   2    6.820240E+02    1.523060E-02
   3    1.549730E+02    7.612690E-02
   4    4.445530E+01    2.608010E-01
   5    1.302900E+01    6.164620E-01
   6    1.827730E+00    2.210060E-01
Shell2 =[ SP  3   1.00 ]
   1    2.096420E+01    1.146600E-01    4.024870E-02
   2    4.803310E+00    9.199990E-01    2.375940E-01
   3    1.459330E+00   -3.030680E-03    8.158540E-01
Shell3 =[ SP  1   1.00 ]
   1    4.834560E-01    1.000000E+00    1.000000E+00
Shell4 =[ SP  1   1.00 ]
   1    1.455850E-01    1.000000E+00    1.000000E+00
Shell5 =[ SP  1   1.00 ]
   1    4.380000E-02    1.000000E+00    1.000000E+00
Shell6 =[ D   1   1.00 ]
   1    6.260000E-01    1.000000E+00
;
7:
;
Shells = 5
Shell1 =[ S   3   1.00 ]
   1    3.386500E+01    2.549380E-02
   2    5.094790E+00    1.903730E-01
   3    1.158790E+00    8.521610E-01
Shell2 =[ S   1   1.00 ]
   1    3.258400E-01    1.000000E+00
Shell3 =[ S   1   1.00 ]
   1    1.027410E-01    1.000000E+00
Shell4 =[ S   1   1.00 ]
   1    3.600000E-02    1.000000E+00
Shell5 =[ P   1   1.00 ]
   1    7.500000E-01    1.000000E+00
;
8:
;
Shells = 5
Shell1 =[ S   3   1.00 ]
   1    3.386500E+01    2.549380E-02
   2    5.094790E+00    1.903730E-01
   3    1.158790E+00    8.521610E-01
Shell2 =[ S   1   1.00 ]
   1    3.258400E-01    1.000000E+00
Shell3 =[ S   1   1.00 ]
   1    1.027410E-01    1.000000E+00
Shell4 =[ S   1   1.00 ]
   1    3.600000E-02    1.000000E+00
Shell5 =[ P   1   1.00 ]
   1    7.500000E-01    1.000000E+00
[HyperChem end]
 There are 46 shells and 146 basis functions
 A cutoff of  1.0D-11 yielded   1036 shell pairs
 There are     10682 function pairs (     11591 Cartesian)
 Smallest overlap matrix eigenvalue = 3.47E-05
 Guess MOs from SCF MO coefficient file
 Reading MOs from coefficient file
 Reading MOs from coefficient file

 ==================================================
    GEN_SCFMAN: A general SCF calculation manager  
                                                   
    Authors:                                       
        -- Eric Jon Sundstrom 2008-2014            
        -- Paul Horn 2010-2015                     
        -- Yuezhi Mao 2012-                        
        -- Dmitri Zuev 2014                        
        -- Alec White 2015-                        
        -- David Stuck 2015                        
        -- Shaama M.S. 2015                        
        -- Shane Yost 2015-                         
        -- Joonho Lee 2016-                        
        -- David Small 2016-                       
        -- Daniel Levine 2016-                     
 ==================================================
 Exchange:     0.2000 Hartree-Fock + 0.0800 Slater + 0.7200 B88
 Correlation:  0.1900 VWN1RPA + 0.8100 LYP
 Using SG-1 standard quadrature grid
 A restricted SCF calculation will be
 performed using DIIS
 Inaccurate integrated density:
   Number of electrons =    44
   Numerical integral  =    44.037300011875
   Relative error      =     0.0847727543 %
 ---------------------------------------
  Cycle       Energy         DIIS error
 ---------------------------------------
 -------------------------------------------------------
 OpenMP Integral computing Module                
 -------------------------------------------------------
    1    -341.2648758766      3.80e-03  
    2    -341.2653300489      1.59e-03  
    3    -341.2587291456      2.52e-03  
    4    -341.2705798052      2.71e-04  
    5    -341.2706886372      1.27e-04  
    6    -341.2707191110      1.89e-05  
    7    -341.2707196221      7.93e-06  
    8    -341.2707197619      1.07e-06  
    9    -341.2707197649      2.23e-07  
   10    -341.2707197650      3.77e-08  
   11    -341.2707197650      5.74e-09  Convergence criterion met
 ---------------------------------------
 SCF time:   CPU 2.49s  wall 2.00s 
Wall 1 = 2
Clock 1 = 2.49
 ==================================================
                  Done GEN_SCFMAN                  
 ==================================================

 
 --------------------------------------------------------------
 
                    Orbital Energies (a.u.)
 --------------------------------------------------------------
 
 Alpha MOs
 -- Occupied --
-19.222 -19.222 -19.135 -10.369 -10.267 -10.266  -1.208  -1.092
 -1.082  -0.807  -0.692  -0.661  -0.570  -0.539  -0.519  -0.473
 -0.447  -0.421  -0.415  -0.396  -0.330  -0.270
 -- Virtual --
 -0.021  -0.014   0.005   0.008   0.010   0.043   0.055   0.065
  0.073   0.087   0.096   0.101   0.108   0.112   0.125   0.132
  0.148   0.175   0.198   0.209   0.237   0.237   0.256   0.258
  0.272   0.274   0.279   0.299   0.299   0.318   0.321   0.359
  0.366   0.384   0.441   0.463   0.514   0.515   0.534   0.550
  0.561   0.653   0.708   0.734   0.755   0.768   0.789   0.790
  0.906   0.910   0.959   1.026   1.031   1.106   1.113   1.136
  1.148   1.158   1.171   1.177   1.235   1.238   1.295   1.335
  1.402   1.466   1.525   1.643   1.669   1.683   1.701   1.705
  1.716   1.722   1.817   1.854   1.916   2.019   2.092   2.117
  2.371   2.491   2.504   2.610   2.646   2.678   2.693   2.727
  2.790   2.847   2.868   2.925   3.021   3.027   3.080   3.083
  3.135   3.184   3.369   3.378   3.392   3.493   3.610   3.682
  3.896   3.947   4.020   4.027   4.144   4.915   4.927   5.018
  5.119   5.236   5.412   5.457   5.823   5.918  23.649  23.802
 24.236  49.784  49.882  50.024
 --------------------------------------------------------------
 
          Ground-State Mulliken Net Atomic Charges

     Atom                 Charge (a.u.)
  ----------------------------------------
      1 O                    -0.114359
      2 C                     0.288554
      3 C                    -0.057787
      4 O                    -0.318247
      5 O                    -0.114919
      6 C                    -0.056450
      7 H                     0.186605
      8 H                     0.186603
  ----------------------------------------
  Sum of atomic charges =    -0.000000

 -----------------------------------------------------------------
                    Cartesian Multipole Moments
 -----------------------------------------------------------------
    Charge (ESU x 10^10)
                -0.0000
    Dipole Moment (Debye)
         X      -4.2907      Y       1.8915      Z       0.0181
       Tot       4.6891
    Quadrupole Moments (Debye-Ang)
        XX     -37.2966     XY       4.6763     YY     -36.6267
        XZ       0.0240     YZ      -0.0234     ZZ     -33.4095
    Octopole Moments (Debye-Ang^2)
       XXX     -60.6303    XXY      35.1836    XYY     -24.1031
       YYY      97.3483    XXZ       0.2293    XYZ      -0.0599
       YYZ       0.1844    XZZ      -8.9193    YZZ      26.5668
       ZZZ       0.2940
    Hexadecapole Moments (Debye-Ang^3)
      XXXX    -349.6932   XXXY     100.4681   XXYY    -120.1792
      XYYY      77.9180   YYYY    -344.2311   XXXZ       0.7804
      XXYZ      -0.3460   XYYZ       0.2965   YYYZ      -0.6425
      XXZZ     -59.9976   XYZZ      18.5869   YYZZ     -57.7344
      XZZZ       0.6059   YZZZ      -0.5004   ZZZZ     -32.3138
 -----------------------------------------------------------------
[HyperChem begin]
;Total dipole moment in Debye
[dipole-moment]
      4.689120261591
;Dipole moment components in Debye
[dipole-moment-components]
     -4.290658608668      1.891499761820      0.018060524949
[HyperChem end]
[HyperChem begin]
[HyperChem end]
[HyperChem begin]
[HyperChem end]
[HyperChem begin]
[HyperChem end]
 Calculating analytic gradient of the SCF energy
 Gradient of SCF Energy
            1           2           3           4           5           6
    1  -0.0036404   0.0118891   0.0043243  -0.0152422  -0.0018703   0.0039381
    2  -0.0008400  -0.0051317  -0.0014354   0.0066904   0.0032190  -0.0022199
    3  -0.0000066  -0.0000181   0.0000121   0.0000512   0.0000009  -0.0000412
            7           8
    1   0.0003998   0.0002015
    2   0.0000952  -0.0003776
    3  -0.0000090   0.0000107
 Max gradient component =       1.524E-02
 RMS gradient           =       4.628E-03
[HyperChem begin]
[HyperChem end]
 Gradient time:  CPU 0.80 s  wall 0.78 s
 Geometry Optimization Parameters
   NAtoms,    NIC,     NZ,  NCons,   NDum,   NFix, NCnnct, MaxDiis
        8      47       0       0       0       0       0       0

 Cartesian Hessian Update
 Hessian Updated using BFGS Update


** GEOMETRY OPTIMIZATION IN DELOCALIZED INTERNAL COORDINATES **
   Searching for a Minimum

   Optimization Cycle:   2

                       Coordinates (Angstroms)
     ATOM                X               Y               Z
      1  O         0.8234560947    0.1682896491   -0.0028403105
      2  C         1.1188740063   -1.1706428262   -0.0063918788
      3  C        -0.5473702330    0.2898495564    0.0019264637
      4  O         2.1957172623   -1.6453664464   -0.0109603681
      5  O        -0.0688161536   -1.8559001518   -0.0039309093
      6  C        -1.0832461827   -0.9260114991    0.0011399027
      7  H        -0.9581687482    1.2831346072    0.0050417637
      8  H        -2.0934460459   -1.2933528893    0.0040153366
   Point Group: c1    Number of degrees of freedom:    18


   Energy is   -341.270719765

 Hessian Updated using BFGS Update

 18 Hessian modes will be used to form the next step
  Hessian Eigenvalues:
     0.012431    0.021078    0.025292    0.043132    0.103697    0.110418
     0.114633    0.190093    0.268207    0.285388    0.328793    0.357163
     0.359261    0.376354    0.450721    0.475432    0.583847    0.805118

 Minimum Search - Taking Simple RFO Step
 Searching for Lamda that Minimizes Along All modes
 Value Taken    Lamda =  -0.00047166
 Step Taken.  Stepsize is  0.026976

                             Maximum     Tolerance    Cnvgd?
         Gradient           0.011542      0.000300      NO
         Displacement       0.016925      0.001200      NO
         Energy change     -0.007338      0.000001      NO


 New Cartesian Coordinates Obtained by Inverse Iteration

 Displacement from previous Coordinates is:  0.030336
 ----------------------------------------------------------------
             Standard Nuclear Orientation (Angstroms)
    I     Atom           X                Y                Z
 ----------------------------------------------------------------
    1      O       0.8255478563     0.1684404711    -0.0028212644
    2      C       1.1201733758    -1.1713175140    -0.0064492753
    3      C      -0.5511332867     0.2914731161     0.0018479405
    4      O       2.2073840627    -1.6504544752    -0.0110557524
    5      O      -0.0674938013    -1.8575642503    -0.0038013471
    6      C      -1.0869500974    -0.9243221679     0.0012526277
    7      H      -0.9631749000     1.2838857579     0.0051152561
    8      H      -2.0973532093    -1.2901409377     0.0039118149
 ----------------------------------------------------------------
 Nuclear Repulsion Energy =   229.2412805830 hartrees
 There are       22 alpha and       22 beta electrons
[HyperChem begin]
;Nuclear Cartesian coordinates in Angstroms
[coordinates]
      0.825547856342      0.168440471136     -0.002821264406
      1.120173375752     -1.171317513998     -0.006449275310
     -0.551133286741      0.291473116093      0.001847940516
      2.207384062650     -1.650454475246     -0.011055752364
     -0.067493801258     -1.857564250260     -0.003801347127
     -1.086950097446     -0.924322167937      0.001252627678
     -0.963174899980      1.283885757868      0.005115256098
     -2.097353209321     -1.290140937655      0.003911814916
[HyperChem end]
[...]

 Derivative of Dipole Moment Matrix (a.u.)
            1           2           3
    1  -1.0737369  -0.0977860   0.0027727
    2   0.7356705  -1.0166997  -0.0040508
    3   0.0044584  -0.0014171  -0.1603920
    4   2.9783831  -0.7257145  -0.0095569
    5  -0.7259123   1.6524395   0.0045355
    6  -0.0095697   0.0046322   0.5463518
    7   0.8097715   0.1386682  -0.0027219
    8   0.0528502   0.0711366   0.0001643
    9  -0.0028911  -0.0000875  -0.1029571
   10  -1.8506997   0.5734561   0.0056295
   11   0.5740237  -0.8021516  -0.0025062
   12   0.0056538  -0.0025090  -0.4925547
   13  -1.3604793   0.4743018   0.0048712
   14  -0.3592805  -0.7294794   0.0000947
   15   0.0033640  -0.0026487  -0.1582232
   16   0.3108882  -0.4018408  -0.0020405
   17  -0.3153080   0.5686176   0.0023087
   18  -0.0020419   0.0025499  -0.1031505
   19   0.0895468   0.0065585   0.0004963
   20   0.0263367   0.1320106  -0.0002926
   21   0.0005272  -0.0002277   0.2352862
   22   0.0962118   0.0323361   0.0005236
   23   0.0116287   0.1242207  -0.0002412
   24   0.0005032  -0.0002909   0.2355823
 -----------------------------------------
 Net:  -0.00010   0.00007  -0.00007
 -----------------------------------------

 
 Direct stationary perturbation theory relativistic correction:
 
 rels  =       0.116765925731
 relv  =      -0.518755423810
 rel2e =       0.206189771897
 E_rel =      -0.195799726182
 
 Computing fast CPCM-SWIG hessian.
 Hessian of the SCF Energy
            1           2           3           4           5           6
    1   0.4484552   0.0025287  -0.0012483  -0.1138521   0.0027607   0.0001478
    2   0.0025287   0.4131863   0.0006734  -0.0247628  -0.1772931  -0.0001321
    3  -0.0012483   0.0006734   0.0667190   0.0000961  -0.0002313  -0.0708088
    4  -0.1138521  -0.0247628   0.0000961   0.9744163  -0.2536895  -0.0030538
    5   0.0027607  -0.1772931  -0.0002313  -0.2536895   0.5080680   0.0014756
    6   0.0001478  -0.0001321  -0.0708088  -0.0030538   0.0014756   0.1833474
    7  -0.2235959   0.0104421   0.0005823  -0.0200035   0.0869043   0.0002256
    8  -0.0257276  -0.0989805   0.0000002   0.0342998  -0.0307686  -0.0001804
    9   0.0005207  -0.0001230  -0.0502962   0.0001306  -0.0003372   0.0070173
   10  -0.0141252   0.0543140   0.0002111  -0.6122411   0.2385293   0.0022833
   11   0.0678224  -0.0474998  -0.0003531   0.2384357  -0.1744289  -0.0010271
   12   0.0002335  -0.0003061   0.0166453   0.0022832  -0.0010294  -0.0565835
   13   0.0042919  -0.0714810  -0.0001098  -0.1376405  -0.0465028   0.0001251
   14  -0.0054578  -0.0666074  -0.0001329  -0.0186391  -0.1535820  -0.0000976
   15   0.0000156   0.0000797   0.0125229   0.0001665  -0.0000025  -0.0699774
   16  -0.0903966  -0.0029618   0.0003519  -0.0862598  -0.0262787   0.0002507
   17  -0.0358976  -0.0270151   0.0000313   0.0260233   0.0355581  -0.0000255
   18   0.0002821  -0.0000778   0.0172550   0.0003677   0.0001323   0.0071547
   19  -0.0145220   0.0330676   0.0001027  -0.0063813  -0.0072555   0.0000069
   20  -0.0019202   0.0063472   0.0000215  -0.0020967   0.0004095   0.0000074
   21   0.0000379  -0.0000938  -0.0019496   0.0000168   0.0000246  -0.0000707
   22   0.0037413  -0.0011390   0.0000172   0.0019609   0.0055298   0.0000037
   23  -0.0040976  -0.0021397  -0.0000099   0.0004325  -0.0079460  -0.0000160
   24   0.0000129  -0.0000194   0.0099167  -0.0000060  -0.0000326  -0.0000757
            7           8           9          10          11          12
    1  -0.2235959  -0.0257276   0.0005207  -0.0141252   0.0678224   0.0002335
    2   0.0104421  -0.0989805  -0.0001230   0.0543140  -0.0474998  -0.0003061
    3   0.0005823   0.0000002  -0.0502962   0.0002111  -0.0003531   0.0166453
    4  -0.0200035   0.0342998   0.0001306  -0.6122411   0.2384357   0.0022832
    5   0.0869043  -0.0307686  -0.0003372   0.2385293  -0.1744289  -0.0010294
    6   0.0002256  -0.0001804   0.0070173   0.0022833  -0.0010271  -0.0565835
    7   0.5346995  -0.0030493  -0.0013064  -0.0030387  -0.0096252   0.0000030
    8  -0.0030493   1.0076548   0.0016880   0.0020871  -0.0051034  -0.0000240
    9  -0.0013064   0.0016880   0.1298944   0.0000208   0.0000173   0.0021066
   10  -0.0030387   0.0020871   0.0000208   0.7256911  -0.2857925  -0.0028871
   11  -0.0096252  -0.0051034   0.0000173  -0.2857925   0.2014512   0.0013165
   12   0.0000030  -0.0000240   0.0021066  -0.0028871   0.0013165   0.0174553
   13  -0.0365561   0.0460825   0.0002633  -0.0931519  -0.0178779   0.0003331
   14   0.0130553  -0.0809643  -0.0002325  -0.0044499   0.0313968   0.0000434
   15   0.0002051  -0.0003387   0.0172740   0.0003625   0.0000853   0.0165900
   16  -0.1532352  -0.1530029  -0.0000377  -0.0004327   0.0045084   0.0000221
   17  -0.1846518  -0.4610650  -0.0001457  -0.0071894  -0.0077451   0.0000045
   18  -0.0000914  -0.0002360  -0.0729774  -0.0000086  -0.0000317   0.0021027
   19  -0.0984665   0.0975899   0.0004002  -0.0010028   0.0032087   0.0000125
   20   0.1063068  -0.3365674  -0.0009393  -0.0000459   0.0006123  -0.0000003
   21   0.0004150  -0.0009100  -0.0340609   0.0000058  -0.0000108   0.0008443
   22   0.0002191   0.0017262   0.0000058  -0.0016964  -0.0006805   0.0000072
   23  -0.0193849   0.0058115   0.0000741   0.0025471   0.0013133  -0.0000077
   24  -0.0000358   0.0000015   0.0010219   0.0000132   0.0000031   0.0008414
           13          14          15          16          17          18
    1   0.0042919  -0.0054578   0.0000156  -0.0903966  -0.0358976   0.0002821
    2  -0.0714810  -0.0666074   0.0000797  -0.0029618  -0.0270151  -0.0000778
    3  -0.0001098  -0.0001329   0.0125229   0.0003519   0.0000313   0.0172550
    4  -0.1376405  -0.0186391   0.0001665  -0.0862598   0.0260233   0.0003677
    5  -0.0465028  -0.1535820  -0.0000025  -0.0262787   0.0355581   0.0001323
    6   0.0001251  -0.0000976  -0.0699774   0.0002507  -0.0000255   0.0071547
    7  -0.0365561   0.0130553   0.0002051  -0.1532352  -0.1846518  -0.0000914
    8   0.0460825  -0.0809643  -0.0003387  -0.1530029  -0.4610650  -0.0002360
    9   0.0002633  -0.0002325   0.0172740  -0.0000377  -0.0001457  -0.0729774
   10  -0.0931519  -0.0044499   0.0003625  -0.0004327  -0.0071894  -0.0000086
   11  -0.0178779   0.0313968   0.0000853   0.0045084  -0.0077451  -0.0000317
   12   0.0003331   0.0000434   0.0165900   0.0000221   0.0000045   0.0021027
   13   0.4259797  -0.0173713  -0.0011967  -0.1474430   0.0796180   0.0004562
   14  -0.0173713   0.4352652   0.0007643   0.0431906  -0.1744287  -0.0003808
   15  -0.0011967   0.0007643   0.0661459   0.0003932  -0.0005007  -0.0505844
   16  -0.1474430   0.0431906   0.0003932   0.7953303   0.2358674  -0.0017310
   17   0.0796180  -0.1744287  -0.0005007   0.2358674   0.7461334   0.0004095
   18   0.0004562  -0.0003808  -0.0505844  -0.0017310   0.0004095   0.1302379
   19   0.0031675  -0.0046262   0.0000128   0.0120133  -0.0085923  -0.0000522
   20  -0.0017148  -0.0015223  -0.0000157   0.0125242  -0.0060142  -0.0000546
   21   0.0000190  -0.0000071   0.0099130  -0.0000105   0.0000143   0.0009920
   22  -0.0186427  -0.0057039   0.0000436  -0.3296009  -0.1051850   0.0007746
   23   0.0292356   0.0104418  -0.0000731  -0.1138371  -0.1054407   0.0002397
   24   0.0001103   0.0000412  -0.0018922   0.0007591   0.0002138  -0.0341548
           19          20          21          22          23          24
    1  -0.0145220  -0.0019202   0.0000379   0.0037413  -0.0040976   0.0000129
    2   0.0330676   0.0063472  -0.0000938  -0.0011390  -0.0021397  -0.0000194
    3   0.0001027   0.0000215  -0.0019496   0.0000172  -0.0000099   0.0099167
    4  -0.0063813  -0.0020967   0.0000168   0.0019609   0.0004325  -0.0000060
    5  -0.0072555   0.0004095   0.0000246   0.0055298  -0.0079460  -0.0000326
    6   0.0000069   0.0000074  -0.0000707   0.0000037  -0.0000160  -0.0000757
    7  -0.0984665   0.1063068   0.0004150   0.0002191  -0.0193849  -0.0000358
    8   0.0975899  -0.3365674  -0.0009100   0.0017262   0.0058115   0.0000015
    9   0.0004002  -0.0009393  -0.0340609   0.0000058   0.0000741   0.0010219
   10  -0.0010028  -0.0000459   0.0000058  -0.0016964   0.0025471   0.0000132
   11   0.0032087   0.0006123  -0.0000108  -0.0006805   0.0013133   0.0000031
   12   0.0000125  -0.0000003   0.0008443   0.0000072  -0.0000077   0.0008414
   13   0.0031675  -0.0017148   0.0000190  -0.0186427   0.0292356   0.0001103
   14  -0.0046262  -0.0015223  -0.0000071  -0.0057039   0.0104418   0.0000412
   15   0.0000128  -0.0000157   0.0099130   0.0000436  -0.0000731  -0.0018922
   16   0.0120133   0.0125242  -0.0000105  -0.3296009  -0.1138371   0.0007591
   17  -0.0085923  -0.0060142   0.0000143  -0.1051850  -0.1054407   0.0002138
   18  -0.0000522  -0.0000546   0.0009920   0.0007746   0.0002397  -0.0341548
   19   0.1054805  -0.1135059  -0.0004756  -0.0002901   0.0001102  -0.0000073
   20  -0.1135059   0.3365140   0.0009774   0.0004494   0.0002194   0.0000035
   21  -0.0004756   0.0009774   0.0269227  -0.0000068   0.0000051  -0.0025941
   22  -0.0002901   0.0004494  -0.0000068   0.3443092   0.1049968  -0.0008451
   23   0.0001102   0.0002194   0.0000051   0.1049968   0.0977316  -0.0002121
   24  -0.0000073   0.0000035  -0.0025941  -0.0008451  -0.0002121   0.0269333
 Gradient time:  CPU 65.42 s  wall 65.60 s
 **********************************************************************
 **                                                                  **
 **                       VIBRATIONAL ANALYSIS                       **
 **                       --------------------                       **
 **                                                                  **
 **        VIBRATIONAL FREQUENCIES (CM**-1) AND NORMAL MODES         **
 **     FORCE CONSTANTS (mDYN/ANGSTROM) AND REDUCED MASSES (AMU)     **
 **                  INFRARED INTENSITIES (KM/MOL)                   **
 **                                                                  **
 **********************************************************************
 

 Mode:                 1                      2                      3
 Frequency:       250.90                 525.54                 571.66
 Force Cnst:      0.2551                 1.4552                 0.7891
 Red. Mass:       6.8776                 8.9425                 4.0982
 IR Active:          YES                    YES                    YES
 IR Intens:        0.755                  0.036                  0.002
 Raman Active:       YES                    YES                    YES
               X      Y      Z        X      Y      Z        X      Y      Z
 O         -0.001  0.001 -0.315    0.036 -0.294 -0.001   -0.001  0.000 -0.187
 C         -0.000  0.000 -0.132   -0.100 -0.227 -0.000    0.000 -0.000 -0.001
 C          0.001 -0.000  0.221    0.196  0.027 -0.001    0.001 -0.001  0.305
 O          0.001 -0.001  0.330    0.202  0.459  0.000    0.000  0.000  0.000
 O         -0.001  0.001 -0.315   -0.242 -0.171  0.000    0.001 -0.000  0.187
 C          0.001 -0.000  0.221   -0.113  0.163  0.001   -0.001  0.001 -0.304
 H          0.002 -0.001  0.536    0.447  0.130 -0.001    0.002 -0.001  0.605
 H          0.002 -0.001  0.538   -0.205  0.417  0.002   -0.002  0.001 -0.615
 TransDip   0.000 -0.000  0.028   -0.002 -0.006  0.000    0.000 -0.000 -0.001

 Mode:                 4                      5                      6
 Frequency:       720.44                 747.04                 781.86
 Force Cnst:      0.4504                 3.9930                 1.6139
 Red. Mass:       1.4728                12.1440                 4.4809
 IR Active:          YES                    YES                    YES
 IR Intens:      136.764                 10.637                  0.822
 Raman Active:       YES                    YES                    YES
               X      Y      Z        X      Y      Z        X      Y      Z
 O         -0.000  0.000 -0.017   -0.244 -0.221  0.000   -0.001  0.000 -0.150
 C          0.000 -0.000  0.156    0.327 -0.145 -0.001    0.002 -0.001  0.465
 C         -0.000  0.000 -0.085   -0.315  0.125  0.001    0.000 -0.000  0.098
 O         -0.000  0.000 -0.041    0.471 -0.208 -0.002   -0.000  0.000 -0.121
 O         -0.000 -0.000 -0.017    0.001  0.328  0.001   -0.000  0.000 -0.149
 C         -0.000  0.000 -0.087   -0.305  0.150  0.001    0.000 -0.000  0.097
 H          0.002 -0.001  0.694    0.044  0.282  0.002   -0.002  0.001 -0.595
 H          0.002 -0.001  0.691   -0.178 -0.220  0.002   -0.002  0.001 -0.592
 TransDip   0.001 -0.001  0.375   -0.095  0.043  0.001   -0.000 -0.000  0.029

 Mode:                 7                      8                      9
 Frequency:       838.27                 900.16                 911.19
 Force Cnst:      0.5464                 4.2227                 3.0047
 Red. Mass:       1.3197                 8.8450                 6.1424
 IR Active:          YES                    YES                    YES
 IR Intens:        0.000                  0.168                 45.197
 Raman Active:       YES                    YES                    YES
               X      Y      Z        X      Y      Z        X      Y      Z
 O          0.000  0.000  0.003   -0.333 -0.003  0.001    0.073  0.355  0.000
 C         -0.000  0.000 -0.000   -0.123 -0.273 -0.000    0.152 -0.071 -0.001
 C          0.000 -0.000  0.119   -0.073  0.393  0.001   -0.085  0.039  0.000
 O         -0.000 -0.000  0.000   -0.017 -0.030  0.000    0.197 -0.087 -0.001
 O          0.000 -0.000 -0.002    0.228 -0.241 -0.001   -0.209 -0.298  0.000
 C         -0.000  0.000 -0.119    0.342  0.210 -0.001   -0.080  0.040  0.000
 H         -0.002  0.001 -0.697   -0.230  0.359  0.002   -0.554 -0.141  0.001
 H          0.002 -0.001  0.697    0.428  0.058 -0.001   -0.260  0.501  0.002
 TransDip   0.000  0.000 -0.000    0.004  0.013  0.000    0.197 -0.088 -0.001

 Mode:                10                     11                     12
 Frequency:      1030.78                1090.78                1098.42
 Force Cnst:      5.9887                 1.7882                 2.4844
 Red. Mass:       9.5663                 2.5510                 3.4949
 IR Active:          YES                    YES                    YES
 IR Intens:       13.929                215.648                102.368
 Raman Active:       YES                    YES                    YES
               X      Y      Z        X      Y      Z        X      Y      Z
 O          0.168 -0.272 -0.001   -0.123 -0.055  0.000    0.212 -0.006 -0.001
 C          0.140  0.317  0.000    0.107  0.247  0.000   -0.040 -0.001  0.000
 C         -0.374  0.220  0.002    0.049 -0.015 -0.000   -0.180  0.154  0.001
 O          0.005  0.008 -0.000   -0.024 -0.049 -0.000   -0.044  0.023  0.000
 O         -0.317 -0.058  0.001    0.055 -0.142 -0.000    0.140 -0.135 -0.001
 C          0.416 -0.128 -0.002   -0.066  0.028  0.000   -0.227  0.024  0.001
 H         -0.274  0.267  0.002    0.651  0.228 -0.002    0.418  0.425 -0.000
 H          0.386 -0.029 -0.001   -0.271  0.572  0.002    0.003 -0.670 -0.001
 TransDip   0.049  0.109  0.000    0.174  0.437  0.000   -0.306  0.107  0.001

 Mode:                13                     14                     15
 Frequency:      1173.20                1351.23                1665.38
 Force Cnst:      1.2641                 1.9565                 8.9082
 Red. Mass:       1.5588                 1.8187                 5.4515
 IR Active:          YES                    YES                    YES
 IR Intens:      174.024                 53.420                  0.978
 Raman Active:       YES                    YES                    YES
               X      Y      Z        X      Y      Z        X      Y      Z
 O         -0.076  0.085  0.000    0.036  0.061 -0.000    0.023  0.032 -0.000
 C          0.019 -0.010 -0.000   -0.056 -0.127 -0.000    0.022 -0.010 -0.000
 C          0.078  0.018 -0.000   -0.139 -0.028  0.000   -0.227 -0.384  0.000
 O          0.029 -0.013 -0.000    0.008  0.018  0.000   -0.023  0.010  0.000
 O         -0.113 -0.001  0.000    0.021  0.068  0.000   -0.008 -0.038 -0.000
 C          0.039 -0.071 -0.000    0.074 -0.121 -0.000    0.131  0.427  0.000
 H          0.647  0.249 -0.002    0.616  0.284 -0.001    0.512 -0.189 -0.002
 H          0.252 -0.644 -0.002   -0.208  0.653  0.002    0.486 -0.250 -0.002
 TransDip   0.386 -0.172 -0.002   -0.095 -0.214 -0.000   -0.029  0.013  0.000

 Mode:                16                     17                     18
 Frequency:      1839.80                3296.01                3319.78
 Force Cnst:     25.7259                 6.9851                 7.2516
 Red. Mass:      12.8996                 1.0913                 1.1168
 IR Active:          YES                    YES                    YES
 IR Intens:     1159.117                 23.382                  3.155
 Raman Active:       YES                    YES                    YES
               X      Y      Z        X      Y      Z        X      Y      Z
 O         -0.039  0.001  0.000    0.001  0.000 -0.000   -0.001  0.000  0.000
 C          0.777 -0.341 -0.003    0.001  0.002  0.000   -0.002  0.001  0.000
 C         -0.014  0.045  0.000    0.023 -0.056 -0.000    0.019 -0.068 -0.000
 O         -0.466  0.205  0.002   -0.000 -0.000  0.000    0.000 -0.000 -0.000
 O         -0.027  0.027  0.000   -0.001  0.001  0.000   -0.001  0.001  0.000
 C         -0.043 -0.021  0.000   -0.058 -0.021  0.000    0.062  0.031 -0.000
 H         -0.061  0.054  0.000   -0.264  0.647  0.002   -0.262  0.659  0.002
 H         -0.081  0.009  0.000    0.666  0.246 -0.002   -0.653 -0.248  0.002
 TransDip   0.998 -0.439 -0.004    0.063  0.142  0.000   -0.051  0.024  0.000

 STANDARD THERMODYNAMIC QUANTITIES AT   298.15 K  AND     1.00 ATM

   This Molecule has  0 Imaginary Frequencies
   Zero point vibrational energy:       31.611 kcal/mol

   Atom    1 Element O  Has Mass   15.99491
   Atom    2 Element C  Has Mass   12.00000
   Atom    3 Element C  Has Mass   12.00000
   Atom    4 Element O  Has Mass   15.99491
   Atom    5 Element O  Has Mass   15.99491
   Atom    6 Element C  Has Mass   12.00000
   Atom    7 Element H  Has Mass    1.00783
   Atom    8 Element H  Has Mass    1.00783
   Molecular Mass:    86.000390 amu
   Principal axes and moments of inertia in amu*Bohr^2:
                             1           2           3
    Eigenvalues --      190.87617   433.10369   623.97986
          X               0.91502     0.40339     0.00331
          Y              -0.40338     0.91503    -0.00193
          Z              -0.00381     0.00043     0.99999
   Rotational Symmetry Number is   1
   The Molecule is an Asymmetric Top
   Translational Enthalpy:        0.889 kcal/mol
   Rotational Enthalpy:           0.889 kcal/mol
   Vibrational Enthalpy:         32.515 kcal/mol
   gas constant (RT):             0.592 kcal/mol
   Translational Entropy:        39.268  cal/mol.K
   Rotational Entropy:           25.448  cal/mol.K
   Vibrational Entropy:           4.321  cal/mol.K

   Total Enthalpy:               34.885 kcal/mol
   Total Entropy:                69.037  cal/mol.K
Archival summary:
1\1\nid01365\FREQ\ProcedureUnspecified\BasisUnspecified\332\jself\MonJan2917:22:102018MonJan2917:22:102018\0\\#,FREQ,ProcedureUnspecified,BasisUnspecified,\\0,1\O\C,1,1.35996\O,2,1.19553,1,125.85\O,2,1.36007,1,108.304,3,180,0\C,1,1.3898,2,107.442,3,-179.993,0\H,5,1.0747,1,117.59,2,179.997,0\C,5,1.32712,1,108.411,2,-0.00454974,0\H,7,1.07469,5,133.985,1,-179.999,0\\\@

 Total job time:  70.83s(wall), 70.50s(cpu) 
 Mon Jan 29 17:22:10 2018

        *************************************************************
        *                                                           *
        *  Thank you very much for using Q-Chem.  Have a nice day.  *
        *                                                           *
        *************************************************************


0 sent ACK to 0 
now end server 0 ... 
