
Running Job 1 of 1 mol.qin
qchem mol.qin_43625.0 /tmp/qchem43625/ 1
srun -n 1 /global/common/edison/software/qchem/5.1beta/exe/qcprog.exe mol.qin_43625.0 /tmp/qchem43625/

Process 0 of 1 is on nid02264 - thread support 0
initial socket setup ...start
initial socket setup ...done 
now start server 0 ... 
Check license passed

                  Welcome to Q-Chem
     A Quantum Leap Into The Future Of Chemistry


 Q-Chem 5.1, Q-Chem, Inc., Pleasanton, CA (2018)

 Yihan Shao,  Zhengting Gan,  E. Epifanovsky,  A. T. B. Gilbert,  M. Wormit,  
 J. Kussmann,  A. W. Lange,  A. Behn,  Jia Deng,  Xintian Feng,  D. Ghosh,  
 M. Goldey,  P. R. Horn,  L. D. Jacobson,  I. Kaliman,  T. Kus,  A. Landau,  
 Jie Liu,  E. I. Proynov,  R. M. Richard,  R. P. Steele,  E. J. Sundstrom,  
 H. L. Woodcock III,  P. M. Zimmerman,  D. Zuev,  B. Albrecht,  E. Alguire,  
 S. A. Baeppler,  D. Barton,  Z. Benda,  Y. A. Bernard,  E. J. Berquist,  
 K. B. Bravaya,  H. Burton,  D. Casanova,  Chun-Min Chang,  Yunqing Chen,  
 A. Chien,  K. D. Closser,  M. P. Coons,  S. Coriani,  S. Dasgupta,  
 A. L. Dempwolff,  M. Diedenhofen,  Hainam Do,  R. G. Edgar,  Po-Tung Fang,  
 S. Faraji,  S. Fatehi,  Qingguo Feng,  K. D. Fenk,  J. Fosso-Tande,  
 Qinghui Ge,  A. Ghysels,  G. Gidofalvi,  J. Gomes,  J. Gonthier,  A. Gunina,  
 D. Hait,  M. W. D. Hanson-Heine,  P. H. P. Harbach,  A. W. Hauser,  
 J. E. Herr,  E. G. Hohenstein,  Z. C. Holden,  Kerwin Hui,  B. C. Huynh,  
 T.-C. Jagau,  Hyunjun Ji,  B. Kaduk,  K. Khistyaev,  Jaehoon Kim,  
 P. Klunzinger,  K. Koh,  D. Kosenkov,  L. Koulias,  T. Kowalczyk,  
 C. M. Krauter,  A. Kunitsa,  Ka Un Lao,  A. Laurent,  K. V. Lawler,  
 Joonho Lee,  D. Lefrancois,  S. Lehtola,  D. S. Levine,  Yi-Pei Li,  
 You-Sheng Lin,  Fenglai Liu,  E. Livshits,  A. Luenser,  P. Manohar,  
 E. Mansoor,  S. F. Manzer,  Shan-Ping Mao,  Yuezhi Mao,  N. Mardirossian,  
 A. V. Marenich,  T. Markovich,  L. A. Martinez-Martinez,  S. A. Maurer,  
 N. J. Mayhall,  S. C. McKenzie,  J.-M. Mewes,  A. F. Morrison,  
 J. W. Mullinax,  K. Nanda,  T. S. Nguyen-Beck,  R. Olivares-Amaya,  
 J. A. Parkhill,  T. M. Perrine,  F. Plasser,  P. Pokhilko,  S. Prager,  
 A. Prociuk,  E. Ramos,  D. R. Rehn,  F. Rob,  M. Schneider,  N. Sergueev,  
 S. M. Sharada,  S. Sharma,  D. W. Small,  T. Stauch,  T. Stein,  
 Yu-Chuan Su,  A. J. W. Thom,  A. Tkatchenko,  T. Tsuchimochi,  N. M. Tubman,  
 L. Vogt,  M. L. Vidal,  O. Vydrov,  M. A. Watson,  J. Wenzel,  
 M. de Wergifosse,  T. A. Wesolowski,  A. White,  J. Witte,  A. Yamada,  
 Jun Yang,  K. Yao,  S. Yeganeh,  S. R. Yost,  Zhi-Qiang You,  A. Zech,  
 Igor Ying Zhang,  Xing Zhang,  Yan Zhao,  Ying Zhu,  B. R. Brooks,  
 G. K. L. Chan,  C. J. Cramer,  M. S. Gordon,  W. J. Hehre,  A. Klamt,  
 M. W. Schmidt,  C. D. Sherrill,  D. G. Truhlar,  A. Aspuru-Guzik,  R. Baer,  
 A. T. Bell,  N. A. Besley,  Jeng-Da Chai,  R. A. DiStasio Jr.,  A. Dreuw,  
 B. D. Dunietz,  T. R. Furlani,  Chao-Ping Hsu,  Yousung Jung,  Jing Kong,  
 D. S. Lambrecht,  WanZhen Liang,  C. Ochsenfeld,  V. A. Rassolov,  
 L. V. Slipchenko,  J. E. Subotnik,  T. Van Voorhis,  J. M. Herbert,  
 A. I. Krylov,  P. M. W. Gill,  M. Head-Gordon

 Contributors to earlier versions of Q-Chem not listed above: 
 R. D. Adamson,  B. Austin,  J. Baker,  G. J. O. Beran,  K. Brandhorst,  
 S. T. Brown,  E. F. C. Byrd,  A. K. Chakraborty,  C.-L. Cheng,  
 Siu Hung Chien,  D. M. Chipman,  D. L. Crittenden,  H. Dachsel,  
 R. J. Doerksen,  A. D. Dutoi,  L. Fusti-Molnar,  W. A. Goddard III,  
 A. Golubeva-Zadorozhnaya,  S. R. Gwaltney,  G. Hawkins,  A. Heyden,  
 S. Hirata,  G. Kedziora,  F. J. Keil,  C. Kelley,  Jihan Kim,  R. A. King,  
 R. Z. Khaliullin,  P. P. Korambath,  W. Kurlancheek,  A. M. Lee,  M. S. Lee,  
 S. V. Levchenko,  Ching Yeh Lin,  D. Liotard,  R. C. Lochan,  I. Lotan,  
 P. E. Maslen,  N. Nair,  D. P. O'Neill,  D. Neuhauser,  E. Neuscamman,  
 C. M. Oana,  R. Olson,  B. Peters,  R. Peverati,  P. A. Pieniazek,  
 Y. M. Rhee,  J. Ritchie,  M. A. Rohrdanz,  E. Rosta,  N. J. Russ,  
 H. F. Schaefer III,  N. E. Schultz,  N. Shenvi,  A. C. Simmonett,  A. Sodt,  
 D. Stuck,  K. S. Thanthiriwatte,  V. Vanovschi,  Tao Wang,  A. Warshel,  
 C. F. Williams,  Q. Wu,  X. Xu,  W. Zhang

 Please cite Q-Chem as follows:
 Y. Shao et al., Mol. Phys. 113, 184-215 (2015)
 DOI: 10.1080/00268976.2014.952696

 Q-Chem 5.1.0 for Intel X86 EM64T Linux

 Parts of Q-Chem use Armadillo 8.300.2 (Tropical Shenanigans).
 http://arma.sourceforge.net/

 Q-Chem begins on Wed Jul 11 17:37:29 2018  

Host: edison04
0

     Scratch files written to /tmp/qchem43625//
 Apr1918  _RNUM -1
 Parallel job on  1  processors
Processing $rem in /global/common/edison/software/qchem/5.1beta/config/preferences.
 MEM_TOTAL  2000 

Checking the input file for inconsistencies... 	...done.

--------------------------------------------------------------
User input:
--------------------------------------------------------------
$molecule
-1 1
O     -0.0721167665     -0.9423525538      0.1290391903
C      1.0295613906     -0.0735259180      0.4243446514
C      0.4993856923      1.2773171897     -0.0556605261
C      2.2823788219     -0.5560560675     -0.2650326350
H      1.1583513217     -0.0744629277      1.5119911786
H      0.7641180937      2.1082352257      0.5964293538
H      0.8069143568      1.4995833462     -1.0824303946
H      2.5706747276     -1.5425688185      0.1009152216
H      3.1064324261      0.1354973436     -0.0683311931
$end

$rem
job_type = opt
basis = 6-311++g*
max_scf_cycles = 200
gen_scfman = true
scf_algorithm = gdm
method = wb97xd
geom_opt_max_cycles = 200
$end
--------------------------------------------------------------
 ----------------------------------------------------------------
             Standard Nuclear Orientation (Angstroms)
    I     Atom           X                Y                Z
 ----------------------------------------------------------------
    1      O       0.1194659519     1.3755070862    -0.1473359538
    2      C      -0.0324410168     0.0344585068     0.3366813815
    3      C       1.2796101469    -0.6095317609    -0.1106066938
    4      C      -1.2835956913    -0.5924957121    -0.2282684325
    5      H      -0.0836440184     0.0899199582     1.4293226641
    6      H       1.7048134613    -1.2921154894     0.6235668779
    7      H       1.1817147040    -1.1172122610    -1.0754431975
    8      H      -2.1714150125    -0.0511037834     0.1017488446
    9      H      -1.3686373831    -1.6281313165     0.1126549104
 ----------------------------------------------------------------
 Molecular Point Group                 C1    NOp =  1
 Largest Abelian Subgroup              C1    NOp =  1
 Nuclear Repulsion Energy =   109.0259922899 hartrees
 There are       16 alpha and       16 beta electrons
 Requested basis set is 6-311++G(d)
 There are 44 shells and 108 basis functions

 Total QAlloc Memory Limit   2000 MB
 Mega-Array Size       188 MB
 MEM_STATIC part       192 MB
 A cutoff of  1.0D-12 yielded    981 shell pairs
 There are      6004 function pairs (      6466 Cartesian)
 
 -------------------------------------------------------
 OpenMP Integral Computing Module                       
 Release: version 1.0, May 2013, Q-Chem Inc. Pittsburgh 
 -------------------------------------------------------
 Integral Job Info:
 Integral job number is                      11
 Integral operator is                         1
 short-range coefficients              22203600
 long-range coefficients              100000000
 Omega coefficients                         200
 if combine SR and LR in K                    1
 Integral screening is                        0
 Integral computing path is                   2
 max size of driver memory is            800000
 size of driver memory is                593474
 size of scratch memory is              2428936
 max col of scratch BK array               1296
 max len of scratch array in speh3          155
 max len of scratch index in speh4           18
 max int batch size is                      520
 min int batch size is                       52
 fixed nKL is                                52
 max L of basis functions is                  2
 order of int derivative is                   0
 number of shells is                         44
 number of basis is                         112
 number of cartesian basis is               112
 number of contracted shell pairs           981
 number of primitive shell pairs           2718
 maxK2 (contraction) of shell pair           36
 max number of K2 of shell pair               1
 max number of CS2 of shell pair            188
 max number of PS2 of shell pair            366
 mem total for path MDJ                  515450
 -------------------------------------------------------
 Smallest overlap matrix eigenvalue = 6.18E-05

 Scale SEOQF with 1.000000e-01/1.000000e-01/1.000000e-01

 Standard Electronic Orientation quadrupole field applied
 Nucleus-field energy     =     0.0000000024 hartrees
 Guess from superposition of atomic densities
 Warning:  Energy on first SCF cycle will be non-variational
 SAD guess density has 31.000000 electrons

 -----------------------------------------------------------------------
  General SCF calculation program by
  Eric Jon Sundstrom, Paul Horn, Yuezhi Mao, Dmitri Zuev, Alec White,
  David Stuck, Shaama M.S., Shane Yost, Joonho Lee, David Small,
  Daniel Levine, Susi Lehtola, Hugh Burton, Evgeny Epifanovsky
 -----------------------------------------------------------------------
 Exchange:     0.2220 Hartree-Fock + 1.0000 wB97X-D + LR-HF
 Correlation:  1.0000 wB97X-D
 Using SG-2 standard quadrature grid
 Dispersion:   Grimme D
 using 32 threads for integral computing
 -------------------------------------------------------
 OpenMP Integral computing Module                
 Release: version 1.0, May 2013, Q-Chem Inc. Pittsburgh 
 -------------------------------------------------------
 using 32 threads for integral computing
 -------------------------------------------------------
 OpenMP Integral computing Module                
 Release: version 1.0, May 2013, Q-Chem Inc. Pittsburgh 
 -------------------------------------------------------
 -------------------------------------------------------
 OpenMP BLAS3 based DFT computing Module                
 Release: version 1.0, May 2013, Q-Chem Inc. Pittsburgh 
 -------------------------------------------------------
 A restricted SCF calculation will be
 performed using Roothaan-Hall, GDM
 SCF converges when RMS gradient is below 1.0e-08
 ---------------------------------------
  Cycle       Energy         DIIS error
 ---------------------------------------
    1    -192.7465983960      5.21e-02  Roothaan Step
 ---------------------------------------
  Cycle       Energy        RMS Gradient
 ---------------------------------------
    1    -192.0294846330      5.41e-01   Descent step
    2    -192.1374429752      6.69e-01   Descent step
    3    -192.0666983109      3.46e-01  Line search: overstep
    4    -192.2598363336      4.86e-02   Normal BFGS step
    5    -192.2720765146      1.19e-01   Normal BFGS step
    6    -192.2907234318      4.25e-02   Normal BFGS step
    7    -192.2973599554      2.28e-02   Normal BFGS step
    8    -192.2986631983      8.28e-03   Normal BFGS step
    9    -192.2991527641      5.88e-03   Normal BFGS step
   10    -192.2993521383      1.95e-03   Normal BFGS step
   11    -192.2993905366      5.94e-04   Normal BFGS step
   12    -192.2993932166      4.67e-04   Normal BFGS step
   13    -192.2993945105      2.93e-04   Normal BFGS step
   14    -192.2993949740      2.06e-04   Normal BFGS step
   15    -192.2993954313      1.36e-04   Normal BFGS step
   16    -192.2993956832      5.10e-05   Normal BFGS step
   17    -192.2993957226      2.45e-05   Normal BFGS step
   18    -192.2993957311      8.00e-06   Normal BFGS step
   19    -192.2993957318      1.97e-06   Normal BFGS step
   20    -192.2993957319      8.77e-07   Normal BFGS step
   21    -192.2993957319      3.12e-07   Normal BFGS step
   22    -192.2993957319      3.57e-07   Normal BFGS step
   23    -192.2993957319      5.40e-07   Normal BFGS step
   24    -192.2993957319      1.23e-08   Normal BFGS step
   25    -192.2993957319      1.53e-08   Normal BFGS step
   26    -192.2993957319      1.59e-08   Normal BFGS step
   27    -192.2993957319      1.76e-09  Convergence criterion met
 ---------------------------------------
 SCF time:   CPU 427.94s  wall 16.00s 
 SCF   energy in the final basis set =     -192.2993957319
 
 --------------------------------------------------------------
 
                    Orbital Energies (a.u.)
 --------------------------------------------------------------
 
 Alpha MOs
 -- Occupied --
-18.998 -10.134 -10.129 -10.081  -0.831  -0.642  -0.575  -0.449
 -0.363  -0.316  -0.289  -0.277  -0.227  -0.115  -0.108  -0.057
 -- Virtual --
  0.106   0.161   0.176   0.179   0.195   0.200   0.259   0.263
  0.276   0.283   0.301   0.305   0.317   0.317   0.334   0.340
  0.354   0.371   0.411   0.424   0.439   0.451   0.478   0.487
  0.497   0.545   0.550   0.563   0.600   0.618   0.695   0.730
  0.742   0.801   0.823   0.844   0.863   0.870   0.897   0.914
  0.927   0.950   0.961   0.979   1.090   1.136   1.271   1.348
  1.387   1.424   1.524   1.558   1.694   1.742   1.778   1.820
  1.867   1.883   1.930   1.960   1.997   2.084   2.136   2.200
  2.374   2.390   2.731   2.748   2.770   2.792   2.876   3.057
  3.094   3.189   3.205   3.221   3.239   3.338   3.414   3.444
  3.487   3.567   3.879   4.264   4.311   5.417   5.431   5.802
 23.730  23.897  24.032  50.259
 --------------------------------------------------------------
 
          Ground-State Mulliken Net Atomic Charges

     Atom                 Charge (a.u.)
  ----------------------------------------
      1 O                    -0.454034
      2 C                    -0.019414
      3 C                    -0.559295
      4 C                    -0.603607
      5 H                     0.130281
      6 H                     0.102473
      7 H                     0.157263
      8 H                     0.137967
      9 H                     0.108366
  ----------------------------------------
  Sum of atomic charges =    -1.000000

 -----------------------------------------------------------------
                    Cartesian Multipole Moments
 -----------------------------------------------------------------
    Charge (ESU x 10^10)
                -4.8032
    Dipole Moment (Debye)
         X       0.4227      Y      -2.7485      Z       2.4080
       Tot       3.6785
    Quadrupole Moments (Debye-Ang)
        XX     -36.0895     XY      -3.3395     YY     -38.2252
        XZ      -1.7609     YZ      -0.4793     ZZ     -32.8598
    Octopole Moments (Debye-Ang^2)
       XXX      -0.9400    XXY       5.3823    XYY       0.5875
       YYY      -0.7198    XXZ       5.8206    XYZ       1.4324
       YYZ       3.4355    XZZ       4.7478    YZZ       4.1807
       ZZZ       6.5309
    Hexadecapole Moments (Debye-Ang^3)
      XXXX    -259.7005   XXXY      -9.1627   XXYY     -73.2598
      XYYY      -7.2641   YYYY    -197.8636   XXXZ      -6.2863
      XXYZ      -3.3579   XYYZ      -2.1733   YYYZ      -6.6146
      XXZZ     -58.9404   XYZZ      -5.3888   YYZZ     -46.6772
      XZZZ      -8.0804   YZZZ      -4.9191   ZZZZ     -85.9640
 -----------------------------------------------------------------
 Calculating analytic gradient of the SCF energy
 Gradient of SCF Energy
            1           2           3           4           5           6
    1  -0.0162957  -0.0008828   0.0598394  -0.0261759  -0.0023444  -0.0201890
    2   0.0148287  -0.0211236   0.0112138   0.0151881   0.0079747  -0.0097881
    3  -0.0142110   0.0379682   0.0005095  -0.0279533  -0.0134423  -0.0100504
            7           8           9
    1  -0.0046513   0.0076745   0.0030252
    2  -0.0123014  -0.0109268   0.0049347
    3   0.0108938   0.0207296  -0.0044441
 Max gradient component =       5.984E-02
 RMS gradient           =       1.904E-02
 Gradient time:  CPU 27.76 s  wall 1.63 s
 Geometry Optimization Parameters
   NAtoms,    NIC,     NZ,  NCons,   NDum,   NFix, NCnnct, MaxDiis
        9      50       0       0       0       0       0       0


** GEOMETRY OPTIMIZATION IN DELOCALIZED INTERNAL COORDINATES **
   Searching for a Minimum

   Optimization Cycle:   1

                       Coordinates (Angstroms)
     ATOM                X               Y               Z
      1  O         0.1194659519    1.3755070862   -0.1473359538
      2  C        -0.0324410168    0.0344585068    0.3366813815
      3  C         1.2796101469   -0.6095317609   -0.1106066938
      4  C        -1.2835956913   -0.5924957121   -0.2282684325
      5  H        -0.0836440184    0.0899199582    1.4293226641
      6  H         1.7048134613   -1.2921154894    0.6235668779
      7  H         1.1817147040   -1.1172122610   -1.0754431975
      8  H        -2.1714150125   -0.0511037834    0.1017488446
      9  H        -1.3686373831   -1.6281313165    0.1126549104
   Point Group: c1    Number of degrees of freedom:    21


   Energy is   -192.299395732


 Attempting to Generate Delocalized Internal Coordinates

 21 Hessian modes will be used to form the next step
  Hessian Eigenvalues:
     0.005411    0.007964    0.032194    0.041466    0.052898    0.071392
     0.117176    0.160000    0.160000    0.160000    0.160000    0.185828
     0.231260    0.295637    0.314329    0.342134    0.342821    0.343978
     0.346995    0.349387    0.404493

 Minimum Search - Taking Simple RFO Step
 Searching for Lamda that Minimizes Along All modes
 Value Taken    Lamda =  -0.04121362
 Calculated Step too Large.  Step scaled by  0.442088
 Step Taken.  Stepsize is  0.300000

                             Maximum     Tolerance    Cnvgd?
         Gradient           0.031864      0.000300      NO
         Displacement       0.115635      0.001200      NO
         Energy change     *********      0.000001      NO


 New Cartesian Coordinates Obtained by Inverse Iteration

 Displacement from previous Coordinates is:  0.328021
 ----------------------------------------------------------------
             Standard Nuclear Orientation (Angstroms)
    I     Atom           X                Y                Z
 ----------------------------------------------------------------
    1      O       0.1792428443     1.3529519308    -0.1253136689
    2      C      -0.0404795618     0.0294550388     0.3547166698
    3      C       1.2347568385    -0.6193681691    -0.1110767770
    4      C      -1.2757995442    -0.6117769408    -0.2055693825
    5      H      -0.0839170161     0.0868799018     1.4554753395
    6      H       1.7534815158    -1.2649360118     0.6037896320
    7      H       1.1578604183    -1.0810194090    -1.1029700553
    8      H      -2.1909369766    -0.0477534927    -0.0012444459
    9      H      -1.3883373761    -1.6351376201     0.1745130892
 ----------------------------------------------------------------
 Molecular Point Group                 C1    NOp =  1
 Largest Abelian Subgroup              C1    NOp =  1
 Nuclear Repulsion Energy =   109.6811146290 hartrees
 There are       16 alpha and       16 beta electrons
 Applying Cartesian multipole field
    Component          Value
    ---------          -----
     (2,0,0)        1.00000E-11
     (0,2,0)        2.00000E-11
     (0,0,2)       -3.00000E-11
 Nucleus-field energy     =     0.0000000023 hartrees
 Requested basis set is 6-311++G(d)
 There are 44 shells and 108 basis functions
 A cutoff of  1.0D-12 yielded    981 shell pairs
 There are      6007 function pairs (      6469 Cartesian)
 Smallest overlap matrix eigenvalue = 5.89E-05
 Guess MOs from SCF MO coefficient file
 Reading MOs from coefficient file
 Reading MOs from coefficient file

 -----------------------------------------------------------------------
  General SCF calculation program by
  Eric Jon Sundstrom, Paul Horn, Yuezhi Mao, Dmitri Zuev, Alec White,
  David Stuck, Shaama M.S., Shane Yost, Joonho Lee, David Small,
  Daniel Levine, Susi Lehtola, Hugh Burton, Evgeny Epifanovsky
 -----------------------------------------------------------------------
 Exchange:     0.2220 Hartree-Fock + 1.0000 wB97X-D + LR-HF
 Correlation:  1.0000 wB97X-D
 Using SG-2 standard quadrature grid
 Dispersion:   Grimme D
 using 32 threads for integral computing
 -------------------------------------------------------
 OpenMP Integral computing Module                
 Release: version 1.0, May 2013, Q-Chem Inc. Pittsburgh 
 -------------------------------------------------------
 using 32 threads for integral computing
 -------------------------------------------------------
 OpenMP Integral computing Module                
 Release: version 1.0, May 2013, Q-Chem Inc. Pittsburgh 
 -------------------------------------------------------
 -------------------------------------------------------
 OpenMP BLAS3 based DFT computing Module                
 Release: version 1.0, May 2013, Q-Chem Inc. Pittsburgh 
 -------------------------------------------------------
 A restricted SCF calculation will be
 performed using Roothaan-Hall, GDM
 SCF converges when RMS gradient is below 1.0e-08
 ---------------------------------------
  Cycle       Energy         DIIS error
 ---------------------------------------
    1    -192.3113419434      1.29e-03  Roothaan Step
 ---------------------------------------
  Cycle       Energy        RMS Gradient
 ---------------------------------------
    1    -192.3154275257      4.38e-03   Normal BFGS step
    2    -192.3156913662      8.63e-03   Normal BFGS step
    3    -192.3158356523      4.34e-03   Normal BFGS step
    4    -192.3158854405      1.16e-03   Normal BFGS step
    5    -192.3158927362      2.67e-03   Normal BFGS step
    6    -192.3158970099      7.70e-04   Normal BFGS step
    7    -192.3158998282      3.59e-04   Normal BFGS step
    8    -192.3159006998      3.03e-04   Normal BFGS step
    9    -192.3159013234      1.41e-04   Normal BFGS step
   10    -192.3159014975      7.04e-05   Normal BFGS step
   11    -192.3159015452      3.54e-05   Normal BFGS step
   12    -192.3159015569      1.51e-05   Normal BFGS step
   13    -192.3159015581      3.90e-06   Normal BFGS step
   14    -192.3159015582      1.64e-06   Normal BFGS step
   15    -192.3159015582      6.91e-07   Normal BFGS step
   16    -192.3159015582      3.15e-07   Normal BFGS step
   17    -192.3159015582      1.09e-07   Normal BFGS step
   18    -192.3159015582      4.68e-08   Normal BFGS step
   19    -192.3159015582      1.75e-08   Normal BFGS step
   20    -192.3159015582      5.25e-09  Convergence criterion met
 ---------------------------------------
 SCF time:   CPU 327.81s  wall 11.00s 
 SCF   energy in the final basis set =     -192.3159015582
 
 --------------------------------------------------------------
 
                    Orbital Energies (a.u.)
 --------------------------------------------------------------
 
 Alpha MOs
 -- Occupied --
-19.001 -10.135 -10.133 -10.074  -0.837  -0.644  -0.572  -0.449
 -0.369  -0.316  -0.293  -0.279  -0.229  -0.121  -0.111  -0.051
 -- Virtual --
  0.118   0.161   0.176   0.179   0.194   0.199   0.260   0.265
  0.276   0.283   0.303   0.306   0.315   0.320   0.333   0.341
  0.351   0.371   0.402   0.424   0.438   0.453   0.479   0.489
  0.500   0.546   0.550   0.568   0.608   0.621   0.696   0.726
  0.745   0.804   0.825   0.846   0.859   0.874   0.896   0.914
  0.923   0.952   0.962   0.986   1.087   1.135   1.262   1.353
  1.406   1.424   1.522   1.557   1.713   1.747   1.792   1.805
  1.862   1.892   1.932   1.970   2.009   2.089   2.143   2.223
  2.378   2.410   2.715   2.746   2.768   2.798   2.887   3.054
  3.099   3.189   3.212   3.233   3.251   3.350   3.427   3.453
  3.496   3.568   3.883   4.268   4.324   5.419   5.434   5.822
 23.731  23.922  24.064  50.258
 --------------------------------------------------------------
 
          Ground-State Mulliken Net Atomic Charges

     Atom                 Charge (a.u.)
  ----------------------------------------
      1 O                    -0.456802
      2 C                     0.044377
      3 C                    -0.575139
      4 C                    -0.626399
      5 H                     0.124259
      6 H                     0.100588
      7 H                     0.151390
      8 H                     0.137907
      9 H                     0.099818
  ----------------------------------------
  Sum of atomic charges =    -1.000000

 -----------------------------------------------------------------
                    Cartesian Multipole Moments
 -----------------------------------------------------------------
    Charge (ESU x 10^10)
                -4.8032
    Dipole Moment (Debye)
         X       0.7901      Y      -2.4374      Z       2.2783
       Tot       3.4286
    Quadrupole Moments (Debye-Ang)
        XX     -35.4158     XY      -3.8533     YY     -38.3822
        XZ      -1.6999     YZ      -0.7847     ZZ     -33.1908
    Octopole Moments (Debye-Ang^2)
       XXX       1.5215    XXY       5.6538    XYY       0.6910
       YYY       2.3339    XXZ       4.6836    XYZ       1.6777
       YYZ       3.4720    XZZ       5.2534    YZZ       5.1415
       ZZZ       5.4670
    Hexadecapole Moments (Debye-Ang^3)
      XXXX    -249.8469   XXXY     -12.9046   XXYY     -72.6953
      XYYY      -9.8991   YYYY    -198.7667   XXXZ      -4.5244
      XXYZ      -3.7449   XYYZ      -2.7110   YYYZ      -8.4256
      XXZZ     -58.8223   XYZZ      -6.6643   YYZZ     -47.7395
      XZZZ      -8.3324   YZZZ      -6.1283   ZZZZ     -89.3936
 -----------------------------------------------------------------
 Calculating analytic gradient of the SCF energy
 Gradient of SCF Energy
            1           2           3           4           5           6
    1  -0.0119203  -0.0002234   0.0461945  -0.0166883  -0.0031151  -0.0156400
    2   0.0149875  -0.0187648   0.0141218   0.0127376   0.0082018  -0.0114977
    3  -0.0096819   0.0249184   0.0012106  -0.0209571  -0.0095030  -0.0056122
            7           8           9
    1  -0.0036484   0.0023819   0.0026591
    2  -0.0129306  -0.0073748   0.0005192
    3   0.0062242   0.0184381  -0.0050371
 Max gradient component =       4.619E-02
 RMS gradient           =       1.475E-02
 Gradient time:  CPU 27.46 s  wall 1.21 s
 Geometry Optimization Parameters
   NAtoms,    NIC,     NZ,  NCons,   NDum,   NFix, NCnnct, MaxDiis
        9      50       0       0       0       0       0       0

 Cartesian Hessian Update
 Hessian Updated using BFGS Update


** GEOMETRY OPTIMIZATION IN DELOCALIZED INTERNAL COORDINATES **
   Searching for a Minimum

   Optimization Cycle:   2

                       Coordinates (Angstroms)
     ATOM                X               Y               Z
      1  O         0.1792428443    1.3529519308   -0.1253136689
      2  C        -0.0404795618    0.0294550388    0.3547166698
      3  C         1.2347568385   -0.6193681691   -0.1110767770
      4  C        -1.2757995442   -0.6117769408   -0.2055693825
      5  H        -0.0839170161    0.0868799018    1.4554753395
      6  H         1.7534815158   -1.2649360118    0.6037896320
      7  H         1.1578604183   -1.0810194090   -1.1029700553
      8  H        -2.1909369766   -0.0477534927   -0.0012444459
      9  H        -1.3883373761   -1.6351376201    0.1745130892
   Point Group: c1    Number of degrees of freedom:    21


   Energy is   -192.315901558

 Hessian Updated using BFGS Update

 19 Hessian modes will be used to form the next step
  Hessian Eigenvalues:
     0.005450    0.008232    0.027523    0.044408    0.053891    0.071018
     0.114234    0.146052    0.165152    0.166965    0.239002    0.275353
     0.313213    0.340751    0.343399    0.345789    0.348109    0.358453
     0.399874

 Minimum Search - Taking Simple RFO Step
 Searching for Lamda that Minimizes Along All modes
 Value Taken    Lamda =  -0.03700586
 Calculated Step too Large.  Step scaled by  0.417999
 Step Taken.  Stepsize is  0.300000

                             Maximum     Tolerance    Cnvgd?
         Gradient           0.028120      0.000300      NO
         Displacement       0.118744      0.001200      NO
         Energy change     -0.016506      0.000001      NO


 New Cartesian Coordinates Obtained by Inverse Iteration

 Displacement from previous Coordinates is:  0.366682
 ----------------------------------------------------------------
             Standard Nuclear Orientation (Angstroms)
    I     Atom           X                Y                Z
 ----------------------------------------------------------------
    1      O       0.2522407377     1.3014659191    -0.1186413984
    2      C      -0.0514545103     0.0170198107     0.3783474722
    3      C       1.1864270054    -0.6234344662    -0.1053941734
    4      C      -1.2671130868    -0.6315431711    -0.1899766353
    5      H      -0.0897599460     0.0794416696     1.4868645506
    6      H       1.7937850981    -1.2314046289     0.5752558372
    7      H       1.1231495685    -1.0201627228    -1.1233806237
    8      H      -2.1920574642    -0.0518006374    -0.1039181003
    9      H      -1.4093462604    -1.6302865451     0.2431634721
 ----------------------------------------------------------------
 Molecular Point Group                 C1    NOp =  1
 Largest Abelian Subgroup              C1    NOp =  1
 Nuclear Repulsion Energy =   110.9279772711 hartrees
 There are       16 alpha and       16 beta electrons
 Applying Cartesian multipole field
    Component          Value
    ---------          -----
     (2,0,0)        1.00000E-11
     (0,2,0)        2.00000E-11
     (0,0,2)       -3.00000E-11
 Nucleus-field energy     =     0.0000000022 hartrees
 Requested basis set is 6-311++G(d)
 There are 44 shells and 108 basis functions
 A cutoff of  1.0D-12 yielded    983 shell pairs
 There are      6012 function pairs (      6474 Cartesian)
 Smallest overlap matrix eigenvalue = 5.52E-05
 Guess MOs from SCF MO coefficient file
 Reading MOs from coefficient file
 Reading MOs from coefficient file

 -----------------------------------------------------------------------
  General SCF calculation program by
  Eric Jon Sundstrom, Paul Horn, Yuezhi Mao, Dmitri Zuev, Alec White,
  David Stuck, Shaama M.S., Shane Yost, Joonho Lee, David Small,
  Daniel Levine, Susi Lehtola, Hugh Burton, Evgeny Epifanovsky
 -----------------------------------------------------------------------
 Exchange:     0.2220 Hartree-Fock + 1.0000 wB97X-D + LR-HF
 Correlation:  1.0000 wB97X-D
 Using SG-2 standard quadrature grid
 Dispersion:   Grimme D
 using 32 threads for integral computing
 -------------------------------------------------------
 OpenMP Integral computing Module                
 Release: version 1.0, May 2013, Q-Chem Inc. Pittsburgh 
 -------------------------------------------------------
 using 32 threads for integral computing
 -------------------------------------------------------
 OpenMP Integral computing Module                
 Release: version 1.0, May 2013, Q-Chem Inc. Pittsburgh 
 -------------------------------------------------------
 -------------------------------------------------------
 OpenMP BLAS3 based DFT computing Module                
 Release: version 1.0, May 2013, Q-Chem Inc. Pittsburgh 
 -------------------------------------------------------
 A restricted SCF calculation will be
 performed using Roothaan-Hall, GDM
 SCF converges when RMS gradient is below 1.0e-08
 ---------------------------------------
  Cycle       Energy         DIIS error
 ---------------------------------------
    1    -192.3236507189      1.47e-03  Roothaan Step
 ---------------------------------------
  Cycle       Energy        RMS Gradient
 ---------------------------------------
    1    -192.3292289841      5.78e-03   Normal BFGS step
    2    -192.3297050696      1.10e-02   Normal BFGS step
    3    -192.3299091396      5.37e-03   Normal BFGS step
    4    -192.3299894525      1.60e-03   Normal BFGS step
    5    -192.3300075268      2.53e-03   Normal BFGS step
    6    -192.3300147156      1.15e-03   Normal BFGS step
    7    -192.3300202397      3.98e-04   Normal BFGS step
    8    -192.3300214077      2.17e-04   Normal BFGS step
    9    -192.3300217442      1.31e-04   Normal BFGS step
   10    -192.3300218452      4.56e-05   Normal BFGS step
   11    -192.3300218613      1.42e-05   Normal BFGS step
   12    -192.3300218658      5.33e-06   Normal BFGS step
   13    -192.3300218665      2.62e-06   Normal BFGS step
   14    -192.3300218666      1.18e-06   Normal BFGS step
   15    -192.3300218666      3.11e-07   Normal BFGS step
   16    -192.3300218666      1.17e-07   Normal BFGS step
   17    -192.3300218666      5.12e-08   Normal BFGS step
   18    -192.3300218666      1.59e-08   Normal BFGS step
   19    -192.3300218666      7.00e-09  Convergence criterion met
 ---------------------------------------
 SCF time:   CPU 313.39s  wall 11.00s 
 SCF   energy in the final basis set =     -192.3300218666
 
 --------------------------------------------------------------
 
                    Orbital Energies (a.u.)
 --------------------------------------------------------------
 
 Alpha MOs
 -- Occupied --
-19.010 -10.142 -10.131 -10.061  -0.853  -0.647  -0.569  -0.449
 -0.378  -0.317  -0.297  -0.280  -0.231  -0.132  -0.119  -0.043
 -- Virtual --
  0.131   0.161   0.176   0.180   0.193   0.198   0.262   0.266
  0.275   0.283   0.303   0.306   0.314   0.323   0.333   0.340
  0.350   0.371   0.396   0.425   0.442   0.456   0.482   0.491
  0.501   0.544   0.548   0.575   0.619   0.624   0.696   0.723
  0.748   0.806   0.825   0.841   0.867   0.884   0.895   0.921
  0.924   0.957   0.967   0.998   1.090   1.138   1.251   1.363
  1.420   1.426   1.518   1.553   1.729   1.748   1.769   1.815
  1.866   1.904   1.937   1.981   2.020   2.097   2.153   2.261
  2.383   2.432   2.705   2.747   2.773   2.814   2.897   3.056
  3.106   3.183   3.215   3.254   3.272   3.366   3.443   3.473
  3.517   3.578   3.894   4.262   4.337   5.414   5.437   5.846
 23.736  23.960  24.112  50.254
 --------------------------------------------------------------
 
          Ground-State Mulliken Net Atomic Charges

     Atom                 Charge (a.u.)
  ----------------------------------------
      1 O                    -0.440458
      2 C                     0.133685
      3 C                    -0.601867
      4 C                    -0.665999
      5 H                     0.112063
      6 H                     0.098251
      7 H                     0.143753
      8 H                     0.133889
      9 H                     0.086682
  ----------------------------------------
  Sum of atomic charges =    -1.000000

 -----------------------------------------------------------------
                    Cartesian Multipole Moments
 -----------------------------------------------------------------
    Charge (ESU x 10^10)
                -4.8032
    Dipole Moment (Debye)
         X       1.3787      Y      -1.8248      Z       2.2373
       Tot       3.1994
    Quadrupole Moments (Debye-Ang)
        XX     -35.1476     XY      -4.5251     YY     -38.2245
        XZ      -1.7942     YZ      -1.1897     ZZ     -33.7184
    Octopole Moments (Debye-Ang^2)
       XXX       4.9014    XXY       6.4759    XYY       1.1537
       YYY       7.2945    XXZ       3.5781    XYZ       2.0987
       YYZ       3.9126    XZZ       5.9376    YZZ       6.6024
       ZZZ       4.8691
    Hexadecapole Moments (Debye-Ang^3)
      XXXX    -243.5796   XXXY     -17.1759   XXYY     -71.9748
      XYYY     -13.7196   YYYY    -195.4380   XXXZ      -3.3393
      XXYZ      -4.1751   XYYZ      -3.6415   YYYZ     -10.1923
      XXZZ     -59.4356   XYZZ      -8.2326   YYZZ     -48.6630
      XZZZ      -9.4511   YZZZ      -7.5085   ZZZZ     -95.4466
 -----------------------------------------------------------------
 Calculating analytic gradient of the SCF energy
 Gradient of SCF Energy
            1           2           3           4           5           6
    1  -0.0124000   0.0044354   0.0306877  -0.0067826  -0.0037765  -0.0126450
    2   0.0103214  -0.0130348   0.0150926   0.0118645   0.0066321  -0.0124571
    3  -0.0052451   0.0104739   0.0038999  -0.0119703  -0.0058880  -0.0036701
            7           8           9
    1  -0.0027395   0.0000279   0.0031926
    2  -0.0124347  -0.0051121  -0.0008718
    3   0.0034828   0.0142747  -0.0053578
 Max gradient component =       3.069E-02
 RMS gradient           =       1.048E-02
 Gradient time:  CPU 25.66 s  wall 1.17 s
 Geometry Optimization Parameters
   NAtoms,    NIC,     NZ,  NCons,   NDum,   NFix, NCnnct, MaxDiis
        9      50       0       0       0       0       0       0

 Cartesian Hessian Update
 Hessian Updated using BFGS Update


** GEOMETRY OPTIMIZATION IN DELOCALIZED INTERNAL COORDINATES **
   Searching for a Minimum

   Optimization Cycle:   3

                       Coordinates (Angstroms)
     ATOM                X               Y               Z
      1  O         0.2522407377    1.3014659191   -0.1186413984
      2  C        -0.0514545103    0.0170198107    0.3783474722
      3  C         1.1864270054   -0.6234344662   -0.1053941734
      4  C        -1.2671130868   -0.6315431711   -0.1899766353
      5  H        -0.0897599460    0.0794416696    1.4868645506
      6  H         1.7937850981   -1.2314046289    0.5752558372
      7  H         1.1231495685   -1.0201627228   -1.1233806237
      8  H        -2.1920574642   -0.0518006374   -0.1039181003
      9  H        -1.4093462604   -1.6302865451    0.2431634721
   Point Group: c1    Number of degrees of freedom:    21


   Energy is   -192.330021867

 Hessian Updated using BFGS Update

 20 Hessian modes will be used to form the next step
  Hessian Eigenvalues:
     0.005437    0.009350    0.018535    0.044497    0.057326    0.067576
     0.104425    0.133638    0.160215    0.163310    0.167120    0.253006
     0.297110    0.337159    0.341355    0.344886    0.347559    0.348340
     0.381787    0.411616

 Minimum Search - Taking Simple RFO Step
 Searching for Lamda that Minimizes Along All modes
 Value Taken    Lamda =  -0.03436959
 Calculated Step too Large.  Step scaled by  0.383902
 Step Taken.  Stepsize is  0.300000

                             Maximum     Tolerance    Cnvgd?
         Gradient           0.025625      0.000300      NO
         Displacement       0.121814      0.001200      NO
         Energy change     -0.014120      0.000001      NO


 New Cartesian Coordinates Obtained by Inverse Iteration

 Displacement from previous Coordinates is:  0.403379
 ----------------------------------------------------------------
             Standard Nuclear Orientation (Angstroms)
    I     Atom           X                Y                Z
 ----------------------------------------------------------------
    1      O       0.3491557893     1.2247458744    -0.1184073475
    2      C      -0.0671204359    -0.0054926250     0.4004463946
    3      C       1.1471298219    -0.6225565516    -0.0980289786
    4      C      -1.2757358393    -0.6534146847    -0.1797803882
    5      H      -0.0984715187     0.0714321015     1.5152657537
    6      H       1.8453001004    -1.1750800246     0.5449574179
    7      H       1.0976382590    -0.9494649031    -1.1373686266
    8      H      -2.1958109857    -0.0574867943    -0.1889818682
    9      H      -1.4562140489    -1.6233871646     0.3042180437
 ----------------------------------------------------------------
 Molecular Point Group                 C1    NOp =  1
 Largest Abelian Subgroup              C1    NOp =  1
 Nuclear Repulsion Energy =   112.1514744509 hartrees
 There are       16 alpha and       16 beta electrons
 Applying Cartesian multipole field
    Component          Value
    ---------          -----
     (2,0,0)        1.00000E-11
     (0,2,0)        2.00000E-11
     (0,0,2)       -3.00000E-11
 Nucleus-field energy     =     0.0000000021 hartrees
 Requested basis set is 6-311++G(d)
 There are 44 shells and 108 basis functions
 A cutoff of  1.0D-12 yielded    983 shell pairs
 There are      6012 function pairs (      6474 Cartesian)
 Smallest overlap matrix eigenvalue = 5.34E-05
 Guess MOs from SCF MO coefficient file
 Reading MOs from coefficient file
 Reading MOs from coefficient file

 -----------------------------------------------------------------------
  General SCF calculation program by
  Eric Jon Sundstrom, Paul Horn, Yuezhi Mao, Dmitri Zuev, Alec White,
  David Stuck, Shaama M.S., Shane Yost, Joonho Lee, David Small,
  Daniel Levine, Susi Lehtola, Hugh Burton, Evgeny Epifanovsky
 -----------------------------------------------------------------------
 Exchange:     0.2220 Hartree-Fock + 1.0000 wB97X-D + LR-HF
 Correlation:  1.0000 wB97X-D
 Using SG-2 standard quadrature grid
 Dispersion:   Grimme D
 using 32 threads for integral computing
 -------------------------------------------------------
 OpenMP Integral computing Module                
 Release: version 1.0, May 2013, Q-Chem Inc. Pittsburgh 
 -------------------------------------------------------
 using 32 threads for integral computing
 -------------------------------------------------------
 OpenMP Integral computing Module                
 Release: version 1.0, May 2013, Q-Chem Inc. Pittsburgh 
 -------------------------------------------------------
 -------------------------------------------------------
 OpenMP BLAS3 based DFT computing Module                
 Release: version 1.0, May 2013, Q-Chem Inc. Pittsburgh 
 -------------------------------------------------------
 A restricted SCF calculation will be
 performed using Roothaan-Hall, GDM
 SCF converges when RMS gradient is below 1.0e-08
 ---------------------------------------
  Cycle       Energy         DIIS error
 ---------------------------------------
    1    -192.3332168911      1.72e-03  Roothaan Step
 ---------------------------------------
  Cycle       Energy        RMS Gradient
 ---------------------------------------
    1    -192.3415129895      7.16e-03   Normal BFGS step
    2    -192.3425012692      1.45e-02   Normal BFGS step
    3    -192.3428844705      3.90e-03   Normal BFGS step
    4    -192.3430721165      2.45e-03   Normal BFGS step
    5    -192.3431048173      1.47e-03   Normal BFGS step
    6    -192.3431157759      1.36e-03   Normal BFGS step
    7    -192.3431220093      2.87e-04   Normal BFGS step
    8    -192.3431235269      1.90e-04   Normal BFGS step
    9    -192.3431237622      9.52e-05   Normal BFGS step
   10    -192.3431238117      4.32e-05   Normal BFGS step
   11    -192.3431238241      1.21e-05   Normal BFGS step
   12    -192.3431238255      5.38e-06   Normal BFGS step
   13    -192.3431238258      1.67e-06   Normal BFGS step
   14    -192.3431238259      6.94e-07   Normal BFGS step
   15    -192.3431238259      3.14e-07   Normal BFGS step
   16    -192.3431238259      9.45e-08   Normal BFGS step
   17    -192.3431238259      4.37e-08   Normal BFGS step
   18    -192.3431238259      1.53e-08   Normal BFGS step
   19    -192.3431238259      7.68e-09  Convergence criterion met
 ---------------------------------------
 SCF time:   CPU 319.29s  wall 11.00s 
 SCF   energy in the final basis set =     -192.3431238259
 
 --------------------------------------------------------------
 
                    Orbital Energies (a.u.)
 --------------------------------------------------------------
 
 Alpha MOs
 -- Occupied --
-19.033 -10.156 -10.133 -10.041  -0.881  -0.650  -0.566  -0.452
 -0.391  -0.321  -0.300  -0.281  -0.232  -0.153  -0.134  -0.031
 -- Virtual --
  0.146   0.160   0.176   0.180   0.193   0.199   0.262   0.264
  0.273   0.285   0.300   0.308   0.311   0.326   0.332   0.338
  0.350   0.371   0.392   0.426   0.447   0.455   0.481   0.492
  0.500   0.540   0.543   0.580   0.620   0.627   0.694   0.719
  0.751   0.806   0.823   0.838   0.873   0.892   0.895   0.924
  0.932   0.962   0.974   1.005   1.096   1.149   1.238   1.378
  1.415   1.440   1.510   1.542   1.716   1.743   1.758   1.820
  1.874   1.912   1.945   1.987   2.019   2.103   2.163   2.303
  2.384   2.448   2.695   2.746   2.783   2.831   2.902   3.061
  3.101   3.166   3.204   3.257   3.290   3.372   3.458   3.495
  3.556   3.583   3.903   4.219   4.359   5.398   5.421   5.847
 23.739  23.992  24.155  50.240
 --------------------------------------------------------------
 
          Ground-State Mulliken Net Atomic Charges

     Atom                 Charge (a.u.)
  ----------------------------------------
      1 O                    -0.396661
      2 C                     0.215221
      3 C                    -0.601847
      4 C                    -0.727014
      5 H                     0.104765
      6 H                     0.101425
      7 H                     0.112874
      8 H                     0.123514
      9 H                     0.067724
  ----------------------------------------
  Sum of atomic charges =    -1.000000

 -----------------------------------------------------------------
                    Cartesian Multipole Moments
 -----------------------------------------------------------------
    Charge (ESU x 10^10)
                -4.8032
    Dipole Moment (Debye)
         X       2.3618      Y      -0.8469      Z       2.3433
       Tot       3.4331
    Quadrupole Moments (Debye-Ang)
        XX     -35.7105     XY      -5.5052     YY     -37.7967
        XZ      -2.1148     YZ      -1.8507     ZZ     -34.6694
    Octopole Moments (Debye-Ang^2)
       XXX      10.0458    XXY       8.0137    XYY       2.3203
       YYY      14.3467    XXZ       2.6965    XYZ       2.7548
       YYZ       4.8992    XZZ       7.1995    YZZ       8.8689
       ZZZ       5.5028
    Hexadecapole Moments (Debye-Ang^3)
      XXXX    -249.5139   XXXY     -22.9176   XXYY     -72.6337
      XYYY     -19.6217   YYYY    -189.6085   XXXZ      -2.7474
      XXYZ      -5.1549   XYYZ      -5.0478   YYYZ     -13.1124
      XXZZ     -62.8857   XYZZ     -10.6015   YYZZ     -50.4089
      XZZZ     -11.6136   YZZZ     -10.3265   ZZZZ    -105.9728
 -----------------------------------------------------------------
 Calculating analytic gradient of the SCF energy
 Gradient of SCF Energy
            1           2           3           4           5           6
    1  -0.0203704   0.0171428   0.0155760   0.0011785  -0.0044575  -0.0098489
    2   0.0114852  -0.0010900   0.0069046   0.0088495   0.0044043  -0.0152029
    3  -0.0004378  -0.0041886   0.0079219  -0.0006854  -0.0022994  -0.0028589
            7           8           9
    1  -0.0011209  -0.0010084   0.0029088
    2  -0.0098402  -0.0035714  -0.0019390
    3   0.0005639   0.0070186  -0.0050343
 Max gradient component =       2.037E-02
 RMS gradient           =       8.328E-03
 Gradient time:  CPU 27.92 s  wall 1.22 s
 Geometry Optimization Parameters
   NAtoms,    NIC,     NZ,  NCons,   NDum,   NFix, NCnnct, MaxDiis
        9      50       0       0       0       0       0       0

 Cartesian Hessian Update
 Hessian Updated using BFGS Update
**WARNING** Hereditary positive definiteness endangered


** GEOMETRY OPTIMIZATION IN DELOCALIZED INTERNAL COORDINATES **
   Searching for a Minimum

   Optimization Cycle:   4

                       Coordinates (Angstroms)
     ATOM                X               Y               Z
      1  O         0.3491557893    1.2247458744   -0.1184073475
      2  C        -0.0671204359   -0.0054926250    0.4004463946
      3  C         1.1471298219   -0.6225565516   -0.0980289786
      4  C        -1.2757358393   -0.6534146847   -0.1797803882
      5  H        -0.0984715187    0.0714321015    1.5152657537
      6  H         1.8453001004   -1.1750800246    0.5449574179
      7  H         1.0976382590   -0.9494649031   -1.1373686266
      8  H        -2.1958109857   -0.0574867943   -0.1889818682
      9  H        -1.4562140489   -1.6233871646    0.3042180437
   Point Group: c1    Number of degrees of freedom:    21


   Energy is   -192.343123826

 Hessian Updated using BFGS Update

 20 Hessian modes will be used to form the next step
  Hessian Eigenvalues:
     0.007071    0.015094    0.042516    0.058994    0.078188    0.096568
     0.128094    0.160013    0.160263    0.164122    0.171600    0.275417
     0.315582    0.339058    0.343465    0.345665    0.348126    0.353209
     0.399558  682.310573
**WARNING** Magnitude of eigenvalue  20 too large.  Replaced by    25.000000

 Minimum Search - Taking Simple RFO Step
 Searching for Lamda that Minimizes Along All modes
 Value Taken    Lamda =  -0.00445684
 Calculated Step too Large.  Step scaled by  0.812961
 Step Taken.  Stepsize is  0.300000

                             Maximum     Tolerance    Cnvgd?
         Gradient           0.034411      0.000300      NO
         Displacement       0.169444      0.001200      NO
         Energy change     -0.013102      0.000001      NO


 New Cartesian Coordinates Obtained by Inverse Iteration

 Displacement from previous Coordinates is:  0.361548
 ----------------------------------------------------------------
             Standard Nuclear Orientation (Angstroms)
    I     Atom           X                Y                Z
 ----------------------------------------------------------------
    1      O       0.4553940537     1.1835129564    -0.1332048757
    2      C      -0.0716142464     0.0183153688     0.3955543445
    3      C       1.1100127979    -0.6057187070    -0.0800605019
    4      C      -1.2717814286    -0.6570551389    -0.1622656670
    5      H      -0.1102275638     0.1194511191     1.5180490352
    6      H       1.7919878739    -1.2167396370     0.5333185368
    7      H       1.0676986755    -0.8751509397    -1.1327712391
    8      H      -2.2228136554    -0.1076919556    -0.1933812757
    9      H      -1.4027853648    -1.6496278382     0.2970820437
 ----------------------------------------------------------------
 Molecular Point Group                 C1    NOp =  1
 Largest Abelian Subgroup              C1    NOp =  1
 Nuclear Repulsion Energy =   113.4896124113 hartrees
 There are       16 alpha and       16 beta electrons
 Applying Cartesian multipole field
    Component          Value
    ---------          -----
     (2,0,0)        1.00000E-11
     (0,2,0)        2.00000E-11
     (0,0,2)       -3.00000E-11
 Nucleus-field energy     =     0.0000000020 hartrees
 Requested basis set is 6-311++G(d)
 There are 44 shells and 108 basis functions
 A cutoff of  1.0D-12 yielded    984 shell pairs
 There are      6013 function pairs (      6475 Cartesian)
 Smallest overlap matrix eigenvalue = 5.11E-05
 Guess MOs from SCF MO coefficient file
 Reading MOs from coefficient file
 Reading MOs from coefficient file

 -----------------------------------------------------------------------
  General SCF calculation program by
  Eric Jon Sundstrom, Paul Horn, Yuezhi Mao, Dmitri Zuev, Alec White,
  David Stuck, Shaama M.S., Shane Yost, Joonho Lee, David Small,
  Daniel Levine, Susi Lehtola, Hugh Burton, Evgeny Epifanovsky
 -----------------------------------------------------------------------
 Exchange:     0.2220 Hartree-Fock + 1.0000 wB97X-D + LR-HF
 Correlation:  1.0000 wB97X-D
 Using SG-2 standard quadrature grid
 Dispersion:   Grimme D
 using 32 threads for integral computing
 -------------------------------------------------------
 OpenMP Integral computing Module                
 Release: version 1.0, May 2013, Q-Chem Inc. Pittsburgh 
 -------------------------------------------------------
 using 32 threads for integral computing
 -------------------------------------------------------
 OpenMP Integral computing Module                
 Release: version 1.0, May 2013, Q-Chem Inc. Pittsburgh 
 -------------------------------------------------------
 -------------------------------------------------------
 OpenMP BLAS3 based DFT computing Module                
 Release: version 1.0, May 2013, Q-Chem Inc. Pittsburgh 
 -------------------------------------------------------
 A restricted SCF calculation will be
 performed using Roothaan-Hall, GDM
 SCF converges when RMS gradient is below 1.0e-08
 ---------------------------------------
  Cycle       Energy         DIIS error
 ---------------------------------------
    1    -192.3379185798      1.63e-03  Roothaan Step
 ---------------------------------------
  Cycle       Energy        RMS Gradient
 ---------------------------------------
    1    -192.3446517765      8.91e-03   Normal BFGS step
    2    -192.3453566357      6.84e-03   Normal BFGS step
    3    -192.3455828507      5.91e-03   Normal BFGS step
    4    -192.3457411787      1.58e-03   Normal BFGS step
    5    -192.3457888264      2.96e-03   Normal BFGS step
    6    -192.3458225380      6.52e-04   Normal BFGS step
    7    -192.3458288912      2.74e-04   Normal BFGS step
    8    -192.3458304560      1.54e-04   Normal BFGS step
    9    -192.3458306905      5.73e-05   Normal BFGS step
   10    -192.3458307455      3.56e-05   Normal BFGS step
   11    -192.3458307538      1.33e-05   Normal BFGS step
   12    -192.3458307556      4.78e-06   Normal BFGS step
   13    -192.3458307558      2.09e-06   Normal BFGS step
   14    -192.3458307559      1.03e-06   Normal BFGS step
   15    -192.3458307559      6.40e-07   Normal BFGS step
   16    -192.3458307559      1.66e-07   Normal BFGS step
   17    -192.3458307559      5.72e-08   Normal BFGS step
   18    -192.3458307559      1.80e-08   Normal BFGS step
   19    -192.3458307559      8.33e-09  Convergence criterion met
 ---------------------------------------
 SCF time:   CPU 317.35s  wall 12.00s 
 SCF   energy in the final basis set =     -192.3458307559
 
 --------------------------------------------------------------
 
                    Orbital Energies (a.u.)
 --------------------------------------------------------------
 
 Alpha MOs
 -- Occupied --
-19.052 -10.165 -10.135 -10.028  -0.910  -0.656  -0.564  -0.455
 -0.402  -0.328  -0.304  -0.283  -0.234  -0.168  -0.147  -0.020
 -- Virtual --
  0.152   0.162   0.175   0.181   0.194   0.200   0.262   0.263
  0.270   0.288   0.297   0.309   0.311   0.327   0.331   0.335
  0.352   0.372   0.394   0.420   0.444   0.460   0.475   0.494
  0.505   0.534   0.541   0.586   0.616   0.627   0.695   0.722
  0.753   0.799   0.822   0.844   0.875   0.889   0.901   0.924
  0.940   0.966   0.977   1.000   1.106   1.163   1.226   1.392
  1.409   1.460   1.509   1.526   1.706   1.723   1.763   1.824
  1.885   1.919   1.947   1.991   2.022   2.108   2.182   2.335
  2.385   2.463   2.694   2.751   2.780   2.841   2.898   3.057
  3.110   3.159   3.196   3.254   3.322   3.370   3.463   3.513
  3.584   3.637   3.904   4.168   4.382   5.387   5.405   5.845
 23.739  24.019  24.231  50.231
 --------------------------------------------------------------
 
          Ground-State Mulliken Net Atomic Charges

     Atom                 Charge (a.u.)
  ----------------------------------------
      1 O                    -0.345603
      2 C                     0.202164
      3 C                    -0.545023
      4 C                    -0.754581
      5 H                     0.089094
      6 H                     0.110361
      7 H                     0.068516
      8 H                     0.115166
      9 H                     0.059907
  ----------------------------------------
  Sum of atomic charges =    -1.000000

 -----------------------------------------------------------------
                    Cartesian Multipole Moments
 -----------------------------------------------------------------
    Charge (ESU x 10^10)
                -4.8032
    Dipole Moment (Debye)
         X       2.9934      Y      -0.3237      Z       2.4531
       Tot       3.8837
    Quadrupole Moments (Debye-Ang)
        XX     -36.6373     XY      -6.2813     YY     -36.9328
        XZ      -2.3263     YZ      -2.2377     ZZ     -35.8461
    Octopole Moments (Debye-Ang^2)
       XXX      12.4713    XXY       8.5651    XYY       2.9934
       YYY      16.3843    XXZ       2.2072    XYZ       2.8652
       YYZ       5.6366    XZZ       8.1369    YZZ       9.9303
       ZZZ       6.6311
    Hexadecapole Moments (Debye-Ang^3)
      XXXX    -255.3663   XXXY     -27.7898   XXYY     -72.4423
      XYYY     -25.4718   YYYY    -182.6000   XXXZ      -2.7211
      XXYZ      -5.3833   XYYZ      -5.3388   YYYZ     -14.6153
      XXZZ     -66.4039   XYZZ     -12.7729   YYZZ     -51.9611
      XZZZ     -13.1290   YZZZ     -12.5317   ZZZZ    -116.8385
 -----------------------------------------------------------------
 Calculating analytic gradient of the SCF energy
 Gradient of SCF Energy
            1           2           3           4           5           6
    1  -0.0300591   0.0424335  -0.0044263   0.0096322  -0.0062011  -0.0106365
    2   0.0113683   0.0115212   0.0049200   0.0043259   0.0018558  -0.0210374
    3   0.0051305  -0.0290568   0.0195460   0.0123162   0.0012138  -0.0047332
            7           8           9
    1  -0.0005150  -0.0021048   0.0018772
    2  -0.0061546  -0.0024195  -0.0043797
    3  -0.0006294   0.0008333  -0.0046204
 Max gradient component =       4.243E-02
 RMS gradient           =       1.393E-02
 Gradient time:  CPU 28.02 s  wall 1.22 s
 Geometry Optimization Parameters
   NAtoms,    NIC,     NZ,  NCons,   NDum,   NFix, NCnnct, MaxDiis
        9      50       0       0       0       0       0       0

 Cartesian Hessian Update
 Hessian Updated using BFGS Update


** GEOMETRY OPTIMIZATION IN DELOCALIZED INTERNAL COORDINATES **
   Searching for a Minimum

   Optimization Cycle:   5

                       Coordinates (Angstroms)
     ATOM                X               Y               Z
      1  O         0.4553940537    1.1835129564   -0.1332048757
      2  C        -0.0716142464    0.0183153688    0.3955543445
      3  C         1.1100127979   -0.6057187070   -0.0800605019
      4  C        -1.2717814286   -0.6570551389   -0.1622656670
      5  H        -0.1102275638    0.1194511191    1.5180490352
      6  H         1.7919878739   -1.2167396370    0.5333185368
      7  H         1.0676986755   -0.8751509397   -1.1327712391
      8  H        -2.2228136554   -0.1076919556   -0.1933812757
      9  H        -1.4027853648   -1.6496278382    0.2970820437
   Point Group: c1    Number of degrees of freedom:    21


   Energy is   -192.345830756

 Hessian Updated using BFGS Update

 20 Hessian modes will be used to form the next step
  Hessian Eigenvalues:
     0.009590    0.011922    0.029764    0.060205    0.075059    0.079372
     0.127187    0.160095    0.161014    0.163236    0.182731    0.299246
     0.325198    0.340583    0.345647    0.347794    0.352474    0.359051
     0.400277  573.275380
**WARNING** Magnitude of eigenvalue  20 too large.  Replaced by    25.000000

 Minimum Search - Taking Simple RFO Step
 Searching for Lamda that Minimizes Along All modes
 Value Taken    Lamda =  -0.00479823
 Calculated Step too Large.  Step scaled by  0.584664
 Step Taken.  Stepsize is  0.300000

                             Maximum     Tolerance    Cnvgd?
         Gradient           0.041477      0.000300      NO
         Displacement       0.175664      0.001200      NO
         Energy change     -0.002707      0.000001      NO


 New Cartesian Coordinates Obtained by Inverse Iteration

 Displacement from previous Coordinates is:  0.267850
 ----------------------------------------------------------------
             Standard Nuclear Orientation (Angstroms)
    I     Atom           X                Y                Z
 ----------------------------------------------------------------
    1      O       0.4744330703     1.1922659267    -0.0868523462
    2      C      -0.0694159379     0.0203986577     0.3950111807
    3      C       1.1076216004    -0.5875150567    -0.0932967850
    4      C      -1.2675324250    -0.6529662125    -0.1666526978
    5      H      -0.1100499675     0.0897083351     1.5242147469
    6      H       1.8293674028    -1.1582596651     0.5158493746
    7      H       1.0080071017    -0.9471546471    -1.1136862520
    8      H      -2.2190658709    -0.1068391989    -0.2337255756
    9      H      -1.4074938318    -1.6403429112     0.3014587554
 ----------------------------------------------------------------
 Molecular Point Group                 C1    NOp =  1
 Largest Abelian Subgroup              C1    NOp =  1
 Nuclear Repulsion Energy =   113.7135603891 hartrees
 There are       16 alpha and       16 beta electrons
 Applying Cartesian multipole field
    Component          Value
    ---------          -----
     (2,0,0)        1.00000E-11
     (0,2,0)        2.00000E-11
     (0,0,2)       -3.00000E-11
 Nucleus-field energy     =     0.0000000020 hartrees
 Requested basis set is 6-311++G(d)
 There are 44 shells and 108 basis functions
 A cutoff of  1.0D-12 yielded    983 shell pairs
 There are      6012 function pairs (      6474 Cartesian)
 Smallest overlap matrix eigenvalue = 4.90E-05
 Guess MOs from SCF MO coefficient file
 Reading MOs from coefficient file
 Reading MOs from coefficient file

 -----------------------------------------------------------------------
  General SCF calculation program by
  Eric Jon Sundstrom, Paul Horn, Yuezhi Mao, Dmitri Zuev, Alec White,
  David Stuck, Shaama M.S., Shane Yost, Joonho Lee, David Small,
  Daniel Levine, Susi Lehtola, Hugh Burton, Evgeny Epifanovsky
 -----------------------------------------------------------------------
 Exchange:     0.2220 Hartree-Fock + 1.0000 wB97X-D + LR-HF
 Correlation:  1.0000 wB97X-D
 Using SG-2 standard quadrature grid
 Dispersion:   Grimme D
 using 32 threads for integral computing
 -------------------------------------------------------
 OpenMP Integral computing Module                
 Release: version 1.0, May 2013, Q-Chem Inc. Pittsburgh 
 -------------------------------------------------------
 using 32 threads for integral computing
 -------------------------------------------------------
 OpenMP Integral computing Module                
 Release: version 1.0, May 2013, Q-Chem Inc. Pittsburgh 
 -------------------------------------------------------
 -------------------------------------------------------
 OpenMP BLAS3 based DFT computing Module                
 Release: version 1.0, May 2013, Q-Chem Inc. Pittsburgh 
 -------------------------------------------------------
 A restricted SCF calculation will be
 performed using Roothaan-Hall, GDM
 SCF converges when RMS gradient is below 1.0e-08
 ---------------------------------------
  Cycle       Energy         DIIS error
 ---------------------------------------
    1    -192.3451505576      9.07e-04  Roothaan Step
 ---------------------------------------
  Cycle       Energy        RMS Gradient
 ---------------------------------------
    1    -192.3473393526      4.50e-03   Normal BFGS step
    2    -192.3475131307      3.96e-03   Normal BFGS step
    3    -192.3476032703      2.29e-03   Normal BFGS step
    4    -192.3476254129      6.89e-04   Normal BFGS step
    5    -192.3476336298      9.33e-04   Normal BFGS step
    6    -192.3476372240      5.42e-04   Normal BFGS step
    7    -192.3476393276      2.65e-04   Normal BFGS step
    8    -192.3476399300      1.10e-04   Normal BFGS step
    9    -192.3476400397      3.99e-05   Normal BFGS step
   10    -192.3476400599      2.27e-05   Normal BFGS step
   11    -192.3476400640      9.86e-06   Normal BFGS step
   12    -192.3476400649      3.43e-06   Normal BFGS step
   13    -192.3476400650      9.39e-07   Normal BFGS step
   14    -192.3476400650      4.98e-07   Normal BFGS step
   15    -192.3476400650      2.58e-07   Normal BFGS step
   16    -192.3476400650      8.61e-08   Normal BFGS step
   17    -192.3476400650      3.85e-08   Normal BFGS step
   18    -192.3476400650      1.32e-08   Normal BFGS step
   19    -192.3476400650      5.28e-09  Convergence criterion met
 ---------------------------------------
 SCF time:   CPU 317.67s  wall 12.00s 
 SCF   energy in the final basis set =     -192.3476400650
 
 --------------------------------------------------------------
 
                    Orbital Energies (a.u.)
 --------------------------------------------------------------
 
 Alpha MOs
 -- Occupied --
-19.059 -10.164 -10.136 -10.027  -0.918  -0.658  -0.563  -0.455
 -0.403  -0.332  -0.309  -0.279  -0.235  -0.175  -0.151  -0.019
 -- Virtual --
  0.153   0.164   0.175   0.181   0.196   0.200   0.261   0.264
  0.269   0.287   0.298   0.309   0.310   0.326   0.330   0.338
  0.351   0.371   0.393   0.420   0.443   0.458   0.474   0.491
  0.506   0.535   0.538   0.589   0.613   0.629   0.694   0.717
  0.755   0.800   0.819   0.842   0.872   0.888   0.900   0.917
  0.941   0.965   0.978   0.995   1.103   1.157   1.221   1.387
  1.406   1.453   1.516   1.521   1.714   1.730   1.769   1.813
  1.882   1.922   1.948   1.995   2.021   2.113   2.187   2.342
  2.381   2.469   2.690   2.751   2.780   2.840   2.902   3.049
  3.112   3.151   3.196   3.257   3.324   3.361   3.453   3.516
  3.583   3.664   3.897   4.157   4.382   5.383   5.397   5.844
 23.739  24.022  24.251  50.226
 --------------------------------------------------------------
 
          Ground-State Mulliken Net Atomic Charges

     Atom                 Charge (a.u.)
  ----------------------------------------
      1 O                    -0.336639
      2 C                     0.134097
      3 C                    -0.467924
      4 C                    -0.734064
      5 H                     0.085734
      6 H                     0.111857
      7 H                     0.026509
      8 H                     0.117605
      9 H                     0.062824
  ----------------------------------------
  Sum of atomic charges =    -1.000000

 -----------------------------------------------------------------
                    Cartesian Multipole Moments
 -----------------------------------------------------------------
    Charge (ESU x 10^10)
                -4.8032
    Dipole Moment (Debye)
         X       2.9938      Y      -0.2146      Z       2.3917
       Tot       3.8378
    Quadrupole Moments (Debye-Ang)
        XX     -36.8087     XY      -6.2390     YY     -36.9016
        XZ      -2.2820     YZ      -2.4041     ZZ     -36.1668
    Octopole Moments (Debye-Ang^2)
       XXX      12.4068    XXY       8.4576    XYY       2.8612
       YYY      16.6966    XXZ       1.9365    XYZ       2.9451
       YYZ       5.6241    XZZ       7.8190    YZZ      10.2567
       ZZZ       6.8101
    Hexadecapole Moments (Debye-Ang^3)
      XXXX    -256.9129   XXXY     -28.1087   XXYY     -72.7553
      XYYY     -26.0841   YYYY    -183.4720   XXXZ      -2.3374
      XXYZ      -6.1886   XYYZ      -5.9871   YYYZ     -16.7537
      XXZZ     -67.2669   XYZZ     -12.8649   YYZZ     -52.7441
      XZZZ     -13.7734   YZZZ     -14.8400   ZZZZ    -119.9572
 -----------------------------------------------------------------
 Calculating analytic gradient of the SCF energy
 Gradient of SCF Energy
            1           2           3           4           5           6
    1  -0.0317754   0.0468698  -0.0109505   0.0131902  -0.0058213  -0.0082665
    2   0.0152338   0.0146052   0.0051600   0.0022764   0.0022080  -0.0220748
    3   0.0141578  -0.0414710   0.0144298   0.0152917   0.0030208  -0.0042995
            7           8           9
    1  -0.0020017  -0.0027089   0.0014642
    2  -0.0103455  -0.0022908  -0.0047723
    3   0.0040358  -0.0008549  -0.0043105
 Max gradient component =       4.687E-02
 RMS gradient           =       1.627E-02
 Gradient time:  CPU 27.14 s  wall 1.20 s
 Geometry Optimization Parameters
   NAtoms,    NIC,     NZ,  NCons,   NDum,   NFix, NCnnct, MaxDiis
        9      50       0       0       0       0       0       0

 Cartesian Hessian Update
 Hessian Updated using BFGS Update


** GEOMETRY OPTIMIZATION IN DELOCALIZED INTERNAL COORDINATES **
   Searching for a Minimum

   Optimization Cycle:   6

                       Coordinates (Angstroms)
     ATOM                X               Y               Z
      1  O         0.4744330703    1.1922659267   -0.0868523462
      2  C        -0.0694159379    0.0203986577    0.3950111807
      3  C         1.1076216004   -0.5875150567   -0.0932967850
      4  C        -1.2675324250   -0.6529662125   -0.1666526978
      5  H        -0.1100499675    0.0897083351    1.5242147469
      6  H         1.8293674028   -1.1582596651    0.5158493746
      7  H         1.0080071017   -0.9471546471   -1.1136862520
      8  H        -2.2190658709   -0.1068391989   -0.2337255756
      9  H        -1.4074938318   -1.6403429112    0.3014587554
   Point Group: c1    Number of degrees of freedom:    21


   Energy is   -192.347640065

 Hessian Updated using BFGS Update

 20 Hessian modes will be used to form the next step
  Hessian Eigenvalues:
     0.009172    0.021962    0.027949    0.060182    0.079183    0.095316
     0.132606    0.160518    0.161086    0.164011    0.189631    0.302193
     0.323450    0.338667    0.345879    0.348512    0.353853    0.355131
     0.401977  288.486003
**WARNING** Magnitude of eigenvalue  20 too large.  Replaced by    25.000000

 Minimum Search - Taking Simple RFO Step
 Searching for Lamda that Minimizes Along All modes
 Value Taken    Lamda =  -0.01306653
 Calculated Step too Large.  Step scaled by  0.476360
 Step Taken.  Stepsize is  0.300000

                             Maximum     Tolerance    Cnvgd?
         Gradient           0.054338      0.000300      NO
         Displacement       0.162590      0.001200      NO
         Energy change     -0.001809      0.000001      NO


 New Cartesian Coordinates Obtained by Inverse Iteration

 Displacement from previous Coordinates is:  0.301689
 ----------------------------------------------------------------
             Standard Nuclear Orientation (Angstroms)
    I     Atom           X                Y                Z
 ----------------------------------------------------------------
    1      O       0.5346496884     1.1364151407    -0.1063317439
    2      C      -0.0820040413     0.0181485908     0.3968882626
    3      C       1.0835968046    -0.5976530347    -0.0767469565
    4      C      -1.2770414531    -0.6638583451    -0.1543997538
    5      H      -0.1180515632     0.1373589721     1.5278615958
    6      H       1.8116923839    -1.1917960429     0.5052958051
    7      H       1.0359855860    -0.8462070396    -1.1307673461
    8      H      -2.2373308980    -0.1346156913    -0.2425636103
    9      H      -1.4056253653    -1.6484973220     0.3230841479
 ----------------------------------------------------------------
 Molecular Point Group                 C1    NOp =  1
 Largest Abelian Subgroup              C1    NOp =  1
 Nuclear Repulsion Energy =   114.5151935463 hartrees
 There are       16 alpha and       16 beta electrons
 Applying Cartesian multipole field
    Component          Value
    ---------          -----
     (2,0,0)        1.00000E-11
     (0,2,0)        2.00000E-11
     (0,0,2)       -3.00000E-11
 Nucleus-field energy     =     0.0000000020 hartrees
 Requested basis set is 6-311++G(d)
 There are 44 shells and 108 basis functions
 A cutoff of  1.0D-12 yielded    983 shell pairs
 There are      6012 function pairs (      6474 Cartesian)
 Smallest overlap matrix eigenvalue = 5.02E-05
 Guess MOs from SCF MO coefficient file
 Reading MOs from coefficient file
 Reading MOs from coefficient file

 -----------------------------------------------------------------------
  General SCF calculation program by
  Eric Jon Sundstrom, Paul Horn, Yuezhi Mao, Dmitri Zuev, Alec White,
  David Stuck, Shaama M.S., Shane Yost, Joonho Lee, David Small,
  Daniel Levine, Susi Lehtola, Hugh Burton, Evgeny Epifanovsky
 -----------------------------------------------------------------------
 Exchange:     0.2220 Hartree-Fock + 1.0000 wB97X-D + LR-HF
 Correlation:  1.0000 wB97X-D
 Using SG-2 standard quadrature grid
 Dispersion:   Grimme D
 using 32 threads for integral computing
 -------------------------------------------------------
 OpenMP Integral computing Module                
 Release: version 1.0, May 2013, Q-Chem Inc. Pittsburgh 
 -------------------------------------------------------
 using 32 threads for integral computing
 -------------------------------------------------------
 OpenMP Integral computing Module                
 Release: version 1.0, May 2013, Q-Chem Inc. Pittsburgh 
 -------------------------------------------------------
 -------------------------------------------------------
 OpenMP BLAS3 based DFT computing Module                
 Release: version 1.0, May 2013, Q-Chem Inc. Pittsburgh 
 -------------------------------------------------------
 A restricted SCF calculation will be
 performed using Roothaan-Hall, GDM
 SCF converges when RMS gradient is below 1.0e-08
 ---------------------------------------
  Cycle       Energy         DIIS error
 ---------------------------------------
    1    -192.3479062506      1.30e-03  Roothaan Step
 ---------------------------------------
  Cycle       Energy        RMS Gradient
 ---------------------------------------
    1    -192.3521900188      4.95e-03   Normal BFGS step
    2    -192.3526366416      3.92e-03   Normal BFGS step
    3    -192.3527970072      3.29e-03   Normal BFGS step
    4    -192.3528665470      1.49e-03   Normal BFGS step
    5    -192.3529082818      8.03e-04   Normal BFGS step
    6    -192.3529310184      5.47e-04   Normal BFGS step
    7    -192.3529350125      2.80e-04   Normal BFGS step
    8    -192.3529362552      1.53e-04   Normal BFGS step
    9    -192.3529365262      7.50e-05   Normal BFGS step
   10    -192.3529365847      3.51e-05   Normal BFGS step
   11    -192.3529365998      1.35e-05   Normal BFGS step
   12    -192.3529366026      8.71e-06   Normal BFGS step
   13    -192.3529366034      4.62e-06   Normal BFGS step
   14    -192.3529366036      1.26e-06   Normal BFGS step
   15    -192.3529366036      5.50e-07   Normal BFGS step
   16    -192.3529366036      1.67e-07   Normal BFGS step
   17    -192.3529366036      7.76e-08   Normal BFGS step
   18    -192.3529366036      2.59e-08   Normal BFGS step
   19    -192.3529366036      1.08e-08   Normal BFGS step
   20    -192.3529366036      4.72e-09  Convergence criterion met
 ---------------------------------------
 SCF time:   CPU 335.27s  wall 12.00s 
 SCF   energy in the final basis set =     -192.3529366036
 
 --------------------------------------------------------------
 
                    Orbital Energies (a.u.)
 --------------------------------------------------------------
 
 Alpha MOs
 -- Occupied --
-19.068 -10.169 -10.138 -10.019  -0.936  -0.657  -0.563  -0.459
 -0.410  -0.335  -0.310  -0.283  -0.235  -0.182  -0.156  -0.014
 -- Virtual --
  0.154   0.173   0.175   0.181   0.196   0.202   0.261   0.263
  0.269   0.289   0.296   0.308   0.310   0.328   0.330   0.336
  0.352   0.371   0.394   0.418   0.442   0.459   0.470   0.498
  0.508   0.531   0.537   0.590   0.612   0.629   0.694   0.720
  0.757   0.797   0.821   0.844   0.875   0.892   0.908   0.922
  0.947   0.967   0.980   0.998   1.108   1.175   1.215   1.391
  1.409   1.465   1.510   1.526   1.690   1.713   1.769   1.824
  1.887   1.922   1.944   1.994   2.029   2.116   2.196   2.354
  2.381   2.474   2.689   2.755   2.781   2.852   2.892   3.035
  3.123   3.158   3.200   3.254   3.343   3.365   3.465   3.520
  3.584   3.731   3.902   4.122   4.404   5.378   5.392   5.838
 23.739  24.035  24.284  50.225
 --------------------------------------------------------------
 
          Ground-State Mulliken Net Atomic Charges

     Atom                 Charge (a.u.)
  ----------------------------------------
      1 O                    -0.297922
      2 C                     0.086354
      3 C                    -0.394331
      4 C                    -0.772386
      5 H                     0.078784
      6 H                     0.125813
      7 H                     0.004796
      8 H                     0.110208
      9 H                     0.058684
  ----------------------------------------
  Sum of atomic charges =    -1.000000

 -----------------------------------------------------------------
                    Cartesian Multipole Moments
 -----------------------------------------------------------------
    Charge (ESU x 10^10)
                -4.8032
    Dipole Moment (Debye)
         X       3.4548      Y       0.0989      Z       2.4162
       Tot       4.2170
    Quadrupole Moments (Debye-Ang)
        XX     -37.4290     XY      -6.7795     YY     -36.3425
        XZ      -2.4144     YZ      -2.6288     ZZ     -36.6210
    Octopole Moments (Debye-Ang^2)
       XXX      14.7365    XXY       8.9727    XYY       3.9317
       YYY      18.6983    XXZ       1.4511    XYZ       3.0760
       YYZ       6.0189    XZZ       8.6246    YZZ      10.8623
       ZZZ       7.1006
    Hexadecapole Moments (Debye-Ang^3)
      XXXX    -264.5409   XXXY     -31.5276   XXYY     -72.6547
      XYYY     -29.9678   YYYY    -175.9095   XXXZ      -1.6881
      XXYZ      -6.3246   XYYZ      -6.1026   YYYZ     -17.0170
      XXZZ     -69.6488   XYZZ     -14.3392   YYZZ     -52.9714
      XZZZ     -14.0400   YZZZ     -15.2574   ZZZZ    -125.6422
 -----------------------------------------------------------------
 Calculating analytic gradient of the SCF energy
 Gradient of SCF Energy
            1           2           3           4           5           6
    1  -0.0383281   0.0611181  -0.0252837   0.0176232  -0.0062172  -0.0069049
    2   0.0170957   0.0188311  -0.0050180  -0.0008731   0.0036918  -0.0247254
    3   0.0148459  -0.0497765   0.0227548   0.0200696   0.0050628  -0.0051324
            7           8           9
    1   0.0003630  -0.0028971   0.0005267
    2  -0.0022088  -0.0027281  -0.0040653
    3  -0.0005156  -0.0047406  -0.0025680
 Max gradient component =       6.112E-02
 RMS gradient           =       2.044E-02
 Gradient time:  CPU 27.37 s  wall 1.22 s
 Geometry Optimization Parameters
   NAtoms,    NIC,     NZ,  NCons,   NDum,   NFix, NCnnct, MaxDiis
        9      50       0       0       0       0       0       0

 Cartesian Hessian Update
 Hessian Updated using BFGS Update


** GEOMETRY OPTIMIZATION IN DELOCALIZED INTERNAL COORDINATES **
   Searching for a Minimum

   Optimization Cycle:   7

                       Coordinates (Angstroms)
     ATOM                X               Y               Z
      1  O         0.5346496884    1.1364151407   -0.1063317439
      2  C        -0.0820040413    0.0181485908    0.3968882626
      3  C         1.0835968046   -0.5976530347   -0.0767469565
      4  C        -1.2770414531   -0.6638583451   -0.1543997538
      5  H        -0.1180515632    0.1373589721    1.5278615958
      6  H         1.8116923839   -1.1917960429    0.5052958051
      7  H         1.0359855860   -0.8462070396   -1.1307673461
      8  H        -2.2373308980   -0.1346156913   -0.2425636103
      9  H        -1.4056253653   -1.6484973220    0.3230841479
   Point Group: c1    Number of degrees of freedom:    21


   Energy is   -192.352936604

 Hessian Updated using BFGS Update

 20 Hessian modes will be used to form the next step
  Hessian Eigenvalues:
     0.009826    0.022168    0.035333    0.060199    0.085130    0.091613
     0.133526    0.160620    0.161316    0.163556    0.185020    0.301825
     0.326429    0.337980    0.345713    0.348200    0.348813    0.354417
     0.401655  216.919141
**WARNING** Magnitude of eigenvalue  20 too large.  Replaced by    25.000000

 Minimum Search - Taking Simple RFO Step
 Searching for Lamda that Minimizes Along All modes
[...]
    4      C      -1.5669310936    -0.5896300922     0.2910243810
    5      H       0.0580181965     0.0377963193     1.6851547806
    6      H       2.0307111063    -0.5908111547     0.3562275312
    7      H       0.9417144720    -1.0946727073    -1.0491279307
    8      H      -1.9249341119    -0.0044268853    -0.5674110343
    9      H      -1.5983962133    -1.6565672512     0.0143377930
 ----------------------------------------------------------------
 Molecular Point Group                 C1    NOp =  1
 Largest Abelian Subgroup              C1    NOp =  1
 Nuclear Repulsion Energy =   116.2342054424 hartrees
 There are       16 alpha and       16 beta electrons
 Applying Cartesian multipole field
    Component          Value
    ---------          -----
     (2,0,0)        1.00000E-11
     (0,2,0)        2.00000E-11
     (0,0,2)       -3.00000E-11
 Nucleus-field energy     =     0.0000000014 hartrees
 Requested basis set is 6-311++G(d)
 There are 44 shells and 108 basis functions
 A cutoff of  1.0D-12 yielded    983 shell pairs
 There are      6009 function pairs (      6471 Cartesian)
 Smallest overlap matrix eigenvalue = 6.14E-05
 Guess MOs from SCF MO coefficient file
 Reading MOs from coefficient file
 Reading MOs from coefficient file

 -----------------------------------------------------------------------
  General SCF calculation program by
  Eric Jon Sundstrom, Paul Horn, Yuezhi Mao, Dmitri Zuev, Alec White,
  David Stuck, Shaama M.S., Shane Yost, Joonho Lee, David Small,
  Daniel Levine, Susi Lehtola, Hugh Burton, Evgeny Epifanovsky
 -----------------------------------------------------------------------
 Exchange:     0.2220 Hartree-Fock + 1.0000 wB97X-D + LR-HF
 Correlation:  1.0000 wB97X-D
 Using SG-2 standard quadrature grid
 Dispersion:   Grimme D
 using 32 threads for integral computing
 -------------------------------------------------------
 OpenMP Integral computing Module                
 Release: version 1.0, May 2013, Q-Chem Inc. Pittsburgh 
 -------------------------------------------------------
 using 32 threads for integral computing
 -------------------------------------------------------
 OpenMP Integral computing Module                
 Release: version 1.0, May 2013, Q-Chem Inc. Pittsburgh 
 -------------------------------------------------------
 -------------------------------------------------------
 OpenMP BLAS3 based DFT computing Module                
 Release: version 1.0, May 2013, Q-Chem Inc. Pittsburgh 
 -------------------------------------------------------
 A restricted SCF calculation will be
 performed using Roothaan-Hall, GDM
 SCF converges when RMS gradient is below 1.0e-08
 ---------------------------------------
  Cycle       Energy         DIIS error
 ---------------------------------------
    1    -192.4221503248      1.80e-11  Roothaan Step
 ---------------------------------------
  Cycle       Energy        RMS Gradient
 ---------------------------------------
    1    -192.4221503248      2.20e-10  Convergence criterion met
 ---------------------------------------
 SCF time:   CPU 45.01s  wall 1.00s 
 SCF   energy in the final basis set =     -192.4221503248
 
 --------------------------------------------------------------
 
                    Orbital Energies (a.u.)
 --------------------------------------------------------------
 
 Alpha MOs
 -- Occupied --
-19.075 -10.154 -10.145 -10.012  -0.988  -0.606  -0.568  -0.478
 -0.404  -0.356  -0.303  -0.256  -0.245  -0.191  -0.170  -0.021
 -- Virtual --
  0.154   0.173   0.184   0.200   0.205   0.235   0.260   0.275
  0.293   0.297   0.307   0.312   0.332   0.334   0.343   0.348
  0.368   0.380   0.412   0.423   0.437   0.465   0.480   0.486
  0.487   0.511   0.537   0.579   0.602   0.629   0.716   0.735
  0.776   0.798   0.830   0.845   0.849   0.909   0.916   0.942
  0.950   0.957   0.968   0.999   1.110   1.191   1.211   1.325
  1.354   1.444   1.525   1.603   1.654   1.706   1.791   1.805
  1.828   1.931   1.985   2.018   2.049   2.108   2.183   2.242
  2.384   2.424   2.710   2.723   2.816   2.852   2.918   3.017
  3.044   3.214   3.261   3.331   3.378   3.392   3.433   3.469
  3.551   3.853   3.948   4.129   4.538   5.328   5.621   5.774
 23.774  24.028  24.112  50.198
 --------------------------------------------------------------
 
          Ground-State Mulliken Net Atomic Charges

     Atom                 Charge (a.u.)
  ----------------------------------------
      1 O                    -0.172552
      2 C                    -0.000188
      3 C                    -0.408369
      4 C                    -0.992617
      5 H                     0.175427
      6 H                     0.104706
      7 H                     0.161310
      8 H                     0.074365
      9 H                     0.057918
  ----------------------------------------
  Sum of atomic charges =    -1.000000

 -----------------------------------------------------------------
                    Cartesian Multipole Moments
 -----------------------------------------------------------------
    Charge (ESU x 10^10)
                -4.8032
    Dipole Moment (Debye)
         X       6.2599      Y       0.3520      Z      -1.7332
       Tot       6.5050
    Quadrupole Moments (Debye-Ang)
        XX     -46.6954     XY      -5.2584     YY     -33.1406
        XZ       6.5037     YZ       1.8111     ZZ     -33.2115
    Octopole Moments (Debye-Ang^2)
       XXX      58.6760    XXY      14.6784    XYY       8.2795
       YYY      20.4262    XXZ     -21.4554    XYZ      -2.6777
       YYZ      -5.7767    XZZ      15.3877    YZZ       9.4751
       ZZZ     -17.7779
    Hexadecapole Moments (Debye-Ang^3)
      XXXX    -406.3798   XXXY     -43.6539   XXYY     -78.8065
      XYYY     -29.5165   YYYY    -117.6756   XXXZ      67.0391
      XXYZ       9.5688   XYYZ      10.4305   YYYZ       6.9439
      XXZZ     -87.9784   XYZZ     -14.2039   YYZZ     -38.8716
      XZZZ      32.9823   YZZZ       8.0335   ZZZZ    -105.2873
 -----------------------------------------------------------------
 Calculating analytic gradient of the SCF energy
 Gradient of SCF Energy
            1           2           3           4           5           6
    1  -0.0001161   0.0001467  -0.0000799  -0.0001913   0.0001261   0.0000355
    2   0.0001835  -0.0002103   0.0002416   0.0007809  -0.0005246   0.0000996
    3   0.0002182   0.0000038  -0.0002800  -0.0002006   0.0000797  -0.0001003
            7           8           9
    1  -0.0000187   0.0001926  -0.0000948
    2  -0.0001099  -0.0003456  -0.0001151
    3   0.0000358  -0.0002859   0.0005294
 Max gradient component =       7.809E-04
 RMS gradient           =       2.627E-04
 Gradient time:  CPU 27.68 s  wall 1.24 s
 Geometry Optimization Parameters
   NAtoms,    NIC,     NZ,  NCons,   NDum,   NFix, NCnnct, MaxDiis
        9      50       0       0       0       0       0       0

 Cartesian Hessian Update
 Hessian Updated using BFGS Update
**WARNING** Hereditary positive definiteness endangered
**WARNING** Small Scalar Product
 Hessian Update Skipped this cycle


** GEOMETRY OPTIMIZATION IN DELOCALIZED INTERNAL COORDINATES **
   Searching for a Minimum

   Optimization Cycle: 199

                       Coordinates (Angstroms)
     ATOM                X               Y               Z
      1  O         0.5294663416    0.8006893317   -0.1881589317
      2  C        -0.1769258401   -0.1822039535    0.6343031925
      3  C         1.0531482846   -0.5108783789   -0.1340293807
      4  C        -1.5669310936   -0.5896300922    0.2910243810
      5  H         0.0580181965    0.0377963193    1.6851547806
      6  H         2.0307111063   -0.5908111547    0.3562275312
      7  H         0.9417144720   -1.0946727073   -1.0491279307
      8  H        -1.9249341119   -0.0044268853   -0.5674110343
      9  H        -1.5983962133   -1.6565672512    0.0143377930
   Point Group: c1    Number of degrees of freedom:    21


   Energy is   -192.422150325

 Hessian Updated using BFGS Update
**WARNING** Hereditary positive definiteness endangered
**WARNING** Small Scalar Product
 Hessian Update Skipped this cycle

  0 Hessian modes will be used to form the next step
  Hessian Eigenvalues:


 Minimum Search - Taking Simple RFO Step
 Searching for Lamda that Minimizes Along All modes
 Value Taken    Lamda =   0.00000000
 Step Taken.  Stepsize is  0.000000

                             Maximum     Tolerance    Cnvgd?
         Gradient           0.000452      0.000300      NO
         Displacement       0.000000      0.001200     YES
         Energy change     -0.000000      0.000001     YES


 New Cartesian Coordinates Obtained by Inverse Iteration

 Displacement from previous Coordinates is:  0.000000
 ----------------------------------------------------------------
             Standard Nuclear Orientation (Angstroms)
    I     Atom           X                Y                Z
 ----------------------------------------------------------------
    1      O       0.5294663416     0.8006893317    -0.1881589317
    2      C      -0.1769258401    -0.1822039535     0.6343031925
    3      C       1.0531482846    -0.5108783789    -0.1340293807
    4      C      -1.5669310936    -0.5896300922     0.2910243810
    5      H       0.0580181965     0.0377963193     1.6851547806
    6      H       2.0307111063    -0.5908111547     0.3562275312
    7      H       0.9417144720    -1.0946727073    -1.0491279307
    8      H      -1.9249341119    -0.0044268853    -0.5674110343
    9      H      -1.5983962133    -1.6565672512     0.0143377930
 ----------------------------------------------------------------
 Molecular Point Group                 C1    NOp =  1
 Largest Abelian Subgroup              C1    NOp =  1
 Nuclear Repulsion Energy =   116.2342054424 hartrees
 There are       16 alpha and       16 beta electrons
 Applying Cartesian multipole field
    Component          Value
    ---------          -----
     (2,0,0)        1.00000E-11
     (0,2,0)        2.00000E-11
     (0,0,2)       -3.00000E-11
 Nucleus-field energy     =     0.0000000014 hartrees
 Requested basis set is 6-311++G(d)
 There are 44 shells and 108 basis functions
 A cutoff of  1.0D-12 yielded    983 shell pairs
 There are      6009 function pairs (      6471 Cartesian)
 Smallest overlap matrix eigenvalue = 6.14E-05
 Guess MOs from SCF MO coefficient file
 Reading MOs from coefficient file
 Reading MOs from coefficient file

 -----------------------------------------------------------------------
  General SCF calculation program by
  Eric Jon Sundstrom, Paul Horn, Yuezhi Mao, Dmitri Zuev, Alec White,
  David Stuck, Shaama M.S., Shane Yost, Joonho Lee, David Small,
  Daniel Levine, Susi Lehtola, Hugh Burton, Evgeny Epifanovsky
 -----------------------------------------------------------------------
 Exchange:     0.2220 Hartree-Fock + 1.0000 wB97X-D + LR-HF
 Correlation:  1.0000 wB97X-D
 Using SG-2 standard quadrature grid
 Dispersion:   Grimme D
 using 32 threads for integral computing
 -------------------------------------------------------
 OpenMP Integral computing Module                
 Release: version 1.0, May 2013, Q-Chem Inc. Pittsburgh 
 -------------------------------------------------------
 using 32 threads for integral computing
 -------------------------------------------------------
 OpenMP Integral computing Module                
 Release: version 1.0, May 2013, Q-Chem Inc. Pittsburgh 
 -------------------------------------------------------
 -------------------------------------------------------
 OpenMP BLAS3 based DFT computing Module                
 Release: version 1.0, May 2013, Q-Chem Inc. Pittsburgh 
 -------------------------------------------------------
 A restricted SCF calculation will be
 performed using Roothaan-Hall, GDM
 SCF converges when RMS gradient is below 1.0e-08
 ---------------------------------------
  Cycle       Energy         DIIS error
 ---------------------------------------
    1    -192.4221503248      2.44e-11  Roothaan Step
 ---------------------------------------
  Cycle       Energy        RMS Gradient
 ---------------------------------------
    1    -192.4221503248      3.05e-10  Convergence criterion met
 ---------------------------------------
 SCF time:   CPU 44.42s  wall 2.00s 
 SCF   energy in the final basis set =     -192.4221503248
 
 --------------------------------------------------------------
 
                    Orbital Energies (a.u.)
 --------------------------------------------------------------
 
 Alpha MOs
 -- Occupied --
-19.075 -10.154 -10.145 -10.012  -0.988  -0.606  -0.568  -0.478
 -0.404  -0.356  -0.303  -0.256  -0.245  -0.191  -0.170  -0.021
 -- Virtual --
  0.154   0.173   0.184   0.200   0.205   0.235   0.260   0.275
  0.293   0.297   0.307   0.312   0.332   0.334   0.343   0.348
  0.368   0.380   0.412   0.423   0.437   0.465   0.480   0.486
  0.487   0.511   0.537   0.579   0.602   0.629   0.716   0.735
  0.776   0.798   0.830   0.845   0.849   0.909   0.916   0.942
  0.950   0.957   0.968   0.999   1.110   1.191   1.211   1.325
  1.354   1.444   1.525   1.603   1.654   1.706   1.791   1.805
  1.828   1.931   1.985   2.018   2.049   2.108   2.183   2.242
  2.384   2.424   2.710   2.723   2.816   2.852   2.918   3.017
  3.044   3.214   3.261   3.331   3.378   3.392   3.433   3.469
  3.551   3.853   3.948   4.129   4.538   5.328   5.621   5.774
 23.774  24.028  24.112  50.198
 --------------------------------------------------------------
 
          Ground-State Mulliken Net Atomic Charges

     Atom                 Charge (a.u.)
  ----------------------------------------
      1 O                    -0.172552
      2 C                    -0.000188
      3 C                    -0.408369
      4 C                    -0.992617
      5 H                     0.175427
      6 H                     0.104706
      7 H                     0.161310
      8 H                     0.074365
      9 H                     0.057918
  ----------------------------------------
  Sum of atomic charges =    -1.000000

 -----------------------------------------------------------------
                    Cartesian Multipole Moments
 -----------------------------------------------------------------
    Charge (ESU x 10^10)
                -4.8032
    Dipole Moment (Debye)
         X       6.2599      Y       0.3520      Z      -1.7332
       Tot       6.5050
    Quadrupole Moments (Debye-Ang)
        XX     -46.6954     XY      -5.2584     YY     -33.1406
        XZ       6.5037     YZ       1.8111     ZZ     -33.2115
    Octopole Moments (Debye-Ang^2)
       XXX      58.6760    XXY      14.6784    XYY       8.2795
       YYY      20.4262    XXZ     -21.4554    XYZ      -2.6777
       YYZ      -5.7767    XZZ      15.3877    YZZ       9.4751
       ZZZ     -17.7779
    Hexadecapole Moments (Debye-Ang^3)
      XXXX    -406.3798   XXXY     -43.6539   XXYY     -78.8065
      XYYY     -29.5165   YYYY    -117.6756   XXXZ      67.0391
      XXYZ       9.5688   XYYZ      10.4305   YYYZ       6.9439
      XXZZ     -87.9784   XYZZ     -14.2039   YYZZ     -38.8716
      XZZZ      32.9823   YZZZ       8.0335   ZZZZ    -105.2873
 -----------------------------------------------------------------
 Calculating analytic gradient of the SCF energy
 Gradient of SCF Energy
            1           2           3           4           5           6
    1  -0.0001161   0.0001467  -0.0000799  -0.0001913   0.0001261   0.0000355
    2   0.0001835  -0.0002103   0.0002416   0.0007809  -0.0005246   0.0000996
    3   0.0002182   0.0000038  -0.0002800  -0.0002006   0.0000797  -0.0001003
            7           8           9
    1  -0.0000187   0.0001926  -0.0000948
    2  -0.0001099  -0.0003456  -0.0001151
    3   0.0000358  -0.0002859   0.0005294
 Max gradient component =       7.809E-04
 RMS gradient           =       2.627E-04
 Gradient time:  CPU 27.26 s  wall 1.20 s
 Geometry Optimization Parameters
   NAtoms,    NIC,     NZ,  NCons,   NDum,   NFix, NCnnct, MaxDiis
        9      50       0       0       0       0       0       0

 Cartesian Hessian Update
 Hessian Updated using BFGS Update
**WARNING** Hereditary positive definiteness endangered
**WARNING** Small Scalar Product
 Hessian Update Skipped this cycle


** GEOMETRY OPTIMIZATION IN DELOCALIZED INTERNAL COORDINATES **
   Searching for a Minimum

   Optimization Cycle: 200

                       Coordinates (Angstroms)
     ATOM                X               Y               Z
      1  O         0.5294663416    0.8006893317   -0.1881589317
      2  C        -0.1769258401   -0.1822039535    0.6343031925
      3  C         1.0531482846   -0.5108783789   -0.1340293807
      4  C        -1.5669310936   -0.5896300922    0.2910243810
      5  H         0.0580181965    0.0377963193    1.6851547806
      6  H         2.0307111063   -0.5908111547    0.3562275312
      7  H         0.9417144720   -1.0946727073   -1.0491279307
      8  H        -1.9249341119   -0.0044268853   -0.5674110343
      9  H        -1.5983962133   -1.6565672512    0.0143377930
   Point Group: c1    Number of degrees of freedom:    21


   Energy is   -192.422150325

 Hessian Updated using BFGS Update
**WARNING** Hereditary positive definiteness endangered
**WARNING** Small Scalar Product
 Hessian Update Skipped this cycle

  0 Hessian modes will be used to form the next step
  Hessian Eigenvalues:


 Minimum Search - Taking Simple RFO Step
 Searching for Lamda that Minimizes Along All modes
 Value Taken    Lamda =   0.00000000
 Step Taken.  Stepsize is  0.000000

                             Maximum     Tolerance    Cnvgd?
         Gradient           0.000452      0.000300      NO
         Displacement       0.000000      0.001200     YES
         Energy change      0.000000      0.000001     YES


 New Cartesian Coordinates Obtained by Inverse Iteration

 Displacement from previous Coordinates is:  0.000000
 ----------------------------------------------------------------
             Standard Nuclear Orientation (Angstroms)
    I     Atom           X                Y                Z
 ----------------------------------------------------------------
    1      O       0.5294663416     0.8006893317    -0.1881589317
    2      C      -0.1769258401    -0.1822039535     0.6343031925
    3      C       1.0531482846    -0.5108783789    -0.1340293807
    4      C      -1.5669310936    -0.5896300922     0.2910243810
    5      H       0.0580181965     0.0377963193     1.6851547806
    6      H       2.0307111063    -0.5908111547     0.3562275312
    7      H       0.9417144720    -1.0946727073    -1.0491279307
    8      H      -1.9249341119    -0.0044268853    -0.5674110343
    9      H      -1.5983962133    -1.6565672512     0.0143377930
 ----------------------------------------------------------------
 Molecular Point Group                 C1    NOp =  1
 Largest Abelian Subgroup              C1    NOp =  1
 Nuclear Repulsion Energy =   116.2342054424 hartrees
 There are       16 alpha and       16 beta electrons

                       Distance Matrix (Angstroms)
             O (  1)   C (  2)   C (  3)   C (  4)   H (  5)   H (  6)
   C (  2)  1.463391
   C (  3)  1.413288  1.487093
   C (  4)  2.560759  1.488607  2.655502
   H (  5)  2.076914  1.099040  2.144938  2.231081
   H (  6)  2.118104  2.262288  1.096526  3.598233  2.460226
   H (  7)  2.122172  2.217633  1.091164  2.888664  3.088642  1.847922
   H (  8)  2.610771  2.128674  3.051768  1.098881  3.001322  4.104154
   H (  9)  3.256826  2.139786  2.892284  1.102679  2.899346  3.797782
             H (  7)   H (  8)
   H (  8)  3.104571
   H (  9)  2.810489  1.781748
 


 *******************************************
 **  MAXIMUM OPTIMIZATION CYCLES REACHED  **
 *******************************************

 Q-Chem fatal error occurred in module 0, line  456, PE  0:

 Maximum optimization cycles reached

