
Running Job 1 of 1 mol.qin
qchem mol.qin_22598.0 /tmp/qchem22598/ 1
srun -n 1 /global/common/edison/software/qchem/5.1beta/exe/qcprog.exe mol.qin_22598.0 /tmp/qchem22598/

Process 0 of 1 is on nid02699 - thread support 0
initial socket setup ...start
initial socket setup ...done 
now start server 0 ... 
Check license passed

                  Welcome to Q-Chem
     A Quantum Leap Into The Future Of Chemistry


 Q-Chem 5.1, Q-Chem, Inc., Pleasanton, CA (2018)

 Yihan Shao,  Zhengting Gan,  E. Epifanovsky,  A. T. B. Gilbert,  M. Wormit,  
 J. Kussmann,  A. W. Lange,  A. Behn,  Jia Deng,  Xintian Feng,  D. Ghosh,  
 M. Goldey,  P. R. Horn,  L. D. Jacobson,  I. Kaliman,  T. Kus,  A. Landau,  
 Jie Liu,  E. I. Proynov,  R. M. Richard,  R. P. Steele,  E. J. Sundstrom,  
 H. L. Woodcock III,  P. M. Zimmerman,  D. Zuev,  B. Albrecht,  E. Alguire,  
 S. A. Baeppler,  D. Barton,  Z. Benda,  Y. A. Bernard,  E. J. Berquist,  
 K. B. Bravaya,  H. Burton,  D. Casanova,  Chun-Min Chang,  Yunqing Chen,  
 A. Chien,  K. D. Closser,  M. P. Coons,  S. Coriani,  S. Dasgupta,  
 A. L. Dempwolff,  M. Diedenhofen,  Hainam Do,  R. G. Edgar,  Po-Tung Fang,  
 S. Faraji,  S. Fatehi,  Qingguo Feng,  K. D. Fenk,  J. Fosso-Tande,  
 Qinghui Ge,  A. Ghysels,  G. Gidofalvi,  J. Gomes,  J. Gonthier,  A. Gunina,  
 D. Hait,  M. W. D. Hanson-Heine,  P. H. P. Harbach,  A. W. Hauser,  
 J. E. Herr,  E. G. Hohenstein,  Z. C. Holden,  Kerwin Hui,  B. C. Huynh,  
 T.-C. Jagau,  Hyunjun Ji,  B. Kaduk,  K. Khistyaev,  Jaehoon Kim,  
 P. Klunzinger,  K. Koh,  D. Kosenkov,  L. Koulias,  T. Kowalczyk,  
 C. M. Krauter,  A. Kunitsa,  Ka Un Lao,  A. Laurent,  K. V. Lawler,  
 Joonho Lee,  D. Lefrancois,  S. Lehtola,  D. S. Levine,  Yi-Pei Li,  
 You-Sheng Lin,  Fenglai Liu,  E. Livshits,  A. Luenser,  P. Manohar,  
 E. Mansoor,  S. F. Manzer,  Shan-Ping Mao,  Yuezhi Mao,  N. Mardirossian,  
 A. V. Marenich,  T. Markovich,  L. A. Martinez-Martinez,  S. A. Maurer,  
 N. J. Mayhall,  S. C. McKenzie,  J.-M. Mewes,  A. F. Morrison,  
 J. W. Mullinax,  K. Nanda,  T. S. Nguyen-Beck,  R. Olivares-Amaya,  
 J. A. Parkhill,  T. M. Perrine,  F. Plasser,  P. Pokhilko,  S. Prager,  
 A. Prociuk,  E. Ramos,  D. R. Rehn,  F. Rob,  M. Schneider,  N. Sergueev,  
 S. M. Sharada,  S. Sharma,  D. W. Small,  T. Stauch,  T. Stein,  
 Yu-Chuan Su,  A. J. W. Thom,  A. Tkatchenko,  T. Tsuchimochi,  N. M. Tubman,  
 L. Vogt,  M. L. Vidal,  O. Vydrov,  M. A. Watson,  J. Wenzel,  
 M. de Wergifosse,  T. A. Wesolowski,  A. White,  J. Witte,  A. Yamada,  
 Jun Yang,  K. Yao,  S. Yeganeh,  S. R. Yost,  Zhi-Qiang You,  A. Zech,  
 Igor Ying Zhang,  Xing Zhang,  Yan Zhao,  Ying Zhu,  B. R. Brooks,  
 G. K. L. Chan,  C. J. Cramer,  M. S. Gordon,  W. J. Hehre,  A. Klamt,  
 M. W. Schmidt,  C. D. Sherrill,  D. G. Truhlar,  A. Aspuru-Guzik,  R. Baer,  
 A. T. Bell,  N. A. Besley,  Jeng-Da Chai,  R. A. DiStasio Jr.,  A. Dreuw,  
 B. D. Dunietz,  T. R. Furlani,  Chao-Ping Hsu,  Yousung Jung,  Jing Kong,  
 D. S. Lambrecht,  WanZhen Liang,  C. Ochsenfeld,  V. A. Rassolov,  
 L. V. Slipchenko,  J. E. Subotnik,  T. Van Voorhis,  J. M. Herbert,  
 A. I. Krylov,  P. M. W. Gill,  M. Head-Gordon

 Contributors to earlier versions of Q-Chem not listed above: 
 R. D. Adamson,  B. Austin,  J. Baker,  G. J. O. Beran,  K. Brandhorst,  
 S. T. Brown,  E. F. C. Byrd,  A. K. Chakraborty,  C.-L. Cheng,  
 Siu Hung Chien,  D. M. Chipman,  D. L. Crittenden,  H. Dachsel,  
 R. J. Doerksen,  A. D. Dutoi,  L. Fusti-Molnar,  W. A. Goddard III,  
 A. Golubeva-Zadorozhnaya,  S. R. Gwaltney,  G. Hawkins,  A. Heyden,  
 S. Hirata,  G. Kedziora,  F. J. Keil,  C. Kelley,  Jihan Kim,  R. A. King,  
 R. Z. Khaliullin,  P. P. Korambath,  W. Kurlancheek,  A. M. Lee,  M. S. Lee,  
 S. V. Levchenko,  Ching Yeh Lin,  D. Liotard,  R. C. Lochan,  I. Lotan,  
 P. E. Maslen,  N. Nair,  D. P. O'Neill,  D. Neuhauser,  E. Neuscamman,  
 C. M. Oana,  R. Olson,  B. Peters,  R. Peverati,  P. A. Pieniazek,  
 Y. M. Rhee,  J. Ritchie,  M. A. Rohrdanz,  E. Rosta,  N. J. Russ,  
 H. F. Schaefer III,  N. E. Schultz,  N. Shenvi,  A. C. Simmonett,  A. Sodt,  
 D. Stuck,  K. S. Thanthiriwatte,  V. Vanovschi,  Tao Wang,  A. Warshel,  
 C. F. Williams,  Q. Wu,  X. Xu,  W. Zhang

 Please cite Q-Chem as follows:
 Y. Shao et al., Mol. Phys. 113, 184-215 (2015)
 DOI: 10.1080/00268976.2014.952696

 Q-Chem 5.1.0 for Intel X86 EM64T Linux

 Parts of Q-Chem use Armadillo 8.300.2 (Tropical Shenanigans).
 http://arma.sourceforge.net/

 Q-Chem begins on Wed Jul 11 17:36:46 2018  

Host: edison04
0

     Scratch files written to /tmp/qchem22598//
 Apr1918  _RNUM -1
 Parallel job on  1  processors
Processing $rem in /global/common/edison/software/qchem/5.1beta/config/preferences.
 MEM_TOTAL  2000 

Checking the input file for inconsistencies... 	...done.

--------------------------------------------------------------
User input:
--------------------------------------------------------------
$molecule
0 1
O     -0.0721167665     -0.9423525538      0.1290391903
O     -2.2899395558     -0.6718014746     -0.1314867790
C      1.0295613906     -0.0735259180      0.4243446514
C      0.4993856923      1.2773171897     -0.0556605261
C      2.2823788219     -0.5560560675     -0.2650326350
C     -1.2006882180     -0.2179911101     -0.0198713747
H      0.7641180937      2.1082352257      0.5964293538
H      2.5706747276     -1.5425688185      0.1009152216
$end

$rem
job_type = opt
basis = 6-311++g*
max_scf_cycles = 200
gen_scfman = true
scf_algorithm = gdm
method = wb97xd
geom_opt_max_cycles = 200
$end
--------------------------------------------------------------
 ----------------------------------------------------------------
             Standard Nuclear Orientation (Angstroms)
    I     Atom           X                Y                Z
 ----------------------------------------------------------------
    1      O      -0.1504698343    -0.6912699856     0.1378470554
    2      O      -2.3299408032    -0.1872825791    -0.0981880730
    3      C       1.0471000042     0.0621313310     0.3701673906
    4      C       0.6592444835     1.4390667763    -0.1682425068
    5      C       2.2228520594    -0.5901407803    -0.3152347557
    6      C      -1.1948613474     0.1467249101    -0.0281598749
    7      H       1.0290796832     2.2656348408     0.4365189324
    8      H       2.4081942183    -1.5839077457     0.0950276890
 ----------------------------------------------------------------
 Molecular Point Group                 C1    NOp =  1
 Largest Abelian Subgroup              C1    NOp =  1
 Nuclear Repulsion Energy =   187.0746589368 hartrees
 There are       21 alpha and       21 beta electrons
 Requested basis set is 6-311++G(d)
 There are 44 shells and 140 basis functions

 Total QAlloc Memory Limit   2000 MB
 Mega-Array Size       188 MB
 MEM_STATIC part       192 MB
 A cutoff of  1.0D-12 yielded    942 shell pairs
 There are      9774 function pairs (     10636 Cartesian)
 
 -------------------------------------------------------
 OpenMP Integral Computing Module                       
 Release: version 1.0, May 2013, Q-Chem Inc. Pittsburgh 
 -------------------------------------------------------
 Integral Job Info:
 Integral job number is                      11
 Integral operator is                         1
 short-range coefficients              22203600
 long-range coefficients              100000000
 Omega coefficients                         200
 if combine SR and LR in K                    1
 Integral screening is                        0
 Integral computing path is                   2
 max size of driver memory is            800000
 size of driver memory is                593474
 size of scratch memory is              2428936
 max col of scratch BK array               1296
 max len of scratch array in speh3          155
 max len of scratch index in speh4           18
 max int batch size is                      520
 min int batch size is                       52
 fixed nKL is                                52
 max L of basis functions is                  2
 order of int derivative is                   0
 number of shells is                         44
 number of basis is                         146
 number of cartesian basis is               146
 number of contracted shell pairs           942
 number of primitive shell pairs           2879
 maxK2 (contraction) of shell pair           36
 max number of K2 of shell pair               1
 max number of CS2 of shell pair            174
 max number of PS2 of shell pair            630
 mem total for path MDJ                  528218
 -------------------------------------------------------
 Smallest overlap matrix eigenvalue = 5.88E-05

 Scale SEOQF with 1.000000e-01/1.000000e-01/1.000000e-01

 Standard Electronic Orientation quadrupole field applied
 Nucleus-field energy     =     0.0000000052 hartrees
 Guess from superposition of atomic densities
 Warning:  Energy on first SCF cycle will be non-variational
 SAD guess density has 42.000000 electrons

 -----------------------------------------------------------------------
  General SCF calculation program by
  Eric Jon Sundstrom, Paul Horn, Yuezhi Mao, Dmitri Zuev, Alec White,
  David Stuck, Shaama M.S., Shane Yost, Joonho Lee, David Small,
  Daniel Levine, Susi Lehtola, Hugh Burton, Evgeny Epifanovsky
 -----------------------------------------------------------------------
 Exchange:     0.2220 Hartree-Fock + 1.0000 wB97X-D + LR-HF
 Correlation:  1.0000 wB97X-D
 Using SG-2 standard quadrature grid
 Dispersion:   Grimme D
 using 32 threads for integral computing
 -------------------------------------------------------
 OpenMP Integral computing Module                
 Release: version 1.0, May 2013, Q-Chem Inc. Pittsburgh 
 -------------------------------------------------------
 using 32 threads for integral computing
 -------------------------------------------------------
 OpenMP Integral computing Module                
 Release: version 1.0, May 2013, Q-Chem Inc. Pittsburgh 
 -------------------------------------------------------
 -------------------------------------------------------
 OpenMP BLAS3 based DFT computing Module                
 Release: version 1.0, May 2013, Q-Chem Inc. Pittsburgh 
 -------------------------------------------------------
 A restricted SCF calculation will be
 performed using Roothaan-Hall, GDM
 SCF converges when RMS gradient is below 1.0e-08
 ---------------------------------------
  Cycle       Energy         DIIS error
 ---------------------------------------
    1    -304.5382027592      4.87e-02  Roothaan Step
 ---------------------------------------
  Cycle       Energy        RMS Gradient
 ---------------------------------------
    1    -303.5532764384      1.72e-01   Descent step
    2    -303.5947026881      1.36e-01   Normal BFGS step
    3    -303.6588053598      4.00e-02   Normal BFGS step
    4    -303.6592311525      3.67e-02   Normal BFGS step
    5    -303.6649886912      8.38e-03   Normal BFGS step
    6    -303.6648426457      7.11e-03  Line search: overstep
    7    -303.6651849577      3.31e-03   Normal BFGS step
    8    -303.6652465293      2.05e-03   Normal BFGS step
    9    -303.6652652365      9.88e-04   Normal BFGS step
   10    -303.6652703657      2.28e-04   Normal BFGS step
   11    -303.6652708334      8.91e-05   Normal BFGS step
   12    -303.6652709207      5.17e-05   Normal BFGS step
   13    -303.6652709585      3.37e-05   Normal BFGS step
   14    -303.6652709665      2.92e-05   Normal BFGS step
   15    -303.6652709711      1.21e-05   Normal BFGS step
   16    -303.6652709718      4.59e-06   Normal BFGS step
   17    -303.6652709720      2.27e-06   Normal BFGS step
   18    -303.6652709720      1.02e-06   Normal BFGS step
   19    -303.6652709720      3.00e-07   Normal BFGS step
   20    -303.6652709720      1.70e-07   Normal BFGS step
   21    -303.6652709720      1.70e-07   Normal BFGS step
   22    -303.6652709720      2.65e-08   Normal BFGS step
   23    -303.6652709720      1.53e-08   Normal BFGS step
   24    -303.6652709720      8.77e-09  Convergence criterion met
 ---------------------------------------
 SCF time:   CPU 467.61s  wall 24.00s 
 SCF   energy in the final basis set =     -303.6652709720
 
 --------------------------------------------------------------
 
                    Orbital Energies (a.u.)
 --------------------------------------------------------------
 
 Alpha MOs
 -- Occupied --
-19.350 -19.313 -10.476 -10.423 -10.392 -10.386  -1.264  -1.195
 -0.906  -0.803  -0.741  -0.645  -0.609  -0.600  -0.587  -0.507
 -0.491  -0.477  -0.405  -0.378  -0.317
 -- Virtual --
 -0.108  -0.036  -0.022   0.044   0.056   0.057   0.090   0.091
  0.112   0.123   0.127   0.131   0.139   0.164   0.168   0.175
  0.178   0.186   0.187   0.202   0.226   0.231   0.246   0.272
  0.283   0.304   0.308   0.329   0.334   0.352   0.362   0.368
  0.375   0.387   0.431   0.454   0.548   0.568   0.573   0.597
  0.618   0.634   0.646   0.658   0.670   0.681   0.691   0.717
  0.733   0.746   0.839   0.880   0.910   0.931   1.013   1.078
  1.113   1.156   1.185   1.220   1.228   1.244   1.295   1.363
  1.405   1.424   1.460   1.475   1.530   1.571   1.608   1.645
  1.716   1.736   1.763   1.777   1.857   1.871   1.949   1.989
  2.109   2.173   2.177   2.523   2.574   2.648   2.762   2.792
  2.822   2.848   2.868   2.880   2.915   2.946   3.021   3.087
  3.133   3.195   3.229   3.247   3.427   3.467   3.564   3.789
  3.958   4.039   4.083   5.050   5.096   5.142   5.384   5.522
  5.892  23.464  23.624  23.736  23.883  49.948  50.067
 --------------------------------------------------------------
 
          Ground-State Mulliken Net Atomic Charges

     Atom                 Charge (a.u.)
  ----------------------------------------
      1 O                     0.081618
      2 O                    -0.233253
      3 C                    -0.135365
      4 C                    -0.104826
      5 C                    -0.188603
      6 C                     0.136632
      7 H                     0.225421
      8 H                     0.218375
  ----------------------------------------
  Sum of atomic charges =     0.000000

 -----------------------------------------------------------------
                    Cartesian Multipole Moments
 -----------------------------------------------------------------
    Charge (ESU x 10^10)
                 0.0000
    Dipole Moment (Debye)
         X       1.9464      Y       0.3463      Z       1.4299
       Tot       2.4399
    Quadrupole Moments (Debye-Ang)
        XX     -40.8401     XY      -1.2212     YY     -31.4200
        XZ       3.1691     YZ       1.1981     ZZ     -35.3117
    Octopole Moments (Debye-Ang^2)
       XXX     -10.9178    XXY      -4.9484    XYY       4.2781
       YYY      -1.4911    XXZ      11.6393    XYZ      -0.1673
       YYZ       2.3589    XZZ      -9.2539    YZZ      -2.6262
       ZZZ       2.0700
    Hexadecapole Moments (Debye-Ang^3)
      XXXX    -587.6225   XXXY      -8.9229   XXYY     -99.9239
      XYYY       6.7093   YYYY    -147.6236   XXXZ      32.7421
      XXYZ      -1.7967   XYYZ       3.4965   YYYZ       6.2956
      XXZZ    -101.3320   XYZZ       1.5289   YYZZ     -35.8989
      XZZZ       6.5751   YZZZ       0.3590   ZZZZ     -50.4188
 -----------------------------------------------------------------
 Calculating analytic gradient of the SCF energy
 Gradient of SCF Energy
            1           2           3           4           5           6
    1  -0.0099881  -0.0347106   0.0231512   0.0304983   0.0037499  -0.0181606
    2   0.0143206  -0.0247874  -0.0483645   0.0895319  -0.0204566  -0.0049343
    3  -0.0214909  -0.0032915   0.1173468  -0.0734930  -0.0379081   0.0065826
            7           8
    1  -0.0024679   0.0079279
    2  -0.0174530   0.0121434
    3   0.0131609  -0.0009069
 Max gradient component =       1.173E-01
 RMS gradient           =       3.903E-02
 Gradient time:  CPU 37.27 s  wall 3.19 s
 Geometry Optimization Parameters
   NAtoms,    NIC,     NZ,  NCons,   NDum,   NFix, NCnnct, MaxDiis
        8      37       0       0       0       0       0       0


** GEOMETRY OPTIMIZATION IN DELOCALIZED INTERNAL COORDINATES **
   Searching for a Minimum

   Optimization Cycle:   1

                       Coordinates (Angstroms)
     ATOM                X               Y               Z
      1  O        -0.1504698343   -0.6912699856    0.1378470554
      2  O        -2.3299408032   -0.1872825791   -0.0981880730
      3  C         1.0471000042    0.0621313310    0.3701673906
      4  C         0.6592444835    1.4390667763   -0.1682425068
      5  C         2.2228520594   -0.5901407803   -0.3152347557
      6  C        -1.1948613474    0.1467249101   -0.0281598749
      7  H         1.0290796832    2.2656348408    0.4365189324
      8  H         2.4081942183   -1.5839077457    0.0950276890
   Point Group: c1    Number of degrees of freedom:    18


   Energy is   -303.665270972


 Attempting to Generate Delocalized Internal Coordinates

 18 Hessian modes will be used to form the next step
  Hessian Eigenvalues:
     0.005411    0.007964    0.011175    0.022355    0.069775    0.160000
     0.160000    0.202577    0.218264    0.250000    0.250000    0.295637
     0.314329    0.346995    0.349387    0.404493    0.551756    1.125858

 Minimum Search - Taking Simple RFO Step
 Searching for Lamda that Minimizes Along All modes
 Value Taken    Lamda =  -0.15385669
 Calculated Step too Large.  Step scaled by  0.470416
 Step Taken.  Stepsize is  0.300000

                             Maximum     Tolerance    Cnvgd?
         Gradient           0.201260      0.000300      NO
         Displacement       0.232044      0.001200      NO
         Energy change     *********      0.000001      NO


 New Cartesian Coordinates Obtained by Inverse Iteration

 Displacement from previous Coordinates is:  1.127598
 ----------------------------------------------------------------
             Standard Nuclear Orientation (Angstroms)
    I     Atom           X                Y                Z
 ----------------------------------------------------------------
    1      O      -0.1201274898    -0.7796407959     0.1386068712
    2      O      -2.1709554874     0.1373215522    -0.0685136538
    3      C       1.0405045133    -0.0101652496     0.3287785970
    4      C       0.4624667035     1.2724267347    -0.1457091880
    5      C       2.2548799495    -0.5877866421    -0.3199666255
    6      C      -0.9977442211     0.2228071555    -0.0179097834
    7      H       0.7442464543     2.1752572481     0.4006815962
    8      H       2.4779280414    -1.5692632354     0.1137680434
 ----------------------------------------------------------------
 Molecular Point Group                 C1    NOp =  1
 Largest Abelian Subgroup              C1    NOp =  1
 Nuclear Repulsion Energy =   194.2688361441 hartrees
 There are       21 alpha and       21 beta electrons
 Applying Cartesian multipole field
    Component          Value
    ---------          -----
     (2,0,0)        1.00000E-11
     (0,2,0)        2.00000E-11
     (0,0,2)       -3.00000E-11
 Nucleus-field energy     =     0.0000000047 hartrees
 Requested basis set is 6-311++G(d)
 There are 44 shells and 140 basis functions
 A cutoff of  1.0D-12 yielded    947 shell pairs
 There are      9827 function pairs (     10695 Cartesian)
 Smallest overlap matrix eigenvalue = 5.28E-05
 Guess MOs from SCF MO coefficient file
 Reading MOs from coefficient file
 Reading MOs from coefficient file

 -----------------------------------------------------------------------
  General SCF calculation program by
  Eric Jon Sundstrom, Paul Horn, Yuezhi Mao, Dmitri Zuev, Alec White,
  David Stuck, Shaama M.S., Shane Yost, Joonho Lee, David Small,
  Daniel Levine, Susi Lehtola, Hugh Burton, Evgeny Epifanovsky
 -----------------------------------------------------------------------
 Exchange:     0.2220 Hartree-Fock + 1.0000 wB97X-D + LR-HF
 Correlation:  1.0000 wB97X-D
 Using SG-2 standard quadrature grid
 Dispersion:   Grimme D
 using 32 threads for integral computing
 -------------------------------------------------------
 OpenMP Integral computing Module                
 Release: version 1.0, May 2013, Q-Chem Inc. Pittsburgh 
 -------------------------------------------------------
 using 32 threads for integral computing
 -------------------------------------------------------
 OpenMP Integral computing Module                
 Release: version 1.0, May 2013, Q-Chem Inc. Pittsburgh 
 -------------------------------------------------------
 -------------------------------------------------------
 OpenMP BLAS3 based DFT computing Module                
 Release: version 1.0, May 2013, Q-Chem Inc. Pittsburgh 
 -------------------------------------------------------
 A restricted SCF calculation will be
 performed using Roothaan-Hall, GDM
 SCF converges when RMS gradient is below 1.0e-08
 ---------------------------------------
  Cycle       Energy         DIIS error
 ---------------------------------------
    1    -303.6573603879      4.54e-03  Roothaan Step
 ---------------------------------------
  Cycle       Energy        RMS Gradient
 ---------------------------------------
    1    -303.7318241608      1.99e-02   Normal BFGS step
    2    -303.7324951543      3.85e-02   Normal BFGS step
    3    -303.7412638220      4.24e-03   Normal BFGS step
    4    -303.7414451831      4.89e-03   Normal BFGS step
    5    -303.7415636693      1.74e-03   Normal BFGS step
    6    -303.7415910352      1.86e-03   Normal BFGS step
    7    -303.7416026228      5.65e-04   Normal BFGS step
    8    -303.7416053867      2.99e-04   Normal BFGS step
    9    -303.7416069260      1.79e-04   Normal BFGS step
   10    -303.7416071401      1.00e-04   Normal BFGS step
   11    -303.7416072372      3.14e-05   Normal BFGS step
   12    -303.7416072500      1.05e-05   Normal BFGS step
   13    -303.7416072517      5.66e-06   Normal BFGS step
   14    -303.7416072521      1.28e-06   Normal BFGS step
   15    -303.7416072521      8.02e-07   Normal BFGS step
   16    -303.7416072521      3.34e-07   Normal BFGS step
   17    -303.7416072521      1.15e-07   Normal BFGS step
   18    -303.7416072521      4.54e-08   Normal BFGS step
   19    -303.7416072521      3.61e-08   Normal BFGS step
   20    -303.7416072521      9.23e-09  Convergence criterion met
 ---------------------------------------
 SCF time:   CPU 407.17s  wall 24.00s 
 SCF   energy in the final basis set =     -303.7416072521
 
 --------------------------------------------------------------
 
                    Orbital Energies (a.u.)
 --------------------------------------------------------------
 
 Alpha MOs
 -- Occupied --
-19.338 -19.297 -10.470 -10.415 -10.385 -10.371  -1.276  -1.198
 -0.902  -0.830  -0.731  -0.649  -0.613  -0.602  -0.596  -0.508
 -0.482  -0.480  -0.406  -0.396  -0.328
 -- Virtual --
 -0.108  -0.019   0.040   0.056   0.070   0.081   0.090   0.094
  0.117   0.125   0.128   0.132   0.139   0.165   0.166   0.176
  0.182   0.187   0.191   0.201   0.232   0.238   0.253   0.279
  0.282   0.306   0.317   0.331   0.344   0.356   0.360   0.380
  0.390   0.403   0.420   0.463   0.542   0.567   0.585   0.599
  0.620   0.642   0.650   0.673   0.679   0.695   0.719   0.725
  0.753   0.766   0.842   0.877   0.920   0.938   1.021   1.084
  1.124   1.183   1.203   1.212   1.231   1.240   1.272   1.359
  1.383   1.413   1.464   1.507   1.516   1.601   1.678   1.694
  1.727   1.751   1.775   1.813   1.860   1.939   1.964   2.054
  2.163   2.218   2.293   2.527   2.593   2.671   2.759   2.787
  2.833   2.885   2.901   2.911   2.946   3.010   3.041   3.122
  3.196   3.242   3.263   3.433   3.467   3.591   3.649   3.791
  4.000   4.015   4.134   5.063   5.121   5.182   5.490   5.550
  5.911  23.470  23.685  23.810  23.938  49.975  50.109
 --------------------------------------------------------------
 
          Ground-State Mulliken Net Atomic Charges

     Atom                 Charge (a.u.)
  ----------------------------------------
      1 O                     0.026450
      2 O                    -0.237860
      3 C                    -0.053897
      4 C                    -0.095204
      5 C                    -0.163605
      6 C                     0.082789
      7 H                     0.234149
      8 H                     0.207179
  ----------------------------------------
  Sum of atomic charges =     0.000000

 -----------------------------------------------------------------
                    Cartesian Multipole Moments
 -----------------------------------------------------------------
    Charge (ESU x 10^10)
                 0.0000
    Dipole Moment (Debye)
         X       1.9477      Y       0.4035      Z       1.3505
       Tot       2.4042
    Quadrupole Moments (Debye-Ang)
        XX     -40.9747     XY      -1.6830     YY     -31.1828
        XZ       3.4724     YZ       1.1173     ZZ     -34.7826
    Octopole Moments (Debye-Ang^2)
       XXX     -12.5993    XXY      -8.2927    XYY       1.1654
       YYY      -1.0394    XXZ      11.3756    XYZ      -0.0625
       YYZ       1.9033    XZZ     -10.3231    YZZ      -2.4352
       ZZZ       2.0057
    Hexadecapole Moments (Debye-Ang^3)
      XXXX    -536.8655   XXXY      15.0724   XXYY     -93.0165
      XYYY      23.2124   YYYY    -133.6579   XXXZ      35.7399
      XXYZ      -1.3606   XYYZ       3.9834   YYYZ       5.8253
      XXZZ     -94.0670   XYZZ       7.9895   YYZZ     -33.0030
      XZZZ       9.1739   YZZZ       0.7261   ZZZZ     -47.4798
 -----------------------------------------------------------------
 Calculating analytic gradient of the SCF energy
 Gradient of SCF Energy
            1           2           3           4           5           6
    1   0.0001431  -0.0134146   0.0000823   0.0245120   0.0055438  -0.0277313
    2   0.0395515  -0.0091209  -0.0485842   0.0745210  -0.0130823  -0.0410503
    3  -0.0197513   0.0003876   0.1090138  -0.0745036  -0.0388874   0.0067467
            7           8
    1   0.0060623   0.0048023
    2  -0.0118201   0.0095853
    3   0.0168883   0.0001059
 Max gradient component =       1.090E-01
 RMS gradient           =       3.706E-02
 Gradient time:  CPU 36.62 s  wall 2.38 s
 Geometry Optimization Parameters
   NAtoms,    NIC,     NZ,  NCons,   NDum,   NFix, NCnnct, MaxDiis
        8      37       0       0       0       0       0       0

 Cartesian Hessian Update
 Hessian Updated using BFGS Update


** GEOMETRY OPTIMIZATION IN DELOCALIZED INTERNAL COORDINATES **
   Searching for a Minimum

   Optimization Cycle:   2

                       Coordinates (Angstroms)
     ATOM                X               Y               Z
      1  O        -0.1201274898   -0.7796407959    0.1386068712
      2  O        -2.1709554874    0.1373215522   -0.0685136538
      3  C         1.0405045133   -0.0101652496    0.3287785970
      4  C         0.4624667035    1.2724267347   -0.1457091880
      5  C         2.2548799495   -0.5877866421   -0.3199666255
      6  C        -0.9977442211    0.2228071555   -0.0179097834
      7  H         0.7442464543    2.1752572481    0.4006815962
      8  H         2.4779280414   -1.5692632354    0.1137680434
   Point Group: c1    Number of degrees of freedom:    18


   Energy is   -303.741607252

 Hessian Updated using BFGS Update

 17 Hessian modes will be used to form the next step
  Hessian Eigenvalues:
     0.006344    0.009268    0.011966    0.024948    0.072765    0.161934
     0.162397    0.204106    0.237600    0.260780    0.312847    0.332698
     0.347199    0.357139    0.462904    0.981692 1717.423311
**WARNING** Magnitude of eigenvalue  17 too large.  Replaced by    25.000000

 Minimum Search - Taking Simple RFO Step
 Searching for Lamda that Minimizes Along All modes
 Value Taken    Lamda =  -0.04010550
 Calculated Step too Large.  Step scaled by  0.351625
 Step Taken.  Stepsize is  0.300000

                             Maximum     Tolerance    Cnvgd?
         Gradient           0.211784      0.000300      NO
         Displacement       0.128818      0.001200      NO
         Energy change     -0.076336      0.000001      NO


 New Cartesian Coordinates Obtained by Inverse Iteration

 Displacement from previous Coordinates is:  0.580274
 ----------------------------------------------------------------
             Standard Nuclear Orientation (Angstroms)
    I     Atom           X                Y                Z
 ----------------------------------------------------------------
    1      O      -0.1147779948    -0.7881434192     0.0139582287
    2      O      -2.1073293228     0.2619659477    -0.0026243006
    3      C       1.0255116002    -0.0423970562     0.2870451617
    4      C       0.4401881137     1.2107755613    -0.1999406573
    5      C       2.2650833719    -0.6019154842    -0.3106708777
    6      C      -0.9374925924     0.2655110010     0.0486573610
    7      H       0.5963537455     2.1041679392     0.4112124777
    8      H       2.5236615425    -1.5490077222     0.1820984635
 ----------------------------------------------------------------
 Molecular Point Group                 C1    NOp =  1
 Largest Abelian Subgroup              C1    NOp =  1
 Nuclear Repulsion Energy =   197.4376634945 hartrees
 There are       21 alpha and       21 beta electrons
 Applying Cartesian multipole field
    Component          Value
    ---------          -----
     (2,0,0)        1.00000E-11
     (0,2,0)        2.00000E-11
     (0,0,2)       -3.00000E-11
 Nucleus-field energy     =     0.0000000046 hartrees
 Requested basis set is 6-311++G(d)
 There are 44 shells and 140 basis functions
 A cutoff of  1.0D-12 yielded    949 shell pairs
 There are      9833 function pairs (     10702 Cartesian)
 Smallest overlap matrix eigenvalue = 4.39E-05
 Guess MOs from SCF MO coefficient file
 Reading MOs from coefficient file
 Reading MOs from coefficient file

 -----------------------------------------------------------------------
  General SCF calculation program by
  Eric Jon Sundstrom, Paul Horn, Yuezhi Mao, Dmitri Zuev, Alec White,
  David Stuck, Shaama M.S., Shane Yost, Joonho Lee, David Small,
  Daniel Levine, Susi Lehtola, Hugh Burton, Evgeny Epifanovsky
 -----------------------------------------------------------------------
 Exchange:     0.2220 Hartree-Fock + 1.0000 wB97X-D + LR-HF
 Correlation:  1.0000 wB97X-D
 Using SG-2 standard quadrature grid
 Dispersion:   Grimme D
 using 32 threads for integral computing
 -------------------------------------------------------
 OpenMP Integral computing Module                
 Release: version 1.0, May 2013, Q-Chem Inc. Pittsburgh 
 -------------------------------------------------------
 using 32 threads for integral computing
 -------------------------------------------------------
 OpenMP Integral computing Module                
 Release: version 1.0, May 2013, Q-Chem Inc. Pittsburgh 
 -------------------------------------------------------
 -------------------------------------------------------
 OpenMP BLAS3 based DFT computing Module                
 Release: version 1.0, May 2013, Q-Chem Inc. Pittsburgh 
 -------------------------------------------------------
 A restricted SCF calculation will be
 performed using Roothaan-Hall, GDM
 SCF converges when RMS gradient is below 1.0e-08
 ---------------------------------------
  Cycle       Energy         DIIS error
 ---------------------------------------
    1    -303.7219032945      2.41e-03  Roothaan Step
 ---------------------------------------
  Cycle       Energy        RMS Gradient
 ---------------------------------------
    1    -303.7432550843      9.57e-03   Normal BFGS step
    2    -303.7445686807      2.33e-02   Normal BFGS step
    3    -303.7457789026      4.49e-03   Normal BFGS step
    4    -303.7459194994      3.15e-03   Normal BFGS step
    5    -303.7460096362      1.54e-03   Normal BFGS step
    6    -303.7460289989      7.93e-04   Normal BFGS step
    7    -303.7460333485      5.57e-04   Normal BFGS step
    8    -303.7460347137      1.83e-04   Normal BFGS step
    9    -303.7460350757      9.03e-05   Normal BFGS step
   10    -303.7460351813      7.02e-05   Normal BFGS step
   11    -303.7460352139      2.50e-05   Normal BFGS step
   12    -303.7460352178      8.12e-06   Normal BFGS step
   13    -303.7460352187      2.73e-06   Normal BFGS step
   14    -303.7460352189      1.57e-06   Normal BFGS step
   15    -303.7460352189      6.17e-07   Normal BFGS step
   16    -303.7460352189      1.24e-07   Normal BFGS step
   17    -303.7460352189      6.04e-08   Normal BFGS step
   18    -303.7460352189      2.93e-08   Normal BFGS step
   19    -303.7460352189      2.41e-08   Normal BFGS step
   20    -303.7460352189      5.38e-09  Convergence criterion met
 ---------------------------------------
 SCF time:   CPU 396.51s  wall 26.00s 
 SCF   energy in the final basis set =     -303.7460352189
 
 --------------------------------------------------------------
 
                    Orbital Energies (a.u.)
 --------------------------------------------------------------
 
 Alpha MOs
 -- Occupied --
-19.335 -19.287 -10.456 -10.419 -10.398 -10.351  -1.285  -1.196
 -0.906  -0.844  -0.729  -0.638  -0.620  -0.608  -0.595  -0.503
 -0.489  -0.474  -0.402  -0.397  -0.336
 -- Virtual --
 -0.112  -0.025   0.040   0.056   0.068   0.090   0.094   0.109
  0.118   0.127   0.132   0.136   0.145   0.164   0.171   0.177
  0.187   0.192   0.201   0.202   0.233   0.242   0.258   0.275
  0.287   0.313   0.324   0.330   0.347   0.357   0.364   0.384
  0.392   0.416   0.424   0.464   0.545   0.567   0.577   0.605
  0.633   0.638   0.649   0.673   0.674   0.711   0.730   0.734
  0.751   0.785   0.846   0.874   0.920   0.961   1.025   1.079
  1.119   1.170   1.213   1.232   1.244   1.261   1.292   1.359
  1.379   1.406   1.486   1.494   1.557   1.600   1.683   1.709
  1.767   1.783   1.787   1.827   1.870   1.963   1.983   2.080
  2.163   2.249   2.368   2.527   2.606   2.686   2.784   2.793
  2.836   2.894   2.924   2.937   2.964   3.029   3.094   3.135
  3.198   3.266   3.288   3.465   3.488   3.607   3.777   3.804
  3.992   4.023   4.164   5.068   5.143   5.206   5.536   5.571
  5.920  23.478  23.713  23.856  23.983  49.986  50.131
 --------------------------------------------------------------
 
          Ground-State Mulliken Net Atomic Charges

     Atom                 Charge (a.u.)
  ----------------------------------------
      1 O                     0.027453
      2 O                    -0.263943
      3 C                     0.008228
      4 C                    -0.192556
      5 C                    -0.125324
      6 C                     0.107059
      7 H                     0.225274
      8 H                     0.213808
  ----------------------------------------
  Sum of atomic charges =     0.000000

 -----------------------------------------------------------------
                    Cartesian Multipole Moments
 -----------------------------------------------------------------
    Charge (ESU x 10^10)
                 0.0000
    Dipole Moment (Debye)
         X       2.4900      Y      -0.0587      Z       1.5755
       Tot       2.9472
    Quadrupole Moments (Debye-Ang)
        XX     -39.5190     XY      -2.0426     YY     -31.8382
        XZ       3.6022     YZ       0.9276     ZZ     -34.5732
    Octopole Moments (Debye-Ang^2)
       XXX      -8.7078    XXY      -9.8689    XYY      -0.0497
       YYY      -3.7702    XXZ      10.8385    XYZ      -0.1069
       YYZ       2.4761    XZZ     -10.4478    YZZ      -2.7159
       ZZZ       3.4567
    Hexadecapole Moments (Debye-Ang^3)
      XXXX    -506.3302   XXXY      23.3544   XXYY     -91.3545
      XYYY      26.7395   YYYY    -135.0730   XXXZ      40.0440
      XXYZ      -2.3716   XYYZ       4.9920   YYYZ       4.8509
      XXZZ     -90.6050   XYZZ      10.2103   YYZZ     -32.4222
      XZZZ      12.7686   YZZZ       0.3043   ZZZZ     -45.9775
 -----------------------------------------------------------------
 Calculating analytic gradient of the SCF energy
 Gradient of SCF Energy
            1           2           3           4           5           6
    1  -0.0000668   0.0085769  -0.0189004   0.0322088   0.0104954  -0.0304915
    2   0.0707435  -0.0021320  -0.0408234   0.0343877  -0.0025934  -0.0537093
    3  -0.0329082  -0.0083720   0.1160729  -0.0958479  -0.0372568   0.0414208
            7           8
    1  -0.0018323   0.0000097
    2  -0.0126304   0.0067572
    3   0.0182386  -0.0013474
 Max gradient component =       1.161E-01
 RMS gradient           =       4.119E-02
 Gradient time:  CPU 36.70 s  wall 2.32 s
 Geometry Optimization Parameters
   NAtoms,    NIC,     NZ,  NCons,   NDum,   NFix, NCnnct, MaxDiis
        8      37       0       0       0       0       0       0

 Cartesian Hessian Update
 Hessian Updated using BFGS Update


** GEOMETRY OPTIMIZATION IN DELOCALIZED INTERNAL COORDINATES **
   Searching for a Minimum

   Optimization Cycle:   3

                       Coordinates (Angstroms)
     ATOM                X               Y               Z
      1  O        -0.1147779948   -0.7881434192    0.0139582287
      2  O        -2.1073293228    0.2619659477   -0.0026243006
      3  C         1.0255116002   -0.0423970562    0.2870451617
      4  C         0.4401881137    1.2107755613   -0.1999406573
      5  C         2.2650833719   -0.6019154842   -0.3106708777
      6  C        -0.9374925924    0.2655110010    0.0486573610
      7  H         0.5963537455    2.1041679392    0.4112124777
      8  H         2.5236615425   -1.5490077222    0.1820984635
   Point Group: c1    Number of degrees of freedom:    18


   Energy is   -303.746035219

 Hessian Updated using BFGS Update

 17 Hessian modes will be used to form the next step
  Hessian Eigenvalues:
     0.006549    0.008968    0.023749    0.049059    0.155500    0.160796
     0.172811    0.234754    0.258975    0.311244    0.330273    0.346973
     0.352153    0.458941    0.717358    0.969239 1409.143760
**WARNING** Magnitude of eigenvalue  17 too large.  Replaced by    25.000000

 Minimum Search - Taking Simple RFO Step
 Searching for Lamda that Minimizes Along All modes
 Value Taken    Lamda =  -0.09451702
 Calculated Step too Large.  Step scaled by  0.353104
 Step Taken.  Stepsize is  0.300000

                             Maximum     Tolerance    Cnvgd?
         Gradient           0.120868      0.000300      NO
         Displacement       0.132996      0.001200      NO
         Energy change     -0.004428      0.000001      NO


 New Cartesian Coordinates Obtained by Inverse Iteration

 Displacement from previous Coordinates is:  0.683933
 ----------------------------------------------------------------
             Standard Nuclear Orientation (Angstroms)
    I     Atom           X                Y                Z
 ----------------------------------------------------------------
    1      O      -0.1070385650    -0.8295969494    -0.0261922319
    2      O      -1.9838789045     0.4198482941     0.0657090432
    3      C       1.0119267288    -0.0629444619     0.1924254130
    4      C       0.3659281718     1.1585354630    -0.2084153374
    5      C       2.2494386435    -0.6470022663    -0.3447694281
    6      C      -0.8252326571     0.2951384645     0.0267627319
    7      H       0.4232323011     2.0348330310     0.4507186206
    8      H       2.5568227452    -1.5078548076     0.2734970457
 ----------------------------------------------------------------
 Molecular Point Group                 C1    NOp =  1
 Largest Abelian Subgroup              C1    NOp =  1
 Nuclear Repulsion Energy =   202.2914700683 hartrees
 There are       21 alpha and       21 beta electrons
 Applying Cartesian multipole field
    Component          Value
    ---------          -----
     (2,0,0)        1.00000E-11
     (0,2,0)        2.00000E-11
     (0,0,2)       -3.00000E-11
 Nucleus-field energy     =     0.0000000044 hartrees
 Requested basis set is 6-311++G(d)
 There are 44 shells and 140 basis functions
 A cutoff of  1.0D-12 yielded    955 shell pairs
 There are      9878 function pairs (     10747 Cartesian)
 Smallest overlap matrix eigenvalue = 3.68E-05
 Guess MOs from SCF MO coefficient file
 Reading MOs from coefficient file
 Reading MOs from coefficient file

 -----------------------------------------------------------------------
  General SCF calculation program by
  Eric Jon Sundstrom, Paul Horn, Yuezhi Mao, Dmitri Zuev, Alec White,
  David Stuck, Shaama M.S., Shane Yost, Joonho Lee, David Small,
  Daniel Levine, Susi Lehtola, Hugh Burton, Evgeny Epifanovsky
 -----------------------------------------------------------------------
 Exchange:     0.2220 Hartree-Fock + 1.0000 wB97X-D + LR-HF
 Correlation:  1.0000 wB97X-D
 Using SG-2 standard quadrature grid
 Dispersion:   Grimme D
 using 32 threads for integral computing
 -------------------------------------------------------
 OpenMP Integral computing Module                
 Release: version 1.0, May 2013, Q-Chem Inc. Pittsburgh 
 -------------------------------------------------------
 using 32 threads for integral computing
 -------------------------------------------------------
 OpenMP Integral computing Module                
 Release: version 1.0, May 2013, Q-Chem Inc. Pittsburgh 
 -------------------------------------------------------
 -------------------------------------------------------
 OpenMP BLAS3 based DFT computing Module                
 Release: version 1.0, May 2013, Q-Chem Inc. Pittsburgh 
 -------------------------------------------------------
 A restricted SCF calculation will be
 performed using Roothaan-Hall, GDM
 SCF converges when RMS gradient is below 1.0e-08
 ---------------------------------------
  Cycle       Energy         DIIS error
 ---------------------------------------
    1    -303.7276951561      3.15e-03  Roothaan Step
 ---------------------------------------
  Cycle       Energy        RMS Gradient
 ---------------------------------------
    1    -303.7611708912      1.39e-02   Normal BFGS step
    2    -303.7625815117      3.23e-02   Normal BFGS step
    3    -303.7661772030      1.12e-02   Normal BFGS step
    4    -303.7665249663      4.52e-03   Normal BFGS step
    5    -303.7667281822      1.87e-03   Normal BFGS step
    6    -303.7667675270      1.74e-03   Normal BFGS step
    7    -303.7667798546      5.61e-04   Normal BFGS step
    8    -303.7667829175      2.44e-04   Normal BFGS step
    9    -303.7667836074      1.02e-04   Normal BFGS step
   10    -303.7667836868      7.83e-05   Normal BFGS step
   11    -303.7667837100      2.20e-05   Normal BFGS step
   12    -303.7667837136      8.13e-06   Normal BFGS step
   13    -303.7667837143      3.90e-06   Normal BFGS step
   14    -303.7667837144      1.71e-06   Normal BFGS step
   15    -303.7667837145      6.72e-07   Normal BFGS step
   16    -303.7667837145      1.52e-07   Normal BFGS step
   17    -303.7667837145      8.27e-08   Normal BFGS step
   18    -303.7667837145      2.95e-08   Normal BFGS step
   19    -303.7667837145      1.38e-08   Normal BFGS step
   20    -303.7667837145      5.66e-09  Convergence criterion met
 ---------------------------------------
 SCF time:   CPU 403.19s  wall 22.00s 
 SCF   energy in the final basis set =     -303.7667837145
 
 --------------------------------------------------------------
 
                    Orbital Energies (a.u.)
 --------------------------------------------------------------
 
 Alpha MOs
 -- Occupied --
-19.334 -19.273 -10.439 -10.424 -10.410 -10.323  -1.300  -1.193
 -0.914  -0.876  -0.723  -0.639  -0.629  -0.622  -0.589  -0.504
 -0.488  -0.478  -0.407  -0.398  -0.340
 -- Virtual --
 -0.115  -0.023   0.039   0.056   0.081   0.090   0.098   0.114
  0.117   0.125   0.135   0.140   0.156   0.162   0.172   0.177
  0.187   0.195   0.202   0.234   0.238   0.253   0.260   0.284
  0.295   0.322   0.326   0.342   0.352   0.359   0.367   0.391
  0.406   0.434   0.445   0.471   0.546   0.554   0.592   0.622
  0.632   0.641   0.656   0.665   0.669   0.715   0.746   0.751
  0.763   0.788   0.843   0.882   0.910   0.982   1.013   1.089
  1.134   1.163   1.213   1.229   1.241   1.270   1.314   1.352
  1.389   1.425   1.465   1.555   1.582   1.660   1.702   1.717
  1.806   1.833   1.849   1.868   1.912   1.982   2.011   2.109
  2.196   2.311   2.434   2.531   2.637   2.704   2.785   2.802
  2.888   2.904   2.954   2.970   3.010   3.081   3.151   3.199
  3.256   3.304   3.312   3.479   3.526   3.637   3.799   3.906
  3.989   4.082   4.197   5.073   5.158   5.232   5.574   5.628
  5.931  23.509  23.768  23.936  24.125  49.994  50.166
 --------------------------------------------------------------
 
          Ground-State Mulliken Net Atomic Charges

     Atom                 Charge (a.u.)
  ----------------------------------------
      1 O                    -0.004469
      2 O                    -0.276495
      3 C                     0.110942
      4 C                    -0.268368
      5 C                    -0.101746
      6 C                     0.084632
      7 H                     0.238215
      8 H                     0.217290
  ----------------------------------------
  Sum of atomic charges =     0.000000

 -----------------------------------------------------------------
                    Cartesian Multipole Moments
 -----------------------------------------------------------------
    Charge (ESU x 10^10)
                 0.0000
    Dipole Moment (Debye)
         X       3.0782      Y      -0.4526      Z       1.7037
       Tot       3.5472
    Quadrupole Moments (Debye-Ang)
        XX     -37.7053     XY      -1.8784     YY     -32.3005
        XZ       4.1404     YZ       0.8904     ZZ     -34.6385
    Octopole Moments (Debye-Ang^2)
       XXX      -5.1094    XXY     -10.4676    XYY      -1.1111
       YYY      -5.6345    XXZ      10.9017    XYZ      -0.5671
       YYZ       3.9051    XZZ     -11.2039    YZZ      -2.5732
       ZZZ       6.0526
    Hexadecapole Moments (Debye-Ang^3)
      XXXX    -454.8149   XXXY      35.7537   XXYY     -87.9940
      XYYY      33.2001   YYYY    -139.6773   XXXZ      44.8695
      XXYZ      -4.9876   XYYZ       7.1632   YYYZ       3.9260
      XXZZ     -86.5660   XYZZ      13.5276   YYZZ     -32.9187
      XZZZ      17.9574   YZZZ      -0.9223   ZZZZ     -45.9536
 -----------------------------------------------------------------
 Calculating analytic gradient of the SCF energy
 Gradient of SCF Energy
            1           2           3           4           5           6
    1  -0.0047628   0.0353437  -0.0449740  -0.0028607   0.0146726   0.0125481
    2   0.0825244   0.0055538  -0.0268764  -0.0011242   0.0017190  -0.0535287
    3  -0.0233867  -0.0086499   0.0972774  -0.0855500  -0.0350519   0.0352923
            7           8
    1  -0.0072155  -0.0027514
    2  -0.0103461   0.0020782
    3   0.0208892  -0.0008204
 Max gradient component =       9.728E-02
 RMS gradient           =       3.797E-02
 Gradient time:  CPU 38.13 s  wall 2.35 s
 Geometry Optimization Parameters
   NAtoms,    NIC,     NZ,  NCons,   NDum,   NFix, NCnnct, MaxDiis
        8      37       0       0       0       0       0       0

 Cartesian Hessian Update
 Hessian Updated using BFGS Update


** GEOMETRY OPTIMIZATION IN DELOCALIZED INTERNAL COORDINATES **
   Searching for a Minimum

   Optimization Cycle:   4

                       Coordinates (Angstroms)
     ATOM                X               Y               Z
      1  O        -0.1070385650   -0.8295969494   -0.0261922319
      2  O        -1.9838789045    0.4198482941    0.0657090432
      3  C         1.0119267288   -0.0629444619    0.1924254130
      4  C         0.3659281718    1.1585354630   -0.2084153374
      5  C         2.2494386435   -0.6470022663   -0.3447694281
      6  C        -0.8252326571    0.2951384645    0.0267627319
      7  H         0.4232323011    2.0348330310    0.4507186206
      8  H         2.5568227452   -1.5078548076    0.2734970457
   Point Group: c1    Number of degrees of freedom:    18


   Energy is   -303.766783714

 Hessian Updated using BFGS Update

 17 Hessian modes will be used to form the next step
  Hessian Eigenvalues:
     0.006518    0.018096    0.025279    0.099413    0.149940    0.161534
     0.212692    0.248921    0.300858    0.310124    0.346656    0.351179
     0.389717    0.456046    0.959523    2.149115 1182.071425
**WARNING** Magnitude of eigenvalue  17 too large.  Replaced by    25.000000

 Minimum Search - Taking Simple RFO Step
 Searching for Lamda that Minimizes Along All modes
 Value Taken    Lamda =  -0.05630177
 Calculated Step too Large.  Step scaled by  0.515255
 Step Taken.  Stepsize is  0.300000

                             Maximum     Tolerance    Cnvgd?
         Gradient           0.088411      0.000300      NO
         Displacement       0.165102      0.001200      NO
         Energy change     -0.020748      0.000001      NO


 New Cartesian Coordinates Obtained by Inverse Iteration

 Displacement from previous Coordinates is:  0.272478
 ----------------------------------------------------------------
             Standard Nuclear Orientation (Angstroms)
    I     Atom           X                Y                Z
 ----------------------------------------------------------------
    1      O      -0.0915010824    -0.8343442155    -0.0629887867
    2      O      -1.9933799564     0.3989348543     0.1176002712
    3      C       1.0338511271    -0.0449773816     0.1056501203
    4      C       0.3737883927     1.1539390175    -0.1701839155
    5      C       2.2676384184    -0.6548572087    -0.3387925252
    6      C      -0.8350840678     0.2926848219     0.0061723403
    7      H       0.4248014582     2.0595175077     0.4496966583
    8      H       2.5110841741    -1.5099406281     0.3225816944
 ----------------------------------------------------------------
 Molecular Point Group                 C1    NOp =  1
 Largest Abelian Subgroup              C1    NOp =  1
 Nuclear Repulsion Energy =   201.9703447844 hartrees
 There are       21 alpha and       21 beta electrons
 Applying Cartesian multipole field
    Component          Value
    ---------          -----
     (2,0,0)        1.00000E-11
     (0,2,0)        2.00000E-11
     (0,0,2)       -3.00000E-11
 Nucleus-field energy     =     0.0000000045 hartrees
 Requested basis set is 6-311++G(d)
 There are 44 shells and 140 basis functions
 A cutoff of  1.0D-12 yielded    955 shell pairs
 There are      9866 function pairs (     10735 Cartesian)
 Smallest overlap matrix eigenvalue = 3.67E-05
 Guess MOs from SCF MO coefficient file
 Reading MOs from coefficient file
 Reading MOs from coefficient file

 -----------------------------------------------------------------------
  General SCF calculation program by
  Eric Jon Sundstrom, Paul Horn, Yuezhi Mao, Dmitri Zuev, Alec White,
  David Stuck, Shaama M.S., Shane Yost, Joonho Lee, David Small,
  Daniel Levine, Susi Lehtola, Hugh Burton, Evgeny Epifanovsky
 -----------------------------------------------------------------------
 Exchange:     0.2220 Hartree-Fock + 1.0000 wB97X-D + LR-HF
 Correlation:  1.0000 wB97X-D
 Using SG-2 standard quadrature grid
 Dispersion:   Grimme D
 using 32 threads for integral computing
 -------------------------------------------------------
 OpenMP Integral computing Module                
 Release: version 1.0, May 2013, Q-Chem Inc. Pittsburgh 
 -------------------------------------------------------
 using 32 threads for integral computing
 -------------------------------------------------------
 OpenMP Integral computing Module                
 Release: version 1.0, May 2013, Q-Chem Inc. Pittsburgh 
 -------------------------------------------------------
 -------------------------------------------------------
 OpenMP BLAS3 based DFT computing Module                
 Release: version 1.0, May 2013, Q-Chem Inc. Pittsburgh 
 -------------------------------------------------------
 A restricted SCF calculation will be
 performed using Roothaan-Hall, GDM
 SCF converges when RMS gradient is below 1.0e-08
 ---------------------------------------
  Cycle       Energy         DIIS error
 ---------------------------------------
    1    -303.7789288710      1.72e-03  Roothaan Step
 ---------------------------------------
  Cycle       Energy        RMS Gradient
 ---------------------------------------
    1    -303.7892573597      7.08e-03   Normal BFGS step
    2    -303.7897835965      4.76e-03   Normal BFGS step
    3    -303.7901864356      2.02e-03   Normal BFGS step
    4    -303.7901957866      9.79e-04   Normal BFGS step
    5    -303.7902112294      7.61e-04   Normal BFGS step
    6    -303.7902128859      3.70e-04   Normal BFGS step
    7    -303.7902139842      1.96e-04   Normal BFGS step
    8    -303.7902141864      8.34e-05   Normal BFGS step
    9    -303.7902142727      4.34e-05   Normal BFGS step
   10    -303.7902142816      3.12e-05   Normal BFGS step
   11    -303.7902142864      8.74e-06   Normal BFGS step
   12    -303.7902142868      4.41e-06   Normal BFGS step
   13    -303.7902142869      1.93e-06   Normal BFGS step
   14    -303.7902142869      6.71e-07   Normal BFGS step
   15    -303.7902142869      2.21e-07   Normal BFGS step
   16    -303.7902142869      9.55e-08   Normal BFGS step
   17    -303.7902142869      3.53e-08   Normal BFGS step
   18    -303.7902142869      1.40e-08   Normal BFGS step
   19    -303.7902142869      4.89e-09  Convergence criterion met
 ---------------------------------------
 SCF time:   CPU 383.77s  wall 23.00s 
 SCF   energy in the final basis set =     -303.7902142869
 
 --------------------------------------------------------------
 
                    Orbital Energies (a.u.)
 --------------------------------------------------------------
 
 Alpha MOs
 -- Occupied --
-19.329 -19.277 -10.442 -10.418 -10.404 -10.327  -1.289  -1.193
 -0.918  -0.880  -0.716  -0.642  -0.631  -0.616  -0.591  -0.514
 -0.495  -0.480  -0.404  -0.400  -0.342
 -- Virtual --
 -0.113  -0.007   0.040   0.056   0.085   0.092   0.098   0.114
  0.117   0.124   0.136   0.141   0.154   0.163   0.170   0.178
  0.187   0.199   0.202   0.231   0.236   0.248   0.253   0.287
  0.295   0.320   0.328   0.344   0.352   0.356   0.367   0.391
  0.410   0.434   0.450   0.469   0.548   0.553   0.605   0.617
  0.619   0.642   0.659   0.662   0.672   0.711   0.745   0.753
  0.772   0.792   0.852   0.886   0.906   0.969   1.009   1.094
  1.137   1.170   1.207   1.218   1.239   1.269   1.311   1.354
  1.383   1.436   1.450   1.560   1.607   1.662   1.695   1.721
  1.799   1.827   1.849   1.899   1.920   1.981   2.012   2.132
  2.207   2.370   2.425   2.537   2.645   2.701   2.776   2.818
  2.881   2.901   2.947   2.982   3.018   3.065   3.163   3.192
  3.235   3.304   3.327   3.471   3.518   3.623   3.799   3.904
  3.979   4.086   4.191   5.075   5.152   5.228   5.571   5.623
  5.919  23.506  23.791  23.979  24.186  49.992  50.156
 --------------------------------------------------------------
 
          Ground-State Mulliken Net Atomic Charges

     Atom                 Charge (a.u.)
  ----------------------------------------
      1 O                    -0.020516
      2 O                    -0.272955
      3 C                     0.061290
      4 C                    -0.192962
      5 C                    -0.118151
      6 C                     0.085273
      7 H                     0.242440
      8 H                     0.215580
  ----------------------------------------
  Sum of atomic charges =     0.000000

 -----------------------------------------------------------------
                    Cartesian Multipole Moments
 -----------------------------------------------------------------
    Charge (ESU x 10^10)
                 0.0000
    Dipole Moment (Debye)
         X       2.8478      Y      -0.0918      Z       1.6121
       Tot       3.2737
    Quadrupole Moments (Debye-Ang)
        XX     -38.4524     XY      -1.6152     YY     -31.9820
        XZ       4.5406     YZ       0.6879     ZZ     -34.5783
    Octopole Moments (Debye-Ang^2)
       XXX      -9.4260    XXY      -9.2219    XYY      -1.4235
       YYY      -3.9950    XXZ      11.5485    XYZ      -0.8385
       YYZ       4.4654    XZZ     -11.2564    YZZ      -2.2740
       ZZZ       6.6608
    Hexadecapole Moments (Debye-Ang^3)
      XXXX    -472.8834   XXXY      38.2368   XXYY     -89.3172
      XYYY      33.4195   YYYY    -137.0864   XXXZ      50.7894
      XXYZ      -6.7217   XYYZ       8.4572   YYYZ       2.3846
      XXZZ     -87.3877   XYZZ      13.4745   YYZZ     -32.5311
      XZZZ      20.3626   YZZZ      -2.5262   ZZZZ     -44.6096
 -----------------------------------------------------------------
 Calculating analytic gradient of the SCF energy
 Gradient of SCF Energy
            1           2           3           4           5           6
    1   0.0000501   0.0244358  -0.0332903   0.0083709   0.0088916   0.0021389
    2   0.0689219   0.0045538  -0.0129881  -0.0154764   0.0009529  -0.0406578
    3  -0.0128077  -0.0040297   0.0710158  -0.0653179  -0.0292331   0.0178784
            7           8
    1  -0.0092916  -0.0013054
    2  -0.0047513  -0.0005550
    3   0.0207136   0.0017806
 Max gradient component =       7.102E-02
 RMS gradient           =       2.879E-02
 Gradient time:  CPU 38.21 s  wall 2.71 s
 Geometry Optimization Parameters
   NAtoms,    NIC,     NZ,  NCons,   NDum,   NFix, NCnnct, MaxDiis
        8      37       0       0       0       0       0       0

 Cartesian Hessian Update
 Hessian Updated using BFGS Update


** GEOMETRY OPTIMIZATION IN DELOCALIZED INTERNAL COORDINATES **
   Searching for a Minimum

   Optimization Cycle:   5

                       Coordinates (Angstroms)
     ATOM                X               Y               Z
      1  O        -0.0915010824   -0.8343442155   -0.0629887867
      2  O        -1.9933799564    0.3989348543    0.1176002712
      3  C         1.0338511271   -0.0449773816    0.1056501203
      4  C         0.3737883927    1.1539390175   -0.1701839155
      5  C         2.2676384184   -0.6548572087   -0.3387925252
      6  C        -0.8350840678    0.2926848219    0.0061723403
      7  H         0.4248014582    2.0595175077    0.4496966583
      8  H         2.5110841741   -1.5099406281    0.3225816944
   Point Group: c1    Number of degrees of freedom:    18


   Energy is   -303.790214287

 Hessian Updated using BFGS Update

 17 Hessian modes will be used to form the next step
  Hessian Eigenvalues:
     0.006119    0.019706    0.024720    0.106368    0.146939    0.161052
     0.235209    0.252550    0.291431    0.312226    0.347137    0.355739
     0.385497    0.467266    0.958558    2.061435 1009.992243
**WARNING** Magnitude of eigenvalue  17 too large.  Replaced by    25.000000

 Minimum Search - Taking Simple RFO Step
 Searching for Lamda that Minimizes Along All modes
 Value Taken    Lamda =  -0.03486786
 Calculated Step too Large.  Step scaled by  0.459243
 Step Taken.  Stepsize is  0.300000

                             Maximum     Tolerance    Cnvgd?
         Gradient           0.049969      0.000300      NO
         Displacement       0.141194      0.001200      NO
         Energy change     -0.023431      0.000001      NO


 New Cartesian Coordinates Obtained by Inverse Iteration

 Displacement from previous Coordinates is:  0.239617
 ----------------------------------------------------------------
             Standard Nuclear Orientation (Angstroms)
    I     Atom           X                Y                Z
 ----------------------------------------------------------------
    1      O      -0.0787845423    -0.8666662456    -0.1014287227
    2      O      -1.9779243671     0.3805806418     0.1321342051
    3      C       1.0311460967    -0.0330390930     0.0435610495
    4      C       0.3699691015     1.1656270387    -0.1314584956
    5      C       2.2491804256    -0.6599470603    -0.3406362198
    6      C      -0.8195597559     0.2715133656     0.0208689133
    7      H       0.4503315020     2.0929394074     0.4449729880
    8      H       2.4668400033    -1.4900512871     0.3617221392
 ----------------------------------------------------------------
 Molecular Point Group                 C1    NOp =  1
 Largest Abelian Subgroup              C1    NOp =  1
 Nuclear Repulsion Energy =   202.2330552829 hartrees
 There are       21 alpha and       21 beta electrons
 Applying Cartesian multipole field
    Component          Value
    ---------          -----
     (2,0,0)        1.00000E-11
     (0,2,0)        2.00000E-11
     (0,0,2)       -3.00000E-11
 Nucleus-field energy     =     0.0000000045 hartrees
 Requested basis set is 6-311++G(d)
 There are 44 shells and 140 basis functions
 A cutoff of  1.0D-12 yielded    956 shell pairs
 There are      9882 function pairs (     10751 Cartesian)
 Smallest overlap matrix eigenvalue = 3.64E-05
 Guess MOs from SCF MO coefficient file
 Reading MOs from coefficient file
 Reading MOs from coefficient file

 -----------------------------------------------------------------------
  General SCF calculation program by
  Eric Jon Sundstrom, Paul Horn, Yuezhi Mao, Dmitri Zuev, Alec White,
  David Stuck, Shaama M.S., Shane Yost, Joonho Lee, David Small,
  Daniel Levine, Susi Lehtola, Hugh Burton, Evgeny Epifanovsky
 -----------------------------------------------------------------------
 Exchange:     0.2220 Hartree-Fock + 1.0000 wB97X-D + LR-HF
 Correlation:  1.0000 wB97X-D
 Using SG-2 standard quadrature grid
 Dispersion:   Grimme D
 using 32 threads for integral computing
 -------------------------------------------------------
 OpenMP Integral computing Module                
 Release: version 1.0, May 2013, Q-Chem Inc. Pittsburgh 
 -------------------------------------------------------
 using 32 threads for integral computing
 -------------------------------------------------------
 OpenMP Integral computing Module                
 Release: version 1.0, May 2013, Q-Chem Inc. Pittsburgh 
 -------------------------------------------------------
 -------------------------------------------------------
 OpenMP BLAS3 based DFT computing Module                
 Release: version 1.0, May 2013, Q-Chem Inc. Pittsburgh 
 -------------------------------------------------------
 A restricted SCF calculation will be
 performed using Roothaan-Hall, GDM
 SCF converges when RMS gradient is below 1.0e-08
 ---------------------------------------
  Cycle       Energy         DIIS error
 ---------------------------------------
    1    -303.7967188371      1.20e-03  Roothaan Step
 ---------------------------------------
  Cycle       Energy        RMS Gradient
 ---------------------------------------
    1    -303.8021769645      6.19e-03   Normal BFGS step
    2    -303.8025320928      4.95e-03   Normal BFGS step
    3    -303.8027310081      1.60e-03   Normal BFGS step
    4    -303.8027497102      1.26e-03   Normal BFGS step
    5    -303.8027630835      8.85e-04   Normal BFGS step
    6    -303.8027660149      3.38e-04   Normal BFGS step
    7    -303.8027669694      2.13e-04   Normal BFGS step
    8    -303.8027672553      9.88e-05   Normal BFGS step
    9    -303.8027673329      5.82e-05   Normal BFGS step
   10    -303.8027673509      2.42e-05   Normal BFGS step
   11    -303.8027673557      1.14e-05   Normal BFGS step
   12    -303.8027673562      2.77e-06   Normal BFGS step
   13    -303.8027673564      1.82e-06   Normal BFGS step
   14    -303.8027673564      9.54e-07   Normal BFGS step
   15    -303.8027673564      3.82e-07   Normal BFGS step
   16    -303.8027673564      9.88e-08   Normal BFGS step
   17    -303.8027673564      3.79e-08   Normal BFGS step
   18    -303.8027673564      8.87e-09  Convergence criterion met
 ---------------------------------------
 SCF time:   CPU 367.83s  wall 21.00s 
 SCF   energy in the final basis set =     -303.8027673564
 
 --------------------------------------------------------------
 
                    Orbital Energies (a.u.)
 --------------------------------------------------------------
 
 Alpha MOs
 -- Occupied --
-19.330 -19.276 -10.445 -10.416 -10.401 -10.328  -1.284  -1.191
 -0.923  -0.885  -0.705  -0.647  -0.633  -0.614  -0.590  -0.516
 -0.504  -0.480  -0.405  -0.399  -0.343
 -- Virtual --
 -0.110   0.006   0.039   0.055   0.084   0.092   0.100   0.114
  0.117   0.124   0.137   0.142   0.152   0.163   0.173   0.180
  0.186   0.201   0.205   0.228   0.233   0.246   0.249   0.284
  0.298   0.320   0.332   0.344   0.348   0.358   0.368   0.390
  0.415   0.439   0.456   0.470   0.550   0.555   0.600   0.613
  0.619   0.645   0.662   0.668   0.674   0.706   0.738   0.753
  0.779   0.791   0.866   0.885   0.910   0.966   1.007   1.098
  1.130   1.171   1.200   1.216   1.240   1.272   1.326   1.340
  1.400   1.426   1.453   1.562   1.624   1.656   1.693   1.727
  1.803   1.832   1.854   1.917   1.938   1.968   1.995   2.150
  2.209   2.406   2.457   2.557   2.646   2.704   2.771   2.828
  2.878   2.898   2.940   2.999   3.013   3.056   3.160   3.191
  3.257   3.296   3.336   3.459   3.512   3.624   3.804   3.885
  3.967   4.082   4.198   5.071   5.148   5.228   5.560   5.609
  5.914  23.502  23.823  23.997  24.221  49.990  50.161
 --------------------------------------------------------------
 
          Ground-State Mulliken Net Atomic Charges

     Atom                 Charge (a.u.)
  ----------------------------------------
      1 O                    -0.028258
      2 O                    -0.281005
      3 C                     0.053566
      4 C                    -0.146919
      5 C                    -0.139760
      6 C                     0.075380
      7 H                     0.248690
      8 H                     0.218305
  ----------------------------------------
  Sum of atomic charges =     0.000000

 -----------------------------------------------------------------
                    Cartesian Multipole Moments
 -----------------------------------------------------------------
    Charge (ESU x 10^10)
                 0.0000
    Dipole Moment (Debye)
         X       2.8532      Y       0.1565      Z       1.6561
       Tot       3.3027
    Quadrupole Moments (Debye-Ang)
        XX     -38.6762     XY      -1.1917     YY     -31.6642
        XZ       4.6479     YZ       0.4636     ZZ     -34.6325
    Octopole Moments (Debye-Ang^2)
       XXX     -10.7982    XXY      -7.7876    XYY      -1.4820
       YYY      -1.7763    XXZ      11.9293    XYZ      -1.1204
       YYZ       4.9665    XZZ     -11.2182    YZZ      -1.9137
       ZZZ       7.2154
    Hexadecapole Moments (Debye-Ang^3)
      XXXX    -469.5182   XXXY      39.3986   XXYY     -89.0503
      XYYY      33.3748   YYYY    -136.0382   XXXZ      52.8465
      XXYZ      -8.2210   XYYZ       9.3829   YYYZ       0.8930
      XXZZ     -86.3561   XYZZ      13.2492   YYZZ     -32.8075
      XZZZ      21.7401   YZZZ      -4.2785   ZZZZ     -44.3889
 -----------------------------------------------------------------
 Calculating analytic gradient of the SCF energy
 Gradient of SCF Energy
            1           2           3           4           5           6
    1  -0.0021243   0.0238862  -0.0331683   0.0102927   0.0001570   0.0097779
    2   0.0424155   0.0065522  -0.0073035  -0.0002820   0.0037564  -0.0424622
    3  -0.0077953  -0.0049509   0.0537915  -0.0534801  -0.0226964   0.0149006
            7           8
    1  -0.0069569  -0.0018643
    2  -0.0008560  -0.0018205
    3   0.0177818   0.0024488
 Max gradient component =       5.379E-02
 RMS gradient           =       2.286E-02
 Gradient time:  CPU 36.96 s  wall 2.15 s
 Geometry Optimization Parameters
   NAtoms,    NIC,     NZ,  NCons,   NDum,   NFix, NCnnct, MaxDiis
        8      37       0       0       0       0       0       0

 Cartesian Hessian Update
 Hessian Updated using BFGS Update


** GEOMETRY OPTIMIZATION IN DELOCALIZED INTERNAL COORDINATES **
   Searching for a Minimum

   Optimization Cycle:   6

                       Coordinates (Angstroms)
     ATOM                X               Y               Z
      1  O        -0.0787845423   -0.8666662456   -0.1014287227
      2  O        -1.9779243671    0.3805806418    0.1321342051
      3  C         1.0311460967   -0.0330390930    0.0435610495
      4  C         0.3699691015    1.1656270387   -0.1314584956
      5  C         2.2491804256   -0.6599470603   -0.3406362198
      6  C        -0.8195597559    0.2715133656    0.0208689133
      7  H         0.4503315020    2.0929394074    0.4449729880
      8  H         2.4668400033   -1.4900512871    0.3617221392
   Point Group: c1    Number of degrees of freedom:    18


   Energy is   -303.802767356

 Hessian Updated using BFGS Update

 17 Hessian modes will be used to form the next step
  Hessian Eigenvalues:
     0.006914    0.022438    0.035819    0.076902    0.144867    0.160695
     0.192580    0.248563    0.309216    0.332438    0.347128    0.357163
     0.428445    0.599888    0.958830    1.918965  857.804561
**WARNING** Magnitude of eigenvalue  17 too large.  Replaced by    25.000000

 Minimum Search - Taking Simple RFO Step
 Searching for Lamda that Minimizes Along All modes
 Value Taken    Lamda =  -0.02561344
 Calculated Step too Large.  Step scaled by  0.524264
 Step Taken.  Stepsize is  0.300000

                             Maximum     Tolerance    Cnvgd?
         Gradient           0.040592      0.000300      NO
         Displacement       0.157833      0.001200      NO
         Energy change     -0.012553      0.000001      NO


 New Cartesian Coordinates Obtained by Inverse Iteration

 Displacement from previous Coordinates is:  0.215063
 ----------------------------------------------------------------
             Standard Nuclear Orientation (Angstroms)
    I     Atom           X                Y                Z
 ----------------------------------------------------------------
    1      O      -0.0811056985    -0.8617021313    -0.1062551609
    2      O      -1.9920035230     0.3735800181     0.1523786680
    3      C       1.0427025267    -0.0324472761    -0.0085757029
    4      C       0.3827462312     1.1387270322    -0.0853646880
    5      C       2.2397366723    -0.6764559002    -0.3589017174
    6      C      -0.8396774081     0.2855767555    -0.0131258881
    7      H       0.4711710140     2.0815181845     0.4482816172
    8      H       2.4676286492    -1.4478399152     0.4012987291
 ----------------------------------------------------------------
 Molecular Point Group                 C1    NOp =  1
 Largest Abelian Subgroup              C1    NOp =  1
 Nuclear Repulsion Energy =   202.4436190417 hartrees
 There are       21 alpha and       21 beta electrons
 Applying Cartesian multipole field
    Component          Value
    ---------          -----
     (2,0,0)        1.00000E-11
     (0,2,0)        2.00000E-11
     (0,0,2)       -3.00000E-11
 Nucleus-field energy     =     0.0000000044 hartrees
 Requested basis set is 6-311++G(d)
 There are 44 shells and 140 basis functions
 A cutoff of  1.0D-12 yielded    956 shell pairs
 There are      9882 function pairs (     10751 Cartesian)
 Smallest overlap matrix eigenvalue = 2.67E-05
 Guess MOs from SCF MO coefficient file
 Reading MOs from coefficient file
 Reading MOs from coefficient file

 -----------------------------------------------------------------------
  General SCF calculation program by
  Eric Jon Sundstrom, Paul Horn, Yuezhi Mao, Dmitri Zuev, Alec White,
  David Stuck, Shaama M.S., Shane Yost, Joonho Lee, David Small,
  Daniel Levine, Susi Lehtola, Hugh Burton, Evgeny Epifanovsky
 -----------------------------------------------------------------------
 Exchange:     0.2220 Hartree-Fock + 1.0000 wB97X-D + LR-HF
 Correlation:  1.0000 wB97X-D
 Using SG-2 standard quadrature grid
 Dispersion:   Grimme D
 using 32 threads for integral computing
 -------------------------------------------------------
 OpenMP Integral computing Module                
 Release: version 1.0, May 2013, Q-Chem Inc. Pittsburgh 
 -------------------------------------------------------
 using 32 threads for integral computing
 -------------------------------------------------------
 OpenMP Integral computing Module                
 Release: version 1.0, May 2013, Q-Chem Inc. Pittsburgh 
 -------------------------------------------------------
 -------------------------------------------------------
 OpenMP BLAS3 based DFT computing Module                
 Release: version 1.0, May 2013, Q-Chem Inc. Pittsburgh 
 -------------------------------------------------------
 A restricted SCF calculation will be
 performed using Roothaan-Hall, GDM
 SCF converges when RMS gradient is below 1.0e-08
 ---------------------------------------
  Cycle       Energy         DIIS error
 ---------------------------------------
    1    -303.8030079984      1.51e-03  Roothaan Step
 ---------------------------------------
  Cycle       Energy        RMS Gradient
 ---------------------------------------
    1    -303.8104298129      4.83e-03   Normal BFGS step
    2    -303.8107804195      9.34e-03   Normal BFGS step
    3    -303.8112183078      2.41e-03   Normal BFGS step
    4    -303.8112461503      1.61e-03   Normal BFGS step
    5    -303.8112708801      1.23e-03   Normal BFGS step
    6    -303.8112780944      3.63e-04   Normal BFGS step
    7    -303.8112800546      3.13e-04   Normal BFGS step
    8    -303.8112807753      7.74e-05   Normal BFGS step
    9    -303.8112808577      4.61e-05   Normal BFGS step
   10    -303.8112808723      1.51e-05   Normal BFGS step
   11    -303.8112808746      9.58e-06   Normal BFGS step
   12    -303.8112808752      5.06e-06   Normal BFGS step
   13    -303.8112808753      1.92e-06   Normal BFGS step
   14    -303.8112808754      6.30e-07   Normal BFGS step
   15    -303.8112808754      2.16e-07   Normal BFGS step
   16    -303.8112808754      7.02e-08   Normal BFGS step
   17    -303.8112808754      2.61e-08   Normal BFGS step
   18    -303.8112808754      1.06e-08   Normal BFGS step
   19    -303.8112808754      2.81e-09  Convergence criterion met
 ---------------------------------------
 SCF time:   CPU 388.50s  wall 24.00s 
 SCF   energy in the final basis set =     -303.8112808754
 
 --------------------------------------------------------------
 
                    Orbital Energies (a.u.)
 --------------------------------------------------------------
 
 Alpha MOs
 -- Occupied --
-19.324 -19.279 -10.445 -10.410 -10.400 -10.324  -1.276  -1.193
 -0.925  -0.888  -0.705  -0.647  -0.635  -0.611  -0.590  -0.528
 -0.503  -0.480  -0.405  -0.400  -0.341
 -- Virtual --
 -0.108   0.010   0.039   0.055   0.090   0.093   0.102   0.115
  0.118   0.123   0.139   0.141   0.151   0.162   0.175   0.182
  0.186   0.200   0.209   0.227   0.232   0.244   0.248   0.288
  0.300   0.318   0.332   0.344   0.355   0.358   0.371   0.390
  0.416   0.439   0.459   0.481   0.549   0.557   0.597   0.604
  0.625   0.646   0.663   0.672   0.684   0.704   0.743   0.758
  0.788   0.818   0.875   0.879   0.914   0.964   1.007   1.104
  1.135   1.186   1.189   1.214   1.238   1.272   1.314   1.339
  1.384   1.433   1.468   1.566   1.631   1.668   1.701   1.722
  1.785   1.831   1.862   1.907   1.970   1.975   2.005   2.176
  2.224   2.432   2.450   2.582   2.666   2.711   2.771   2.837
  2.878   2.895   2.934   3.008   3.028   3.042   3.159   3.197
  3.263   3.302   3.369   3.457   3.517   3.621   3.803   3.868
  3.966   4.086   4.213   5.078   5.147   5.226   5.569   5.612
  5.907  23.496  23.849  24.012  24.353  49.991  50.151
 --------------------------------------------------------------
 
          Ground-State Mulliken Net Atomic Charges

     Atom                 Charge (a.u.)
  ----------------------------------------
      1 O                    -0.042946
      2 O                    -0.268632
      3 C                     0.019418
      4 C                    -0.084431
      5 C                    -0.170045
      6 C                     0.071783
      7 H                     0.253775
      8 H                     0.221079
  ----------------------------------------
  Sum of atomic charges =     0.000000

 -----------------------------------------------------------------
                    Cartesian Multipole Moments
 -----------------------------------------------------------------
    Charge (ESU x 10^10)
                 0.0000
    Dipole Moment (Debye)
         X       2.8490      Y       0.3392      Z       1.5751
       Tot       3.2731
    Quadrupole Moments (Debye-Ang)
        XX     -38.2966     XY      -0.9914     YY     -31.7486
        XZ       4.8656     YZ       0.2456     ZZ     -34.6843
    Octopole Moments (Debye-Ang^2)
       XXX     -10.1134    XXY      -6.6513    XYY      -1.6373
       YYY      -0.8915    XXZ      12.3289    XYZ      -1.4936
       YYZ       5.3760    XZZ     -11.2265    YZZ      -1.5440
       ZZZ       7.9387
    Hexadecapole Moments (Debye-Ang^3)
      XXXX    -470.0969   XXXY      42.0626   XXYY     -89.7002
      XYYY      34.2740   YYYY    -134.1349   XXXZ      55.0089
      XXYZ      -9.7872   XYYZ      10.2948   YYYZ      -0.6562
      XXZZ     -87.0578   XYZZ      13.6211   YYZZ     -32.5747
      XZZZ      23.5067   YZZZ      -5.9019   ZZZZ     -44.9103
 -----------------------------------------------------------------
 Calculating analytic gradient of the SCF energy
 Gradient of SCF Energy
            1           2           3           4           5           6
    1   0.0021353   0.0217411  -0.0184128   0.0229813  -0.0095786  -0.0087004
    2   0.0459502   0.0034328   0.0053613  -0.0282773   0.0055881  -0.0298304
    3   0.0032004   0.0017972   0.0358065  -0.0337476  -0.0184241  -0.0069149
            7           8
    1  -0.0085350  -0.0016308
    2  -0.0025857   0.0003609
    3   0.0150565   0.0032260
 Max gradient component =       4.595E-02
 RMS gradient           =       1.885E-02
 Gradient time:  CPU 37.78 s  wall 2.54 s
 Geometry Optimization Parameters
   NAtoms,    NIC,     NZ,  NCons,   NDum,   NFix, NCnnct, MaxDiis
        8      37       0       0       0       0       0       0

 Cartesian Hessian Update
 Hessian Updated using BFGS Update


** GEOMETRY OPTIMIZATION IN DELOCALIZED INTERNAL COORDINATES **
   Searching for a Minimum

   Optimization Cycle:   7

                       Coordinates (Angstroms)
     ATOM                X               Y               Z
      1  O        -0.0811056985   -0.8617021313   -0.1062551609
      2  O        -1.9920035230    0.3735800181    0.1523786680
      3  C         1.0427025267   -0.0324472761   -0.0085757029
      4  C         0.3827462312    1.1387270322   -0.0853646880
      5  C         2.2397366723   -0.6764559002   -0.3589017174
      6  C        -0.8396774081    0.2855767555   -0.0131258881
      7  H         0.4711710140    2.0815181845    0.4482816172
      8  H         2.4676286492   -1.4478399152    0.4012987291
   Point Group: c1    Number of degrees of freedom:    18


   Energy is   -303.811280875

 Hessian Updated using BFGS Update

 17 Hessian modes will be used to form the next step
  Hessian Eigenvalues:
     0.006934    0.021849    0.033241    0.099969    0.156174    0.160874
     0.243459    0.254580    0.311561    0.333540    0.347170    0.358289
     0.438791    0.786032    0.960687    1.862618  714.854304
**WARNING** Magnitude of eigenvalue  17 too large.  Replaced by    25.000000

 Minimum Search - Taking Simple RFO Step
 Searching for Lamda that Minimizes Along All modes
 Value Taken    Lamda =  -0.01559973
 Calculated Step too Large.  Step scaled by  0.431709
 Step Taken.  Stepsize is  0.300000

[...]
    4      C       0.3700401701     1.0661683773     0.0725738107
    5      C       2.3041816390    -0.5660361251    -0.2517184464
    6      C      -0.8881638574     0.2932052640     0.0552665034
    7      H       0.6612309078     2.0620063066     0.3585948443
    8      H       2.4668889708    -1.3417060073     0.5110848538
 ----------------------------------------------------------------
 Molecular Point Group                 C1    NOp =  1
 Largest Abelian Subgroup              C1    NOp =  1
 Nuclear Repulsion Energy =   199.6119006462 hartrees
 There are       21 alpha and       21 beta electrons
 Applying Cartesian multipole field
    Component          Value
    ---------          -----
     (2,0,0)        1.00000E-11
     (0,2,0)        2.00000E-11
     (0,0,2)       -3.00000E-11
 Nucleus-field energy     =     0.0000000044 hartrees
 Requested basis set is 6-311++G(d)
 There are 44 shells and 140 basis functions
 A cutoff of  1.0D-12 yielded    953 shell pairs
 There are      9858 function pairs (     10727 Cartesian)
 Smallest overlap matrix eigenvalue = 1.11E-05
 Guess MOs from SCF MO coefficient file
 Reading MOs from coefficient file
 Reading MOs from coefficient file

 -----------------------------------------------------------------------
  General SCF calculation program by
  Eric Jon Sundstrom, Paul Horn, Yuezhi Mao, Dmitri Zuev, Alec White,
  David Stuck, Shaama M.S., Shane Yost, Joonho Lee, David Small,
  Daniel Levine, Susi Lehtola, Hugh Burton, Evgeny Epifanovsky
 -----------------------------------------------------------------------
 Exchange:     0.2220 Hartree-Fock + 1.0000 wB97X-D + LR-HF
 Correlation:  1.0000 wB97X-D
 Using SG-2 standard quadrature grid
 Dispersion:   Grimme D
 using 32 threads for integral computing
 -------------------------------------------------------
 OpenMP Integral computing Module                
 Release: version 1.0, May 2013, Q-Chem Inc. Pittsburgh 
 -------------------------------------------------------
 using 32 threads for integral computing
 -------------------------------------------------------
 OpenMP Integral computing Module                
 Release: version 1.0, May 2013, Q-Chem Inc. Pittsburgh 
 -------------------------------------------------------
 -------------------------------------------------------
 OpenMP BLAS3 based DFT computing Module                
 Release: version 1.0, May 2013, Q-Chem Inc. Pittsburgh 
 -------------------------------------------------------
 A restricted SCF calculation will be
 performed using Roothaan-Hall, GDM
 SCF converges when RMS gradient is below 1.0e-08
 ---------------------------------------
  Cycle       Energy         DIIS error
 ---------------------------------------
    1    -303.8321890356      8.13e-10  Roothaan Step
 ---------------------------------------
  Cycle       Energy        RMS Gradient
 ---------------------------------------
    1    -303.8321890356      2.52e-08   Normal BFGS step
    2    -303.8321890356      3.96e-08   Normal BFGS step
    3    -303.8321890356      5.20e-10  Convergence criterion met
 ---------------------------------------
 SCF time:   CPU 92.80s  wall 4.00s 
 SCF   energy in the final basis set =     -303.8321890356
 
 --------------------------------------------------------------
 
                    Orbital Energies (a.u.)
 --------------------------------------------------------------
 
 Alpha MOs
 -- Occupied --
-19.316 -19.290 -10.458 -10.412 -10.386 -10.342  -1.252  -1.192
 -0.929  -0.879  -0.697  -0.659  -0.634  -0.603  -0.590  -0.533
 -0.509  -0.485  -0.411  -0.394  -0.341
 -- Virtual --
 -0.104   0.016   0.038   0.055   0.087   0.092   0.105   0.115
  0.122   0.131   0.135   0.141   0.151   0.158   0.165   0.176
  0.183   0.191   0.207   0.226   0.229   0.246   0.264   0.282
  0.294   0.306   0.332   0.338   0.360   0.362   0.379   0.386
  0.407   0.424   0.469   0.512   0.540   0.546   0.603   0.613
  0.631   0.650   0.659   0.679   0.679   0.704   0.709   0.788
  0.814   0.865   0.893   0.914   0.939   0.982   0.997   1.110
  1.113   1.161   1.209   1.224   1.232   1.265   1.280   1.337
  1.388   1.418   1.428   1.532   1.611   1.649   1.720   1.782
  1.811   1.823   1.851   1.869   1.957   2.009   2.062   2.116
  2.206   2.400   2.525   2.560   2.659   2.741   2.764   2.835
  2.854   2.909   2.926   2.958   3.029   3.043   3.128   3.200
  3.258   3.291   3.376   3.469   3.483   3.595   3.774   3.816
  3.983   4.064   4.205   5.084   5.130   5.211   5.508   5.602
  5.857  23.495  23.877  24.003  24.281  50.010  50.145
 --------------------------------------------------------------
 
          Ground-State Mulliken Net Atomic Charges

     Atom                 Charge (a.u.)
  ----------------------------------------
      1 O                    -0.117259
      2 O                    -0.261071
      3 C                    -0.235287
      4 C                     0.151566
      5 C                    -0.163604
      6 C                     0.079858
      7 H                     0.319604
      8 H                     0.226192
  ----------------------------------------
  Sum of atomic charges =    -0.000000

 -----------------------------------------------------------------
                    Cartesian Multipole Moments
 -----------------------------------------------------------------
    Charge (ESU x 10^10)
                 0.0000
    Dipole Moment (Debye)
         X       2.2063      Y       0.6851      Z       1.2683
       Tot       2.6355
    Quadrupole Moments (Debye-Ang)
        XX     -41.4327     XY      -1.4904     YY     -30.9992
        XZ       4.2328     YZ      -0.2910     ZZ     -34.1170
    Octopole Moments (Debye-Ang^2)
       XXX     -22.4018    XXY      -7.6629    XYY       1.0335
       YYY       2.7070    XXZ      10.8538    XYZ       0.1690
       YYZ       4.3905    XZZ      -7.9448    YZZ      -1.9587
       ZZZ       6.7438
    Hexadecapole Moments (Debye-Ang^3)
      XXXX    -542.8438   XXXY      32.9891   XXYY     -87.9612
      XYYY      32.5489   YYYY    -121.7238   XXXZ      56.9006
      XXYZ      -8.7335   XYYZ       9.0342   YYYZ      -7.8536
      XXZZ     -86.0891   XYZZ       9.8839   YYZZ     -31.0786
      XZZZ      21.6304   YZZZ     -11.5913   ZZZZ     -46.7974
 -----------------------------------------------------------------
 Calculating analytic gradient of the SCF energy
 Gradient of SCF Energy
            1           2           3           4           5           6
    1   0.0019687   0.0001386  -0.0008050  -0.0000184  -0.0012202  -0.0008730
    2  -0.0016523  -0.0002136   0.0011346   0.0003949  -0.0041014   0.0021269
    3  -0.0023762  -0.0000140   0.0048170  -0.0013699  -0.0052475  -0.0001106
            7           8
    1  -0.0001482   0.0009575
    2  -0.0004344   0.0027453
    3   0.0016457   0.0026557
 Max gradient component =       5.248E-03
 RMS gradient           =       2.132E-03
 Gradient time:  CPU 37.73 s  wall 1.70 s
 Geometry Optimization Parameters
   NAtoms,    NIC,     NZ,  NCons,   NDum,   NFix, NCnnct, MaxDiis
        8      37       0       0       0       0       0       0

 Cartesian Hessian Update
 Hessian Updated using BFGS Update
**WARNING** Hereditary positive definiteness endangered
**WARNING** Small Scalar Product
 Hessian Update Skipped this cycle


** GEOMETRY OPTIMIZATION IN DELOCALIZED INTERNAL COORDINATES **
   Searching for a Minimum

   Optimization Cycle: 199

                       Coordinates (Angstroms)
     ATOM                X               Y               Z
      1  O        -0.1644530098   -0.9093054780   -0.3472804284
      2  O        -2.0424751521    0.3719021547    0.2464160326
      3  C         0.9839487954   -0.1152777247   -0.2152013131
      4  C         0.3700401701    1.0661683773    0.0725738107
      5  C         2.3041816390   -0.5660361251   -0.2517184464
      6  C        -0.8881638574    0.2932052640    0.0552665034
      7  H         0.6612309078    2.0620063066    0.3585948443
      8  H         2.4668889708   -1.3417060073    0.5110848538
   Point Group: c1    Number of degrees of freedom:    18


   Energy is   -303.832189036

 Hessian Updated using BFGS Update
**WARNING** Hereditary positive definiteness endangered
**WARNING** Small Scalar Product
 Hessian Update Skipped this cycle

  1 Hessian modes will be used to form the next step
  Hessian Eigenvalues:
     4.708606

 Minimum Search - Taking Simple RFO Step
 Searching for Lamda that Minimizes Along All modes
 Value Taken    Lamda =   0.00000000
 Step Taken.  Stepsize is  0.000000

                             Maximum     Tolerance    Cnvgd?
         Gradient           0.003076      0.000300      NO
         Displacement       0.000000      0.001200     YES
         Energy change      0.000000      0.000001     YES


 New Cartesian Coordinates Obtained by Inverse Iteration

 Displacement from previous Coordinates is:  0.000000
 ----------------------------------------------------------------
             Standard Nuclear Orientation (Angstroms)
    I     Atom           X                Y                Z
 ----------------------------------------------------------------
    1      O      -0.1644530098    -0.9093054780    -0.3472804284
    2      O      -2.0424751521     0.3719021547     0.2464160326
    3      C       0.9839487954    -0.1152777247    -0.2152013131
    4      C       0.3700401701     1.0661683773     0.0725738107
    5      C       2.3041816390    -0.5660361251    -0.2517184464
    6      C      -0.8881638574     0.2932052640     0.0552665034
    7      H       0.6612309078     2.0620063066     0.3585948443
    8      H       2.4668889708    -1.3417060073     0.5110848538
 ----------------------------------------------------------------
 Molecular Point Group                 C1    NOp =  1
 Largest Abelian Subgroup              C1    NOp =  1
 Nuclear Repulsion Energy =   199.6119006462 hartrees
 There are       21 alpha and       21 beta electrons
 Applying Cartesian multipole field
    Component          Value
    ---------          -----
     (2,0,0)        1.00000E-11
     (0,2,0)        2.00000E-11
     (0,0,2)       -3.00000E-11
 Nucleus-field energy     =     0.0000000044 hartrees
 Requested basis set is 6-311++G(d)
 There are 44 shells and 140 basis functions
 A cutoff of  1.0D-12 yielded    953 shell pairs
 There are      9858 function pairs (     10727 Cartesian)
 Smallest overlap matrix eigenvalue = 1.11E-05
 Guess MOs from SCF MO coefficient file
 Reading MOs from coefficient file
 Reading MOs from coefficient file

 -----------------------------------------------------------------------
  General SCF calculation program by
  Eric Jon Sundstrom, Paul Horn, Yuezhi Mao, Dmitri Zuev, Alec White,
  David Stuck, Shaama M.S., Shane Yost, Joonho Lee, David Small,
  Daniel Levine, Susi Lehtola, Hugh Burton, Evgeny Epifanovsky
 -----------------------------------------------------------------------
 Exchange:     0.2220 Hartree-Fock + 1.0000 wB97X-D + LR-HF
 Correlation:  1.0000 wB97X-D
 Using SG-2 standard quadrature grid
 Dispersion:   Grimme D
 using 32 threads for integral computing
 -------------------------------------------------------
 OpenMP Integral computing Module                
 Release: version 1.0, May 2013, Q-Chem Inc. Pittsburgh 
 -------------------------------------------------------
 using 32 threads for integral computing
 -------------------------------------------------------
 OpenMP Integral computing Module                
 Release: version 1.0, May 2013, Q-Chem Inc. Pittsburgh 
 -------------------------------------------------------
 -------------------------------------------------------
 OpenMP BLAS3 based DFT computing Module                
 Release: version 1.0, May 2013, Q-Chem Inc. Pittsburgh 
 -------------------------------------------------------
 A restricted SCF calculation will be
 performed using Roothaan-Hall, GDM
 SCF converges when RMS gradient is below 1.0e-08
 ---------------------------------------
  Cycle       Energy         DIIS error
 ---------------------------------------
    1    -303.8321890356      1.08e-10  Roothaan Step
 ---------------------------------------
  Cycle       Energy        RMS Gradient
 ---------------------------------------
    1    -303.8321890356      1.66e-09  Convergence criterion met
 ---------------------------------------
 SCF time:   CPU 57.41s  wall 2.00s 
 SCF   energy in the final basis set =     -303.8321890356
 
 --------------------------------------------------------------
 
                    Orbital Energies (a.u.)
 --------------------------------------------------------------
 
 Alpha MOs
 -- Occupied --
-19.316 -19.290 -10.458 -10.412 -10.386 -10.342  -1.252  -1.192
 -0.929  -0.879  -0.697  -0.659  -0.634  -0.603  -0.590  -0.533
 -0.509  -0.485  -0.411  -0.394  -0.341
 -- Virtual --
 -0.104   0.016   0.038   0.055   0.087   0.092   0.105   0.115
  0.122   0.131   0.135   0.141   0.151   0.158   0.165   0.176
  0.183   0.191   0.207   0.226   0.229   0.246   0.264   0.282
  0.294   0.306   0.332   0.338   0.360   0.362   0.379   0.386
  0.407   0.424   0.469   0.512   0.540   0.546   0.603   0.613
  0.631   0.650   0.659   0.679   0.679   0.704   0.709   0.788
  0.814   0.865   0.893   0.914   0.939   0.982   0.997   1.110
  1.113   1.161   1.209   1.224   1.232   1.265   1.280   1.337
  1.388   1.418   1.428   1.532   1.611   1.649   1.720   1.782
  1.811   1.823   1.851   1.869   1.957   2.009   2.062   2.116
  2.206   2.400   2.525   2.560   2.659   2.741   2.764   2.835
  2.854   2.909   2.926   2.958   3.029   3.043   3.128   3.200
  3.258   3.291   3.376   3.469   3.483   3.595   3.774   3.816
  3.983   4.064   4.205   5.084   5.130   5.211   5.508   5.602
  5.857  23.495  23.877  24.003  24.281  50.010  50.145
 --------------------------------------------------------------
 
          Ground-State Mulliken Net Atomic Charges

     Atom                 Charge (a.u.)
  ----------------------------------------
      1 O                    -0.117259
      2 O                    -0.261071
      3 C                    -0.235287
      4 C                     0.151566
      5 C                    -0.163604
      6 C                     0.079858
      7 H                     0.319604
      8 H                     0.226192
  ----------------------------------------
  Sum of atomic charges =    -0.000000

 -----------------------------------------------------------------
                    Cartesian Multipole Moments
 -----------------------------------------------------------------
    Charge (ESU x 10^10)
                -0.0000
    Dipole Moment (Debye)
         X       2.2063      Y       0.6851      Z       1.2683
       Tot       2.6355
    Quadrupole Moments (Debye-Ang)
        XX     -41.4327     XY      -1.4904     YY     -30.9992
        XZ       4.2328     YZ      -0.2910     ZZ     -34.1170
    Octopole Moments (Debye-Ang^2)
       XXX     -22.4018    XXY      -7.6629    XYY       1.0335
       YYY       2.7070    XXZ      10.8538    XYZ       0.1690
       YYZ       4.3905    XZZ      -7.9448    YZZ      -1.9587
       ZZZ       6.7438
    Hexadecapole Moments (Debye-Ang^3)
      XXXX    -542.8438   XXXY      32.9891   XXYY     -87.9612
      XYYY      32.5489   YYYY    -121.7238   XXXZ      56.9006
      XXYZ      -8.7335   XYYZ       9.0342   YYYZ      -7.8536
      XXZZ     -86.0891   XYZZ       9.8839   YYZZ     -31.0786
      XZZZ      21.6304   YZZZ     -11.5913   ZZZZ     -46.7974
 -----------------------------------------------------------------
 Calculating analytic gradient of the SCF energy
 Gradient of SCF Energy
            1           2           3           4           5           6
    1   0.0019687   0.0001386  -0.0008050  -0.0000184  -0.0012202  -0.0008730
    2  -0.0016523  -0.0002136   0.0011346   0.0003949  -0.0041014   0.0021269
    3  -0.0023762  -0.0000140   0.0048170  -0.0013699  -0.0052475  -0.0001106
            7           8
    1  -0.0001482   0.0009575
    2  -0.0004344   0.0027453
    3   0.0016457   0.0026557
 Max gradient component =       5.248E-03
 RMS gradient           =       2.132E-03
 Gradient time:  CPU 37.54 s  wall 1.67 s
 Geometry Optimization Parameters
   NAtoms,    NIC,     NZ,  NCons,   NDum,   NFix, NCnnct, MaxDiis
        8      37       0       0       0       0       0       0

 Cartesian Hessian Update
 Hessian Updated using BFGS Update
**WARNING** Hereditary positive definiteness endangered
**WARNING** Small Scalar Product
 Hessian Update Skipped this cycle


** GEOMETRY OPTIMIZATION IN DELOCALIZED INTERNAL COORDINATES **
   Searching for a Minimum

   Optimization Cycle: 200

                       Coordinates (Angstroms)
     ATOM                X               Y               Z
      1  O        -0.1644530098   -0.9093054780   -0.3472804284
      2  O        -2.0424751521    0.3719021547    0.2464160326
      3  C         0.9839487954   -0.1152777247   -0.2152013131
      4  C         0.3700401701    1.0661683773    0.0725738107
      5  C         2.3041816390   -0.5660361251   -0.2517184464
      6  C        -0.8881638574    0.2932052640    0.0552665034
      7  H         0.6612309078    2.0620063066    0.3585948443
      8  H         2.4668889708   -1.3417060073    0.5110848538
   Point Group: c1    Number of degrees of freedom:    18


   Energy is   -303.832189036

 Hessian Updated using BFGS Update
**WARNING** Hereditary positive definiteness endangered
**WARNING** Small Scalar Product
 Hessian Update Skipped this cycle

  1 Hessian modes will be used to form the next step
  Hessian Eigenvalues:
     4.708606

 Minimum Search - Taking Simple RFO Step
 Searching for Lamda that Minimizes Along All modes
 Value Taken    Lamda =   0.00000000
 Step Taken.  Stepsize is  0.000000

                             Maximum     Tolerance    Cnvgd?
         Gradient           0.003076      0.000300      NO
         Displacement       0.000000      0.001200     YES
         Energy change      0.000000      0.000001     YES


 New Cartesian Coordinates Obtained by Inverse Iteration

 Displacement from previous Coordinates is:  0.000000
 ----------------------------------------------------------------
             Standard Nuclear Orientation (Angstroms)
    I     Atom           X                Y                Z
 ----------------------------------------------------------------
    1      O      -0.1644530098    -0.9093054780    -0.3472804284
    2      O      -2.0424751521     0.3719021547     0.2464160326
    3      C       0.9839487954    -0.1152777247    -0.2152013131
    4      C       0.3700401701     1.0661683773     0.0725738107
    5      C       2.3041816390    -0.5660361251    -0.2517184464
    6      C      -0.8881638574     0.2932052640     0.0552665034
    7      H       0.6612309078     2.0620063066     0.3585948443
    8      H       2.4668889708    -1.3417060073     0.5110848538
 ----------------------------------------------------------------
 Molecular Point Group                 C1    NOp =  1
 Largest Abelian Subgroup              C1    NOp =  1
 Nuclear Repulsion Energy =   199.6119006462 hartrees
 There are       21 alpha and       21 beta electrons

                       Distance Matrix (Angstroms)
             O (  1)   O (  2)   C (  3)   C (  4)   C (  5)   C (  6)
   O (  2)  2.349667
   C (  3)  1.402409  3.099948
   C (  4)  2.089128  2.516437  1.362172
   C (  5)  2.494218  4.474516  1.395540  2.551502
   C (  6)  1.460080  1.172675  1.935153  1.476770  3.320182
   H (  7)  3.163654  3.190464  2.274633  1.076240  3.158857  2.370926
   H (  8)  2.801379  4.831239  2.056874  3.222875  1.100003  3.759931
             H (  7)
   H (  8)  3.856023
 


 *******************************************
 **  MAXIMUM OPTIMIZATION CYCLES REACHED  **
 *******************************************

 Q-Chem fatal error occurred in module 0, line  456, PE  0:

 Maximum optimization cycles reached

