 vasp.5.3.5 31Mar14 (build Oct 24 2014 12:38:34) complex                        
  
 executed on             LinuxIFC date 2016.10.20  19:10:38
 running on    8 total cores
 distrk:  each k-point on    8 cores,    1 groups
 distr:  one band on NCORES_PER_BAND=   1 cores,    8 groups


--------------------------------------------------------------------------------------------------------


 INCAR:
 POTCAR:    PAW_PBE Ba_sv 06Sep2000               
 POTCAR:    PAW_PBE Ti_pv 07Sep2000               
 POTCAR:    PAW_PBE O 08Apr2002                   

 ----------------------------------------------------------------------------- 
|                                                                             |
|           W    W    AA    RRRRR   N    N  II  N    N   GGGG   !!!           |
|           W    W   A  A   R    R  NN   N  II  NN   N  G    G  !!!           |
|           W    W  A    A  R    R  N N  N  II  N N  N  G       !!!           |
|           W WW W  AAAAAA  RRRRR   N  N N  II  N  N N  G  GGG   !            |
|           WW  WW  A    A  R   R   N   NN  II  N   NN  G    G                |
|           W    W  A    A  R    R  N    N  II  N    N   GGGG   !!!           |
|                                                                             |
|      For optimal performance we recommend to set                            |
|        NCORE= 4 - approx SQRT( number of cores)                             |
|      NCORE specifies how many cores store one orbital (NPAR=cpu/NCORE).     |
|      This setting can  greatly improve the performance of VASP for DFT.     |
|      The default, NPAR=number of cores might be grossly inefficient         |
|      on modern multi-core architectures or massively parallel machines.     |
|      Do your own testing !!!!                                               |
|      Unfortunately you need to use the default for GW and RPA calculations. |
|      (for HF NCORE is supported but not extensively tested yet)             |
|                                                                             |
 ----------------------------------------------------------------------------- 

 POTCAR:    PAW_PBE Ba_sv 06Sep2000               
   VRHFIN =Ba: 5s5p6s                                                           
   LEXCH  = PE                                                                  
   EATOM  =   700.8560 eV,   51.5115 Ry                                         
                                                                                
   TITEL  = PAW_PBE Ba_sv 06Sep2000                                             
   LULTRA =        F    use ultrasoft PP ?                                      
   IUNSCR =        1    unscreen: 0-lin 1-nonlin 2-no                           
   RPACOR =    2.400    partial core radius                                     
   POMASS =  137.327; ZVAL   =   10.000    mass and valenz                      
   RCORE  =    2.800    outmost cutoff radius                                   
   RWIGS  =    3.740; RWIGS  =    1.979    wigner-seitz radius (au A)           
   ENMAX  =  187.181; ENMIN  =  140.386 eV                                      
   RCLOC  =    2.516    cutoff for local pot                                    
   LCOR   =        T    correct aug charges                                     
   LPAW   =        T    paw PP                                                  
   EAUG   =  351.165                                                            
   DEXC   =    0.000                                                            
   RMAX   =    2.865    core radius for proj-oper                               
   RAUG   =    1.300    factor for augmentation sphere                          
   RDEP   =    2.976    radius for radial grids                                 
   RDEPT  =    2.289    core radius for aug-charge                              
                                                                                
   Atomic configuration                                                         
   13 entries                                                                   
     n  l   j            E        occ.                                          
     1  0  0.50    -37249.5946   2.0000                                         
     2  0  0.50     -5887.1925   2.0000                                         
     2  1  1.50     -5278.3977   6.0000                                         
     3  0  0.50     -1242.7293   2.0000                                         
     3  1  1.50     -1047.6609   6.0000                                         
     3  2  2.50      -764.6158  10.0000                                         
     4  0  0.50      -243.8228   2.0000                                         
     4  1  1.50      -180.9218   6.0000                                         
     4  2  2.50       -89.6477  10.0000                                         
     5  0  0.50       -33.6549   2.0000                                         
     6  0  0.50        -3.2247   1.9900                                         
     5  1  1.50       -18.7193   6.0000                                         
     5  2  2.50        -2.0115   0.0100                                         
   Description                                                                  
     l       E           TYP  RCUT    TYP  RCUT                                 
     0    -33.6549039     23  2.800                                             
     0     -3.2246942     23  2.800                                             
     1    -18.7193050     23  2.700                                             
     1     27.2116520     23  2.700                                             
     2     -2.0115002     23  2.700                                             
     2      0.3057420     23  2.700                                             
  local pseudopotential read in
  partial core-charges read in
  partial kinetic energy density read in
  atomic valenz-charges read in
  non local Contribution for L=           0  read in
    real space projection operators read in
  non local Contribution for L=           0  read in
    real space projection operators read in
  non local Contribution for L=           1  read in
    real space projection operators read in
  non local Contribution for L=           1  read in
    real space projection operators read in
  non local Contribution for L=           2  read in
    real space projection operators read in
  non local Contribution for L=           2  read in
    real space projection operators read in
    PAW grid and wavefunctions read in
 
   number of l-projection  operators is LMAX  =           6
   number of lm-projection operators is LMMAX =          18
 
 POTCAR:    PAW_PBE Ti_pv 07Sep2000               
   VRHFIN =Ti: d3 s1                                                            
   LEXCH  = PE                                                                  
   EATOM  =  1042.5995 eV,   76.6289 Ry                                         
                                                                                
   TITEL  = PAW_PBE Ti_pv 07Sep2000                                             
   LULTRA =        F    use ultrasoft PP ?                                      
   IUNSCR =        1    unscreen: 0-lin 1-nonlin 2-no                           
   RPACOR =    2.200    partial core radius                                     
   POMASS =   47.880; ZVAL   =   10.000    mass and valenz                      
   RCORE  =    2.500    outmost cutoff radius                                   
   RWIGS  =    2.500; RWIGS  =    1.323    wigner-seitz radius (au A)           
   ENMAX  =  222.335; ENMIN  =  166.751 eV                                      
   RCLOC  =    1.701    cutoff for local pot                                    
   LCOR   =        T    correct aug charges                                     
   LPAW   =        T    paw PP                                                  
   EAUG   =  482.848                                                            
   DEXC   =    0.000                                                            
   RMAX   =    2.564    core radius for proj-oper                               
   RAUG   =    1.300    factor for augmentation sphere                          
   RDEP   =    2.538    radius for radial grids                                 
   RDEPT  =    1.952    core radius for aug-charge                              
                                                                                
   Atomic configuration                                                         
    8 entries                                                                   
     n  l   j            E        occ.                                          
     1  0  0.50     -4865.3608   2.0000                                         
     2  0  0.50      -533.1368   2.0000                                         
     2  1  1.50      -440.5031   6.0000                                         
     3  0  0.50       -59.3186   2.0000                                         
     3  1  1.50       -35.7012   6.0000                                         
     3  2  2.50        -1.9157   3.0000                                         
     4  0  0.50        -3.7291   1.0000                                         
     4  3  2.50        -1.3606   0.0000                                         
   Description                                                                  
     l       E           TYP  RCUT    TYP  RCUT                                 
     1    -35.7012140     23  2.300                                             
     1     -1.3605826     23  2.300                                             
     2     -1.9156996     23  2.500                                             
     2     -0.4063033     23  2.500                                             
     0     -3.7290856     23  2.500                                             
     0     20.4087390     23  2.500                                             
  local pseudopotential read in
  partial core-charges read in
  partial kinetic energy density read in
  atomic valenz-charges read in
  non local Contribution for L=           1  read in
    real space projection operators read in
  non local Contribution for L=           1  read in
    real space projection operators read in
  non local Contribution for L=           2  read in
    real space projection operators read in
  non local Contribution for L=           2  read in
    real space projection operators read in
  non local Contribution for L=           0  read in
    real space projection operators read in
  non local Contribution for L=           0  read in
    real space projection operators read in
    PAW grid and wavefunctions read in
 
   number of l-projection  operators is LMAX  =           6
   number of lm-projection operators is LMMAX =          18
 
 POTCAR:    PAW_PBE O 08Apr2002                   
   VRHFIN =O: s2p4                                                              
   LEXCH  = PE                                                                  
   EATOM  =   432.3788 eV,   31.7789 Ry                                         
                                                                                
   TITEL  = PAW_PBE O 08Apr2002                                                 
   LULTRA =        F    use ultrasoft PP ?                                      
   IUNSCR =        1    unscreen: 0-lin 1-nonlin 2-no                           
   RPACOR =    1.200    partial core radius                                     
   POMASS =   16.000; ZVAL   =    6.000    mass and valenz                      
   RCORE  =    1.520    outmost cutoff radius                                   
   RWIGS  =    1.550; RWIGS  =    0.820    wigner-seitz radius (au A)           
   ENMAX  =  400.000; ENMIN  =  300.000 eV                                      
   ICORE  =        2    local potential                                         
   LCOR   =        T    correct aug charges                                     
   LPAW   =        T    paw PP                                                  
   EAUG   =  605.392                                                            
   DEXC   =    0.000                                                            
   RMAX   =    1.553    core radius for proj-oper                               
   RAUG   =    1.300    factor for augmentation sphere                          
   RDEP   =    1.550    radius for radial grids                                 
   RDEPT  =    1.329    core radius for aug-charge                              
                                                                                
   Atomic configuration                                                         
    4 entries                                                                   
     n  l   j            E        occ.                                          
     1  0  0.50      -514.6923   2.0000                                         
     2  0  0.50       -23.9615   2.0000                                         
     2  1  0.50        -9.0305   4.0000                                         
     3  2  1.50        -9.5241   0.0000                                         
   Description                                                                  
     l       E           TYP  RCUT    TYP  RCUT                                 
     0    -23.9615318     23  1.200                                             
     0     -9.5240782     23  1.200                                             
     1     -9.0304911     23  1.520                                             
     1      8.1634956     23  1.520                                             
     2     -9.5240782      7  1.500                                             
  local pseudopotential read in
  partial core-charges read in
  partial kinetic energy density read in
  kinetic energy density of atom read in
  atomic valenz-charges read in
  non local Contribution for L=           0  read in
    real space projection operators read in
  non local Contribution for L=           0  read in
    real space projection operators read in
  non local Contribution for L=           1  read in
    real space projection operators read in
  non local Contribution for L=           1  read in
    real space projection operators read in
    PAW grid and wavefunctions read in
 
   number of l-projection  operators is LMAX  =           4
   number of lm-projection operators is LMMAX =           8
 

 ----------------------------------------------------------------------------- 
|                                                                             |
|  ADVICE TO THIS USER RUNNING 'VASP/VAMP'   (HEAR YOUR MASTER'S VOICE ...):  |
|                                                                             |
|      You have a (more or less) 'small supercell' and for smaller cells      |
|      it is recommended  to use the reciprocal-space projection scheme!      |
|      The real space optimization is not  efficient for small cells and it   |
|      is also less accurate ...                                              |
|      Therefore set LREAL=.FALSE. in the  INCAR file                         |
|                                                                             |
 ----------------------------------------------------------------------------- 

 Optimization of the real space projectors (new method)

 maximal supplied QI-value         = 13.42
 optimisation between [QCUT,QGAM] = [ 11.67, 23.35] = [ 38.16,152.62] Ry 
 Optimized for a Real-space Cutoff    1.68 Angstroem

   l    n(q)    QCUT    max X(q) W(low)/X(q) W(high)/X(q)  e(spline) 
   0     12    11.673    13.244    0.27E-04    0.53E-05    0.55E-07
   0     12    11.673    14.240    0.39E-04    0.74E-05    0.11E-06
   1     11    11.673     4.828    0.65E-05    0.14E-04    0.51E-07
   1     11    11.673     3.934    0.16E-04    0.58E-04    0.38E-06
   2     11    11.673    87.714    0.23E-03    0.16E-03    0.84E-06
   2     11    11.673    59.874    0.22E-03    0.15E-03    0.81E-06
 Optimization of the real space projectors (new method)

 maximal supplied QI-value         = 15.12
 optimisation between [QCUT,QGAM] = [ 11.64, 23.28] = [ 37.95,151.78] Ry 
 Optimized for a Real-space Cutoff    1.49 Angstroem

   l    n(q)    QCUT    max X(q) W(low)/X(q) W(high)/X(q)  e(spline) 
   1     10    11.641     4.216    0.17E-04    0.40E-04    0.50E-07
   1     10    11.641     5.422    0.66E-04    0.10E-03    0.13E-06
   2      9    11.641    72.084    0.68E-04    0.13E-03    0.50E-06
   2      9    11.641    65.965    0.66E-04    0.13E-03    0.50E-06
   0     10    11.641    41.531    0.10E-03    0.87E-04    0.31E-06
   0     10    11.641    16.290    0.75E-04    0.66E-04    0.24E-06
 Optimization of the real space projectors (new method)

 maximal supplied QI-value         = 24.76
 optimisation between [QCUT,QGAM] = [ 11.64, 23.27] = [ 37.91,151.63] Ry 
 Optimized for a Real-space Cutoff    1.14 Angstroem

   l    n(q)    QCUT    max X(q) W(low)/X(q) W(high)/X(q)  e(spline) 
   0      8    11.635    20.381    0.10E-03    0.33E-03    0.24E-06
   0      8    11.635    15.268    0.11E-03    0.35E-03    0.26E-06
   1      7    11.635     5.964    0.24E-03    0.31E-03    0.30E-06
   1      7    11.635     5.382    0.22E-03    0.25E-03    0.26E-06
  PAW_PBE Ba_sv 06Sep2000               :
 energy of atom  1       EATOM= -700.8560
 kinetic energy error for atom=    0.0005 (will be added to EATOM!!)
  PAW_PBE Ti_pv 07Sep2000               :
 energy of atom  2       EATOM=-1042.5995
 kinetic energy error for atom=    0.0019 (will be added to EATOM!!)
  PAW_PBE O 08Apr2002                   :
 energy of atom  3       EATOM= -432.3788
 kinetic energy error for atom=    0.0208 (will be added to EATOM!!)
 
 
 POSCAR: Ba1 Ti1 O3                              
  positions in direct lattice
  No initial velocities read in
 exchange correlation table for  LEXCH =        8
   RHO(1)=    0.500       N(1)  =     2000
   RHO(2)=  100.500       N(2)  =     4000
 


--------------------------------------------------------------------------------------------------------


 ion  position               nearest neighbor table
   1  0.000  0.000  0.003-   3 2.85   4 2.85   5 2.85   3 2.85   4 2.85   3 2.85   5 2.85   3 2.85
                             4 2.85   5 2.85   4 2.85   5 2.85   2 3.49   2 3.49   2 3.49   2 3.49
   2  0.500  0.500  0.503-   3 2.02   4 2.02   5 2.02   5 2.02   4 2.02   3 2.02   1 3.49   1 3.49
                             1 3.49   1 3.49   1 3.49   1 3.49   1 3.49   1 3.49
   3  0.000  0.500  0.503-   2 2.02   2 2.02   1 2.85   1 2.85   1 2.85   1 2.85
   4  0.500  0.000  0.503-   2 2.02   2 2.02   1 2.85   1 2.85   1 2.85   1 2.85
   5  0.500  0.500  0.003-   2 2.02   2 2.02   1 2.85   1 2.85   1 2.85   1 2.85
 
  LATTYP: Found a simple cubic cell.
 ALAT       =     4.0330440000
  
  Lattice vectors:
  
 A1 = (   4.0330440000,   0.0000000000,   0.0000000000)
 A2 = (   0.0000000000,   4.0330440000,   0.0000000000)
 A3 = (   0.0000000000,   0.0000000000,   4.0330440000)


Analysis of symmetry for initial positions (statically):
=====================================================================
 Subroutine PRICEL returns:
 Original cell was already a primitive cell.
 

 Routine SETGRP: Setting up the symmetry group for a 
 simple cubic supercell.


 Subroutine GETGRP returns: Found 48 space group operations
 (whereof  8 operations were pure point group operations)
 out of a pool of 48 trial point group operations.


The static configuration has the point symmetry C_4v.
 The point group associated with its full space group is O_h .


Analysis of symmetry for dynamics (positions and initial velocities):
=====================================================================
 Subroutine PRICEL returns:
 Original cell was already a primitive cell.
 

 Routine SETGRP: Setting up the symmetry group for a 
 simple cubic supercell.


 Subroutine GETGRP returns: Found 48 space group operations
 (whereof  8 operations were pure point group operations)
 out of a pool of 48 trial point group operations.


The dynamic configuration has the point symmetry C_4v.
 The point group associated with its full space group is O_h .


Analysis of magnetic symmetry:
=====================================================================
 Subroutine PRICEL returns:
 Original cell was already a primitive cell.
 

 Subroutine MAGSYM returns: Found 48 space group operations
 (whereof  8 operations were pure point group operations)
 out of a pool of 48 trial space group operations
 (whereof  8 operations were pure point group operations)
 and found also     1 'primitive' translations


The magnetic configuration has the point symmetry C_4v.
 The point group associated with its full space group is O_h .
 
 
 KPOINTS: Automatic kpoint scheme                 

Automatic generation of k-mesh.
Space group operators:
 irot       det(A)        alpha          n_x          n_y          n_z        tau_x        tau_y        tau_z
    1     1.000000     0.000001     1.000000     0.000000     0.000000     0.000000     0.000000     0.000000
    2     1.000000    90.000000     0.000000     0.000000    -1.000000     0.000000     0.000000     0.000000
    3     1.000000   180.000000     0.000000     0.000000     1.000000     0.000000     0.000000     0.000000
    4     1.000000    90.000000     0.000000     0.000000     1.000000     0.000000     0.000000     0.000000
    5    -1.000000   180.000000     1.000000     0.000000     0.000000     0.000000     0.000000     0.000000
    6    -1.000000   180.000000     0.707107     0.707107     0.000000     0.000000     0.000000     0.000000
    7    -1.000000   180.000000     0.000000     1.000000     0.000000     0.000000     0.000000     0.000000
    8    -1.000000   180.000000     0.707107    -0.707107     0.000000     0.000000     0.000000     0.000000
    9    -1.000000     0.000001     1.000000     0.000000     0.000000     0.000000     0.000000     0.005600
   10     1.000000   120.000000    -0.577350    -0.577350    -0.577350     0.997200     0.000000     0.002800
   11    -1.000000   120.000000    -0.577350    -0.577350    -0.577350     0.002800     0.000000     0.002800
   12     1.000000   120.000000     0.577350     0.577350     0.577350     0.000000     0.997200     0.002800
   13    -1.000000   120.000000     0.577350     0.577350     0.577350     0.000000     0.002800     0.002800
   14    -1.000000    90.000000     0.000000     0.000000    -1.000000     0.000000     0.000000     0.005600
   15     1.000000   180.000000     0.000000     0.707107     0.707107     0.000000     0.997200     0.002800
   16    -1.000000   180.000000     0.000000     0.707107     0.707107     0.000000     0.002800     0.002800
   17     1.000000    90.000000     0.000000     1.000000     0.000000     0.002800     0.000000     0.002800
   18    -1.000000    90.000000     0.000000     1.000000     0.000000     0.997200     0.000000     0.002800
   19    -1.000000   180.000000     0.000000     0.000000     1.000000     0.000000     0.000000     0.005600
   20     1.000000   120.000000    -0.577350     0.577350     0.577350     0.002800     0.000000     0.002800
   21    -1.000000   120.000000    -0.577350     0.577350     0.577350     0.997200     0.000000     0.002800
   22     1.000000   120.000000    -0.577350     0.577350    -0.577350     0.000000     0.002800     0.002800
   23    -1.000000   120.000000    -0.577350     0.577350    -0.577350     0.000000     0.997200     0.002800
   24    -1.000000    90.000000     0.000000     0.000000     1.000000     0.000000     0.000000     0.005600
   25     1.000000    90.000000    -1.000000     0.000000     0.000000     0.000000     0.002800     0.002800
   26    -1.000000    90.000000    -1.000000     0.000000     0.000000     0.000000     0.997200     0.002800
   27     1.000000   180.000000     0.707107     0.000000     0.707107     0.997200     0.000000     0.002800
   28    -1.000000   180.000000     0.707107     0.000000     0.707107     0.002800     0.000000     0.002800
   29     1.000000   120.000000     0.577350    -0.577350     0.577350     0.997200     0.000000     0.002800
   30    -1.000000   120.000000     0.577350    -0.577350     0.577350     0.002800     0.000000     0.002800
   31     1.000000   120.000000    -0.577350    -0.577350     0.577350     0.000000     0.002800     0.002800
   32    -1.000000   120.000000    -0.577350    -0.577350     0.577350     0.000000     0.997200     0.002800
   33     1.000000   180.000000     1.000000     0.000000     0.000000     0.000000     0.000000     0.005600
   34     1.000000    90.000000     0.000000    -1.000000     0.000000     0.997200     0.000000     0.002800
   35    -1.000000    90.000000     0.000000    -1.000000     0.000000     0.002800     0.000000     0.002800
   36     1.000000   180.000000     0.707107     0.707107     0.000000     0.000000     0.000000     0.005600
   37     1.000000    90.000000     1.000000     0.000000     0.000000     0.000000     0.997200     0.002800
   38    -1.000000    90.000000     1.000000     0.000000     0.000000     0.000000     0.002800     0.002800
   39     1.000000   120.000000     0.577350    -0.577350    -0.577350     0.000000     0.997200     0.002800
   40    -1.000000   120.000000     0.577350    -0.577350    -0.577350     0.000000     0.002800     0.002800
   41     1.000000   180.000000     0.000000     1.000000     0.000000     0.000000     0.000000     0.005600
   42     1.000000   120.000000     0.577350     0.577350    -0.577350     0.002800     0.000000     0.002800
   43    -1.000000   120.000000     0.577350     0.577350    -0.577350     0.997200     0.000000     0.002800
   44     1.000000   180.000000     0.000000    -0.707107     0.707107     0.000000     0.002800     0.002800
   45    -1.000000   180.000000     0.000000    -0.707107     0.707107     0.000000     0.997200     0.002800
   46     1.000000   180.000000     0.707107    -0.707107     0.000000     0.000000     0.000000     0.005600
   47     1.000000   180.000000     0.707107     0.000000    -0.707107     0.002800     0.000000     0.002800
   48    -1.000000   180.000000     0.707107     0.000000    -0.707107     0.997200     0.000000     0.002800
 
 Subroutine IBZKPT returns following result:
 ===========================================
 
 Found     35 irreducible k-points:
 
 Following reciprocal coordinates:
            Coordinates               Weight
  0.000000  0.000000  0.000000      1.000000
  0.125000  0.000000  0.000000      6.000000
  0.250000  0.000000  0.000000      6.000000
  0.375000  0.000000  0.000000      6.000000
  0.500000  0.000000  0.000000      3.000000
  0.125000  0.125000  0.000000     12.000000
  0.250000  0.125000  0.000000     24.000000
  0.375000  0.125000  0.000000     24.000000
  0.500000  0.125000  0.000000     12.000000
  0.250000  0.250000  0.000000     12.000000
  0.375000  0.250000  0.000000     24.000000
  0.500000  0.250000  0.000000     12.000000
  0.375000  0.375000  0.000000     12.000000
  0.500000  0.375000  0.000000     12.000000
  0.500000  0.500000  0.000000      3.000000
  0.125000  0.125000  0.125000      8.000000
  0.250000  0.125000  0.125000     24.000000
  0.375000  0.125000  0.125000     24.000000
  0.500000  0.125000  0.125000     12.000000
  0.250000  0.250000  0.125000     24.000000
  0.375000  0.250000  0.125000     48.000000
  0.500000  0.250000  0.125000     24.000000
  0.375000  0.375000  0.125000     24.000000
  0.500000  0.375000  0.125000     24.000000
  0.500000  0.500000  0.125000      6.000000
  0.250000  0.250000  0.250000      8.000000
  0.375000  0.250000  0.250000     24.000000
  0.500000  0.250000  0.250000     12.000000
  0.375000  0.375000  0.250000     24.000000
  0.500000  0.375000  0.250000     24.000000
  0.500000  0.500000  0.250000      6.000000
  0.375000  0.375000  0.375000      8.000000
  0.500000  0.375000  0.375000     12.000000
  0.500000  0.500000  0.375000      6.000000
  0.500000  0.500000  0.500000      1.000000
 
 Following cartesian coordinates:
            Coordinates               Weight
  0.000000  0.000000  0.000000      1.000000
  0.030994  0.000000  0.000000      6.000000
  0.061988  0.000000  0.000000      6.000000
  0.092982  0.000000  0.000000      6.000000
  0.123976  0.000000  0.000000      3.000000
  0.030994  0.030994  0.000000     12.000000
  0.061988  0.030994  0.000000     24.000000
  0.092982  0.030994  0.000000     24.000000
  0.123976  0.030994  0.000000     12.000000
  0.061988  0.061988  0.000000     12.000000
  0.092982  0.061988  0.000000     24.000000
  0.123976  0.061988  0.000000     12.000000
  0.092982  0.092982  0.000000     12.000000
  0.123976  0.092982  0.000000     12.000000
  0.123976  0.123976  0.000000      3.000000
  0.030994  0.030994  0.030994      8.000000
  0.061988  0.030994  0.030994     24.000000
  0.092982  0.030994  0.030994     24.000000
  0.123976  0.030994  0.030994     12.000000
  0.061988  0.061988  0.030994     24.000000
  0.092982  0.061988  0.030994     48.000000
  0.123976  0.061988  0.030994     24.000000
  0.092982  0.092982  0.030994     24.000000
  0.123976  0.092982  0.030994     24.000000
  0.123976  0.123976  0.030994      6.000000
  0.061988  0.061988  0.061988      8.000000
  0.092982  0.061988  0.061988     24.000000
  0.123976  0.061988  0.061988     12.000000
  0.092982  0.092982  0.061988     24.000000
  0.123976  0.092982  0.061988     24.000000
  0.123976  0.123976  0.061988      6.000000
  0.092982  0.092982  0.092982      8.000000
  0.123976  0.092982  0.092982     12.000000
  0.123976  0.123976  0.092982      6.000000
  0.123976  0.123976  0.123976      1.000000
 
 TETIRR: Found    250 inequivalent tetrahedra from     3072
 
 Subroutine IBZKPT_HF returns following result:
 ==============================================
 
 Found    512 k-points in 1st BZ
 the following    512 k-points will be used (e.g. in the exchange kernel)
 Following reciprocal coordinates:   # in IRBZ
  0.000000  0.000000  0.000000       1 t-inv F
  0.125000  0.000000  0.000000       2 t-inv F
  0.250000  0.000000  0.000000       3 t-inv F
  0.375000  0.000000  0.000000       4 t-inv F
  0.500000  0.000000  0.000000       5 t-inv F
  0.125000  0.125000  0.000000       6 t-inv F
  0.250000  0.125000  0.000000       7 t-inv F
  0.375000  0.125000  0.000000       8 t-inv F
  0.500000  0.125000  0.000000       9 t-inv F
  0.250000  0.250000  0.000000      10 t-inv F
  0.375000  0.250000  0.000000      11 t-inv F
  0.500000  0.250000  0.000000      12 t-inv F
  0.375000  0.375000  0.000000      13 t-inv F
  0.500000  0.375000  0.000000      14 t-inv F
  0.500000  0.500000  0.000000      15 t-inv F
  0.125000  0.125000  0.125000      16 t-inv F
  0.250000  0.125000  0.125000      17 t-inv F
  0.375000  0.125000  0.125000      18 t-inv F
  0.500000  0.125000  0.125000      19 t-inv F
  0.250000  0.250000  0.125000      20 t-inv F
  0.375000  0.250000  0.125000      21 t-inv F
  0.500000  0.250000  0.125000      22 t-inv F
  0.375000  0.375000  0.125000      23 t-inv F
  0.500000  0.375000  0.125000      24 t-inv F
  0.500000  0.500000  0.125000      25 t-inv F
  0.250000  0.250000  0.250000      26 t-inv F
  0.375000  0.250000  0.250000      27 t-inv F
  0.500000  0.250000  0.250000      28 t-inv F
  0.375000  0.375000  0.250000      29 t-inv F
  0.500000  0.375000  0.250000      30 t-inv F
  0.500000  0.500000  0.250000      31 t-inv F
  0.375000  0.375000  0.375000      32 t-inv F
  0.500000  0.375000  0.375000      33 t-inv F
  0.500000  0.500000  0.375000      34 t-inv F
  0.500000  0.500000  0.500000      35 t-inv F
  0.000000  0.125000  0.000000       2 t-inv F
 -0.125000  0.000000  0.000000       2 t-inv F
  0.000000 -0.125000  0.000000       2 t-inv F
  0.000000  0.000000  0.125000       2 t-inv F
  0.000000  0.000000 -0.125000       2 t-inv F
  0.000000  0.250000  0.000000       3 t-inv F
 -0.250000  0.000000  0.000000       3 t-inv F
  0.000000 -0.250000  0.000000       3 t-inv F
  0.000000  0.000000  0.250000       3 t-inv F
  0.000000  0.000000 -0.250000       3 t-inv F
  0.000000  0.375000  0.000000       4 t-inv F
 -0.375000  0.000000  0.000000       4 t-inv F
  0.000000 -0.375000  0.000000       4 t-inv F
  0.000000  0.000000  0.375000       4 t-inv F
  0.000000  0.000000 -0.375000       4 t-inv F
  0.000000  0.500000  0.000000       5 t-inv F
  0.000000  0.000000  0.500000       5 t-inv F
 -0.125000  0.125000  0.000000       6 t-inv F
 -0.125000 -0.125000  0.000000       6 t-inv F
  0.125000 -0.125000  0.000000       6 t-inv F
  0.000000  0.125000  0.125000       6 t-inv F
  0.000000 -0.125000 -0.125000       6 t-inv F
  0.125000  0.000000  0.125000       6 t-inv F
 -0.125000  0.000000 -0.125000       6 t-inv F
 -0.125000  0.000000  0.125000       6 t-inv F
  0.125000  0.000000 -0.125000       6 t-inv F
  0.000000 -0.125000  0.125000       6 t-inv F
  0.000000  0.125000 -0.125000       6 t-inv F
 -0.125000  0.250000  0.000000       7 t-inv F
 -0.250000 -0.125000  0.000000       7 t-inv F
  0.125000 -0.250000  0.000000       7 t-inv F
 -0.250000  0.125000  0.000000       7 t-inv F
 -0.125000 -0.250000  0.000000       7 t-inv F
  0.250000 -0.125000  0.000000       7 t-inv F
  0.125000  0.250000  0.000000       7 t-inv F
  0.000000  0.250000  0.125000       7 t-inv F
  0.000000 -0.250000 -0.125000       7 t-inv F
  0.125000  0.000000  0.250000       7 t-inv F
 -0.125000  0.000000 -0.250000       7 t-inv F
 -0.250000  0.000000  0.125000       7 t-inv F
  0.250000  0.000000 -0.125000       7 t-inv F
  0.000000  0.125000  0.250000       7 t-inv F
  0.000000 -0.125000 -0.250000       7 t-inv F
  0.000000 -0.250000  0.125000       7 t-inv F
  0.000000  0.250000 -0.125000       7 t-inv F
 -0.125000  0.000000  0.250000       7 t-inv F
  0.125000  0.000000 -0.250000       7 t-inv F
  0.250000  0.000000  0.125000       7 t-inv F
 -0.250000  0.000000 -0.125000       7 t-inv F
  0.000000 -0.125000  0.250000       7 t-inv F
  0.000000  0.125000 -0.250000       7 t-inv F
 -0.125000  0.375000  0.000000       8 t-inv F
 -0.375000 -0.125000  0.000000       8 t-inv F
  0.125000 -0.375000  0.000000       8 t-inv F
 -0.375000  0.125000  0.000000       8 t-inv F
 -0.125000 -0.375000  0.000000       8 t-inv F
  0.375000 -0.125000  0.000000       8 t-inv F
  0.125000  0.375000  0.000000       8 t-inv F
  0.000000  0.375000  0.125000       8 t-inv F
  0.000000 -0.375000 -0.125000       8 t-inv F
  0.125000  0.000000  0.375000       8 t-inv F
 -0.125000  0.000000 -0.375000       8 t-inv F
 -0.375000  0.000000  0.125000       8 t-inv F
  0.375000  0.000000 -0.125000       8 t-inv F
  0.000000  0.125000  0.375000       8 t-inv F
  0.000000 -0.125000 -0.375000       8 t-inv F
  0.000000 -0.375000  0.125000       8 t-inv F
  0.000000  0.375000 -0.125000       8 t-inv F
 -0.125000  0.000000  0.375000       8 t-inv F
  0.125000  0.000000 -0.375000       8 t-inv F
  0.375000  0.000000  0.125000       8 t-inv F
 -0.375000  0.000000 -0.125000       8 t-inv F
  0.000000 -0.125000  0.375000       8 t-inv F
  0.000000  0.125000 -0.375000       8 t-inv F
 -0.125000  0.500000  0.000000       9 t-inv F
 -0.500000 -0.125000  0.000000       9 t-inv F
  0.125000 -0.500000  0.000000       9 t-inv F
  0.000000  0.500000  0.125000       9 t-inv F
  0.000000 -0.500000 -0.125000       9 t-inv F
  0.125000  0.000000  0.500000       9 t-inv F
 -0.125000  0.000000 -0.500000       9 t-inv F
 -0.500000  0.000000  0.125000       9 t-inv F
  0.500000  0.000000 -0.125000       9 t-inv F
  0.000000  0.125000  0.500000       9 t-inv F
  0.000000 -0.125000 -0.500000       9 t-inv F
 -0.250000  0.250000  0.000000      10 t-inv F
 -0.250000 -0.250000  0.000000      10 t-inv F
  0.250000 -0.250000  0.000000      10 t-inv F
  0.000000  0.250000  0.250000      10 t-inv F
  0.000000 -0.250000 -0.250000      10 t-inv F
  0.250000  0.000000  0.250000      10 t-inv F
 -0.250000  0.000000 -0.250000      10 t-inv F
 -0.250000  0.000000  0.250000      10 t-inv F
  0.250000  0.000000 -0.250000      10 t-inv F
  0.000000 -0.250000  0.250000      10 t-inv F
  0.000000  0.250000 -0.250000      10 t-inv F
 -0.250000  0.375000  0.000000      11 t-inv F
 -0.375000 -0.250000  0.000000      11 t-inv F
  0.250000 -0.375000  0.000000      11 t-inv F
 -0.375000  0.250000  0.000000      11 t-inv F
 -0.250000 -0.375000  0.000000      11 t-inv F
  0.375000 -0.250000  0.000000      11 t-inv F
  0.250000  0.375000  0.000000      11 t-inv F
  0.000000  0.375000  0.250000      11 t-inv F
  0.000000 -0.375000 -0.250000      11 t-inv F
  0.250000  0.000000  0.375000      11 t-inv F
 -0.250000  0.000000 -0.375000      11 t-inv F
 -0.375000  0.000000  0.250000      11 t-inv F
  0.375000  0.000000 -0.250000      11 t-inv F
  0.000000  0.250000  0.375000      11 t-inv F
  0.000000 -0.250000 -0.375000      11 t-inv F
  0.000000 -0.375000  0.250000      11 t-inv F
  0.000000  0.375000 -0.250000      11 t-inv F
 -0.250000  0.000000  0.375000      11 t-inv F
  0.250000  0.000000 -0.375000      11 t-inv F
  0.375000  0.000000  0.250000      11 t-inv F
 -0.375000  0.000000 -0.250000      11 t-inv F
  0.000000 -0.250000  0.375000      11 t-inv F
  0.000000  0.250000 -0.375000      11 t-inv F
 -0.250000  0.500000  0.000000      12 t-inv F
 -0.500000 -0.250000  0.000000      12 t-inv F
  0.250000 -0.500000  0.000000      12 t-inv F
  0.000000  0.500000  0.250000      12 t-inv F
  0.000000 -0.500000 -0.250000      12 t-inv F
  0.250000  0.000000  0.500000      12 t-inv F
 -0.250000  0.000000 -0.500000      12 t-inv F
 -0.500000  0.000000  0.250000      12 t-inv F
  0.500000  0.000000 -0.250000      12 t-inv F
  0.000000  0.250000  0.500000      12 t-inv F
  0.000000 -0.250000 -0.500000      12 t-inv F
 -0.375000  0.375000  0.000000      13 t-inv F
 -0.375000 -0.375000  0.000000      13 t-inv F
  0.375000 -0.375000  0.000000      13 t-inv F
  0.000000  0.375000  0.375000      13 t-inv F
  0.000000 -0.375000 -0.375000      13 t-inv F
  0.375000  0.000000  0.375000      13 t-inv F
 -0.375000  0.000000 -0.375000      13 t-inv F
 -0.375000  0.000000  0.375000      13 t-inv F
  0.375000  0.000000 -0.375000      13 t-inv F
  0.000000 -0.375000  0.375000      13 t-inv F
  0.000000  0.375000 -0.375000      13 t-inv F
 -0.375000  0.500000  0.000000      14 t-inv F
 -0.500000 -0.375000  0.000000      14 t-inv F
  0.375000 -0.500000  0.000000      14 t-inv F
  0.000000  0.500000  0.375000      14 t-inv F
  0.000000 -0.500000 -0.375000      14 t-inv F
  0.375000  0.000000  0.500000      14 t-inv F
 -0.375000  0.000000 -0.500000      14 t-inv F
 -0.500000  0.000000  0.375000      14 t-inv F
  0.500000  0.000000 -0.375000      14 t-inv F
  0.000000  0.375000  0.500000      14 t-inv F
  0.000000 -0.375000 -0.500000      14 t-inv F
  0.000000  0.500000  0.500000      15 t-inv F
  0.500000  0.000000  0.500000      15 t-inv F
 -0.125000  0.125000  0.125000      16 t-inv F
 -0.125000 -0.125000  0.125000      16 t-inv F
  0.125000 -0.125000  0.125000      16 t-inv F
 -0.125000 -0.125000 -0.125000      16 t-inv F
  0.125000 -0.125000 -0.125000      16 t-inv F
  0.125000  0.125000 -0.125000      16 t-inv F
 -0.125000  0.125000 -0.125000      16 t-inv F
 -0.125000  0.250000  0.125000      17 t-inv F
 -0.250000 -0.125000  0.125000      17 t-inv F
  0.125000 -0.250000  0.125000      17 t-inv F
 -0.250000  0.125000  0.125000      17 t-inv F
 -0.125000 -0.250000  0.125000      17 t-inv F
  0.250000 -0.125000  0.125000      17 t-inv F
  0.125000  0.250000  0.125000      17 t-inv F
 -0.250000 -0.125000 -0.125000      17 t-inv F
 -0.125000 -0.250000 -0.125000      17 t-inv F
  0.125000  0.125000  0.250000      17 t-inv F
 -0.125000 -0.125000 -0.250000      17 t-inv F
  0.125000 -0.250000 -0.125000      17 t-inv F
  0.250000 -0.125000 -0.125000      17 t-inv F
 -0.125000  0.125000  0.250000      17 t-inv F
  0.125000 -0.125000 -0.250000      17 t-inv F
  0.250000  0.125000 -0.125000      17 t-inv F
  0.125000  0.250000 -0.125000      17 t-inv F
 -0.125000 -0.125000  0.250000      17 t-inv F
  0.125000  0.125000 -0.250000      17 t-inv F
 -0.125000  0.250000 -0.125000      17 t-inv F
 -0.250000  0.125000 -0.125000      17 t-inv F
  0.125000 -0.125000  0.250000      17 t-inv F
 -0.125000  0.125000 -0.250000      17 t-inv F
 -0.125000  0.375000  0.125000      18 t-inv F
 -0.375000 -0.125000  0.125000      18 t-inv F
  0.125000 -0.375000  0.125000      18 t-inv F
 -0.375000  0.125000  0.125000      18 t-inv F
 -0.125000 -0.375000  0.125000      18 t-inv F
  0.375000 -0.125000  0.125000      18 t-inv F
  0.125000  0.375000  0.125000      18 t-inv F
 -0.375000 -0.125000 -0.125000      18 t-inv F
 -0.125000 -0.375000 -0.125000      18 t-inv F
  0.125000  0.125000  0.375000      18 t-inv F
 -0.125000 -0.125000 -0.375000      18 t-inv F
  0.125000 -0.375000 -0.125000      18 t-inv F
  0.375000 -0.125000 -0.125000      18 t-inv F
 -0.125000  0.125000  0.375000      18 t-inv F
  0.125000 -0.125000 -0.375000      18 t-inv F
  0.375000  0.125000 -0.125000      18 t-inv F
  0.125000  0.375000 -0.125000      18 t-inv F
 -0.125000 -0.125000  0.375000      18 t-inv F
  0.125000  0.125000 -0.375000      18 t-inv F
 -0.125000  0.375000 -0.125000      18 t-inv F
 -0.375000  0.125000 -0.125000      18 t-inv F
  0.125000 -0.125000  0.375000      18 t-inv F
 -0.125000  0.125000 -0.375000      18 t-inv F
 -0.125000  0.500000  0.125000      19 t-inv F
 -0.500000 -0.125000  0.125000      19 t-inv F
  0.125000 -0.500000  0.125000      19 t-inv F
 -0.500000 -0.125000 -0.125000      19 t-inv F
 -0.125000 -0.500000 -0.125000      19 t-inv F
  0.125000  0.125000  0.500000      19 t-inv F
 -0.125000 -0.125000 -0.500000      19 t-inv F
  0.125000 -0.500000 -0.125000      19 t-inv F
 -0.125000  0.125000  0.500000      19 t-inv F
  0.125000 -0.125000 -0.500000      19 t-inv F
  0.500000  0.125000 -0.125000      19 t-inv F
 -0.250000  0.250000  0.125000      20 t-inv F
 -0.250000 -0.250000  0.125000      20 t-inv F
  0.250000 -0.250000  0.125000      20 t-inv F
 -0.250000 -0.250000 -0.125000      20 t-inv F
  0.125000  0.250000  0.250000      20 t-inv F
 -0.125000 -0.250000 -0.250000      20 t-inv F
  0.250000  0.125000  0.250000      20 t-inv F
 -0.250000 -0.125000 -0.250000      20 t-inv F
  0.250000 -0.250000 -0.125000      20 t-inv F
 -0.250000  0.125000  0.250000      20 t-inv F
  0.250000 -0.125000 -0.250000      20 t-inv F
 -0.125000  0.250000  0.250000      20 t-inv F
  0.125000 -0.250000 -0.250000      20 t-inv F
  0.250000  0.250000 -0.125000      20 t-inv F
 -0.125000 -0.250000  0.250000      20 t-inv F
  0.125000  0.250000 -0.250000      20 t-inv F
 -0.250000 -0.125000  0.250000      20 t-inv F
  0.250000  0.125000 -0.250000      20 t-inv F
 -0.250000  0.250000 -0.125000      20 t-inv F
  0.250000 -0.125000  0.250000      20 t-inv F
 -0.250000  0.125000 -0.250000      20 t-inv F
  0.125000 -0.250000  0.250000      20 t-inv F
 -0.125000  0.250000 -0.250000      20 t-inv F
 -0.250000  0.375000  0.125000      21 t-inv F
 -0.375000 -0.250000  0.125000      21 t-inv F
  0.250000 -0.375000  0.125000      21 t-inv F
 -0.375000  0.250000  0.125000      21 t-inv F
 -0.250000 -0.375000  0.125000      21 t-inv F
  0.375000 -0.250000  0.125000      21 t-inv F
  0.250000  0.375000  0.125000      21 t-inv F
 -0.375000 -0.250000 -0.125000      21 t-inv F
  0.125000  0.375000  0.250000      21 t-inv F
 -0.125000 -0.375000 -0.250000      21 t-inv F
  0.250000  0.125000  0.375000      21 t-inv F
 -0.250000 -0.125000 -0.375000      21 t-inv F
  0.250000 -0.375000 -0.125000      21 t-inv F
 -0.375000  0.125000  0.250000      21 t-inv F
  0.375000 -0.125000 -0.250000      21 t-inv F
 -0.125000  0.250000  0.375000      21 t-inv F
  0.125000 -0.250000 -0.375000      21 t-inv F
  0.375000  0.250000 -0.125000      21 t-inv F
 -0.125000 -0.375000  0.250000      21 t-inv F
  0.125000  0.375000 -0.250000      21 t-inv F
 -0.250000 -0.125000  0.375000      21 t-inv F
  0.250000  0.125000 -0.375000      21 t-inv F
 -0.250000  0.375000 -0.125000      21 t-inv F
  0.375000 -0.125000  0.250000      21 t-inv F
 -0.375000  0.125000 -0.250000      21 t-inv F
  0.125000 -0.250000  0.375000      21 t-inv F
 -0.125000  0.250000 -0.375000      21 t-inv F
  0.125000 -0.375000 -0.250000      21 t-inv F
 -0.125000  0.375000  0.250000      21 t-inv F
  0.250000 -0.125000 -0.375000      21 t-inv F
 -0.250000  0.125000  0.375000      21 t-inv F
  0.375000 -0.250000 -0.125000      21 t-inv F
  0.125000  0.250000 -0.375000      21 t-inv F
 -0.125000 -0.250000  0.375000      21 t-inv F
  0.250000  0.375000 -0.125000      21 t-inv F
  0.375000  0.125000 -0.250000      21 t-inv F
 -0.375000 -0.125000  0.250000      21 t-inv F
 -0.250000  0.125000 -0.375000      21 t-inv F
  0.250000 -0.125000  0.375000      21 t-inv F
 -0.375000  0.250000 -0.125000      21 t-inv F
 -0.125000  0.375000 -0.250000      21 t-inv F
  0.125000 -0.375000  0.250000      21 t-inv F
 -0.375000 -0.125000 -0.250000      21 t-inv F
  0.375000  0.125000  0.250000      21 t-inv F
 -0.250000 -0.375000 -0.125000      21 t-inv F
 -0.125000 -0.250000 -0.375000      21 t-inv F
  0.125000  0.250000  0.375000      21 t-inv F
 -0.250000  0.500000  0.125000      22 t-inv F
 -0.500000 -0.250000  0.125000      22 t-inv F
  0.250000 -0.500000  0.125000      22 t-inv F
 -0.500000 -0.250000 -0.125000      22 t-inv F
  0.125000  0.500000  0.250000      22 t-inv F
 -0.125000 -0.500000 -0.250000      22 t-inv F
  0.250000  0.125000  0.500000      22 t-inv F
 -0.250000 -0.125000 -0.500000      22 t-inv F
  0.250000 -0.500000 -0.125000      22 t-inv F
 -0.500000  0.125000  0.250000      22 t-inv F
  0.500000 -0.125000 -0.250000      22 t-inv F
 -0.125000  0.250000  0.500000      22 t-inv F
  0.125000 -0.250000 -0.500000      22 t-inv F
  0.500000  0.250000 -0.125000      22 t-inv F
 -0.125000 -0.500000  0.250000      22 t-inv F
  0.125000  0.500000 -0.250000      22 t-inv F
 -0.250000  0.500000 -0.125000      22 t-inv F
  0.500000 -0.125000  0.250000      22 t-inv F
 -0.500000  0.125000 -0.250000      22 t-inv F
  0.250000 -0.125000 -0.500000      22 t-inv F
 -0.250000  0.125000  0.500000      22 t-inv F
  0.125000  0.250000 -0.500000      22 t-inv F
 -0.125000 -0.250000  0.500000      22 t-inv F
 -0.375000  0.375000  0.125000      23 t-inv F
 -0.375000 -0.375000  0.125000      23 t-inv F
  0.375000 -0.375000  0.125000      23 t-inv F
 -0.375000 -0.375000 -0.125000      23 t-inv F
  0.125000  0.375000  0.375000      23 t-inv F
 -0.125000 -0.375000 -0.375000      23 t-inv F
  0.375000  0.125000  0.375000      23 t-inv F
 -0.375000 -0.125000 -0.375000      23 t-inv F
  0.375000 -0.375000 -0.125000      23 t-inv F
 -0.375000  0.125000  0.375000      23 t-inv F
  0.375000 -0.125000 -0.375000      23 t-inv F
 -0.125000  0.375000  0.375000      23 t-inv F
  0.125000 -0.375000 -0.375000      23 t-inv F
  0.375000  0.375000 -0.125000      23 t-inv F
 -0.125000 -0.375000  0.375000      23 t-inv F
  0.125000  0.375000 -0.375000      23 t-inv F
 -0.375000 -0.125000  0.375000      23 t-inv F
  0.375000  0.125000 -0.375000      23 t-inv F
 -0.375000  0.375000 -0.125000      23 t-inv F
  0.375000 -0.125000  0.375000      23 t-inv F
 -0.375000  0.125000 -0.375000      23 t-inv F
  0.125000 -0.375000  0.375000      23 t-inv F
 -0.125000  0.375000 -0.375000      23 t-inv F
 -0.375000  0.500000  0.125000      24 t-inv F
 -0.500000 -0.375000  0.125000      24 t-inv F
  0.375000 -0.500000  0.125000      24 t-inv F
 -0.500000 -0.375000 -0.125000      24 t-inv F
  0.125000  0.500000  0.375000      24 t-inv F
 -0.125000 -0.500000 -0.375000      24 t-inv F
  0.375000  0.125000  0.500000      24 t-inv F
 -0.375000 -0.125000 -0.500000      24 t-inv F
  0.375000 -0.500000 -0.125000      24 t-inv F
 -0.500000  0.125000  0.375000      24 t-inv F
  0.500000 -0.125000 -0.375000      24 t-inv F
 -0.125000  0.375000  0.500000      24 t-inv F
  0.125000 -0.375000 -0.500000      24 t-inv F
  0.500000  0.375000 -0.125000      24 t-inv F
 -0.125000 -0.500000  0.375000      24 t-inv F
  0.125000  0.500000 -0.375000      24 t-inv F
 -0.375000  0.500000 -0.125000      24 t-inv F
  0.500000 -0.125000  0.375000      24 t-inv F
 -0.500000  0.125000 -0.375000      24 t-inv F
  0.375000 -0.125000 -0.500000      24 t-inv F
 -0.375000  0.125000  0.500000      24 t-inv F
  0.125000  0.375000 -0.500000      24 t-inv F
 -0.125000 -0.375000  0.500000      24 t-inv F
 -0.500000 -0.500000 -0.125000      25 t-inv F
  0.125000  0.500000  0.500000      25 t-inv F
 -0.125000 -0.500000 -0.500000      25 t-inv F
  0.500000  0.125000  0.500000      25 t-inv F
 -0.500000 -0.125000 -0.500000      25 t-inv F
 -0.250000  0.250000  0.250000      26 t-inv F
 -0.250000 -0.250000  0.250000      26 t-inv F
  0.250000 -0.250000  0.250000      26 t-inv F
 -0.250000 -0.250000 -0.250000      26 t-inv F
  0.250000 -0.250000 -0.250000      26 t-inv F
  0.250000  0.250000 -0.250000      26 t-inv F
 -0.250000  0.250000 -0.250000      26 t-inv F
 -0.250000  0.375000  0.250000      27 t-inv F
 -0.375000 -0.250000  0.250000      27 t-inv F
  0.250000 -0.375000  0.250000      27 t-inv F
 -0.375000  0.250000  0.250000      27 t-inv F
 -0.250000 -0.375000  0.250000      27 t-inv F
  0.375000 -0.250000  0.250000      27 t-inv F
  0.250000  0.375000  0.250000      27 t-inv F
 -0.375000 -0.250000 -0.250000      27 t-inv F
 -0.250000 -0.375000 -0.250000      27 t-inv F
  0.250000  0.250000  0.375000      27 t-inv F
 -0.250000 -0.250000 -0.375000      27 t-inv F
  0.250000 -0.375000 -0.250000      27 t-inv F
  0.375000 -0.250000 -0.250000      27 t-inv F
 -0.250000  0.250000  0.375000      27 t-inv F
  0.250000 -0.250000 -0.375000      27 t-inv F
  0.375000  0.250000 -0.250000      27 t-inv F
  0.250000  0.375000 -0.250000      27 t-inv F
 -0.250000 -0.250000  0.375000      27 t-inv F
  0.250000  0.250000 -0.375000      27 t-inv F
 -0.250000  0.375000 -0.250000      27 t-inv F
 -0.375000  0.250000 -0.250000      27 t-inv F
  0.250000 -0.250000  0.375000      27 t-inv F
 -0.250000  0.250000 -0.375000      27 t-inv F
 -0.250000  0.500000  0.250000      28 t-inv F
 -0.500000 -0.250000  0.250000      28 t-inv F
  0.250000 -0.500000  0.250000      28 t-inv F
 -0.500000 -0.250000 -0.250000      28 t-inv F
 -0.250000 -0.500000 -0.250000      28 t-inv F
  0.250000  0.250000  0.500000      28 t-inv F
 -0.250000 -0.250000 -0.500000      28 t-inv F
  0.250000 -0.500000 -0.250000      28 t-inv F
 -0.250000  0.250000  0.500000      28 t-inv F
  0.250000 -0.250000 -0.500000      28 t-inv F
  0.500000  0.250000 -0.250000      28 t-inv F
 -0.375000  0.375000  0.250000      29 t-inv F
 -0.375000 -0.375000  0.250000      29 t-inv F
  0.375000 -0.375000  0.250000      29 t-inv F
 -0.375000 -0.375000 -0.250000      29 t-inv F
  0.250000  0.375000  0.375000      29 t-inv F
 -0.250000 -0.375000 -0.375000      29 t-inv F
  0.375000  0.250000  0.375000      29 t-inv F
 -0.375000 -0.250000 -0.375000      29 t-inv F
  0.375000 -0.375000 -0.250000      29 t-inv F
 -0.375000  0.250000  0.375000      29 t-inv F
  0.375000 -0.250000 -0.375000      29 t-inv F
 -0.250000  0.375000  0.375000      29 t-inv F
  0.250000 -0.375000 -0.375000      29 t-inv F
  0.375000  0.375000 -0.250000      29 t-inv F
 -0.250000 -0.375000  0.375000      29 t-inv F
  0.250000  0.375000 -0.375000      29 t-inv F
 -0.375000 -0.250000  0.375000      29 t-inv F
  0.375000  0.250000 -0.375000      29 t-inv F
 -0.375000  0.375000 -0.250000      29 t-inv F
  0.375000 -0.250000  0.375000      29 t-inv F
 -0.375000  0.250000 -0.375000      29 t-inv F
  0.250000 -0.375000  0.375000      29 t-inv F
 -0.250000  0.375000 -0.375000      29 t-inv F
 -0.375000  0.500000  0.250000      30 t-inv F
 -0.500000 -0.375000  0.250000      30 t-inv F
  0.375000 -0.500000  0.250000      30 t-inv F
 -0.500000 -0.375000 -0.250000      30 t-inv F
  0.250000  0.500000  0.375000      30 t-inv F
 -0.250000 -0.500000 -0.375000      30 t-inv F
  0.375000  0.250000  0.500000      30 t-inv F
 -0.375000 -0.250000 -0.500000      30 t-inv F
  0.375000 -0.500000 -0.250000      30 t-inv F
 -0.500000  0.250000  0.375000      30 t-inv F
  0.500000 -0.250000 -0.375000      30 t-inv F
 -0.250000  0.375000  0.500000      30 t-inv F
  0.250000 -0.375000 -0.500000      30 t-inv F
  0.500000  0.375000 -0.250000      30 t-inv F
 -0.250000 -0.500000  0.375000      30 t-inv F
  0.250000  0.500000 -0.375000      30 t-inv F
 -0.375000  0.500000 -0.250000      30 t-inv F
  0.500000 -0.250000  0.375000      30 t-inv F
 -0.500000  0.250000 -0.375000      30 t-inv F
  0.375000 -0.250000 -0.500000      30 t-inv F
 -0.375000  0.250000  0.500000      30 t-inv F
  0.250000  0.375000 -0.500000      30 t-inv F
 -0.250000 -0.375000  0.500000      30 t-inv F
 -0.500000 -0.500000 -0.250000      31 t-inv F
  0.250000  0.500000  0.500000      31 t-inv F
 -0.250000 -0.500000 -0.500000      31 t-inv F
  0.500000  0.250000  0.500000      31 t-inv F
 -0.500000 -0.250000 -0.500000      31 t-inv F
 -0.375000  0.375000  0.375000      32 t-inv F
 -0.375000 -0.375000  0.375000      32 t-inv F
  0.375000 -0.375000  0.375000      32 t-inv F
 -0.375000 -0.375000 -0.375000      32 t-inv F
  0.375000 -0.375000 -0.375000      32 t-inv F
  0.375000  0.375000 -0.375000      32 t-inv F
 -0.375000  0.375000 -0.375000      32 t-inv F
 -0.375000  0.500000  0.375000      33 t-inv F
 -0.500000 -0.375000  0.375000      33 t-inv F
  0.375000 -0.500000  0.375000      33 t-inv F
 -0.500000 -0.375000 -0.375000      33 t-inv F
 -0.375000 -0.500000 -0.375000      33 t-inv F
  0.375000  0.375000  0.500000      33 t-inv F
 -0.375000 -0.375000 -0.500000      33 t-inv F
  0.375000 -0.500000 -0.375000      33 t-inv F
 -0.375000  0.375000  0.500000      33 t-inv F
  0.375000 -0.375000 -0.500000      33 t-inv F
  0.500000  0.375000 -0.375000      33 t-inv F
 -0.500000 -0.500000 -0.375000      34 t-inv F
  0.375000  0.500000  0.500000      34 t-inv F
 -0.375000 -0.500000 -0.500000      34 t-inv F
  0.500000  0.375000  0.500000      34 t-inv F
 -0.500000 -0.375000 -0.500000      34 t-inv F


--------------------------------------------------------------------------------------------------------




 Dimension of arrays:
   k-points           NKPTS =     35   k-points in BZ     NKDIM =     35   number of bands    NBANDS=     24
   number of dos      NEDOS =    301   number of ions     NIONS =      5
   non local maximal  LDIM  =      6   non local SUM 2l+1 LMDIM =     18
   total plane-waves  NPLWV =  27000
   max r-space proj   IRMAX =   8167   max aug-charges    IRDMAX=  25961
   dimension x,y,z NGX =    30 NGY =   30 NGZ =   30
   dimension x,y,z NGXF=    60 NGYF=   60 NGZF=   60
   support grid    NGXF=    60 NGYF=   60 NGZF=   60
   ions per type =               1   1   3
 NGX,Y,Z   is equivalent  to a cutoff of  12.37, 12.37, 12.37 a.u.
 NGXF,Y,Z  is equivalent  to a cutoff of  24.73, 24.73, 24.73 a.u.


 I would recommend the setting:
   dimension x,y,z NGX =    30 NGY =   30 NGZ =   30
 SYSTEM =  unknown system                          
 POSCAR =  Ba1 Ti1 O3                              

 Startparameter for this run:
   NWRITE =      2    write-flag & timer
   PREC   = accura    normal or accurate (medium, high low for compatibility)
   ISTART =      1    job   : 0-new  1-cont  2-samecut
   ICHARG =      0    charge: 1-file 2-atom 10-const
   ISPIN  =      2    spin polarized calculation?
   LNONCOLLINEAR =      F non collinear calculations
   LSORBIT =      F    spin-orbit coupling
   INIWAV =      1    electr: 0-lowe 1-rand  2-diag
   LASPH  =      F    aspherical Exc in radial PAW
   METAGGA=      F    non-selfconsistent MetaGGA calc.

 Electronic Relaxation 1
   ENCUT  =  520.0 eV  38.22 Ry    6.18 a.u.   7.50  7.50  7.50*2*pi/ulx,y,z
   ENINI  =  520.0     initial cutoff
   ENAUG  =  605.4 eV  augmentation charge cutoff
   NELM   =    100;   NELMIN=  2; NELMDL=  0     # of ELM steps 
   EDIFF  = 0.3E-03   stopping-criterion for ELM
   LREAL  =      T    real-space projection
   NLSPLINE    = F    spline interpolate recip. space projectors
   LCOMPAT=      F    compatible to vasp.4.4
   GGA_COMPAT  = T    GGA compatible to vasp.4.4-vasp.4.6
   LMAXPAW     = -100 max onsite density
   LMAXMIX     =    2 max onsite mixed and CHGCAR
   VOSKOWN=      0    Vosko Wilk Nusair interpolation
   ROPT   =   -0.00025  -0.00025  -0.00025
 Ionic relaxation
   EDIFFG = 0.3E-02   stopping-criterion for IOM
   NSW    =      0    number of steps for IOM
   NBLOCK =      1;   KBLOCK =      1    inner block; outer block 
   IBRION =     -1    ionic relax: 0-MD 1-quasi-New 2-CG
   NFREE  =      0    steps in history (QN), initial steepest desc. (CG)
   ISIF   =      3    stress and relaxation
   IWAVPR =     10    prediction:  0-non 1-charg 2-wave 3-comb
   ISYM   =      2    0-nonsym 1-usesym 2-fastsym
   LCORR  =      T    Harris-Foulkes like correction to forces

   POTIM  = 0.5000    time-step for ionic-motion
   TEIN   =    0.0    initial temperature
   TEBEG  =    0.0;   TEEND  =   0.0 temperature during run
   SMASS  =  -3.00    Nose mass-parameter (am)
   estimated Nose-frequenzy (Omega)   =  0.10E-29 period in steps =****** mass=  -0.372E-27a.u.
   SCALEE = 1.0000    scale energy and forces
   NPACO  =    256;   APACO  = 16.0  distance and # of slots for P.C.
   PSTRESS=    0.0 pullay stress

  Mass of Ions in am
   POMASS = 137.33 47.88 16.00
  Ionic Valenz
   ZVAL   =  10.00 10.00  6.00
  Atomic Wigner-Seitz radii
   RWIGS  =  -1.00 -1.00 -1.00
  virtual crystal weights 
   VCA    =   1.00  1.00  1.00
   NELECT =      38.0000    total number of electrons
   NUPDOWN=      -1.0000    fix difference up-down

 DOS related values:
   EMIN   =  10.00;   EMAX   =-10.00  energy-range for DOS
   EFERMI =   0.00
   ISMEAR =    -5;   SIGMA  =   0.05  broadening in eV -4-tet -1-fermi 0-gaus

 Electronic relaxation 2 (details)
   IALGO  =     38    algorithm
   LDIAG  =      T    sub-space diagonalisation (order eigenvalues)
   LSUBROT=      F    optimize rotation matrix (better conditioning)
   TURBO    =      0    0=normal 1=particle mesh
   IRESTART =      0    0=no restart 2=restart with 2 vectors
   NREBOOT  =      0    no. of reboots
   NMIN     =      0    reboot dimension
   EREF     =   0.00    reference energy to select bands
   IMIX   =      4    mixing-type and parameters
     AMIX     =   0.40;   BMIX     =  1.00
     AMIX_MAG =   1.60;   BMIX_MAG =  1.00
     AMIN     =   0.10
     WC   =   100.;   INIMIX=   1;  MIXPRE=   1;  MAXMIX= -45

 Intra band minimization:
   WEIMIN = 0.0000     energy-eigenvalue tresh-hold
   EBREAK =  0.26E-05  absolut break condition
   DEPER  =   0.30     relativ break condition  

   TIME   =   0.40     timestep for ELM

  volume/ion in A,a.u.               =      13.12        88.54
  Fermi-wavevector in a.u.,A,eV,Ry     =   1.364698  2.578904 25.339481  1.862399
  Thomas-Fermi vector in A             =   2.490991
 
 Write flags
   LWAVE  =      F    write WAVECAR
   LCHARG =      T    write CHGCAR
   LVTOT  =      F    write LOCPOT, total local potential
   LVHAR  =      T    write LOCPOT, Hartree potential only
   LELF   =      F    write electronic localiz. function (ELF)
   LORBIT =     11    0 simple, 1 ext, 2 COOP (PROOUT)


 Dipole corrections
   LMONO  =      F    monopole corrections only (constant potential shift)
   LDIPOL =      F    correct potential (dipole corrections)
   IDIPOL =      0    1-x, 2-y, 3-z, 4-all directions 
   EPSILON=  1.0000000 bulk dielectric constant

 Exchange correlation treatment:
   GGA     =    --    GGA type
   LEXCH   =     8    internal setting for exchange type
   VOSKOWN=      0    Vosko Wilk Nusair interpolation
   LHFCALC =     F    Hartree Fock is set to
   LHFONE  =     F    Hartree Fock one center treatment
   AEXX    =    0.0000 exact exchange contribution

 Linear response parameters
   LEPSILON=     F    determine dielectric tensor
   LRPA    =     F    only Hartree local field effects (RPA)
   LNABLA  =     F    use nabla operator in PAW spheres
   LVEL    =     F    velocity operator in full k-point grid
   LINTERFAST=   F  fast interpolation
   KINTER  =     0    interpolate to denser k-point grid
   CSHIFT  =0.1000    complex shift for real part using Kramers Kronig
   OMEGAMAX=  -1.0    maximum frequency
   DEG_THRESHOLD= 0.2000000E-02 threshold for treating states as degnerate
   RTIME   =    0.100 relaxation time in fs

 Orbital magnetization related:
   ORBITALMAG=     F  switch on orbital magnetization
   LCHIMAG   =     F  perturbation theory with respect to B field
   DQ        =  0.001000  dq finite difference perturbation B field

 PEAD related settings:
   LPEAD      =     T    switch on PEAD
   IPEAD      =     4    finite difference order for dpsi/dk
   LCALCPOL   =     T    calculate macroscopic polarization
   LCALCEPS   =     F    calculate dielectric tensor
   EFIELD_PEAD=    0.0000    0.0000    0.0000
   SKIP_EDOTP =     F
   LRPA       =     F
   SKIP_SCF   =     F


--------------------------------------------------------------------------------------------------------


 Static calculation
 charge density and potential will be updated during run
 spin polarized calculation
 Variant of blocked Davidson
 Davidson routine will perform the subspace rotation
 perform sub-space diagonalisation
    after iterative eigenvector-optimisation
 modified Broyden-mixing scheme, WC =      100.0
 initial mixing is a Kerker type mixing with AMIX =  0.4000 and BMIX =      1.0000
 Hartree-type preconditioning will be used
 using additional bands            5
 real space projection scheme for non local part
 use partial core corrections
 calculate Harris-corrections to forces 
   (improved forces if not selfconsistent)
 use gradient corrections 
 use of overlap-Matrix (Vanderbilt PP)
 Fermi weights with tetrahedron method with Bloechl corrections


--------------------------------------------------------------------------------------------------------


  energy-cutoff  :      520.00
  volume of cell :       65.60
      direct lattice vectors                 reciprocal lattice vectors
     4.033044000  0.000000000  0.000000000     0.247951671  0.000000000  0.000000000
     0.000000000  4.033044000  0.000000000     0.000000000  0.247951671  0.000000000
     0.000000000  0.000000000  4.033044000     0.000000000  0.000000000  0.247951671

  length of vectors
     4.033044000  4.033044000  4.033044000     0.247951671  0.247951671  0.247951671


 
 old parameters found on file WAVECAR:
  energy-cutoff  :      520.00
  volume of cell :       65.60
      direct lattice vectors                 reciprocal lattice vectors
     4.033044000  0.000000000  0.000000000     0.247951671  0.000000000  0.000000000
     0.000000000  4.033044000  0.000000000     0.000000000  0.247951671  0.000000000
     0.000000000  0.000000000  4.033044000     0.000000000  0.000000000  0.247951671

  length of vectors

 
 k-points in units of 2pi/SCALE and weight: Automatic kpoint scheme                 
   0.00000000  0.00000000  0.00000000       0.002
   0.03099396  0.00000000  0.00000000       0.012
   0.06198792  0.00000000  0.00000000       0.012
   0.09298188  0.00000000  0.00000000       0.012
   0.12397584  0.00000000  0.00000000       0.006
   0.03099396  0.03099396  0.00000000       0.023
   0.06198792  0.03099396  0.00000000       0.047
   0.09298188  0.03099396  0.00000000       0.047
   0.12397584  0.03099396  0.00000000       0.023
   0.06198792  0.06198792  0.00000000       0.023
   0.09298188  0.06198792  0.00000000       0.047
   0.12397584  0.06198792  0.00000000       0.023
   0.09298188  0.09298188  0.00000000       0.023
   0.12397584  0.09298188  0.00000000       0.023
   0.12397584  0.12397584  0.00000000       0.006
   0.03099396  0.03099396  0.03099396       0.016
   0.06198792  0.03099396  0.03099396       0.047
   0.09298188  0.03099396  0.03099396       0.047
   0.12397584  0.03099396  0.03099396       0.023
   0.06198792  0.06198792  0.03099396       0.047
   0.09298188  0.06198792  0.03099396       0.094
   0.12397584  0.06198792  0.03099396       0.047
   0.09298188  0.09298188  0.03099396       0.047
   0.12397584  0.09298188  0.03099396       0.047
   0.12397584  0.12397584  0.03099396       0.012
   0.06198792  0.06198792  0.06198792       0.016
   0.09298188  0.06198792  0.06198792       0.047
   0.12397584  0.06198792  0.06198792       0.023
   0.09298188  0.09298188  0.06198792       0.047
   0.12397584  0.09298188  0.06198792       0.047
   0.12397584  0.12397584  0.06198792       0.012
   0.09298188  0.09298188  0.09298188       0.016
   0.12397584  0.09298188  0.09298188       0.023
   0.12397584  0.12397584  0.09298188       0.012
   0.12397584  0.12397584  0.12397584       0.002
 
 k-points in reciprocal lattice and weights: Automatic kpoint scheme                 
   0.00000000  0.00000000  0.00000000       0.002
   0.12500000  0.00000000  0.00000000       0.012
   0.25000000  0.00000000  0.00000000       0.012
   0.37500000  0.00000000  0.00000000       0.012
   0.50000000  0.00000000  0.00000000       0.006
   0.12500000  0.12500000  0.00000000       0.023
   0.25000000  0.12500000  0.00000000       0.047
   0.37500000  0.12500000  0.00000000       0.047
   0.50000000  0.12500000  0.00000000       0.023
   0.25000000  0.25000000  0.00000000       0.023
   0.37500000  0.25000000  0.00000000       0.047
   0.50000000  0.25000000  0.00000000       0.023
   0.37500000  0.37500000  0.00000000       0.023
   0.50000000  0.37500000  0.00000000       0.023
   0.50000000  0.50000000  0.00000000       0.006
   0.12500000  0.12500000  0.12500000       0.016
   0.25000000  0.12500000  0.12500000       0.047
   0.37500000  0.12500000  0.12500000       0.047
   0.50000000  0.12500000  0.12500000       0.023
   0.25000000  0.25000000  0.12500000       0.047
   0.37500000  0.25000000  0.12500000       0.094
   0.50000000  0.25000000  0.12500000       0.047
   0.37500000  0.37500000  0.12500000       0.047
   0.50000000  0.37500000  0.12500000       0.047
   0.50000000  0.50000000  0.12500000       0.012
   0.25000000  0.25000000  0.25000000       0.016
   0.37500000  0.25000000  0.25000000       0.047
   0.50000000  0.25000000  0.25000000       0.023
   0.37500000  0.37500000  0.25000000       0.047
   0.50000000  0.37500000  0.25000000       0.047
   0.50000000  0.50000000  0.25000000       0.012
   0.37500000  0.37500000  0.37500000       0.016
   0.50000000  0.37500000  0.37500000       0.023
   0.50000000  0.50000000  0.37500000       0.012
   0.50000000  0.50000000  0.50000000       0.002
 
 position of ions in fractional coordinates (direct lattice) 
   0.00000000  0.00000000  0.00280000
   0.50000000  0.50000000  0.50280000
   0.00000000  0.50000000  0.50280000
   0.50000000  0.00000000  0.50280000
   0.50000000  0.50000000  0.00280000
 
 position of ions in cartesian coordinates  (Angst):
   0.00000000  0.00000000  0.01129252
   2.01652200  2.01652200  2.02781452
   0.00000000  2.01652200  2.02781452
   2.01652200  0.00000000  2.02781452
   2.01652200  2.01652200  0.01129252
 


--------------------------------------------------------------------------------------------------------


 k-point  1 :   0.0000 0.0000 0.0000  plane waves:    1791
 k-point  2 :   0.1250 0.0000 0.0000  plane waves:    1783
 k-point  3 :   0.2500 0.0000 0.0000  plane waves:    1779
 k-point  4 :   0.3750 0.0000 0.0000  plane waves:    1767
 k-point  5 :   0.5000 0.0000 0.0000  plane waves:    1750
 k-point  6 :   0.1250 0.1250 0.0000  plane waves:    1775
 k-point  7 :   0.2500 0.1250 0.0000  plane waves:    1769
 k-point  8 :   0.3750 0.1250 0.0000  plane waves:    1771
 k-point  9 :   0.5000 0.1250 0.0000  plane waves:    1768
 k-point 10 :   0.2500 0.2500 0.0000  plane waves:    1771
 k-point 11 :   0.3750 0.2500 0.0000  plane waves:    1776
 k-point 12 :   0.5000 0.2500 0.0000  plane waves:    1752
 k-point 13 :   0.3750 0.3750 0.0000  plane waves:    1752
 k-point 14 :   0.5000 0.3750 0.0000  plane waves:    1750
 k-point 15 :   0.5000 0.5000 0.0000  plane waves:    1740
 k-point 16 :   0.1250 0.1250 0.1250  plane waves:    1788
 k-point 17 :   0.2500 0.1250 0.1250  plane waves:    1777
 k-point 18 :   0.3750 0.1250 0.1250  plane waves:    1768
 k-point 19 :   0.5000 0.1250 0.1250  plane waves:    1760
 k-point 20 :   0.2500 0.2500 0.1250  plane waves:    1770
 k-point 21 :   0.3750 0.2500 0.1250  plane waves:    1774
 k-point 22 :   0.5000 0.2500 0.1250  plane waves:    1754
 k-point 23 :   0.3750 0.3750 0.1250  plane waves:    1762
 k-point 24 :   0.5000 0.3750 0.1250  plane waves:    1754
 k-point 25 :   0.5000 0.5000 0.1250  plane waves:    1744
 k-point 26 :   0.2500 0.2500 0.2500  plane waves:    1791
 k-point 27 :   0.3750 0.2500 0.2500  plane waves:    1762
 k-point 28 :   0.5000 0.2500 0.2500  plane waves:    1756
 k-point 29 :   0.3750 0.3750 0.2500  plane waves:    1760
 k-point 30 :   0.5000 0.3750 0.2500  plane waves:    1758
 k-point 31 :   0.5000 0.5000 0.2500  plane waves:    1764
 k-point 32 :   0.3750 0.3750 0.3750  plane waves:    1760
 k-point 33 :   0.5000 0.3750 0.3750  plane waves:    1758
 k-point 34 :   0.5000 0.5000 0.3750  plane waves:    1768
 k-point 35 :   0.5000 0.5000 0.5000  plane waves:    1736

 maximum and minimum number of plane-waves per node :      1791     1736

 maximum number of plane-waves:      1791
 maximum index in each direction: 
   IXMAX=    7   IYMAX=    7   IZMAX=    7
   IXMIN=   -7   IYMIN=   -7   IZMIN=   -7

 NGX is ok and might be reduce to  30
 NGY is ok and might be reduce to  30
 NGZ is ok and might be reduce to  30

 serial   3D FFT for wavefunctions
 parallel 3D FFT for charge:
    minimum data exchange during FFTs selected (reduces bandwidth)


 total amount of memory used by VASP on root node    45627. kBytes
========================================================================

   base      :      30000. kBytes
   nonlr-proj:       3348. kBytes
   fftplans  :       1096. kBytes
   grid      :       4792. kBytes
   one-center:        155. kBytes
   wavefun   :       6236. kBytes
 
     INWAV:  cpu time    0.22: real time    0.22
 Broyden mixing: mesh for mixing (old mesh)
   NGX = 15   NGY = 15   NGZ = 15
  (NGX  = 60   NGY  = 60   NGZ  = 60)
  gives a total of   3375 points

 charge density for first step will be calculated from the start-wavefunctions


--------------------------------------------------------------------------------------------------------


 Maximum index for non-local projection operator         7909
 Maximum index for augmentation-charges         3668 (set IRDMAX)


--------------------------------------------------------------------------------------------------------


 initial charge from wavefunction
 First call to EWALD:  gamma=   0.439
 Maximum number of real-space cells 3x 3x 3
 Maximum number of reciprocal cells 3x 3x 3

 FEWALD executed in parallel
    FEWALD:  cpu time    0.00: real time    0.00


----------------------------------------- Iteration    1(   1)  ---------------------------------------


    POTLOK:  cpu time    0.08: real time    0.09
    SETDIJ:  cpu time    0.01: real time    0.02
     EDDAV:  cpu time    6.61: real time    6.63
 BZINTS: Fermi energy:  3.058613; 38.000000 electrons
         Band energy:-328.347131;  BLOECHL correction:  0.000000
       DOS:  cpu time    0.00: real time    0.01
    CHARGE:  cpu time    0.39: real time    0.39
    MIXING:  cpu time    0.00: real time    0.00
    --------------------------------------------
      LOOP:  cpu time    7.10: real time    7.14

 eigenvalue-minimisations  :  4432
 total energy-change (2. order) :-0.3988972E+02  (-0.9837525E-03)
 number of electron      37.9999979 magnetization      -0.0000000
 augmentation part        4.8177261 magnetization      -0.0000051

 Broyden mixing:
  rms(total) = 0.47609E-01    rms(broyden)= 0.47606E-01
  rms(prec ) = 0.10538E+00
  weight for this iteration     100.00

 Free energy of the ion-electron system (eV)
  ---------------------------------------------------
  alpha Z        PSCENC =       255.43339506
  Ewald energy   TEWEN  =     -2507.06893497
  -Hartree energ DENC   =      -637.64690023
  -exchange      EXHF   =         0.00000000
  -V(xc)+E(xc)   XCENC  =       146.61906742
  PAW double counting   =      3594.79918582    -3604.20542068
  entropy T*S    EENTRO =         0.00000000
  eigenvalues    EBANDS =      -328.34713090
  atomic energy  EATOM  =      3040.52701931
  ---------------------------------------------------
  free energy    TOTEN  =       -39.88971916 eV

  energy without entropy =      -39.88971916  energy(sigma->0) =      -39.88971916


--------------------------------------------------------------------------------------------------------




----------------------------------------- Iteration    1(   2)  ---------------------------------------


    POTLOK:  cpu time    0.08: real time    0.08
    SETDIJ:  cpu time    0.02: real time    0.02
     EDDAV:  cpu time    6.58: real time    6.58
 BZINTS: Fermi energy:  3.079238; 38.000000 electrons
         Band energy:-328.149142;  BLOECHL correction:  0.000000
       DOS:  cpu time    0.00: real time    0.01
    CHARGE:  cpu time    0.39: real time    0.39
    MIXING:  cpu time    0.00: real time    0.00
    --------------------------------------------
      LOOP:  cpu time    7.07: real time    7.08

 eigenvalue-minimisations  :  4392
 total energy-change (2. order) : 0.8240839E-03  (-0.2403602E-02)
 number of electron      37.9999978 magnetization       0.0000000
 augmentation part        4.7938785 magnetization      -0.0000023

 Broyden mixing:
  rms(total) = 0.38717E-01    rms(broyden)= 0.38710E-01
  rms(prec ) = 0.86918E-01
  weight for this iteration     100.00

 eigenvalues of (default mixing * dielectric matrix)
  average eigenvalue GAMMA=   0.5523
  0.5523

 Free energy of the ion-electron system (eV)
  ---------------------------------------------------
  alpha Z        PSCENC =       255.43339506
  Ewald energy   TEWEN  =     -2507.06893497
  -Hartree energ DENC   =      -637.87728587
  -exchange      EXHF   =         0.00000000
  -V(xc)+E(xc)   XCENC  =       146.60391557
  PAW double counting   =      3591.98804560    -3601.34590814
  entropy T*S    EENTRO =         0.00000000
  eigenvalues    EBANDS =      -328.14914164
  atomic energy  EATOM  =      3040.52701931
  ---------------------------------------------------
  free energy    TOTEN  =       -39.88889508 eV

  energy without entropy =      -39.88889508  energy(sigma->0) =      -39.88889508


--------------------------------------------------------------------------------------------------------




----------------------------------------- Iteration    1(   3)  ---------------------------------------


    POTLOK:  cpu time    0.08: real time    0.08
    SETDIJ:  cpu time    0.02: real time    0.02
     EDDAV:  cpu time    6.50: real time    6.50
 BZINTS: Fermi energy:  3.070780; 38.000000 electrons
         Band energy:-328.124157;  BLOECHL correction:  0.000000
       DOS:  cpu time    0.00: real time    0.01
    CHARGE:  cpu time    0.39: real time    0.39
    MIXING:  cpu time    0.00: real time    0.00
    --------------------------------------------
      LOOP:  cpu time    7.00: real time    7.01

 eigenvalue-minimisations  :  4328
 total energy-change (2. order) : 0.2007631E-02  (-0.5220480E-03)
 number of electron      37.9999978 magnetization       0.0000000
 augmentation part        4.8042353 magnetization      -0.0000030

 Broyden mixing:
  rms(total) = 0.18231E-02    rms(broyden)= 0.18074E-02
  rms(prec ) = 0.38223E-02
  weight for this iteration     100.00

 eigenvalues of (default mixing * dielectric matrix)
  average eigenvalue GAMMA=   1.3665
  2.1793  0.5537

 Free energy of the ion-electron system (eV)
  ---------------------------------------------------
  alpha Z        PSCENC =       255.43339506
  Ewald energy   TEWEN  =     -2507.06893497
  -Hartree energ DENC   =      -637.88865293
  -exchange      EXHF   =         0.00000000
  -V(xc)+E(xc)   XCENC  =       146.61719596
  PAW double counting   =      3592.76891894    -3602.15167206
  entropy T*S    EENTRO =         0.00000000
  eigenvalues    EBANDS =      -328.12415676
  atomic energy  EATOM  =      3040.52701931
  ---------------------------------------------------
  free energy    TOTEN  =       -39.88688745 eV

  energy without entropy =      -39.88688745  energy(sigma->0) =      -39.88688745


--------------------------------------------------------------------------------------------------------




----------------------------------------- Iteration    1(   4)  ---------------------------------------


    POTLOK:  cpu time    0.08: real time    0.08
    SETDIJ:  cpu time    0.02: real time    0.02
     EDDAV:  cpu time    4.19: real time    4.19
 BZINTS: Fermi energy:  3.071357; 38.000000 electrons
         Band energy:-328.000364;  BLOECHL correction:  0.000000
       DOS:  cpu time    0.00: real time    0.01
    --------------------------------------------
      LOOP:  cpu time    4.29: real time    4.30

 eigenvalue-minimisations  :  2368
 total energy-change (2. order) :-0.1500298E-04  (-0.2972041E-04)
 number of electron      37.9999978 magnetization       0.0000000
 augmentation part        4.8042353 magnetization      -0.0000030

 Free energy of the ion-electron system (eV)
  ---------------------------------------------------
  alpha Z        PSCENC =       255.43339506
  Ewald energy   TEWEN  =     -2507.06893497
  -Hartree energ DENC   =      -638.01634550
  -exchange      EXHF   =         0.00000000
  -V(xc)+E(xc)   XCENC  =       146.62454784
  PAW double counting   =      3592.15308996    -3601.53931006
  entropy T*S    EENTRO =         0.00000000
  eigenvalues    EBANDS =      -328.00036409
  atomic energy  EATOM  =      3040.52701931
  ---------------------------------------------------
  free energy    TOTEN  =       -39.88690245 eV

  energy without entropy =      -39.88690245  energy(sigma->0) =      -39.88690245


--------------------------------------------------------------------------------------------------------




 average (electrostatic) potential at core
  the test charge radii are     1.2192  1.0397  0.7215
  (the norm of the test charge is              1.0000)
       1 -33.7522       2 -54.1957       3 -70.4793       4 -70.4793       5 -70.4793
 
 
 
 E-fermi :   3.0714     XC(G=0): -11.1143     alpha+bet :-13.5561


 spin component 1

 k-point     1 :       0.0000    0.0000    0.0000
  band No.  band energies     occupation 
      1     -29.9736      1.00000
      2     -29.9736      1.00000
      3     -29.9736      1.00000
      4     -21.8598      1.00000
      5     -13.8401      1.00000
      6     -13.1456      1.00000
      7     -13.1456      1.00000
      8      -7.0300      1.00000
      9      -7.0300      1.00000
     10      -7.0300      1.00000
     11       0.7046      1.00000
     12       0.7046      1.00000
     13       0.7046      1.00000
     14       1.9649      1.00000
     15       1.9649      1.00000
     16       1.9649      1.00000
     17       2.8614      1.00000
     18       2.8614      1.00000
     19       2.8614      1.00000
     20       4.6822      0.00000
     21       4.6822      0.00000
     22       4.6822      0.00000
     23       6.7266      0.00000
     24       6.7266      0.00000

 k-point     2 :       0.1250    0.0000    0.0000
  band No.  band energies     occupation 
      1     -29.9803      1.00000
      2     -29.9733      1.00000
      3     -29.9733      1.00000
[...]
     10      -7.2369      1.00000
     11      -1.2368      1.00000
     12      -0.7622      1.00000
     13      -0.1228      1.00000
     14       0.0533      1.00000
     15       0.5478      1.00000
     16       0.5478      1.00000
     17       2.4984      1.00000
     18       2.4984      1.00000
     19       2.9705      1.00000
     20       6.6501      0.00000
     21       6.6501      0.00000
     22       6.8733      0.00000
     23       8.9588      0.00000
     24      10.2861      0.00000

 k-point    32 :       0.3750    0.3750    0.3750
  band No.  band energies     occupation 
      1     -30.0087      1.00000
      2     -30.0084      1.00000
      3     -30.0084      1.00000
      4     -21.6520      1.00000
      5     -13.1967      1.00000
      6     -12.9852      1.00000
      7     -12.9852      1.00000
      8      -7.5080      1.00000
      9      -7.5080      1.00000
     10      -7.2433      1.00000
     11      -1.0718      1.00000
     12      -0.5393      1.00000
     13      -0.5392      1.00000
     14       0.1752      1.00000
     15       0.5811      1.00000
     16       0.5811      1.00000
     17       2.6510      1.00000
     18       2.6510      1.00000
     19       2.8455      1.00000
     20       6.7252      0.00000
     21       6.7266      0.00000
     22       6.7266      0.00000
     23       9.7612      0.00000
     24       9.7612      0.00000

 k-point    33 :       0.5000    0.3750    0.3750
  band No.  band energies     occupation 
      1     -30.0149      1.00000
      2     -30.0083      1.00000
      3     -30.0081      1.00000
      4     -21.6426      1.00000
      5     -13.1191      1.00000
      6     -12.9765      1.00000
      7     -12.9631      1.00000
      8      -7.5819      1.00000
      9      -7.5200      1.00000
     10      -7.3975      1.00000
     11      -1.2099      1.00000
     12      -0.6442      1.00000
     13      -0.5377      1.00000
     14       0.2438      1.00000
     15       0.5803      1.00000
     16       0.6070      1.00000
     17       2.6936      1.00000
     18       2.7855      1.00000
     19       2.9107      1.00000
     20       6.7607      0.00000
     21       6.8481      0.00000
     22       6.8499      0.00000
     23       9.6740      0.00000
     24       9.9793      0.00000

 k-point    34 :       0.5000    0.5000    0.3750
  band No.  band energies     occupation 
      1     -30.0146      1.00000
      2     -30.0146      1.00000
      3     -30.0079      1.00000
      4     -21.6335      1.00000
      5     -13.0177      1.00000
      6     -12.9609      1.00000
      7     -12.9609      1.00000
      8      -7.6020      1.00000
      9      -7.6020      1.00000
     10      -7.5640      1.00000
     11      -1.3157      1.00000
     12      -0.7566      1.00000
     13      -0.5769      1.00000
     14       0.3953      1.00000
     15       0.5912      1.00000
     16       0.5912      1.00000
     17       2.8477      1.00000
     18       2.8477      1.00000
     19       3.0016      1.00000
     20       6.8835      0.00000
     21       6.8835      0.00000
     22       6.9577      0.00000
     23       9.5946      0.00000
     24      10.0114      0.00000

 k-point    35 :       0.5000    0.5000    0.5000
  band No.  band energies     occupation 
      1     -30.0143      1.00000
      2     -30.0143      1.00000
      3     -30.0143      1.00000
      4     -21.6246      1.00000
      5     -12.9355      1.00000
      6     -12.9355      1.00000
      7     -12.9355      1.00000
      8      -7.6890      1.00000
      9      -7.6890      1.00000
     10      -7.6890      1.00000
     11      -1.4088      1.00000
     12      -0.7542      1.00000
     13      -0.7542      1.00000
     14       0.5990      1.00000
     15       0.5990      1.00000
     16       0.5990      1.00000
     17       3.0146      1.00000
     18       3.0146      1.00000
     19       3.0146      1.00000
     20       6.9933      0.00000
     21       6.9933      0.00000
     22       6.9933      0.00000
     23       9.6418      0.00000
     24       9.6418      0.00000


--------------------------------------------------------------------------------------------------------


 soft charge-density along one line, spin component           1
         0         1         2         3         4         5         6         7         8         9
 total charge-density along one line
 
 soft charge-density along one line, spin component           2
         0         1         2         3         4         5         6         7         8         9
 total charge-density along one line
 
 pseudopotential strength for first ion, spin component:           1
  1.140  -4.971   0.000   0.000   0.000   0.000   0.000   0.000
 -4.971   0.640  -0.000  -0.000  -0.000   0.000   0.000   0.000
  0.000  -0.000  -7.697   0.000   0.000   4.442   0.000   0.000
  0.000  -0.000   0.000  -7.697  -0.000   0.000   4.442  -0.000
  0.000  -0.000   0.000  -0.000  -7.697   0.000  -0.000   4.442
  0.000   0.000   4.442   0.000   0.000   6.789  -0.000  -0.000
  0.000   0.000   0.000   4.442  -0.000  -0.000   6.789   0.000
  0.000   0.000   0.000  -0.000   4.442  -0.000   0.000   6.789
  0.000  -0.000   0.000  -0.000   0.000   0.000  -0.000   0.000
  0.000  -0.000   0.000   0.000  -0.000   0.000   0.000  -0.000
 -0.000   0.000  -0.000   0.000  -0.000  -0.000   0.000   0.000
 -0.000   0.000  -0.000   0.000   0.000  -0.000   0.000   0.000
 -0.000   0.000  -0.000   0.000   0.000  -0.000   0.000   0.000
  0.000  -0.000   0.000  -0.000   0.000  -0.000  -0.000   0.000
  0.000  -0.000   0.000   0.000  -0.000   0.000   0.000  -0.000
 -0.000   0.000  -0.000   0.000  -0.000  -0.000   0.000  -0.000
 -0.000   0.000  -0.000   0.000   0.000  -0.000   0.000   0.000
 -0.000   0.000  -0.000   0.000   0.000  -0.000   0.000   0.000
 pseudopotential strength for first ion, spin component:           2
  1.140  -4.971   0.000   0.000   0.000   0.000   0.000   0.000
 -4.971   0.640  -0.000  -0.000  -0.000   0.000   0.000   0.000
  0.000  -0.000  -7.697  -0.000   0.000   4.442  -0.000   0.000
  0.000  -0.000  -0.000  -7.697  -0.000  -0.000   4.442  -0.000
  0.000  -0.000   0.000  -0.000  -7.697   0.000  -0.000   4.442
  0.000   0.000   4.442  -0.000   0.000   6.789   0.000  -0.000
  0.000   0.000  -0.000   4.442  -0.000   0.000   6.789   0.000
  0.000   0.000   0.000  -0.000   4.442  -0.000   0.000   6.789
  0.000  -0.000   0.000  -0.000   0.000   0.000  -0.000   0.000
 -0.000   0.000   0.000   0.000  -0.000   0.000   0.000  -0.000
 -0.000   0.000  -0.000   0.000  -0.000  -0.000   0.000   0.000
 -0.000   0.000  -0.000   0.000   0.000  -0.000   0.000   0.000
 -0.000   0.000  -0.000   0.000   0.000  -0.000   0.000   0.000
  0.000  -0.000   0.000  -0.000   0.000   0.000  -0.000   0.000
 -0.000   0.000   0.000   0.000  -0.000   0.000   0.000  -0.000
 -0.000   0.000  -0.000   0.000  -0.000  -0.000   0.000   0.000
 -0.000   0.000  -0.000   0.000   0.000  -0.000   0.000   0.000
 -0.000   0.000  -0.000   0.000   0.000  -0.000   0.000   0.000
 total augmentation occupancy for first ion, spin component:           1
  2.004  -0.003  -0.000   0.000   0.000   0.000  -0.000   0.000  -0.000  -0.000  -0.000  -0.000  -0.000   0.000   0.000  -0.000
 -0.003   0.399   0.000   0.000   0.000   0.000  -0.000   0.000   0.000   0.000   0.000   0.000   0.000   0.000   0.000  -0.000
 -0.000  -0.000   2.021  -0.000   0.000  -0.009   0.000  -0.000   0.000   0.000   0.000   0.000   0.000   0.000   0.000  -0.000
  0.000   0.000  -0.000   2.021   0.000  -0.000  -0.009  -0.000   0.000   0.000   0.000   0.000   0.000   0.000   0.000  -0.000
  0.000   0.000   0.000  -0.000   2.021   0.000   0.000  -0.009   0.000  -0.000   0.000   0.000   0.000  -0.000   0.000   0.000
  0.000  -0.000  -0.009  -0.000   0.000   0.010   0.000  -0.000   0.000   0.000   0.000  -0.000   0.000   0.000  -0.000   0.000
  0.000   0.000   0.000  -0.009   0.000   0.000   0.010  -0.000  -0.000   0.000  -0.000  -0.000   0.000   0.000   0.000  -0.000
  0.000  -0.000  -0.000  -0.000  -0.009   0.000   0.000   0.010  -0.000   0.000   0.000   0.000   0.000   0.000   0.000  -0.000
  0.000   0.000   0.000   0.000   0.000  -0.000  -0.000  -0.000   2.881   0.000   0.000   0.000   0.000  -1.531  -0.000   0.000
  0.000   0.000   0.000   0.000   0.000  -0.000  -0.000  -0.000  -0.000   2.881   0.000   0.000  -0.000   0.000  -1.531   0.000
  0.000  -0.000  -0.000   0.000   0.000   0.000  -0.000  -0.000  -0.000   0.000   1.818   0.000  -0.000  -0.000   0.000  -0.959
 -0.000  -0.000  -0.000   0.000   0.000  -0.000  -0.000   0.000  -0.000   0.000  -0.000   2.881   0.000   0.000  -0.000   0.000
 -0.000   0.000  -0.000   0.000   0.000   0.000   0.000  -0.000   0.000  -0.000   0.000   0.000   1.818   0.000   0.000  -0.000
  0.000   0.000   0.000   0.000  -0.000  -0.000   0.000  -0.000  -1.531   0.000   0.000   0.000   0.000   0.816   0.000   0.000
  0.000   0.000   0.000   0.000   0.000  -0.000  -0.000  -0.000   0.000  -1.531   0.000   0.000   0.000  -0.000   0.816   0.000
  0.000   0.000   0.000  -0.000   0.000   0.000  -0.000   0.000   0.000   0.000  -0.959   0.000   0.000   0.000   0.000   0.507
 -0.000  -0.000   0.000   0.000   0.000   0.000  -0.000  -0.000  -0.000   0.000  -0.000  -1.531   0.000  -0.000  -0.000  -0.000
  0.000   0.000   0.000   0.000   0.000   0.000   0.000  -0.000   0.000   0.000  -0.000   0.000  -0.959  -0.000   0.000   0.000
 total augmentation occupancy for first ion, spin component:           2
 -0.000  -0.000   0.000   0.000   0.000   0.000  -0.000   0.000   0.000   0.000   0.000  -0.000   0.000  -0.000   0.000   0.000
 -0.000   0.000   0.000  -0.000   0.000  -0.000   0.000  -0.000   0.000   0.000  -0.000   0.000   0.000   0.000   0.000   0.000
  0.000   0.000  -0.000   0.000   0.000  -0.000  -0.000   0.000   0.000   0.000   0.000  -0.000  -0.000  -0.000   0.000   0.000
  0.000   0.000   0.000  -0.000  -0.000   0.000  -0.000   0.000   0.000   0.000   0.000   0.000   0.000   0.000   0.000  -0.000
 -0.000  -0.000   0.000  -0.000  -0.000  -0.000   0.000  -0.000   0.000   0.000  -0.000  -0.000   0.000  -0.000   0.000   0.000
  0.000   0.000  -0.000   0.000  -0.000   0.000   0.000   0.000  -0.000   0.000   0.000   0.000   0.000   0.000   0.000  -0.000
 -0.000  -0.000  -0.000  -0.000   0.000   0.000   0.000   0.000   0.000   0.000   0.000   0.000   0.000   0.000  -0.000   0.000
  0.000   0.000   0.000   0.000  -0.000   0.000   0.000   0.000   0.000  -0.000   0.000   0.000   0.000   0.000  -0.000   0.000
  0.000   0.000  -0.000   0.000   0.000  -0.000   0.000  -0.000  -0.000  -0.000  -0.000   0.000   0.000   0.000  -0.000  -0.000
  0.000   0.000   0.000   0.000   0.000   0.000  -0.000  -0.000  -0.000  -0.000  -0.000   0.000   0.000   0.000   0.000   0.000
  0.000  -0.000   0.000  -0.000   0.000  -0.000  -0.000   0.000  -0.000  -0.000   0.000   0.000  -0.000   0.000  -0.000  -0.000
 -0.000   0.000   0.000   0.000  -0.000   0.000   0.000   0.000   0.000   0.000  -0.000  -0.000  -0.000  -0.000   0.000  -0.000
  0.000   0.000   0.000   0.000  -0.000   0.000  -0.000  -0.000  -0.000  -0.000  -0.000  -0.000   0.000  -0.000  -0.000   0.000
 -0.000   0.000   0.000   0.000   0.000  -0.000   0.000   0.000   0.000   0.000   0.000  -0.000  -0.000  -0.000  -0.000  -0.000
  0.000   0.000   0.000   0.000   0.000  -0.000  -0.000   0.000  -0.000   0.000  -0.000   0.000  -0.000  -0.000  -0.000   0.000
  0.000   0.000   0.000   0.000  -0.000   0.000  -0.000   0.000  -0.000  -0.000  -0.000  -0.000   0.000  -0.000   0.000   0.000
  0.000   0.000  -0.000   0.000  -0.000  -0.000  -0.000   0.000  -0.000  -0.000  -0.000   0.000  -0.000   0.000   0.000   0.000
  0.000   0.000   0.000   0.000   0.000  -0.000   0.000   0.000  -0.000   0.000   0.000  -0.000  -0.000   0.000  -0.000   0.000


------------------------ aborting loop because EDIFF is reached ----------------------------------------


     CALCP:  cpu time  148.29: real time  148.65
 
            Ionic dipole moment: p[ion]=(     0.00000     0.00000    43.93437 ) electrons Angst
 
    Spin resolved dipole moment: p[sp1]=(     2.01652    -2.01652    -1.80196 ) electrons Angst
                                 p[sp2]=(     2.01652    -2.01652    -1.80196 ) electrons Angst
 
 Total electronic dipole moment: p[elc]=(     4.03304    -4.03304    -3.60393 ) electrons Angst
 
 
 


 total charge     
 
# of ion     s       p       d       tot
----------------------------------------
  1        2.006   5.649   0.315   7.970
  2        0.295   6.413   1.868   8.576
  3        1.579   3.251   0.000   4.830
  4        1.566   3.422   0.000   4.988
  5        1.544   3.691   0.000   5.236
------------------------------------------------
tot        6.991  22.426   2.183  31.600
 


 magnetization (x)
 
# of ion     s       p       d       tot
----------------------------------------
  1       -0.000   0.000   0.000   0.000
  2       -0.000   0.000   0.000   0.000
  3       -0.000  -0.000   0.000  -0.000
  4       -0.000  -0.000   0.000  -0.000
  5       -0.000  -0.000   0.000  -0.000
------------------------------------------------
tot       -0.000  -0.000   0.000  -0.000
 
    CHARGE:  cpu time    0.39: real time    0.39
    FORLOC:  cpu time    0.00: real time    0.00
    FORNL :  cpu time    1.69: real time    1.69
    STRESS:  cpu time    5.10: real time    5.10
    FORCOR:  cpu time    0.08: real time    0.08
    FORHAR:  cpu time    0.01: real time    0.01
    MIXING:  cpu time    0.00: real time    0.00
    OFIELD:  cpu time    0.00: real time    0.00

  FORCE on cell =-STRESS in cart. coord.  units (eV):
  Direction    XX          YY          ZZ          XY          YZ          ZX
  --------------------------------------------------------------------------------------
  Alpha Z   255.43340   255.43340   255.43340
  Ewald    -835.69035  -835.69035  -835.69035    -0.00000    -0.00000     0.00000
  Hartree   212.62235   212.62235   212.62237    -0.00000    -0.00000    -0.00000
  E(xc)    -171.33240  -171.33240  -171.33240    -0.00000     0.00000     0.00000
  Local     -23.78557   -23.78557   -23.78565    -0.00000    -0.00000    -0.00000
  n-local  -130.05919  -127.92464  -125.71465    -0.30918    -0.36684    -0.20260
  augment    63.31443    63.31443    63.31409     0.00000    -0.00000     0.00000
  Kinetic   617.31769   630.21383   634.52662    -2.74908    -3.39880    -1.81569
  Fock        0.00000     0.00000     0.00000     0.00000     0.00000     0.00000
  -------------------------------------------------------------------------------------
  Total       0.01494     0.01494     0.01494     0.00000     0.00000    -0.00000
  in kB       0.36501     0.36501     0.36501     0.00000     0.00000    -0.00000
  external pressure =        0.37 kB  Pullay stress =        0.00 kB


 VOLUME and BASIS-vectors are now :
 -----------------------------------------------------------------------------
  energy-cutoff  :      520.00
  volume of cell :       65.60
      direct lattice vectors                 reciprocal lattice vectors
     4.033044000  0.000000000  0.000000000     0.247951671  0.000000000  0.000000000
     0.000000000  4.033044000  0.000000000     0.000000000  0.247951671  0.000000000
     0.000000000  0.000000000  4.033044000     0.000000000  0.000000000  0.247951671

  length of vectors
     4.033044000  4.033044000  4.033044000     0.247951671  0.247951671  0.247951671


 FORCES acting on ions
    electron-ion (+dipol)            ewald-force                    non-local-force                 convergence-correction
 -----------------------------------------------------------------------------------------------
   -.683E-14 -.814E-14 0.361E-05   -.710E-14 -.618E-14 -.138E-13   -.339E-20 0.278E-20 0.000E+00   -.123E-13 -.462E-14 -.343E-09
   0.169E-12 0.179E-11 -.372E-04   -.178E-14 0.146E-13 -.201E-14   0.000E+00 0.741E-21 -.169E-20   0.427E-14 -.218E-13 0.518E-09
   -.991E-14 0.455E-13 -.203E-04   0.298E-14 0.269E-14 0.484E-14   -.271E-19 0.961E-20 0.271E-19   0.727E-14 -.370E-13 0.496E-08
   0.128E-12 -.127E-13 -.203E-04   0.242E-14 -.140E-13 0.488E-14   0.000E+00 0.145E-19 0.813E-19   -.162E-13 0.231E-13 0.496E-08
   0.128E-12 0.162E-11 0.302E-04   0.274E-14 0.196E-14 0.635E-14   0.271E-19 -.249E-19 -.542E-19   -.231E-13 -.368E-13 -.187E-08
 -----------------------------------------------------------------------------------------------
   0.408E-12 0.343E-11 -.441E-04   -.742E-15 -.920E-15 0.245E-15   -.339E-20 0.273E-20 0.525E-19   -.400E-13 -.772E-13 0.823E-08
 
 
 POSITION                                       TOTAL-FORCE (eV/Angst)
 -----------------------------------------------------------------------------------
      0.00000      0.00000      0.01129         0.000000     -0.000000      0.000000
      2.01652      2.01652      2.02781         0.000000     -0.000000     -0.000000
      0.00000      2.01652      2.02781        -0.000000     -0.000000      0.000000
      2.01652      0.00000      2.02781         0.000000      0.000000     -0.000000
      2.01652      2.01652      0.01129         0.000000      0.000000      0.000000
 -----------------------------------------------------------------------------------
    total drift:                                0.000000      0.000000     -0.000044


--------------------------------------------------------------------------------------------------------



  FREE ENERGIE OF THE ION-ELECTRON SYSTEM (eV)
  ---------------------------------------------------
  free  energy   TOTEN  =       -39.88690245 eV

  energy  without entropy=      -39.88690245  energy(sigma->0) =      -39.88690245
 


--------------------------------------------------------------------------------------------------------


    POTLOK:  cpu time    0.10: real time    0.10


--------------------------------------------------------------------------------------------------------


     LOOP+:  cpu time  182.31: real time  182.74
    4ORBIT:  cpu time    0.00: real time    0.00
 


 total charge     
 
# of ion     s       p       d       tot
----------------------------------------
  1        2.006   5.649   0.315   7.970
  2        0.295   6.413   1.868   8.576
  3        1.579   3.251   0.000   4.830
  4        1.566   3.422   0.000   4.988
  5        1.544   3.691   0.000   5.236
------------------------------------------------
tot        6.991  22.426   2.183  31.600
 


 magnetization (x)
 
# of ion     s       p       d       tot
----------------------------------------
  1       -0.000   0.000   0.000   0.000
  2       -0.000   0.000   0.000   0.000
  3       -0.000  -0.000   0.000  -0.000
  4       -0.000  -0.000   0.000  -0.000
  5       -0.000  -0.000   0.000  -0.000
------------------------------------------------
tot       -0.000  -0.000   0.000  -0.000
 
 BZINTS: Fermi energy:  3.071357; 38.000000 electrons
         Band energy:-328.000364;  BLOECHL correction:  0.000000

 total amount of memory used by VASP on root node    45627. kBytes
========================================================================

   base      :      30000. kBytes
   nonlr-proj:       3348. kBytes
   fftplans  :       1096. kBytes
   grid      :       4792. kBytes
   one-center:        155. kBytes
   wavefun   :       6236. kBytes
 
  
  
 General timing and accounting informations for this job:
 ========================================================
  
                  Total CPU time used (sec):      191.446
                            User time (sec):      179.124
                          System time (sec):       12.322
                         Elapsed time (sec):      193.042
  
                   Maximum memory used (kb):      108260.
                   Average memory used (kb):           0.
  
                          Minor page faults:      3784254
                          Major page faults:            6
                 Voluntary context switches:          760
