<?xml version="1.0" encoding="ISO-8859-1"?>
<modeling>
 <generator>
  <i name="program" type="string">vasp </i>
  <i name="version" type="string">5.2.2  </i>
  <i name="subversion" type="string">15Apr09 complex  parallel </i>
  <i name="platform" type="string">unknown </i>
  <i name="date" type="string">2012 01 31 </i>
  <i name="time" type="string">14:33:20 </i>
 </generator>
 <incar>
  <i type="string" name="SYSTEM"> Al</i>
  <i type="int" name="ISTART">     1</i>
  <i type="string" name="PREC">accurate</i>
  <i type="logical" name="ADDGRID"> F  </i>
  <i type="int" name="ISPIN">     1</i>
  <i type="int" name="ICHARG">     1</i>
  <i type="int" name="IBRION">     2</i>
  <i name="EDIFF">      0.00000010</i>
  <i name="EDIFFG">      0.00000010</i>
  <i type="int" name="NSW">     5</i>
  <i type="int" name="ISIF">     2</i>
  <i name="ENCUT">    550.00000000</i>
  <i name="POTIM">      0.10000000</i>
  <i type="string" name="LREAL"> AUTO</i>
  <i type="int" name="ISMEAR">     2</i>
  <i name="SIGMA">      0.10000000</i>
  <i type="logical" name="LWAVE"> F  </i>
  <i type="logical" name="LPEAD"> F  </i>
  <i type="logical" name="LCALCPOL"> F  </i>
  <i type="logical" name="LCALCEPS"> F  </i>
  <v name="EFIELD_PEAD">      0.00000000      0.00000000      0.00000000</v>
  <i type="int" name="VOSKOWN">     1</i>
  <i type="logical" name="LEFG"> F  </i>
 </incar>
 <kpoints>
  <generation param="Gamma">
   <v type="int" name="divisions">      20       20       20 </v>
   <v name="usershift">      0.00000000       0.00000000       0.00000000 </v>
   <v name="genvec1">      0.05000000       0.00000000       0.00000000 </v>
   <v name="genvec2">      0.00000000       0.05000000       0.00000000 </v>
   <v name="genvec3">      0.00000000       0.00000000       0.05000000 </v>
   <v name="shift">      0.00000000       0.00000000       0.00000000 </v>
  </generation>
  <varray name="kpointlist" >
   <v>       0.00000000       0.00000000       0.00000000 </v>
   <v>       0.05000000       0.00000000       0.00000000 </v>
   <v>       0.10000000       0.00000000       0.00000000 </v>
   <v>       0.15000000       0.00000000       0.00000000 </v>
   <v>       0.20000000       0.00000000       0.00000000 </v>
   <v>       0.25000000       0.00000000       0.00000000 </v>
   <v>       0.30000000       0.00000000       0.00000000 </v>
   <v>       0.35000000       0.00000000       0.00000000 </v>
   <v>       0.40000000       0.00000000       0.00000000 </v>
   <v>       0.45000000       0.00000000       0.00000000 </v>
   <v>       0.50000000       0.00000000       0.00000000 </v>
   <v>       0.00000000       0.05000000       0.00000000 </v>
   <v>       0.05000000       0.05000000       0.00000000 </v>
   <v>       0.10000000       0.05000000       0.00000000 </v>
   <v>       0.15000000       0.05000000       0.00000000 </v>
   <v>       0.20000000       0.05000000       0.00000000 </v>
   <v>       0.25000000       0.05000000       0.00000000 </v>
   <v>       0.30000000       0.05000000       0.00000000 </v>
   <v>       0.35000000       0.05000000       0.00000000 </v>
   <v>       0.40000000       0.05000000       0.00000000 </v>
   <v>       0.45000000       0.05000000       0.00000000 </v>
   <v>       0.50000000       0.05000000       0.00000000 </v>
   <v>       0.00000000       0.10000000       0.00000000 </v>
   <v>       0.05000000       0.10000000       0.00000000 </v>
   <v>       0.10000000       0.10000000       0.00000000 </v>
   <v>       0.15000000       0.10000000       0.00000000 </v>
   <v>       0.20000000       0.10000000       0.00000000 </v>
   <v>       0.25000000       0.10000000       0.00000000 </v>
   <v>       0.30000000       0.10000000       0.00000000 </v>
   <v>       0.35000000       0.10000000       0.00000000 </v>
   <v>       0.40000000       0.10000000       0.00000000 </v>
   <v>       0.45000000       0.10000000       0.00000000 </v>
   <v>       0.50000000       0.10000000       0.00000000 </v>
   <v>       0.00000000       0.15000000       0.00000000 </v>
   <v>       0.05000000       0.15000000       0.00000000 </v>
   <v>       0.10000000       0.15000000       0.00000000 </v>
   <v>       0.15000000       0.15000000       0.00000000 </v>
   <v>       0.20000000       0.15000000       0.00000000 </v>
   <v>       0.25000000       0.15000000       0.00000000 </v>
   <v>       0.30000000       0.15000000       0.00000000 </v>
   <v>       0.35000000       0.15000000       0.00000000 </v>
   <v>       0.40000000       0.15000000       0.00000000 </v>
   <v>       0.45000000       0.15000000       0.00000000 </v>
   <v>       0.50000000       0.15000000       0.00000000 </v>
   <v>       0.00000000       0.20000000       0.00000000 </v>
   <v>       0.05000000       0.20000000       0.00000000 </v>
   <v>       0.10000000       0.20000000       0.00000000 </v>
   <v>       0.15000000       0.20000000       0.00000000 </v>
   <v>       0.20000000       0.20000000       0.00000000 </v>
   <v>       0.25000000       0.20000000       0.00000000 </v>
   <v>       0.30000000       0.20000000       0.00000000 </v>
   <v>       0.35000000       0.20000000       0.00000000 </v>
   <v>       0.40000000       0.20000000       0.00000000 </v>
   <v>       0.45000000       0.20000000       0.00000000 </v>
   <v>       0.50000000       0.20000000       0.00000000 </v>
   <v>       0.00000000       0.25000000       0.00000000 </v>
   <v>       0.05000000       0.25000000       0.00000000 </v>
   <v>       0.10000000       0.25000000       0.00000000 </v>
   <v>       0.15000000       0.25000000       0.00000000 </v>
   <v>       0.20000000       0.25000000       0.00000000 </v>
   <v>       0.25000000       0.25000000       0.00000000 </v>
   <v>       0.30000000       0.25000000       0.00000000 </v>
   <v>       0.35000000       0.25000000       0.00000000 </v>
   <v>       0.40000000       0.25000000       0.00000000 </v>
   <v>       0.45000000       0.25000000       0.00000000 </v>
   <v>       0.50000000       0.25000000       0.00000000 </v>
   <v>       0.00000000       0.30000000       0.00000000 </v>
   <v>       0.05000000       0.30000000       0.00000000 </v>
   <v>       0.10000000       0.30000000       0.00000000 </v>
   <v>       0.15000000       0.30000000       0.00000000 </v>
   <v>       0.20000000       0.30000000       0.00000000 </v>
   <v>       0.25000000       0.30000000       0.00000000 </v>
   <v>       0.30000000       0.30000000       0.00000000 </v>
   <v>       0.35000000       0.30000000       0.00000000 </v>
   <v>       0.40000000       0.30000000       0.00000000 </v>
   <v>       0.45000000       0.30000000       0.00000000 </v>
   <v>       0.50000000       0.30000000       0.00000000 </v>
   <v>       0.00000000       0.35000000       0.00000000 </v>
   <v>       0.05000000       0.35000000       0.00000000 </v>
   <v>       0.10000000       0.35000000       0.00000000 </v>
   <v>       0.15000000       0.35000000       0.00000000 </v>
   <v>       0.20000000       0.35000000       0.00000000 </v>
   <v>       0.25000000       0.35000000       0.00000000 </v>
   <v>       0.30000000       0.35000000       0.00000000 </v>
   <v>       0.35000000       0.35000000       0.00000000 </v>
   <v>       0.40000000       0.35000000       0.00000000 </v>
   <v>       0.45000000       0.35000000       0.00000000 </v>
   <v>       0.50000000       0.35000000       0.00000000 </v>
   <v>       0.00000000       0.40000000       0.00000000 </v>
   <v>       0.05000000       0.40000000       0.00000000 </v>
   <v>       0.10000000       0.40000000       0.00000000 </v>
   <v>       0.15000000       0.40000000       0.00000000 </v>
   <v>       0.20000000       0.40000000       0.00000000 </v>
   <v>       0.25000000       0.40000000       0.00000000 </v>
   <v>       0.30000000       0.40000000       0.00000000 </v>
   <v>       0.35000000       0.40000000       0.00000000 </v>
   <v>       0.40000000       0.40000000       0.00000000 </v>
   <v>       0.45000000       0.40000000       0.00000000 </v>
   <v>       0.50000000       0.40000000       0.00000000 </v>
   <v>       0.00000000       0.45000000       0.00000000 </v>
   <v>       0.05000000       0.45000000       0.00000000 </v>
   <v>       0.10000000       0.45000000       0.00000000 </v>
   <v>       0.15000000       0.45000000       0.00000000 </v>
   <v>       0.20000000       0.45000000       0.00000000 </v>
   <v>       0.25000000       0.45000000       0.00000000 </v>
   <v>       0.30000000       0.45000000       0.00000000 </v>
   <v>       0.35000000       0.45000000       0.00000000 </v>
   <v>       0.40000000       0.45000000       0.00000000 </v>
   <v>       0.45000000       0.45000000       0.00000000 </v>
   <v>       0.50000000       0.45000000       0.00000000 </v>
   <v>       0.00000000       0.50000000       0.00000000 </v>
   <v>       0.05000000       0.50000000       0.00000000 </v>
   <v>       0.10000000       0.50000000       0.00000000 </v>
   <v>       0.15000000       0.50000000       0.00000000 </v>
   <v>       0.20000000       0.50000000       0.00000000 </v>
   <v>       0.25000000       0.50000000       0.00000000 </v>
   <v>       0.30000000       0.50000000       0.00000000 </v>
   <v>       0.35000000       0.50000000       0.00000000 </v>
   <v>       0.40000000       0.50000000       0.00000000 </v>
   <v>       0.45000000       0.50000000       0.00000000 </v>
   <v>       0.50000000       0.50000000       0.00000000 </v>
   <v>       0.05000000       0.00000000       0.05000000 </v>
   <v>       0.10000000       0.00000000       0.05000000 </v>
   <v>       0.15000000       0.00000000       0.05000000 </v>
   <v>       0.20000000       0.00000000       0.05000000 </v>
   <v>       0.25000000       0.00000000       0.05000000 </v>
   <v>       0.30000000       0.00000000       0.05000000 </v>
   <v>       0.35000000       0.00000000       0.05000000 </v>
   <v>       0.40000000       0.00000000       0.05000000 </v>
   <v>       0.45000000       0.00000000       0.05000000 </v>
   <v>       0.50000000       0.00000000       0.05000000 </v>
   <v>       0.05000000       0.05000000       0.05000000 </v>
   <v>       0.10000000       0.05000000       0.05000000 </v>
   <v>       0.15000000       0.05000000       0.05000000 </v>
   <v>       0.20000000       0.05000000       0.05000000 </v>
   <v>       0.25000000       0.05000000       0.05000000 </v>
   <v>       0.30000000       0.05000000       0.05000000 </v>
   <v>       0.35000000       0.05000000       0.05000000 </v>
   <v>       0.40000000       0.05000000       0.05000000 </v>
   <v>       0.45000000       0.05000000       0.05000000 </v>
   <v>       0.50000000       0.05000000       0.05000000 </v>
   <v>       0.05000000       0.10000000       0.05000000 </v>
   <v>       0.10000000       0.10000000       0.05000000 </v>
   <v>       0.15000000       0.10000000       0.05000000 </v>
   <v>       0.20000000       0.10000000       0.05000000 </v>
   <v>       0.25000000       0.10000000       0.05000000 </v>
   <v>       0.30000000       0.10000000       0.05000000 </v>
   <v>       0.35000000       0.10000000       0.05000000 </v>
   <v>       0.40000000       0.10000000       0.05000000 </v>
   <v>       0.45000000       0.10000000       0.05000000 </v>
   <v>       0.50000000       0.10000000       0.05000000 </v>
   <v>       0.05000000       0.15000000       0.05000000 </v>
   <v>       0.10000000       0.15000000       0.05000000 </v>
   <v>       0.15000000       0.15000000       0.05000000 </v>
   <v>       0.20000000       0.15000000       0.05000000 </v>
   <v>       0.25000000       0.15000000       0.05000000 </v>
   <v>       0.30000000       0.15000000       0.05000000 </v>
   <v>       0.35000000       0.15000000       0.05000000 </v>
   <v>       0.40000000       0.15000000       0.05000000 </v>
   <v>       0.45000000       0.15000000       0.05000000 </v>
   <v>       0.50000000       0.15000000       0.05000000 </v>
   <v>       0.05000000       0.20000000       0.05000000 </v>
   <v>       0.10000000       0.20000000       0.05000000 </v>
   <v>       0.15000000       0.20000000       0.05000000 </v>
   <v>       0.20000000       0.20000000       0.05000000 </v>
   <v>       0.25000000       0.20000000       0.05000000 </v>
   <v>       0.30000000       0.20000000       0.05000000 </v>
   <v>       0.35000000       0.20000000       0.05000000 </v>
   <v>       0.40000000       0.20000000       0.05000000 </v>
   <v>       0.45000000       0.20000000       0.05000000 </v>
   <v>       0.50000000       0.20000000       0.05000000 </v>
   <v>       0.05000000       0.25000000       0.05000000 </v>
   <v>       0.10000000       0.25000000       0.05000000 </v>
   <v>       0.15000000       0.25000000       0.05000000 </v>
   <v>       0.20000000       0.25000000       0.05000000 </v>
   <v>       0.25000000       0.25000000       0.05000000 </v>
   <v>       0.30000000       0.25000000       0.05000000 </v>
   <v>       0.35000000       0.25000000       0.05000000 </v>
   <v>       0.40000000       0.25000000       0.05000000 </v>
   <v>       0.45000000       0.25000000       0.05000000 </v>
   <v>       0.50000000       0.25000000       0.05000000 </v>
   <v>       0.05000000       0.30000000       0.05000000 </v>
   <v>       0.10000000       0.30000000       0.05000000 </v>
   <v>       0.15000000       0.30000000       0.05000000 </v>
   <v>       0.20000000       0.30000000       0.05000000 </v>
   <v>       0.25000000       0.30000000       0.05000000 </v>
   <v>       0.30000000       0.30000000       0.05000000 </v>
   <v>       0.35000000       0.30000000       0.05000000 </v>
   <v>       0.40000000       0.30000000       0.05000000 </v>
   <v>       0.45000000       0.30000000       0.05000000 </v>
   <v>       0.50000000       0.30000000       0.05000000 </v>
   <v>       0.05000000       0.35000000       0.05000000 </v>
   <v>       0.10000000       0.35000000       0.05000000 </v>
   <v>       0.15000000       0.35000000       0.05000000 </v>
   <v>       0.20000000       0.35000000       0.05000000 </v>
   <v>       0.25000000       0.35000000       0.05000000 </v>
   <v>       0.30000000       0.35000000       0.05000000 </v>
   <v>       0.35000000       0.35000000       0.05000000 </v>
   <v>       0.40000000       0.35000000       0.05000000 </v>
   <v>       0.45000000       0.35000000       0.05000000 </v>
   <v>       0.50000000       0.35000000       0.05000000 </v>
   <v>       0.05000000       0.40000000       0.05000000 </v>
   <v>       0.10000000       0.40000000       0.05000000 </v>
   <v>       0.15000000       0.40000000       0.05000000 </v>
   <v>       0.20000000       0.40000000       0.05000000 </v>
   <v>       0.25000000       0.40000000       0.05000000 </v>
   <v>       0.30000000       0.40000000       0.05000000 </v>
   <v>       0.35000000       0.40000000       0.05000000 </v>
   <v>       0.40000000       0.40000000       0.05000000 </v>
   <v>       0.45000000       0.40000000       0.05000000 </v>
   <v>       0.50000000       0.40000000       0.05000000 </v>
   <v>       0.05000000       0.45000000       0.05000000 </v>
   <v>       0.10000000       0.45000000       0.05000000 </v>
   <v>       0.15000000       0.45000000       0.05000000 </v>
   <v>       0.20000000       0.45000000       0.05000000 </v>
   <v>       0.25000000       0.45000000       0.05000000 </v>
   <v>       0.30000000       0.45000000       0.05000000 </v>
   <v>       0.35000000       0.45000000       0.05000000 </v>
   <v>       0.40000000       0.45000000       0.05000000 </v>
   <v>       0.45000000       0.45000000       0.05000000 </v>
   <v>       0.50000000       0.45000000       0.05000000 </v>
   <v>       0.05000000       0.50000000       0.05000000 </v>
   <v>       0.10000000       0.50000000       0.05000000 </v>
   <v>       0.15000000       0.50000000       0.05000000 </v>
   <v>       0.20000000       0.50000000       0.05000000 </v>
   <v>       0.25000000       0.50000000       0.05000000 </v>
   <v>       0.30000000       0.50000000       0.05000000 </v>
   <v>       0.35000000       0.50000000       0.05000000 </v>
   <v>       0.40000000       0.50000000       0.05000000 </v>
   <v>       0.45000000       0.50000000       0.05000000 </v>
   <v>       0.50000000       0.50000000       0.05000000 </v>
   <v>       0.10000000       0.00000000       0.10000000 </v>
   <v>       0.15000000       0.00000000       0.10000000 </v>
   <v>       0.20000000       0.00000000       0.10000000 </v>
   <v>       0.25000000       0.00000000       0.10000000 </v>
   <v>       0.30000000       0.00000000       0.10000000 </v>
   <v>       0.35000000       0.00000000       0.10000000 </v>
   <v>       0.40000000       0.00000000       0.10000000 </v>
   <v>       0.45000000       0.00000000       0.10000000 </v>
   <v>       0.50000000       0.00000000       0.10000000 </v>
   <v>       0.10000000       0.05000000       0.10000000 </v>
   <v>       0.15000000       0.05000000       0.10000000 </v>
   <v>       0.20000000       0.05000000       0.10000000 </v>
   <v>       0.25000000       0.05000000       0.10000000 </v>
   <v>       0.30000000       0.05000000       0.10000000 </v>
   <v>       0.35000000       0.05000000       0.10000000 </v>
   <v>       0.40000000       0.05000000       0.10000000 </v>
   <v>       0.45000000       0.05000000       0.10000000 </v>
   <v>       0.50000000       0.05000000       0.10000000 </v>
   <v>       0.10000000       0.10000000       0.10000000 </v>
   <v>       0.15000000       0.10000000       0.10000000 </v>
   <v>       0.20000000       0.10000000       0.10000000 </v>
   <v>       0.25000000       0.10000000       0.10000000 </v>
   <v>       0.30000000       0.10000000       0.10000000 </v>
   <v>       0.35000000       0.10000000       0.10000000 </v>
   <v>       0.40000000       0.10000000       0.10000000 </v>
   <v>       0.45000000       0.10000000       0.10000000 </v>
   <v>       0.50000000       0.10000000       0.10000000 </v>
   <v>       0.10000000       0.15000000       0.10000000 </v>
   <v>       0.15000000       0.15000000       0.10000000 </v>
   <v>       0.20000000       0.15000000       0.10000000 </v>
   <v>       0.25000000       0.15000000       0.10000000 </v>
   <v>       0.30000000       0.15000000       0.10000000 </v>
   <v>       0.35000000       0.15000000       0.10000000 </v>
   <v>       0.40000000       0.15000000       0.10000000 </v>
   <v>       0.45000000       0.15000000       0.10000000 </v>
   <v>       0.50000000       0.15000000       0.10000000 </v>
   <v>       0.10000000       0.20000000       0.10000000 </v>
   <v>       0.15000000       0.20000000       0.10000000 </v>
   <v>       0.20000000       0.20000000       0.10000000 </v>
   <v>       0.25000000       0.20000000       0.10000000 </v>
   <v>       0.30000000       0.20000000       0.10000000 </v>
   <v>       0.35000000       0.20000000       0.10000000 </v>
   <v>       0.40000000       0.20000000       0.10000000 </v>
   <v>       0.45000000       0.20000000       0.10000000 </v>
   <v>       0.50000000       0.20000000       0.10000000 </v>
   <v>       0.10000000       0.25000000       0.10000000 </v>
   <v>       0.15000000       0.25000000       0.10000000 </v>
   <v>       0.20000000       0.25000000       0.10000000 </v>
   <v>       0.25000000       0.25000000       0.10000000 </v>
   <v>       0.30000000       0.25000000       0.10000000 </v>
   <v>       0.35000000       0.25000000       0.10000000 </v>
   <v>       0.40000000       0.25000000       0.10000000 </v>
   <v>       0.45000000       0.25000000       0.10000000 </v>
   <v>       0.50000000       0.25000000       0.10000000 </v>
   <v>       0.10000000       0.30000000       0.10000000 </v>
   <v>       0.15000000       0.30000000       0.10000000 </v>
   <v>       0.20000000       0.30000000       0.10000000 </v>
   <v>       0.25000000       0.30000000       0.10000000 </v>
   <v>       0.30000000       0.30000000       0.10000000 </v>
   <v>       0.35000000       0.30000000       0.10000000 </v>
   <v>       0.40000000       0.30000000       0.10000000 </v>
   <v>       0.45000000       0.30000000       0.10000000 </v>
   <v>       0.50000000       0.30000000       0.10000000 </v>
   <v>       0.10000000       0.35000000       0.10000000 </v>
   <v>       0.15000000       0.35000000       0.10000000 </v>
   <v>       0.20000000       0.35000000       0.10000000 </v>
   <v>       0.25000000       0.35000000       0.10000000 </v>
   <v>       0.30000000       0.35000000       0.10000000 </v>
   <v>       0.35000000       0.35000000       0.10000000 </v>
   <v>       0.40000000       0.35000000       0.10000000 </v>
   <v>       0.45000000       0.35000000       0.10000000 </v>
   <v>       0.50000000       0.35000000       0.10000000 </v>
   <v>       0.10000000       0.40000000       0.10000000 </v>
   <v>       0.15000000       0.40000000       0.10000000 </v>
   <v>       0.20000000       0.40000000       0.10000000 </v>
   <v>       0.25000000       0.40000000       0.10000000 </v>
   <v>       0.30000000       0.40000000       0.10000000 </v>
   <v>       0.35000000       0.40000000       0.10000000 </v>
   <v>       0.40000000       0.40000000       0.10000000 </v>
   <v>       0.45000000       0.40000000       0.10000000 </v>
   <v>       0.50000000       0.40000000       0.10000000 </v>
   <v>       0.10000000       0.45000000       0.10000000 </v>
   <v>       0.15000000       0.45000000       0.10000000 </v>
   <v>       0.20000000       0.45000000       0.10000000 </v>
   <v>       0.25000000       0.45000000       0.10000000 </v>
   <v>       0.30000000       0.45000000       0.10000000 </v>
   <v>       0.35000000       0.45000000       0.10000000 </v>
   <v>       0.40000000       0.45000000       0.10000000 </v>
   <v>       0.45000000       0.45000000       0.10000000 </v>
   <v>       0.50000000       0.45000000       0.10000000 </v>
   <v>       0.10000000       0.50000000       0.10000000 </v>
   <v>       0.15000000       0.50000000       0.10000000 </v>
   <v>       0.20000000       0.50000000       0.10000000 </v>
   <v>       0.25000000       0.50000000       0.10000000 </v>
   <v>       0.30000000       0.50000000       0.10000000 </v>
   <v>       0.35000000       0.50000000       0.10000000 </v>
   <v>       0.40000000       0.50000000       0.10000000 </v>
   <v>       0.45000000       0.50000000       0.10000000 </v>
   <v>       0.50000000       0.50000000       0.10000000 </v>
   <v>       0.15000000       0.00000000       0.15000000 </v>
   <v>       0.20000000       0.00000000       0.15000000 </v>
   <v>       0.25000000       0.00000000       0.15000000 </v>
   <v>       0.30000000       0.00000000       0.15000000 </v>
   <v>       0.35000000       0.00000000       0.15000000 </v>
   <v>       0.40000000       0.00000000       0.15000000 </v>
   <v>       0.45000000       0.00000000       0.15000000 </v>
   <v>       0.50000000       0.00000000       0.15000000 </v>
   <v>       0.15000000       0.05000000       0.15000000 </v>
   <v>       0.20000000       0.05000000       0.15000000 </v>
   <v>       0.25000000       0.05000000       0.15000000 </v>
   <v>       0.30000000       0.05000000       0.15000000 </v>
   <v>       0.35000000       0.05000000       0.15000000 </v>
   <v>       0.40000000       0.05000000       0.15000000 </v>
   <v>       0.45000000       0.05000000       0.15000000 </v>
   <v>       0.50000000       0.05000000       0.15000000 </v>
   <v>       0.15000000       0.10000000       0.15000000 </v>
   <v>       0.20000000       0.10000000       0.15000000 </v>
   <v>       0.25000000       0.10000000       0.15000000 </v>
   <v>       0.30000000       0.10000000       0.15000000 </v>
   <v>       0.35000000       0.10000000       0.15000000 </v>
   <v>       0.40000000       0.10000000       0.15000000 </v>
   <v>       0.45000000       0.10000000       0.15000000 </v>
   <v>       0.50000000       0.10000000       0.15000000 </v>
   <v>       0.15000000       0.15000000       0.15000000 </v>
   <v>       0.20000000       0.15000000       0.15000000 </v>
   <v>       0.25000000       0.15000000       0.15000000 </v>
   <v>       0.30000000       0.15000000       0.15000000 </v>
   <v>       0.35000000       0.15000000       0.15000000 </v>
   <v>       0.40000000       0.15000000       0.15000000 </v>
   <v>       0.45000000       0.15000000       0.15000000 </v>
   <v>       0.50000000       0.15000000       0.15000000 </v>
   <v>       0.15000000       0.20000000       0.15000000 </v>
   <v>       0.20000000       0.20000000       0.15000000 </v>
   <v>       0.25000000       0.20000000       0.15000000 </v>
   <v>       0.30000000       0.20000000       0.15000000 </v>
   <v>       0.35000000       0.20000000       0.15000000 </v>
   <v>       0.40000000       0.20000000       0.15000000 </v>
   <v>       0.45000000       0.20000000       0.15000000 </v>
   <v>       0.50000000       0.20000000       0.15000000 </v>
   <v>       0.15000000       0.25000000       0.15000000 </v>
   <v>       0.20000000       0.25000000       0.15000000 </v>
   <v>       0.25000000       0.25000000       0.15000000 </v>
   <v>       0.30000000       0.25000000       0.15000000 </v>
   <v>       0.35000000       0.25000000       0.15000000 </v>
   <v>       0.40000000       0.25000000       0.15000000 </v>
   <v>       0.45000000       0.25000000       0.15000000 </v>
   <v>       0.50000000       0.25000000       0.15000000 </v>
   <v>       0.15000000       0.30000000       0.15000000 </v>
   <v>       0.20000000       0.30000000       0.15000000 </v>
   <v>       0.25000000       0.30000000       0.15000000 </v>
   <v>       0.30000000       0.30000000       0.15000000 </v>
   <v>       0.35000000       0.30000000       0.15000000 </v>
   <v>       0.40000000       0.30000000       0.15000000 </v>
   <v>       0.45000000       0.30000000       0.15000000 </v>
   <v>       0.50000000       0.30000000       0.15000000 </v>
   <v>       0.15000000       0.35000000       0.15000000 </v>
   <v>       0.20000000       0.35000000       0.15000000 </v>
   <v>       0.25000000       0.35000000       0.15000000 </v>
   <v>       0.30000000       0.35000000       0.15000000 </v>
   <v>       0.35000000       0.35000000       0.15000000 </v>
   <v>       0.40000000       0.35000000       0.15000000 </v>
   <v>       0.45000000       0.35000000       0.15000000 </v>
   <v>       0.50000000       0.35000000       0.15000000 </v>
   <v>       0.15000000       0.40000000       0.15000000 </v>
   <v>       0.20000000       0.40000000       0.15000000 </v>
   <v>       0.25000000       0.40000000       0.15000000 </v>
   <v>       0.30000000       0.40000000       0.15000000 </v>
   <v>       0.35000000       0.40000000       0.15000000 </v>
   <v>       0.40000000       0.40000000       0.15000000 </v>
   <v>       0.45000000       0.40000000       0.15000000 </v>
   <v>       0.50000000       0.40000000       0.15000000 </v>
   <v>       0.15000000       0.45000000       0.15000000 </v>
   <v>       0.20000000       0.45000000       0.15000000 </v>
   <v>       0.25000000       0.45000000       0.15000000 </v>
   <v>       0.30000000       0.45000000       0.15000000 </v>
   <v>       0.35000000       0.45000000       0.15000000 </v>
   <v>       0.40000000       0.45000000       0.15000000 </v>
   <v>       0.45000000       0.45000000       0.15000000 </v>
   <v>       0.50000000       0.45000000       0.15000000 </v>
   <v>       0.15000000       0.50000000       0.15000000 </v>
   <v>       0.20000000       0.50000000       0.15000000 </v>
   <v>       0.25000000       0.50000000       0.15000000 </v>
   <v>       0.30000000       0.50000000       0.15000000 </v>
   <v>       0.35000000       0.50000000       0.15000000 </v>
   <v>       0.40000000       0.50000000       0.15000000 </v>
   <v>       0.45000000       0.50000000       0.15000000 </v>
   <v>       0.50000000       0.50000000       0.15000000 </v>
   <v>       0.20000000       0.00000000       0.20000000 </v>
   <v>       0.25000000       0.00000000       0.20000000 </v>
   <v>       0.30000000       0.00000000       0.20000000 </v>
   <v>       0.35000000       0.00000000       0.20000000 </v>
   <v>       0.40000000       0.00000000       0.20000000 </v>
   <v>       0.45000000       0.00000000       0.20000000 </v>
   <v>       0.50000000       0.00000000       0.20000000 </v>
   <v>       0.20000000       0.05000000       0.20000000 </v>
   <v>       0.25000000       0.05000000       0.20000000 </v>
   <v>       0.30000000       0.05000000       0.20000000 </v>
   <v>       0.35000000       0.05000000       0.20000000 </v>
   <v>       0.40000000       0.05000000       0.20000000 </v>
   <v>       0.45000000       0.05000000       0.20000000 </v>
   <v>       0.50000000       0.05000000       0.20000000 </v>
   <v>       0.20000000       0.10000000       0.20000000 </v>
   <v>       0.25000000       0.10000000       0.20000000 </v>
   <v>       0.30000000       0.10000000       0.20000000 </v>
   <v>       0.35000000       0.10000000       0.20000000 </v>
   <v>       0.40000000       0.10000000       0.20000000 </v>
   <v>       0.45000000       0.10000000       0.20000000 </v>
   <v>       0.50000000       0.10000000       0.20000000 </v>
   <v>       0.20000000       0.15000000       0.20000000 </v>
   <v>       0.25000000       0.15000000       0.20000000 </v>
   <v>       0.30000000       0.15000000       0.20000000 </v>
   <v>       0.35000000       0.15000000       0.20000000 </v>
   <v>       0.40000000       0.15000000       0.20000000 </v>
   <v>       0.45000000       0.15000000       0.20000000 </v>
   <v>       0.50000000       0.15000000       0.20000000 </v>
   <v>       0.20000000       0.20000000       0.20000000 </v>
   <v>       0.25000000       0.20000000       0.20000000 </v>
   <v>       0.30000000       0.20000000       0.20000000 </v>
   <v>       0.35000000       0.20000000       0.20000000 </v>
   <v>       0.40000000       0.20000000       0.20000000 </v>
   <v>       0.45000000       0.20000000       0.20000000 </v>
   <v>       0.50000000       0.20000000       0.20000000 </v>
   <v>       0.20000000       0.25000000       0.20000000 </v>
   <v>       0.25000000       0.25000000       0.20000000 </v>
   <v>       0.30000000       0.25000000       0.20000000 </v>
   <v>       0.35000000       0.25000000       0.20000000 </v>
   <v>       0.40000000       0.25000000       0.20000000 </v>
   <v>       0.45000000       0.25000000       0.20000000 </v>
   <v>       0.50000000       0.25000000       0.20000000 </v>
   <v>       0.20000000       0.30000000       0.20000000 </v>
   <v>       0.25000000       0.30000000       0.20000000 </v>
   <v>       0.30000000       0.30000000       0.20000000 </v>
   <v>       0.35000000       0.30000000       0.20000000 </v>
   <v>       0.40000000       0.30000000       0.20000000 </v>
   <v>       0.45000000       0.30000000       0.20000000 </v>
   <v>       0.50000000       0.30000000       0.20000000 </v>
   <v>       0.20000000       0.35000000       0.20000000 </v>
   <v>       0.25000000       0.35000000       0.20000000 </v>
   <v>       0.30000000       0.35000000       0.20000000 </v>
   <v>       0.35000000       0.35000000       0.20000000 </v>
   <v>       0.40000000       0.35000000       0.20000000 </v>
   <v>       0.45000000       0.35000000       0.20000000 </v>
   <v>       0.50000000       0.35000000       0.20000000 </v>
   <v>       0.20000000       0.40000000       0.20000000 </v>
   <v>       0.25000000       0.40000000       0.20000000 </v>
   <v>       0.30000000       0.40000000       0.20000000 </v>
   <v>       0.35000000       0.40000000       0.20000000 </v>
   <v>       0.40000000       0.40000000       0.20000000 </v>
   <v>       0.45000000       0.40000000       0.20000000 </v>
   <v>       0.50000000       0.40000000       0.20000000 </v>
   <v>       0.20000000       0.45000000       0.20000000 </v>
   <v>       0.25000000       0.45000000       0.20000000 </v>
   <v>       0.30000000       0.45000000       0.20000000 </v>
   <v>       0.35000000       0.45000000       0.20000000 </v>
   <v>       0.40000000       0.45000000       0.20000000 </v>
   <v>       0.45000000       0.45000000       0.20000000 </v>
   <v>       0.50000000       0.45000000       0.20000000 </v>
   <v>       0.20000000       0.50000000       0.20000000 </v>
   <v>       0.25000000       0.50000000       0.20000000 </v>
   <v>       0.30000000       0.50000000       0.20000000 </v>
   <v>       0.35000000       0.50000000       0.20000000 </v>
   <v>       0.40000000       0.50000000       0.20000000 </v>
   <v>       0.45000000       0.50000000       0.20000000 </v>
   <v>       0.50000000       0.50000000       0.20000000 </v>
   <v>       0.25000000       0.00000000       0.25000000 </v>
   <v>       0.30000000       0.00000000       0.25000000 </v>
   <v>       0.35000000       0.00000000       0.25000000 </v>
   <v>       0.40000000       0.00000000       0.25000000 </v>
   <v>       0.45000000       0.00000000       0.25000000 </v>
   <v>       0.50000000       0.00000000       0.25000000 </v>
   <v>       0.25000000       0.05000000       0.25000000 </v>
   <v>       0.30000000       0.05000000       0.25000000 </v>
   <v>       0.35000000       0.05000000       0.25000000 </v>
   <v>       0.40000000       0.05000000       0.25000000 </v>
   <v>       0.45000000       0.05000000       0.25000000 </v>
   <v>       0.50000000       0.05000000       0.25000000 </v>
   <v>       0.25000000       0.10000000       0.25000000 </v>
   <v>       0.30000000       0.10000000       0.25000000 </v>
   <v>       0.35000000       0.10000000       0.25000000 </v>
   <v>       0.40000000       0.10000000       0.25000000 </v>
   <v>       0.45000000       0.10000000       0.25000000 </v>
   <v>       0.50000000       0.10000000       0.25000000 </v>
   <v>       0.25000000       0.15000000       0.25000000 </v>
   <v>       0.30000000       0.15000000       0.25000000 </v>
   <v>       0.35000000       0.15000000       0.25000000 </v>
   <v>       0.40000000       0.15000000       0.25000000 </v>
   <v>       0.45000000       0.15000000       0.25000000 </v>
   <v>       0.50000000       0.15000000       0.25000000 </v>
   <v>       0.25000000       0.20000000       0.25000000 </v>
   <v>       0.30000000       0.20000000       0.25000000 </v>
   <v>       0.35000000       0.20000000       0.25000000 </v>
   <v>       0.40000000       0.20000000       0.25000000 </v>
   <v>       0.45000000       0.20000000       0.25000000 </v>
   <v>       0.50000000       0.20000000       0.25000000 </v>
   <v>       0.25000000       0.25000000       0.25000000 </v>
   <v>       0.30000000       0.25000000       0.25000000 </v>
   <v>       0.35000000       0.25000000       0.25000000 </v>
   <v>       0.40000000       0.25000000       0.25000000 </v>
   <v>       0.45000000       0.25000000       0.25000000 </v>
   <v>       0.50000000       0.25000000       0.25000000 </v>
   <v>       0.25000000       0.30000000       0.25000000 </v>
   <v>       0.30000000       0.30000000       0.25000000 </v>
   <v>       0.35000000       0.30000000       0.25000000 </v>
   <v>       0.40000000       0.30000000       0.25000000 </v>
   <v>       0.45000000       0.30000000       0.25000000 </v>
   <v>       0.50000000       0.30000000       0.25000000 </v>
   <v>       0.25000000       0.35000000       0.25000000 </v>
   <v>       0.30000000       0.35000000       0.25000000 </v>
   <v>       0.35000000       0.35000000       0.25000000 </v>
   <v>       0.40000000       0.35000000       0.25000000 </v>
   <v>       0.45000000       0.35000000       0.25000000 </v>
   <v>       0.50000000       0.35000000       0.25000000 </v>
   <v>       0.25000000       0.40000000       0.25000000 </v>
   <v>       0.30000000       0.40000000       0.25000000 </v>
   <v>       0.35000000       0.40000000       0.25000000 </v>
   <v>       0.40000000       0.40000000       0.25000000 </v>
   <v>       0.45000000       0.40000000       0.25000000 </v>
   <v>       0.50000000       0.40000000       0.25000000 </v>
   <v>       0.25000000       0.45000000       0.25000000 </v>
   <v>       0.30000000       0.45000000       0.25000000 </v>
   <v>       0.35000000       0.45000000       0.25000000 </v>
   <v>       0.40000000       0.45000000       0.25000000 </v>
   <v>       0.45000000       0.45000000       0.25000000 </v>
   <v>       0.50000000       0.45000000       0.25000000 </v>
   <v>       0.25000000       0.50000000       0.25000000 </v>
   <v>       0.30000000       0.50000000       0.25000000 </v>
   <v>       0.35000000       0.50000000       0.25000000 </v>
   <v>       0.40000000       0.50000000       0.25000000 </v>
   <v>       0.45000000       0.50000000       0.25000000 </v>
   <v>       0.50000000       0.50000000       0.25000000 </v>
   <v>       0.30000000       0.00000000       0.30000000 </v>
   <v>       0.35000000       0.00000000       0.30000000 </v>
   <v>       0.40000000       0.00000000       0.30000000 </v>
   <v>       0.45000000       0.00000000       0.30000000 </v>
   <v>       0.50000000       0.00000000       0.30000000 </v>
   <v>       0.30000000       0.05000000       0.30000000 </v>
   <v>       0.35000000       0.05000000       0.30000000 </v>
   <v>       0.40000000       0.05000000       0.30000000 </v>
   <v>       0.45000000       0.05000000       0.30000000 </v>
   <v>       0.50000000       0.05000000       0.30000000 </v>
   <v>       0.30000000       0.10000000       0.30000000 </v>
   <v>       0.35000000       0.10000000       0.30000000 </v>
   <v>       0.40000000       0.10000000       0.30000000 </v>
   <v>       0.45000000       0.10000000       0.30000000 </v>
   <v>       0.50000000       0.10000000       0.30000000 </v>
   <v>       0.30000000       0.15000000       0.30000000 </v>
   <v>       0.35000000       0.15000000       0.30000000 </v>
   <v>       0.40000000       0.15000000       0.30000000 </v>
   <v>       0.45000000       0.15000000       0.30000000 </v>
   <v>       0.50000000       0.15000000       0.30000000 </v>
   <v>       0.30000000       0.20000000       0.30000000 </v>
   <v>       0.35000000       0.20000000       0.30000000 </v>
   <v>       0.40000000       0.20000000       0.30000000 </v>
   <v>       0.45000000       0.20000000       0.30000000 </v>
   <v>       0.50000000       0.20000000       0.30000000 </v>
   <v>       0.30000000       0.25000000       0.30000000 </v>
   <v>       0.35000000       0.25000000       0.30000000 </v>
   <v>       0.40000000       0.25000000       0.30000000 </v>
   <v>       0.45000000       0.25000000       0.30000000 </v>
   <v>       0.50000000       0.25000000       0.30000000 </v>
   <v>       0.30000000       0.30000000       0.30000000 </v>
   <v>       0.35000000       0.30000000       0.30000000 </v>
   <v>       0.40000000       0.30000000       0.30000000 </v>
   <v>       0.45000000       0.30000000       0.30000000 </v>
   <v>       0.50000000       0.30000000       0.30000000 </v>
   <v>       0.30000000       0.35000000       0.30000000 </v>
   <v>       0.35000000       0.35000000       0.30000000 </v>
   <v>       0.40000000       0.35000000       0.30000000 </v>
   <v>       0.45000000       0.35000000       0.30000000 </v>
   <v>       0.50000000       0.35000000       0.30000000 </v>
   <v>       0.30000000       0.40000000       0.30000000 </v>
   <v>       0.35000000       0.40000000       0.30000000 </v>
   <v>       0.40000000       0.40000000       0.30000000 </v>
   <v>       0.45000000       0.40000000       0.30000000 </v>
   <v>       0.50000000       0.40000000       0.30000000 </v>
   <v>       0.30000000       0.45000000       0.30000000 </v>
   <v>       0.35000000       0.45000000       0.30000000 </v>
   <v>       0.40000000       0.45000000       0.30000000 </v>
   <v>       0.45000000       0.45000000       0.30000000 </v>
   <v>       0.50000000       0.45000000       0.30000000 </v>
   <v>       0.30000000       0.50000000       0.30000000 </v>
   <v>       0.35000000       0.50000000       0.30000000 </v>
   <v>       0.40000000       0.50000000       0.30000000 </v>
   <v>       0.45000000       0.50000000       0.30000000 </v>
   <v>       0.50000000       0.50000000       0.30000000 </v>
   <v>       0.35000000       0.00000000       0.35000000 </v>
   <v>       0.40000000       0.00000000       0.35000000 </v>
   <v>       0.45000000       0.00000000       0.35000000 </v>
   <v>       0.50000000       0.00000000       0.35000000 </v>
   <v>       0.35000000       0.05000000       0.35000000 </v>
   <v>       0.40000000       0.05000000       0.35000000 </v>
   <v>       0.45000000       0.05000000       0.35000000 </v>
   <v>       0.50000000       0.05000000       0.35000000 </v>
   <v>       0.35000000       0.10000000       0.35000000 </v>
   <v>       0.40000000       0.10000000       0.35000000 </v>
   <v>       0.45000000       0.10000000       0.35000000 </v>
   <v>       0.50000000       0.10000000       0.35000000 </v>
   <v>       0.35000000       0.15000000       0.35000000 </v>
   <v>       0.40000000       0.15000000       0.35000000 </v>
   <v>       0.45000000       0.15000000       0.35000000 </v>
   <v>       0.50000000       0.15000000       0.35000000 </v>
   <v>       0.35000000       0.20000000       0.35000000 </v>
   <v>       0.40000000       0.20000000       0.35000000 </v>
   <v>       0.45000000       0.20000000       0.35000000 </v>
   <v>       0.50000000       0.20000000       0.35000000 </v>
   <v>       0.35000000       0.25000000       0.35000000 </v>
   <v>       0.40000000       0.25000000       0.35000000 </v>
   <v>       0.45000000       0.25000000       0.35000000 </v>
   <v>       0.50000000       0.25000000       0.35000000 </v>
   <v>       0.35000000       0.30000000       0.35000000 </v>
   <v>       0.40000000       0.30000000       0.35000000 </v>
   <v>       0.45000000       0.30000000       0.35000000 </v>
   <v>       0.50000000       0.30000000       0.35000000 </v>
   <v>       0.35000000       0.35000000       0.35000000 </v>
   <v>       0.40000000       0.35000000       0.35000000 </v>
   <v>       0.45000000       0.35000000       0.35000000 </v>
   <v>       0.50000000       0.35000000       0.35000000 </v>
   <v>       0.35000000       0.40000000       0.35000000 </v>
   <v>       0.40000000       0.40000000       0.35000000 </v>
   <v>       0.45000000       0.40000000       0.35000000 </v>
   <v>       0.50000000       0.40000000       0.35000000 </v>
   <v>       0.35000000       0.45000000       0.35000000 </v>
   <v>       0.40000000       0.45000000       0.35000000 </v>
   <v>       0.45000000       0.45000000       0.35000000 </v>
   <v>       0.50000000       0.45000000       0.35000000 </v>
   <v>       0.35000000       0.50000000       0.35000000 </v>
   <v>       0.40000000       0.50000000       0.35000000 </v>
   <v>       0.45000000       0.50000000       0.35000000 </v>
   <v>       0.50000000       0.50000000       0.35000000 </v>
   <v>       0.40000000       0.00000000       0.40000000 </v>
   <v>       0.45000000       0.00000000       0.40000000 </v>
   <v>       0.50000000       0.00000000       0.40000000 </v>
   <v>       0.40000000       0.05000000       0.40000000 </v>
   <v>       0.45000000       0.05000000       0.40000000 </v>
   <v>       0.50000000       0.05000000       0.40000000 </v>
   <v>       0.40000000       0.10000000       0.40000000 </v>
   <v>       0.45000000       0.10000000       0.40000000 </v>
   <v>       0.50000000       0.10000000       0.40000000 </v>
   <v>       0.40000000       0.15000000       0.40000000 </v>
   <v>       0.45000000       0.15000000       0.40000000 </v>
   <v>       0.50000000       0.15000000       0.40000000 </v>
   <v>       0.40000000       0.20000000       0.40000000 </v>
   <v>       0.45000000       0.20000000       0.40000000 </v>
   <v>       0.50000000       0.20000000       0.40000000 </v>
   <v>       0.40000000       0.25000000       0.40000000 </v>
   <v>       0.45000000       0.25000000       0.40000000 </v>
   <v>       0.50000000       0.25000000       0.40000000 </v>
   <v>       0.40000000       0.30000000       0.40000000 </v>
   <v>       0.45000000       0.30000000       0.40000000 </v>
   <v>       0.50000000       0.30000000       0.40000000 </v>
   <v>       0.40000000       0.35000000       0.40000000 </v>
   <v>       0.45000000       0.35000000       0.40000000 </v>
   <v>       0.50000000       0.35000000       0.40000000 </v>
   <v>       0.40000000       0.40000000       0.40000000 </v>
   <v>       0.45000000       0.40000000       0.40000000 </v>
   <v>       0.50000000       0.40000000       0.40000000 </v>
   <v>       0.40000000       0.45000000       0.40000000 </v>
   <v>       0.45000000       0.45000000       0.40000000 </v>
   <v>       0.50000000       0.45000000       0.40000000 </v>
   <v>       0.40000000       0.50000000       0.40000000 </v>
   <v>       0.45000000       0.50000000       0.40000000 </v>
   <v>       0.50000000       0.50000000       0.40000000 </v>
   <v>       0.45000000       0.00000000       0.45000000 </v>
   <v>       0.50000000       0.00000000       0.45000000 </v>
   <v>       0.45000000       0.05000000       0.45000000 </v>
   <v>       0.50000000       0.05000000       0.45000000 </v>
   <v>       0.45000000       0.10000000       0.45000000 </v>
   <v>       0.50000000       0.10000000       0.45000000 </v>
   <v>       0.45000000       0.15000000       0.45000000 </v>
   <v>       0.50000000       0.15000000       0.45000000 </v>
   <v>       0.45000000       0.20000000       0.45000000 </v>
   <v>       0.50000000       0.20000000       0.45000000 </v>
   <v>       0.45000000       0.25000000       0.45000000 </v>
   <v>       0.50000000       0.25000000       0.45000000 </v>
   <v>       0.45000000       0.30000000       0.45000000 </v>
   <v>       0.50000000       0.30000000       0.45000000 </v>
   <v>       0.45000000       0.35000000       0.45000000 </v>
   <v>       0.50000000       0.35000000       0.45000000 </v>
   <v>       0.45000000       0.40000000       0.45000000 </v>
   <v>       0.50000000       0.40000000       0.45000000 </v>
   <v>       0.45000000       0.45000000       0.45000000 </v>
   <v>       0.50000000       0.45000000       0.45000000 </v>
   <v>       0.45000000       0.50000000       0.45000000 </v>
   <v>       0.50000000       0.50000000       0.45000000 </v>
   <v>       0.50000000       0.00000000       0.50000000 </v>
   <v>       0.50000000       0.05000000       0.50000000 </v>
   <v>       0.50000000       0.10000000       0.50000000 </v>
   <v>       0.50000000       0.15000000       0.50000000 </v>
   <v>       0.50000000       0.20000000       0.50000000 </v>
   <v>       0.50000000       0.25000000       0.50000000 </v>
   <v>       0.50000000       0.30000000       0.50000000 </v>
   <v>       0.50000000       0.35000000       0.50000000 </v>
   <v>       0.50000000       0.40000000       0.50000000 </v>
   <v>       0.50000000       0.45000000       0.50000000 </v>
   <v>       0.50000000       0.50000000       0.50000000 </v>
  </varray>
  <varray name="weights" >
   <v>       0.00012500 </v>
   <v>       0.00050000 </v>
   <v>       0.00050000 </v>
   <v>       0.00050000 </v>
   <v>       0.00050000 </v>
   <v>       0.00050000 </v>
   <v>       0.00050000 </v>
   <v>       0.00050000 </v>
   <v>       0.00050000 </v>
   <v>       0.00050000 </v>
   <v>       0.00025000 </v>
   <v>       0.00025000 </v>
   <v>       0.00100000 </v>
   <v>       0.00100000 </v>
   <v>       0.00100000 </v>
   <v>       0.00100000 </v>
   <v>       0.00100000 </v>
   <v>       0.00100000 </v>
   <v>       0.00100000 </v>
   <v>       0.00100000 </v>
   <v>       0.00100000 </v>
   <v>       0.00050000 </v>
   <v>       0.00025000 </v>
   <v>       0.00100000 </v>
   <v>       0.00100000 </v>
   <v>       0.00100000 </v>
   <v>       0.00100000 </v>
   <v>       0.00100000 </v>
   <v>       0.00100000 </v>
   <v>       0.00100000 </v>
   <v>       0.00100000 </v>
   <v>       0.00100000 </v>
   <v>       0.00050000 </v>
   <v>       0.00025000 </v>
   <v>       0.00100000 </v>
   <v>       0.00100000 </v>
   <v>       0.00100000 </v>
   <v>       0.00100000 </v>
   <v>       0.00100000 </v>
   <v>       0.00100000 </v>
   <v>       0.00100000 </v>
   <v>       0.00100000 </v>
   <v>       0.00100000 </v>
   <v>       0.00050000 </v>
   <v>       0.00025000 </v>
   <v>       0.00100000 </v>
   <v>       0.00100000 </v>
   <v>       0.00100000 </v>
   <v>       0.00100000 </v>
   <v>       0.00100000 </v>
   <v>       0.00100000 </v>
   <v>       0.00100000 </v>
   <v>       0.00100000 </v>
   <v>       0.00100000 </v>
   <v>       0.00050000 </v>
   <v>       0.00025000 </v>
   <v>       0.00100000 </v>
   <v>       0.00100000 </v>
   <v>       0.00100000 </v>
   <v>       0.00100000 </v>
   <v>       0.00100000 </v>
   <v>       0.00100000 </v>
   <v>       0.00100000 </v>
   <v>       0.00100000 </v>
   <v>       0.00100000 </v>
   <v>       0.00050000 </v>
   <v>       0.00025000 </v>
   <v>       0.00100000 </v>
   <v>       0.00100000 </v>
   <v>       0.00100000 </v>
   <v>       0.00100000 </v>
   <v>       0.00100000 </v>
   <v>       0.00100000 </v>
   <v>       0.00100000 </v>
   <v>       0.00100000 </v>
   <v>       0.00100000 </v>
   <v>       0.00050000 </v>
   <v>       0.00025000 </v>
   <v>       0.00100000 </v>
   <v>       0.00100000 </v>
   <v>       0.00100000 </v>
   <v>       0.00100000 </v>
   <v>       0.00100000 </v>
   <v>       0.00100000 </v>
   <v>       0.00100000 </v>
   <v>       0.00100000 </v>
   <v>       0.00100000 </v>
   <v>       0.00050000 </v>
   <v>       0.00025000 </v>
   <v>       0.00100000 </v>
   <v>       0.00100000 </v>
   <v>       0.00100000 </v>
   <v>       0.00100000 </v>
   <v>       0.00100000 </v>
   <v>       0.00100000 </v>
   <v>       0.00100000 </v>
   <v>       0.00100000 </v>
   <v>       0.00100000 </v>
   <v>       0.00050000 </v>
   <v>       0.00025000 </v>
   <v>       0.00100000 </v>
   <v>       0.00100000 </v>
   <v>       0.00100000 </v>
   <v>       0.00100000 </v>
   <v>       0.00100000 </v>
   <v>       0.00100000 </v>
   <v>       0.00100000 </v>
   <v>       0.00100000 </v>
   <v>       0.00100000 </v>
   <v>       0.00050000 </v>
   <v>       0.00012500 </v>
   <v>       0.00050000 </v>
   <v>       0.00050000 </v>
   <v>       0.00050000 </v>
   <v>       0.00050000 </v>
   <v>       0.00050000 </v>
   <v>       0.00050000 </v>
   <v>       0.00050000 </v>
   <v>       0.00050000 </v>
   <v>       0.00050000 </v>
   <v>       0.00025000 </v>
   <v>       0.00050000 </v>
   <v>       0.00100000 </v>
   <v>       0.00100000 </v>
   <v>       0.00100000 </v>
   <v>       0.00100000 </v>
   <v>       0.00100000 </v>
   <v>       0.00100000 </v>
   <v>       0.00100000 </v>
   <v>       0.00100000 </v>
   <v>       0.00050000 </v>
   <v>       0.00100000 </v>
   <v>       0.00200000 </v>
   <v>       0.00200000 </v>
   <v>       0.00200000 </v>
   <v>       0.00200000 </v>
   <v>       0.00200000 </v>
   <v>       0.00200000 </v>
   <v>       0.00200000 </v>
   <v>       0.00200000 </v>
   <v>       0.00100000 </v>
   <v>       0.00100000 </v>
   <v>       0.00200000 </v>
   <v>       0.00200000 </v>
   <v>       0.00200000 </v>
   <v>       0.00200000 </v>
   <v>       0.00200000 </v>
   <v>       0.00200000 </v>
   <v>       0.00200000 </v>
   <v>       0.00200000 </v>
   <v>       0.00100000 </v>
   <v>       0.00100000 </v>
   <v>       0.00200000 </v>
   <v>       0.00200000 </v>
   <v>       0.00200000 </v>
   <v>       0.00200000 </v>
   <v>       0.00200000 </v>
   <v>       0.00200000 </v>
   <v>       0.00200000 </v>
   <v>       0.00200000 </v>
   <v>       0.00100000 </v>
   <v>       0.00100000 </v>
   <v>       0.00200000 </v>
   <v>       0.00200000 </v>
   <v>       0.00200000 </v>
   <v>       0.00200000 </v>
   <v>       0.00200000 </v>
   <v>       0.00200000 </v>
   <v>       0.00200000 </v>
   <v>       0.00200000 </v>
   <v>       0.00100000 </v>
   <v>       0.00100000 </v>
   <v>       0.00200000 </v>
   <v>       0.00200000 </v>
   <v>       0.00200000 </v>
   <v>       0.00200000 </v>
   <v>       0.00200000 </v>
   <v>       0.00200000 </v>
   <v>       0.00200000 </v>
   <v>       0.00200000 </v>
   <v>       0.00100000 </v>
   <v>       0.00100000 </v>
   <v>       0.00200000 </v>
   <v>       0.00200000 </v>
   <v>       0.00200000 </v>
   <v>       0.00200000 </v>
   <v>       0.00200000 </v>
   <v>       0.00200000 </v>
   <v>       0.00200000 </v>
   <v>       0.00200000 </v>
   <v>       0.00100000 </v>
   <v>       0.00100000 </v>
   <v>       0.00200000 </v>
   <v>       0.00200000 </v>
   <v>       0.00200000 </v>
   <v>       0.00200000 </v>
   <v>       0.00200000 </v>
   <v>       0.00200000 </v>
   <v>       0.00200000 </v>
   <v>       0.00200000 </v>
   <v>       0.00100000 </v>
   <v>       0.00100000 </v>
   <v>       0.00200000 </v>
   <v>       0.00200000 </v>
   <v>       0.00200000 </v>
   <v>       0.00200000 </v>
   <v>       0.00200000 </v>
   <v>       0.00200000 </v>
   <v>       0.00200000 </v>
   <v>       0.00200000 </v>
   <v>       0.00100000 </v>
   <v>       0.00100000 </v>
   <v>       0.00200000 </v>
   <v>       0.00200000 </v>
   <v>       0.00200000 </v>
   <v>       0.00200000 </v>
   <v>       0.00200000 </v>
   <v>       0.00200000 </v>
   <v>       0.00200000 </v>
   <v>       0.00200000 </v>
   <v>       0.00100000 </v>
   <v>       0.00050000 </v>
   <v>       0.00100000 </v>
   <v>       0.00100000 </v>
   <v>       0.00100000 </v>
   <v>       0.00100000 </v>
   <v>       0.00100000 </v>
   <v>       0.00100000 </v>
   <v>       0.00100000 </v>
   <v>       0.00100000 </v>
   <v>       0.00050000 </v>
   <v>       0.00050000 </v>
   <v>       0.00100000 </v>
   <v>       0.00100000 </v>
   <v>       0.00100000 </v>
   <v>       0.00100000 </v>
   <v>       0.00100000 </v>
   <v>       0.00100000 </v>
   <v>       0.00100000 </v>
   <v>       0.00050000 </v>
   <v>       0.00100000 </v>
   <v>       0.00200000 </v>
   <v>       0.00200000 </v>
   <v>       0.00200000 </v>
   <v>       0.00200000 </v>
   <v>       0.00200000 </v>
   <v>       0.00200000 </v>
   <v>       0.00200000 </v>
   <v>       0.00100000 </v>
   <v>       0.00100000 </v>
   <v>       0.00200000 </v>
   <v>       0.00200000 </v>
   <v>       0.00200000 </v>
   <v>       0.00200000 </v>
   <v>       0.00200000 </v>
   <v>       0.00200000 </v>
   <v>       0.00200000 </v>
   <v>       0.00100000 </v>
   <v>       0.00100000 </v>
   <v>       0.00200000 </v>
   <v>       0.00200000 </v>
   <v>       0.00200000 </v>
   <v>       0.00200000 </v>
   <v>       0.00200000 </v>
   <v>       0.00200000 </v>
   <v>       0.00200000 </v>
   <v>       0.00100000 </v>
   <v>       0.00100000 </v>
   <v>       0.00200000 </v>
   <v>       0.00200000 </v>
   <v>       0.00200000 </v>
   <v>       0.00200000 </v>
   <v>       0.00200000 </v>
   <v>       0.00200000 </v>
   <v>       0.00200000 </v>
   <v>       0.00100000 </v>
   <v>       0.00100000 </v>
   <v>       0.00200000 </v>
   <v>       0.00200000 </v>
   <v>       0.00200000 </v>
   <v>       0.00200000 </v>
   <v>       0.00200000 </v>
   <v>       0.00200000 </v>
   <v>       0.00200000 </v>
   <v>       0.00100000 </v>
   <v>       0.00100000 </v>
   <v>       0.00200000 </v>
   <v>       0.00200000 </v>
   <v>       0.00200000 </v>
   <v>       0.00200000 </v>
   <v>       0.00200000 </v>
   <v>       0.00200000 </v>
   <v>       0.00200000 </v>
   <v>       0.00100000 </v>
   <v>       0.00100000 </v>
   <v>       0.00200000 </v>
   <v>       0.00200000 </v>
   <v>       0.00200000 </v>
   <v>       0.00200000 </v>
   <v>       0.00200000 </v>
   <v>       0.00200000 </v>
   <v>       0.00200000 </v>
   <v>       0.00100000 </v>
   <v>       0.00100000 </v>
   <v>       0.00200000 </v>
   <v>       0.00200000 </v>
   <v>       0.00200000 </v>
   <v>       0.00200000 </v>
   <v>       0.00200000 </v>
   <v>       0.00200000 </v>
   <v>       0.00200000 </v>
   <v>       0.00100000 </v>
   <v>       0.00100000 </v>
   <v>       0.00200000 </v>
   <v>       0.00200000 </v>
   <v>       0.00200000 </v>
   <v>       0.00200000 </v>
   <v>       0.00200000 </v>
   <v>       0.00200000 </v>
   <v>       0.00200000 </v>
   <v>       0.00100000 </v>
   <v>       0.00050000 </v>
   <v>       0.00100000 </v>
   <v>       0.00100000 </v>
   <v>       0.00100000 </v>
   <v>       0.00100000 </v>
   <v>       0.00100000 </v>
   <v>       0.00100000 </v>
   <v>       0.00100000 </v>
   <v>       0.00050000 </v>
   <v>       0.00050000 </v>
   <v>       0.00100000 </v>
   <v>       0.00100000 </v>
   <v>       0.00100000 </v>
   <v>       0.00100000 </v>
   <v>       0.00100000 </v>
   <v>       0.00100000 </v>
   <v>       0.00050000 </v>
   <v>       0.00100000 </v>
   <v>       0.00200000 </v>
   <v>       0.00200000 </v>
   <v>       0.00200000 </v>
   <v>       0.00200000 </v>
   <v>       0.00200000 </v>
   <v>       0.00200000 </v>
   <v>       0.00100000 </v>
   <v>       0.00100000 </v>
   <v>       0.00200000 </v>
   <v>       0.00200000 </v>
   <v>       0.00200000 </v>
   <v>       0.00200000 </v>
   <v>       0.00200000 </v>
   <v>       0.00200000 </v>
   <v>       0.00100000 </v>
   <v>       0.00100000 </v>
   <v>       0.00200000 </v>
   <v>       0.00200000 </v>
   <v>       0.00200000 </v>
   <v>       0.00200000 </v>
   <v>       0.00200000 </v>
   <v>       0.00200000 </v>
   <v>       0.00100000 </v>
   <v>       0.00100000 </v>
   <v>       0.00200000 </v>
   <v>       0.00200000 </v>
   <v>       0.00200000 </v>
   <v>       0.00200000 </v>
   <v>       0.00200000 </v>
   <v>       0.00200000 </v>
   <v>       0.00100000 </v>
   <v>       0.00100000 </v>
   <v>       0.00200000 </v>
   <v>       0.00200000 </v>
   <v>       0.00200000 </v>
   <v>       0.00200000 </v>
   <v>       0.00200000 </v>
   <v>       0.00200000 </v>
   <v>       0.00100000 </v>
   <v>       0.00100000 </v>
   <v>       0.00200000 </v>
   <v>       0.00200000 </v>
   <v>       0.00200000 </v>
   <v>       0.00200000 </v>
   <v>       0.00200000 </v>
   <v>       0.00200000 </v>
   <v>       0.00100000 </v>
   <v>       0.00100000 </v>
   <v>       0.00200000 </v>
   <v>       0.00200000 </v>
   <v>       0.00200000 </v>
   <v>       0.00200000 </v>
   <v>       0.00200000 </v>
   <v>       0.00200000 </v>
   <v>       0.00100000 </v>
   <v>       0.00100000 </v>
   <v>       0.00200000 </v>
   <v>       0.00200000 </v>
   <v>       0.00200000 </v>
   <v>       0.00200000 </v>
   <v>       0.00200000 </v>
   <v>       0.00200000 </v>
   <v>       0.00100000 </v>
   <v>       0.00100000 </v>
   <v>       0.00200000 </v>
   <v>       0.00200000 </v>
   <v>       0.00200000 </v>
   <v>       0.00200000 </v>
   <v>       0.00200000 </v>
   <v>       0.00200000 </v>
   <v>       0.00100000 </v>
   <v>       0.00050000 </v>
   <v>       0.00100000 </v>
   <v>       0.00100000 </v>
   <v>       0.00100000 </v>
   <v>       0.00100000 </v>
   <v>       0.00100000 </v>
   <v>       0.00100000 </v>
   <v>       0.00050000 </v>
   <v>       0.00050000 </v>
   <v>       0.00100000 </v>
   <v>       0.00100000 </v>
   <v>       0.00100000 </v>
   <v>       0.00100000 </v>
   <v>       0.00100000 </v>
   <v>       0.00050000 </v>
   <v>       0.00100000 </v>
   <v>       0.00200000 </v>
   <v>       0.00200000 </v>
   <v>       0.00200000 </v>
   <v>       0.00200000 </v>
   <v>       0.00200000 </v>
   <v>       0.00100000 </v>
   <v>       0.00100000 </v>
   <v>       0.00200000 </v>
   <v>       0.00200000 </v>
   <v>       0.00200000 </v>
   <v>       0.00200000 </v>
   <v>       0.00200000 </v>
   <v>       0.00100000 </v>
   <v>       0.00100000 </v>
   <v>       0.00200000 </v>
   <v>       0.00200000 </v>
   <v>       0.00200000 </v>
   <v>       0.00200000 </v>
   <v>       0.00200000 </v>
   <v>       0.00100000 </v>
   <v>       0.00100000 </v>
   <v>       0.00200000 </v>
   <v>       0.00200000 </v>
   <v>       0.00200000 </v>
   <v>       0.00200000 </v>
   <v>       0.00200000 </v>
   <v>       0.00100000 </v>
   <v>       0.00100000 </v>
   <v>       0.00200000 </v>
   <v>       0.00200000 </v>
   <v>       0.00200000 </v>
   <v>       0.00200000 </v>
   <v>       0.00200000 </v>
   <v>       0.00100000 </v>
   <v>       0.00100000 </v>
   <v>       0.00200000 </v>
   <v>       0.00200000 </v>
   <v>       0.00200000 </v>
   <v>       0.00200000 </v>
   <v>       0.00200000 </v>
   <v>       0.00100000 </v>
   <v>       0.00100000 </v>
   <v>       0.00200000 </v>
   <v>       0.00200000 </v>
   <v>       0.00200000 </v>
   <v>       0.00200000 </v>
   <v>       0.00200000 </v>
   <v>       0.00100000 </v>
   <v>       0.00100000 </v>
   <v>       0.00200000 </v>
   <v>       0.00200000 </v>
   <v>       0.00200000 </v>
   <v>       0.00200000 </v>
   <v>       0.00200000 </v>
   <v>       0.00100000 </v>
   <v>       0.00100000 </v>
   <v>       0.00200000 </v>
   <v>       0.00200000 </v>
   <v>       0.00200000 </v>
   <v>       0.00200000 </v>
   <v>       0.00200000 </v>
   <v>       0.00100000 </v>
   <v>       0.00050000 </v>
   <v>       0.00100000 </v>
   <v>       0.00100000 </v>
   <v>       0.00100000 </v>
   <v>       0.00100000 </v>
   <v>       0.00100000 </v>
   <v>       0.00050000 </v>
   <v>       0.00050000 </v>
   <v>       0.00100000 </v>
   <v>       0.00100000 </v>
   <v>       0.00100000 </v>
   <v>       0.00100000 </v>
   <v>       0.00050000 </v>
   <v>       0.00100000 </v>
   <v>       0.00200000 </v>
   <v>       0.00200000 </v>
   <v>       0.00200000 </v>
   <v>       0.00200000 </v>
   <v>       0.00100000 </v>
   <v>       0.00100000 </v>
   <v>       0.00200000 </v>
   <v>       0.00200000 </v>
   <v>       0.00200000 </v>
   <v>       0.00200000 </v>
   <v>       0.00100000 </v>
   <v>       0.00100000 </v>
   <v>       0.00200000 </v>
   <v>       0.00200000 </v>
   <v>       0.00200000 </v>
   <v>       0.00200000 </v>
   <v>       0.00100000 </v>
   <v>       0.00100000 </v>
   <v>       0.00200000 </v>
   <v>       0.00200000 </v>
   <v>       0.00200000 </v>
   <v>       0.00200000 </v>
   <v>       0.00100000 </v>
   <v>       0.00100000 </v>
   <v>       0.00200000 </v>
   <v>       0.00200000 </v>
   <v>       0.00200000 </v>
   <v>       0.00200000 </v>
   <v>       0.00100000 </v>
   <v>       0.00100000 </v>
   <v>       0.00200000 </v>
   <v>       0.00200000 </v>
   <v>       0.00200000 </v>
   <v>       0.00200000 </v>
   <v>       0.00100000 </v>
   <v>       0.00100000 </v>
   <v>       0.00200000 </v>
   <v>       0.00200000 </v>
   <v>       0.00200000 </v>
   <v>       0.00200000 </v>
   <v>       0.00100000 </v>
   <v>       0.00100000 </v>
   <v>       0.00200000 </v>
   <v>       0.00200000 </v>
   <v>       0.00200000 </v>
   <v>       0.00200000 </v>
   <v>       0.00100000 </v>
   <v>       0.00100000 </v>
   <v>       0.00200000 </v>
   <v>       0.00200000 </v>
   <v>       0.00200000 </v>
   <v>       0.00200000 </v>
   <v>       0.00100000 </v>
   <v>       0.00050000 </v>
   <v>       0.00100000 </v>
   <v>       0.00100000 </v>
   <v>       0.00100000 </v>
   <v>       0.00100000 </v>
   <v>       0.00050000 </v>
   <v>       0.00050000 </v>
   <v>       0.00100000 </v>
   <v>       0.00100000 </v>
   <v>       0.00100000 </v>
   <v>       0.00050000 </v>
   <v>       0.00100000 </v>
   <v>       0.00200000 </v>
   <v>       0.00200000 </v>
   <v>       0.00200000 </v>
   <v>       0.00100000 </v>
   <v>       0.00100000 </v>
   <v>       0.00200000 </v>
   <v>       0.00200000 </v>
   <v>       0.00200000 </v>
   <v>       0.00100000 </v>
   <v>       0.00100000 </v>
   <v>       0.00200000 </v>
   <v>       0.00200000 </v>
   <v>       0.00200000 </v>
   <v>       0.00100000 </v>
   <v>       0.00100000 </v>
   <v>       0.00200000 </v>
   <v>       0.00200000 </v>
   <v>       0.00200000 </v>
   <v>       0.00100000 </v>
   <v>       0.00100000 </v>
   <v>       0.00200000 </v>
   <v>       0.00200000 </v>
   <v>       0.00200000 </v>
   <v>       0.00100000 </v>
   <v>       0.00100000 </v>
   <v>       0.00200000 </v>
   <v>       0.00200000 </v>
   <v>       0.00200000 </v>
   <v>       0.00100000 </v>
   <v>       0.00100000 </v>
   <v>       0.00200000 </v>
   <v>       0.00200000 </v>
   <v>       0.00200000 </v>
   <v>       0.00100000 </v>
   <v>       0.00100000 </v>
   <v>       0.00200000 </v>
   <v>       0.00200000 </v>
   <v>       0.00200000 </v>
   <v>       0.00100000 </v>
   <v>       0.00100000 </v>
   <v>       0.00200000 </v>
   <v>       0.00200000 </v>
   <v>       0.00200000 </v>
   <v>       0.00100000 </v>
   <v>       0.00050000 </v>
   <v>       0.00100000 </v>
   <v>       0.00100000 </v>
   <v>       0.00100000 </v>
   <v>       0.00050000 </v>
   <v>       0.00050000 </v>
   <v>       0.00100000 </v>
   <v>       0.00100000 </v>
   <v>       0.00050000 </v>
   <v>       0.00100000 </v>
   <v>       0.00200000 </v>
   <v>       0.00200000 </v>
   <v>       0.00100000 </v>
   <v>       0.00100000 </v>
   <v>       0.00200000 </v>
   <v>       0.00200000 </v>
   <v>       0.00100000 </v>
   <v>       0.00100000 </v>
   <v>       0.00200000 </v>
   <v>       0.00200000 </v>
   <v>       0.00100000 </v>
   <v>       0.00100000 </v>
   <v>       0.00200000 </v>
   <v>       0.00200000 </v>
   <v>       0.00100000 </v>
   <v>       0.00100000 </v>
   <v>       0.00200000 </v>
   <v>       0.00200000 </v>
   <v>       0.00100000 </v>
   <v>       0.00100000 </v>
   <v>       0.00200000 </v>
   <v>       0.00200000 </v>
   <v>       0.00100000 </v>
   <v>       0.00100000 </v>
   <v>       0.00200000 </v>
   <v>       0.00200000 </v>
   <v>       0.00100000 </v>
   <v>       0.00100000 </v>
   <v>       0.00200000 </v>
   <v>       0.00200000 </v>
   <v>       0.00100000 </v>
   <v>       0.00100000 </v>
   <v>       0.00200000 </v>
   <v>       0.00200000 </v>
   <v>       0.00100000 </v>
   <v>       0.00050000 </v>
   <v>       0.00100000 </v>
   <v>       0.00100000 </v>
   <v>       0.00050000 </v>
   <v>       0.00050000 </v>
   <v>       0.00100000 </v>
   <v>       0.00050000 </v>
   <v>       0.00100000 </v>
   <v>       0.00200000 </v>
   <v>       0.00100000 </v>
   <v>       0.00100000 </v>
   <v>       0.00200000 </v>
   <v>       0.00100000 </v>
   <v>       0.00100000 </v>
   <v>       0.00200000 </v>
   <v>       0.00100000 </v>
   <v>       0.00100000 </v>
   <v>       0.00200000 </v>
   <v>       0.00100000 </v>
   <v>       0.00100000 </v>
   <v>       0.00200000 </v>
   <v>       0.00100000 </v>
   <v>       0.00100000 </v>
   <v>       0.00200000 </v>
   <v>       0.00100000 </v>
   <v>       0.00100000 </v>
   <v>       0.00200000 </v>
   <v>       0.00100000 </v>
   <v>       0.00100000 </v>
   <v>       0.00200000 </v>
   <v>       0.00100000 </v>
   <v>       0.00100000 </v>
   <v>       0.00200000 </v>
   <v>       0.00100000 </v>
   <v>       0.00050000 </v>
   <v>       0.00100000 </v>
   <v>       0.00050000 </v>
   <v>       0.00050000 </v>
   <v>       0.00050000 </v>
   <v>       0.00100000 </v>
   <v>       0.00100000 </v>
   <v>       0.00100000 </v>
   <v>       0.00100000 </v>
   <v>       0.00100000 </v>
   <v>       0.00100000 </v>
   <v>       0.00100000 </v>
   <v>       0.00100000 </v>
   <v>       0.00100000 </v>
   <v>       0.00100000 </v>
   <v>       0.00100000 </v>
   <v>       0.00100000 </v>
   <v>       0.00100000 </v>
   <v>       0.00100000 </v>
   <v>       0.00100000 </v>
   <v>       0.00100000 </v>
   <v>       0.00100000 </v>
   <v>       0.00100000 </v>
   <v>       0.00050000 </v>
   <v>       0.00050000 </v>
   <v>       0.00012500 </v>
   <v>       0.00025000 </v>
   <v>       0.00025000 </v>
   <v>       0.00025000 </v>
   <v>       0.00025000 </v>
   <v>       0.00025000 </v>
   <v>       0.00025000 </v>
   <v>       0.00025000 </v>
   <v>       0.00025000 </v>
   <v>       0.00025000 </v>
   <v>       0.00012500 </v>
  </varray>
 </kpoints>
 <parameters>
  <separator name="general" >
   <i type="string" name="SYSTEM">Al</i>
   <i type="logical" name="LCOMPAT"> F  </i>
  </separator>
  <separator name="electronic" >
   <i type="string" name="PREC">accura</i>
   <i name="ENMAX">    550.00000000</i>
   <i name="ENAUG">    291.05200000</i>
   <i name="EDIFF">      0.00000010</i>
   <i type="int" name="IALGO">    38</i>
   <i type="int" name="IWAVPR">    11</i>
   <i type="int" name="NBANDS">    16</i>
   <i name="NELECT">     12.00000000</i>
   <separator name="electronic smearing" >
    <i type="int" name="ISMEAR">     2</i>
    <i name="SIGMA">      0.10000000</i>
   </separator>
   <separator name="electronic projectors" >
    <i type="logical" name="LREAL"> T  </i>
    <v name="ROPT">     -0.00025000</v>
    <i type="int" name="LMAXPAW">  -100</i>
    <i type="int" name="LMAXMIX">     2</i>
   </separator>
   <separator name="electronic startup" >
    <i type="int" name="ISTART">     0</i>
    <i type="int" name="ICHARG">     1</i>
    <i type="int" name="INIWAV">     1</i>
   </separator>
   <separator name="electronic spin" >
    <i type="int" name="ISPIN">     1</i>
    <i type="logical" name="LNONCOLLINEAR"> F  </i>
    <v name="MAGMOM">      1.00000000      1.00000000      1.00000000      1.00000000</v>
    <i name="NUPDOWN">     -1.00000000</i>
    <i type="logical" name="LSORBIT"> F  </i>
    <v name="SAXIS">      0.00000000      0.00000000      1.00000000</v>
    <i type="logical" name="LSPIRAL"> F  </i>
    <v name="QSPIRAL">      0.00000000      0.00000000      0.00000000</v>
    <i type="logical" name="LZEROZ"> F  </i>
   </separator>
   <separator name="electronic exchange-correlation" >
    <i type="logical" name="LASPH"> F  </i>
    <i type="logical" name="LMETAGGA"> F  </i>
   </separator>
   <separator name="electronic convergence" >
    <i type="int" name="NELM">    60</i>
    <i type="int" name="NELMDL">     0</i>
    <i type="int" name="NELMIN">     2</i>
    <i name="ENINI">    550.00000000</i>
    <separator name="electronic convergence detail" >
     <i type="logical" name="LDIAG"> T  </i>
     <i name="WEIMIN">      0.00100000</i>
     <i name="EBREAK">      0.00000000</i>
     <i name="DEPER">      0.30000000</i>
     <i type="int" name="NRMM">     4</i>
     <i name="TIME">      0.40000000</i>
    </separator>
   </separator>
   <separator name="electronic mixer" >
    <i name="AMIX">      0.40000000</i>
    <i name="BMIX">      1.00000000</i>
    <i name="AMIN">      0.10000000</i>
    <i name="AMIX_MAG">      1.60000000</i>
    <i name="BMIX_MAG">      1.00000000</i>
    <separator name="electronic mixer details" >
     <i type="int" name="IMIX">     4</i>
     <i type="int" name="MAXMIX">   -45</i>
     <i name="WC">    100.00000000</i>
     <i type="int" name="INIMIX">     1</i>
     <i type="int" name="MIXPRE">     1</i>
     <i type="int" name="MREMOVE">     5</i>
    </separator>
   </separator>
   <separator name="electronic dipolcorrection" >
    <i type="logical" name="LDIPOL"> F  </i>
    <i type="logical" name="LMONO"> F  </i>
    <i type="int" name="IDIPOL">     0</i>
    <i name="EPSILON">      1.00000000</i>
    <v name="DIPOL">   -100.00000000   -100.00000000   -100.00000000</v>
    <i name="EFIELD">      0.00000000</i>
   </separator>
  </separator>
  <separator name="grids" >
   <i type="int" name="NGX">    32</i>
   <i type="int" name="NGY">    32</i>
   <i type="int" name="NGZ">    32</i>
   <i type="int" name="NGXF">    64</i>
   <i type="int" name="NGYF">    64</i>
   <i type="int" name="NGZF">    64</i>
   <i type="logical" name="ADDGRID"> F  </i>
  </separator>
  <separator name="ionic" >
   <i type="int" name="NSW">     5</i>
   <i type="int" name="IBRION">     2</i>
   <i type="int" name="ISIF">     2</i>
   <i name="PSTRESS">      0.00000000</i>
   <i name="EDIFFG">      0.00000010</i>
   <i type="int" name="NFREE">     1</i>
   <i name="POTIM">      0.10000000</i>
   <i name="SMASS">     -3.00000000</i>
  </separator>
  <separator name="ionic md" >
   <i name="TEBEG">      0.00010000</i>
   <i name="TEEND">      0.00010000</i>
   <i type="int" name="NBLOCK">     1</i>
   <i type="int" name="KBLOCK">     5</i>
   <i type="int" name="NPACO">   256</i>
   <i name="APACO">     16.00000000</i>
  </separator>
  <separator name="symmetry" >
   <i type="int" name="ISYM">     2</i>
   <i name="SYMPREC">      0.00001000</i>
  </separator>
  <separator name="dos" >
   <i type="logical" name="LORBIT"> F  </i>
   <v name="RWIGS">     -1.00000000</v>
   <i type="int" name="NEDOS">   301</i>
   <i name="EMIN">     10.00000000</i>
   <i name="EMAX">    -10.00000000</i>
   <i name="EFERMI">      0.00000000</i>
  </separator>
  <separator name="writing" >
   <i type="int" name="NWRITE">     2</i>
   <i type="logical" name="LWAVE"> F  </i>
   <i type="logical" name="LCHARG"> T  </i>
   <i type="logical" name="LPARD"> F  </i>
   <i type="logical" name="LVTOT"> F  </i>
   <i type="logical" name="LELF"> F  </i>
   <i type="logical" name="LOPTICS"> F  </i>
   <v name="STM">      0.00000000      0.00000000      0.00000000      0.00000000      0.00000000</v>
  </separator>
  <separator name="performance" >
   <i type="int" name="NPAR">     8</i>
   <i type="int" name="NSIM">     4</i>
   <i type="int" name="NBLK">    32</i>
   <i type="logical" name="LPLANE"> T  </i>
   <i type="logical" name="LSCALAPACK"> T  </i>
   <i type="logical" name="LSCAAWARE"> F  </i>
   <i type="logical" name="LSCALU"> F  </i>
   <i type="logical" name="LASYNC"> F  </i>
  </separator>
  <separator name="miscellaneous" >
   <i type="int" name="IDIOT">     3</i>
   <i type="logical" name="LMUSIC"> F  </i>
   <v name="POMASS">     26.98200000</v>
   <i type="logical" name="LCORR"> T  </i>
  </separator>
  <i type="logical" name="LREAL_COMPAT"> F  </i>
  <i type="logical" name="GGA_COMPAT"> T  </i>
  <i type="logical" name="LBERRY"> F  </i>
  <i type="int" name="ICORELEVEL">     0</i>
  <i type="logical" name="LDAU"> F  </i>
  <i type="int" name="I_CONSTRAINED_M">     0</i>
  <separator name="electronic exchange-correlation" >
   <i type="string" name="GGA">--</i>
   <i type="int" name="VOSKOWN">     1</i>
   <i type="logical" name="LHFCALC"> F  </i>
   <i type="logical" name="LHFONE"> F  </i>
   <i type="logical" name="LRHFCALC"> F  </i>
   <i type="logical" name="LTHOMAS"> F  </i>
   <i type="logical" name="LMODELHF"> F  </i>
   <i name="ENCUTFOCK">      0.00000000</i>
   <i name="ENCUT4O">     -1.00000000</i>
   <i type="int" name="EXXOEP">     0</i>
   <i type="int" name="FOURORBIT">     0</i>
   <i name="AEXX">      0.00000000</i>
   <i name="HFALPHA">      0.00000000</i>
   <i name="ALDAX">      1.00000000</i>
   <i name="AGGAX">      1.00000000</i>
   <i name="ALDAC">      1.00000000</i>
   <i name="AGGAC">      1.00000000</i>
   <i type="int" name="NKREDX">     1</i>
   <i type="int" name="NKREDY">     1</i>
   <i type="int" name="NKREDZ">     1</i>
   <i type="logical" name="SHIFTRED"> F  </i>
   <i type="logical" name="ODDONLY"> F  </i>
   <i type="logical" name="EVENONLY"> F  </i>
   <i type="int" name="LMAXFOCK">     0</i>
   <i type="int" name="NMAXFOCKAE">     0</i>
   <i name="HFSCREEN">      0.00000000</i>
   <i name="HFSCREENC">      0.00000000</i>
  </separator>
  <separator name="model GW" >
   <i type="int" name="MODEL_GW">     0</i>
   <i name="MODEL_EPS0">      9.99379647</i>
   <i name="MODEL_ALPHA">      1.00000000</i>
  </separator>
  <separator name="linear response parameters" >
   <i type="logical" name="LEPSILON"> F  </i>
   <i type="logical" name="LRPA"> F  </i>
   <i type="logical" name="LNABLA"> F  </i>
   <i type="logical" name="LVEL"> F  </i>
   <i type="int" name="KINTER">     0</i>
   <i name="CSHIFT">      0.10000000</i>
   <i name="OMEGAMAX">     -1.00000000</i>
  </separator>
  <separator name="orbital magnetization" >
   <i type="logical" name="ORBITALMAG"> F  </i>
   <i type="logical" name="LMAGBLOCH"> F  </i>
   <i type="logical" name="LCHIMAG"> F  </i>
   <i type="logical" name="LGAUGE"> T  </i>
   <i type="int" name="MAGATOM">     0</i>
   <v name="MAGDIPOL">      0.00000000      0.00000000      0.00000000</v>
   <v name="AVECCONST">      0.00000000      0.00000000      0.00000000</v>
  </separator>
  <separator name="response functions" >
   <i type="logical" name="LRPA"> T  </i>
   <i type="logical" name="LTCTE"> F  </i>
   <i type="logical" name="LTETE"> F  </i>
   <i type="logical" name="L2ORDER"> F  </i>
   <i type="logical" name="LGWLF"> F  </i>
   <i name="ENCUTGW">    366.66666667</i>
   <i name="ENCUTGWSOFT">     -2.00000000</i>
   <i name="ENCUTLF">     -1.00000000</i>
   <i type="int" name="LMAXMP2">    -1</i>
   <i name="SCISSOR">      0.00000000</i>
   <i type="int" name="NOMEGA">     0</i>
   <i type="int" name="NOMEGAR">     0</i>
   <i type="int" name="NBANDSGW">    -1</i>
   <i type="int" name="NBANDSLF">    -1</i>
   <i type="int" name="NELM">     1</i>
   <i type="int" name="DIM">     3</i>
   <i type="int" name="ANTIRES">     0</i>
   <i type="logical" name="LUSEW"> F  </i>
   <i name="OMEGAMAX">    -30.00000000</i>
   <i name="OMEGATL">   -200.00000000</i>
   <i type="int" name="OMEGAGRID">     0</i>
   <i name="CSHIFT">     -0.10000000</i>
   <i type="logical" name="SELFENERGY"> F  </i>
   <i type="logical" name="LSPECTRAL"> F  </i>
   <i type="logical" name="ODDONLYGW"> F  </i>
   <i type="logical" name="EVENONLYGW"> F  </i>
   <i type="int" name="NKREDLFX">     1</i>
   <i type="int" name="NKREDLFY">     1</i>
   <i type="int" name="NKREDLFZ">     1</i>
   <i type="int" name="MAXMEM">  1024</i>
   <i type="int" name="TELESCOPE">     0</i>
  </separator>
 </parameters>
 <atominfo>
  <atoms>       4 </atoms>
  <types>       1 </types>
  <array name="atoms" >
   <dimension dim="1">ion</dimension>
   <field type="string">element</field>
   <field type="int">atomtype</field>
   <set>
    <rc><c>Al</c><c>   1</c></rc>
    <rc><c>Al</c><c>   1</c></rc>
    <rc><c>Al</c><c>   1</c></rc>
    <rc><c>Al</c><c>   1</c></rc>
   </set>
  </array>
  <array name="atomtypes" >
   <dimension dim="1">type</dimension>
   <field type="int">atomspertype</field>
   <field type="string">element</field>
   <field>mass</field>
   <field>valence</field>
   <field type="string">pseudopotential</field>
   <set>
    <rc><c>   4</c><c>Al</c><c>     26.98200000</c><c>      3.00000000</c><c> PAW_PBE Al 04Jan2001                   </c></rc>
   </set>
  </array>
 </atominfo>
 <structure name="initialpos" >
  <crystal>
   <varray name="basis" >
    <v>       4.04053900       0.00000000       0.00000000 </v>
    <v>       0.00000000       4.08094400       0.00000000 </v>
    <v>       0.00000000       0.00000000       4.04053900 </v>
   </varray>
   <i name="volume">     66.62530978 </i>
   <varray name="rec_basis" >
    <v>       0.24749173       0.00000000       0.00000000 </v>
    <v>       0.00000000       0.24504134       0.00000000 </v>
    <v>       0.00000000       0.00000000       0.24749173 </v>
   </varray>
  </crystal>
  <varray name="positions" >
   <v>       0.00000000       0.00000000       0.00000000 </v>
   <v>       0.50000000       0.50000000       0.00000000 </v>
[...]
      </set>
      <set comment="kpoint 718">
       <r>    1.3824    1.0000 </r>
       <r>    1.3824    1.0000 </r>
       <r>    1.3824    1.0000 </r>
       <r>    1.3824    1.0000 </r>
       <r>    8.0676   -0.0131 </r>
       <r>    8.0676   -0.0131 </r>
       <r>    8.0676   -0.0131 </r>
       <r>    8.0676   -0.0131 </r>
       <r>   11.6761    0.0000 </r>
       <r>   11.6761    0.0000 </r>
       <r>   11.6761    0.0000 </r>
       <r>   11.6761    0.0000 </r>
       <r>   17.5401    0.0000 </r>
       <r>   17.5401    0.0000 </r>
       <r>   17.5401    0.0000 </r>
       <r>   17.5401    0.0000 </r>
      </set>
      <set comment="kpoint 719">
       <r>    1.4901    1.0000 </r>
       <r>    1.4901    1.0000 </r>
       <r>    1.4901    1.0000 </r>
       <r>    1.4901    1.0000 </r>
       <r>    7.3819    1.0000 </r>
       <r>    7.3819    1.0000 </r>
       <r>    7.3819    1.0000 </r>
       <r>    7.3819    1.0000 </r>
       <r>   12.5443    0.0000 </r>
       <r>   12.5443    0.0000 </r>
       <r>   12.5443    0.0000 </r>
       <r>   12.5443    0.0000 </r>
       <r>   17.6359    0.0000 </r>
       <r>   17.6359    0.0000 </r>
       <r>   17.6359    0.0000 </r>
       <r>   17.6359    0.0000 </r>
      </set>
      <set comment="kpoint 720">
       <r>    1.6407    1.0000 </r>
       <r>    1.6407    1.0000 </r>
       <r>    1.6407    1.0000 </r>
       <r>    1.6407    1.0000 </r>
       <r>    6.7128    1.0000 </r>
       <r>    6.7128    1.0000 </r>
       <r>    6.7128    1.0000 </r>
       <r>    6.7128    1.0000 </r>
       <r>   13.4663    0.0000 </r>
       <r>   13.4663    0.0000 </r>
       <r>   13.4663    0.0000 </r>
       <r>   13.4663    0.0000 </r>
       <r>   17.7699    0.0000 </r>
       <r>   17.7699    0.0000 </r>
       <r>   17.7699    0.0000 </r>
       <r>   17.7699    0.0000 </r>
      </set>
      <set comment="kpoint 721">
       <r>    1.8341    1.0000 </r>
       <r>    1.8341    1.0000 </r>
       <r>    1.8341    1.0000 </r>
       <r>    1.8341    1.0000 </r>
       <r>    6.0739    1.0000 </r>
       <r>    6.0739    1.0000 </r>
       <r>    6.0739    1.0000 </r>
       <r>    6.0739    1.0000 </r>
       <r>   14.4253    0.0000 </r>
       <r>   14.4253    0.0000 </r>
       <r>   14.4253    0.0000 </r>
       <r>   14.4253    0.0000 </r>
       <r>   17.9423    0.0000 </r>
       <r>   17.9423    0.0000 </r>
       <r>   17.9423    0.0000 </r>
       <r>   17.9423    0.0000 </r>
      </set>
      <set comment="kpoint 722">
       <r>    2.0700    1.0000 </r>
       <r>    2.0700    1.0000 </r>
       <r>    2.0700    1.0000 </r>
       <r>    2.0700    1.0000 </r>
       <r>    5.4704    1.0000 </r>
       <r>    5.4704    1.0000 </r>
       <r>    5.4704    1.0000 </r>
       <r>    5.4704    1.0000 </r>
       <r>   15.4105    0.0000 </r>
       <r>   15.4105    0.0000 </r>
       <r>   15.4105    0.0000 </r>
       <r>   15.4105    0.0000 </r>
       <r>   18.1531    0.0000 </r>
       <r>   18.1531    0.0000 </r>
       <r>   18.1531    0.0000 </r>
       <r>   18.1531    0.0000 </r>
      </set>
      <set comment="kpoint 723">
       <r>    2.3481    1.0000 </r>
       <r>    2.3481    1.0000 </r>
       <r>    2.3481    1.0000 </r>
       <r>    2.3481    1.0000 </r>
       <r>    4.9050    1.0000 </r>
       <r>    4.9050    1.0000 </r>
       <r>    4.9050    1.0000 </r>
       <r>    4.9050    1.0000 </r>
       <r>   16.4086    0.0000 </r>
       <r>   16.4086    0.0000 </r>
       <r>   16.4086    0.0000 </r>
       <r>   16.4086    0.0000 </r>
       <r>   18.4022    0.0000 </r>
       <r>   18.4022    0.0000 </r>
       <r>   18.4022    0.0000 </r>
       <r>   18.4023    0.0000 </r>
      </set>
      <set comment="kpoint 724">
       <r>    2.6677    1.0000 </r>
       <r>    2.6677    1.0000 </r>
       <r>    2.6677    1.0000 </r>
       <r>    2.6677    1.0000 </r>
       <r>    4.3796    1.0000 </r>
       <r>    4.3796    1.0000 </r>
       <r>    4.3796    1.0000 </r>
       <r>    4.3796    1.0000 </r>
       <r>   17.3981    0.0000 </r>
       <r>   17.3981    0.0000 </r>
       <r>   17.3981    0.0000 </r>
       <r>   17.3981    0.0000 </r>
       <r>   18.6896    0.0000 </r>
       <r>   18.6896    0.0000 </r>
       <r>   18.6896    0.0000 </r>
       <r>   18.6896    0.0000 </r>
      </set>
      <set comment="kpoint 725">
       <r>    3.0259    1.0000 </r>
       <r>    3.0259    1.0000 </r>
       <r>    3.0259    1.0000 </r>
       <r>    3.0259    1.0000 </r>
       <r>    3.8976    1.0000 </r>
       <r>    3.8976    1.0000 </r>
       <r>    3.8976    1.0000 </r>
       <r>    3.8976    1.0000 </r>
       <r>   18.3360    0.0000 </r>
       <r>   18.3360    0.0000 </r>
       <r>   18.3360    0.0000 </r>
       <r>   18.3361    0.0000 </r>
       <r>   19.0145    0.0000 </r>
       <r>   19.0145    0.0000 </r>
       <r>   19.0145    0.0000 </r>
       <r>   19.0150    0.0000 </r>
      </set>
      <set comment="kpoint 726">
       <r>    3.3471    1.0000 </r>
       <r>    3.3471    1.0000 </r>
       <r>    3.3471    1.0000 </r>
       <r>    3.3471    1.0000 </r>
       <r>    3.5352    1.0000 </r>
       <r>    3.5352    1.0000 </r>
       <r>    3.5352    1.0000 </r>
       <r>    3.5352    1.0000 </r>
       <r>   19.0844    0.0000 </r>
       <r>   19.0862    0.0000 </r>
       <r>   19.0872    0.0000 </r>
       <r>   19.1133    0.0000 </r>
       <r>   19.2062    0.0000 </r>
       <r>   19.2124    0.0000 </r>
       <r>   19.2196    0.0000 </r>
       <r>   19.2996    0.0000 </r>
      </set>
     </set>
    </set>
   </array>
  </eigenvalues>
  <separator name="orbital magnetization" >
   <v name="MAGDIPOLOUT">      0.00000000      0.00000000      0.00000000</v>
  </separator>
  <dos>
   <i name="efermi">      7.92047040 </i>
   <total>
    <array>
     <dimension dim="1">gridpoints</dimension>
     <dimension dim="2">spin</dimension>
     <field>energy</field>
     <field>total</field>
     <field>integrated</field>
     <set>
      <set comment="spin 1">
       <r>  -4.2999   0.0000   0.0000 </r>
       <r>  -4.2169   0.0000   0.0000 </r>
       <r>  -4.1338   0.0000   0.0000 </r>
       <r>  -4.0508   0.0000   0.0000 </r>
       <r>  -3.9678   0.0000   0.0000 </r>
       <r>  -3.8847   0.0000   0.0000 </r>
       <r>  -3.8017   0.0000   0.0000 </r>
       <r>  -3.7186   0.0000   0.0000 </r>
       <r>  -3.6356   0.0000   0.0000 </r>
       <r>  -3.5526   0.0000   0.0000 </r>
       <r>  -3.4695   0.0000   0.0000 </r>
       <r>  -3.3865   0.0001   0.0000 </r>
       <r>  -3.3034   0.0002   0.0000 </r>
       <r>  -3.2204  -0.0034  -0.0002 </r>
       <r>  -3.1373   0.0259   0.0019 </r>
       <r>  -3.0543   0.1189   0.0118 </r>
       <r>  -2.9713   0.1808   0.0268 </r>
       <r>  -2.8882   0.2338   0.0462 </r>
       <r>  -2.8052   0.2485   0.0668 </r>
       <r>  -2.7221   0.3230   0.0937 </r>
       <r>  -2.6391   0.2931   0.1180 </r>
       <r>  -2.5560   0.3717   0.1489 </r>
       <r>  -2.4730   0.3892   0.1812 </r>
       <r>  -2.3900   0.3731   0.2122 </r>
       <r>  -2.3069   0.4245   0.2474 </r>
       <r>  -2.2239   0.4799   0.2873 </r>
       <r>  -2.1408   0.4631   0.3257 </r>
       <r>  -2.0578   0.3983   0.3588 </r>
       <r>  -1.9748   0.6006   0.4087 </r>
       <r>  -1.8917   0.5313   0.4528 </r>
       <r>  -1.8087   0.4734   0.4921 </r>
       <r>  -1.7256   0.5403   0.5370 </r>
       <r>  -1.6426   0.6524   0.5912 </r>
       <r>  -1.5595   0.5468   0.6366 </r>
       <r>  -1.4765   0.6440   0.6901 </r>
       <r>  -1.3935   0.5809   0.7383 </r>
       <r>  -1.3104   0.5841   0.7868 </r>
       <r>  -1.2274   0.6877   0.8439 </r>
       <r>  -1.1443   0.8057   0.9108 </r>
       <r>  -1.0613   0.5855   0.9594 </r>
       <r>  -0.9783   0.5460   1.0048 </r>
       <r>  -0.8952   0.8367   1.0743 </r>
       <r>  -0.8122   0.7449   1.1361 </r>
       <r>  -0.7291   0.7633   1.1995 </r>
       <r>  -0.6461   0.6687   1.2550 </r>
       <r>  -0.5630   0.8022   1.3216 </r>
       <r>  -0.4800   0.7235   1.3817 </r>
       <r>  -0.3970   0.7803   1.4465 </r>
       <r>  -0.3139   0.8331   1.5157 </r>
       <r>  -0.2309   0.8522   1.5865 </r>
       <r>  -0.1478   0.8548   1.6575 </r>
       <r>  -0.0648   0.8208   1.7256 </r>
       <r>   0.0182   0.6700   1.7813 </r>
       <r>   0.1013   0.8548   1.8522 </r>
       <r>   0.1843   1.0638   1.9406 </r>
       <r>   0.2674   0.9777   2.0218 </r>
       <r>   0.3504   0.7365   2.0829 </r>
       <r>   0.4335   0.8279   2.1517 </r>
       <r>   0.5165   0.9809   2.2331 </r>
       <r>   0.5995   0.8591   2.3045 </r>
       <r>   0.6826   1.0969   2.3956 </r>
       <r>   0.7656   0.8383   2.4652 </r>
       <r>   0.8487   0.9409   2.5433 </r>
       <r>   0.9317   1.1095   2.6354 </r>
       <r>   1.0147   1.0239   2.7205 </r>
       <r>   1.0978   0.7458   2.7824 </r>
       <r>   1.1808   1.0424   2.8690 </r>
       <r>   1.2639   1.0480   2.9560 </r>
       <r>   1.3469   1.0000   3.0390 </r>
       <r>   1.4300   1.1578   3.1352 </r>
       <r>   1.5130   1.1912   3.2341 </r>
       <r>   1.5960   0.8578   3.3053 </r>
       <r>   1.6791   0.9612   3.3852 </r>
       <r>   1.7621   1.0670   3.4738 </r>
       <r>   1.8452   1.0778   3.5633 </r>
       <r>   1.9282   1.2209   3.6646 </r>
       <r>   2.0112   1.2179   3.7658 </r>
       <r>   2.0943   1.0840   3.8558 </r>
       <r>   2.1773   0.8967   3.9303 </r>
       <r>   2.2604   1.2294   4.0324 </r>
       <r>   2.3434   1.2547   4.1366 </r>
       <r>   2.4265   1.1252   4.2300 </r>
       <r>   2.5095   0.9922   4.3124 </r>
       <r>   2.5925   1.2263   4.4142 </r>
       <r>   2.6756   1.1484   4.5096 </r>
       <r>   2.7586   1.3686   4.6232 </r>
       <r>   2.8417   1.3055   4.7316 </r>
       <r>   2.9247   1.1220   4.8248 </r>
       <r>   3.0077   1.1483   4.9202 </r>
       <r>   3.0908   1.1607   5.0166 </r>
       <r>   3.1738   1.1200   5.1096 </r>
       <r>   3.2569   1.3248   5.2196 </r>
       <r>   3.3399   1.4753   5.3421 </r>
       <r>   3.4230   1.3677   5.4557 </r>
       <r>   3.5060   1.1971   5.5551 </r>
       <r>   3.5890   1.2119   5.6557 </r>
       <r>   3.6721   1.2861   5.7625 </r>
       <r>   3.7551   1.2471   5.8661 </r>
       <r>   3.8382   1.1905   5.9649 </r>
       <r>   3.9212   1.4194   6.0828 </r>
       <r>   4.0042   1.4511   6.2033 </r>
       <r>   4.0873   1.3878   6.3185 </r>
       <r>   4.1703   1.3115   6.4275 </r>
       <r>   4.2534   1.1842   6.5258 </r>
       <r>   4.3364   1.4862   6.6492 </r>
       <r>   4.4195   1.4655   6.7709 </r>
       <r>   4.5025   1.4362   6.8902 </r>
       <r>   4.5855   1.3631   7.0034 </r>
       <r>   4.6686   1.3679   7.1170 </r>
       <r>   4.7516   1.2681   7.2223 </r>
       <r>   4.8347   1.4917   7.3461 </r>
       <r>   4.9177   1.7444   7.4910 </r>
       <r>   5.0007   1.6534   7.6283 </r>
       <r>   5.0838   1.4579   7.7494 </r>
       <r>   5.1668   1.4421   7.8691 </r>
       <r>   5.2499   1.3457   7.9809 </r>
       <r>   5.3329   1.5341   8.1083 </r>
       <r>   5.4160   1.9177   8.2675 </r>
       <r>   5.4990   1.3883   8.3828 </r>
       <r>   5.5820   1.1803   8.4808 </r>
       <r>   5.6651   1.6309   8.6162 </r>
       <r>   5.7481   1.7029   8.7576 </r>
       <r>   5.8312   1.2541   8.8618 </r>
       <r>   5.9142   1.2533   8.9659 </r>
       <r>   5.9973   1.5551   9.0950 </r>
       <r>   6.0803   1.4777   9.2177 </r>
       <r>   6.1633   1.3280   9.3280 </r>
       <r>   6.2464   1.3225   9.4378 </r>
       <r>   6.3294   1.5456   9.5662 </r>
       <r>   6.4125   1.5998   9.6990 </r>
       <r>   6.4955   1.2095   9.7995 </r>
       <r>   6.5785   1.4216   9.9175 </r>
       <r>   6.6616   1.4746  10.0400 </r>
       <r>   6.7446   1.4863  10.1634 </r>
       <r>   6.8277   1.7400  10.3079 </r>
       <r>   6.9107   1.5655  10.4379 </r>
       <r>   6.9938   1.5497  10.5666 </r>
       <r>   7.0768   1.6873  10.7067 </r>
       <r>   7.1598   1.5575  10.8360 </r>
       <r>   7.2429   1.5163  10.9619 </r>
       <r>   7.3259   1.3247  11.0720 </r>
       <r>   7.4090   1.6542  11.2093 </r>
       <r>   7.4920   1.6823  11.3490 </r>
       <r>   7.5750   1.4623  11.4705 </r>
       <r>   7.6581   1.4838  11.5937 </r>
       <r>   7.7411   1.5724  11.7242 </r>
       <r>   7.8242   1.5667  11.8544 </r>
       <r>   7.9072   1.5077  11.9795 </r>
       <r>   7.9903   1.7122  12.1217 </r>
       <r>   8.0733   1.9586  12.2844 </r>
       <r>   8.1563   1.8259  12.4360 </r>
       <r>   8.2394   1.6790  12.5754 </r>
       <r>   8.3224   1.3083  12.6841 </r>
       <r>   8.4055   1.6125  12.8180 </r>
       <r>   8.4885   1.5369  12.9456 </r>
       <r>   8.5715   1.5426  13.0737 </r>
       <r>   8.6546   1.8906  13.2307 </r>
       <r>   8.7376   2.0727  13.4028 </r>
       <r>   8.8207   1.9948  13.5685 </r>
       <r>   8.9037   1.5511  13.6973 </r>
       <r>   8.9868   1.5541  13.8263 </r>
       <r>   9.0698   1.5912  13.9585 </r>
       <r>   9.1528   1.5236  14.0850 </r>
       <r>   9.2359   1.5368  14.2126 </r>
       <r>   9.3189   1.8841  14.3691 </r>
       <r>   9.4020   1.9114  14.5278 </r>
       <r>   9.4850   1.6113  14.6616 </r>
       <r>   9.5680   1.9863  14.8266 </r>
       <r>   9.6511   1.8899  14.9835 </r>
       <r>   9.7341   1.8287  15.1354 </r>
       <r>   9.8172   1.6671  15.2738 </r>
       <r>   9.9002   1.4655  15.3955 </r>
       <r>   9.9833   1.8416  15.5484 </r>
       <r>  10.0663   1.9830  15.7131 </r>
       <r>  10.1493   1.9901  15.8783 </r>
       <r>  10.2324   1.5562  16.0076 </r>
       <r>  10.3154   1.8680  16.1627 </r>
       <r>  10.3985   2.1169  16.3385 </r>
       <r>  10.4815   1.7316  16.4823 </r>
       <r>  10.5645   1.3356  16.5932 </r>
       <r>  10.6476   1.9584  16.7558 </r>
       <r>  10.7306   2.2866  16.9457 </r>
       <r>  10.8137   1.9974  17.1116 </r>
       <r>  10.8967   1.5125  17.2372 </r>
       <r>  10.9798   2.0506  17.4075 </r>
       <r>  11.0628   2.0537  17.5780 </r>
       <r>  11.1458   1.9858  17.7429 </r>
       <r>  11.2289   1.7152  17.8853 </r>
       <r>  11.3119   1.8208  18.0365 </r>
       <r>  11.3950   1.9551  18.1989 </r>
       <r>  11.4780   1.8785  18.3549 </r>
       <r>  11.5610   1.5454  18.4832 </r>
       <r>  11.6441   2.2594  18.6708 </r>
       <r>  11.7271   2.4829  18.8770 </r>
       <r>  11.8102   1.8679  19.0321 </r>
       <r>  11.8932   1.7445  19.1770 </r>
       <r>  11.9763   2.0552  19.3477 </r>
       <r>  12.0593   2.0383  19.5169 </r>
       <r>  12.1423   2.0229  19.6849 </r>
       <r>  12.2254   1.9630  19.8479 </r>
       <r>  12.3084   2.1098  20.0231 </r>
       <r>  12.3915   2.0154  20.1905 </r>
       <r>  12.4745   1.9353  20.3512 </r>
       <r>  12.5575   1.8818  20.5075 </r>
       <r>  12.6406   1.8632  20.6622 </r>
       <r>  12.7236   2.5022  20.8700 </r>
       <r>  12.8067   2.3621  21.0661 </r>
       <r>  12.8897   2.0992  21.2405 </r>
       <r>  12.9728   2.1278  21.4172 </r>
       <r>  13.0558   2.0972  21.5913 </r>
       <r>  13.1388   2.0548  21.7620 </r>
       <r>  13.2219   1.9501  21.9239 </r>
       <r>  13.3049   2.1183  22.0998 </r>
       <r>  13.3880   2.6894  22.3231 </r>
       <r>  13.4710   2.6243  22.5411 </r>
       <r>  13.5540   2.1918  22.7231 </r>
       <r>  13.6371   2.2336  22.9085 </r>
       <r>  13.7201   2.1778  23.0894 </r>
       <r>  13.8032   2.3257  23.2825 </r>
       <r>  13.8862   2.2948  23.4731 </r>
       <r>  13.9693   2.4307  23.6749 </r>
       <r>  14.0523   2.3762  23.8723 </r>
       <r>  14.1353   2.2085  24.0557 </r>
       <r>  14.2184   2.3716  24.2526 </r>
       <r>  14.3014   2.3486  24.4476 </r>
       <r>  14.3845   1.9747  24.6116 </r>
       <r>  14.4675   2.0481  24.7817 </r>
       <r>  14.5505   2.3280  24.9750 </r>
       <r>  14.6336   2.3334  25.1688 </r>
       <r>  14.7166   2.2597  25.3564 </r>
       <r>  14.7997   1.9392  25.5175 </r>
       <r>  14.8827   1.7547  25.6632 </r>
       <r>  14.9658   2.2845  25.8529 </r>
       <r>  15.0488   2.2976  26.0437 </r>
       <r>  15.1318   2.0877  26.2171 </r>
       <r>  15.2149   2.1974  26.3995 </r>
       <r>  15.2979   2.3311  26.5931 </r>
       <r>  15.3810   2.0718  26.7652 </r>
       <r>  15.4640   2.1457  26.9433 </r>
       <r>  15.5471   2.3598  27.1393 </r>
       <r>  15.6301   1.9808  27.3038 </r>
       <r>  15.7131   1.9117  27.4625 </r>
       <r>  15.7962   1.7538  27.6082 </r>
       <r>  15.8792   2.2204  27.7926 </r>
       <r>  15.9623   2.3545  27.9881 </r>
       <r>  16.0453   2.2497  28.1749 </r>
       <r>  16.1283   2.1308  28.3519 </r>
       <r>  16.2114   1.8923  28.5090 </r>
       <r>  16.2944   1.9408  28.6702 </r>
       <r>  16.3775   2.0329  28.8390 </r>
       <r>  16.4605   1.7998  28.9884 </r>
       <r>  16.5436   2.1437  29.1665 </r>
       <r>  16.6266   2.0774  29.3390 </r>
       <r>  16.7096   2.1211  29.5151 </r>
       <r>  16.7927   2.2125  29.6988 </r>
       <r>  16.8757   1.6797  29.8383 </r>
       <r>  16.9588   1.4223  29.9564 </r>
       <r>  17.0418   1.8161  30.1072 </r>
       <r>  17.1248   1.6413  30.2435 </r>
       <r>  17.2079   1.6556  30.3810 </r>
       <r>  17.2909   1.7641  30.5275 </r>
       <r>  17.3740   1.3561  30.6401 </r>
       <r>  17.4570   1.3507  30.7523 </r>
       <r>  17.5401   1.2612  30.8570 </r>
       <r>  17.6231   1.2535  30.9611 </r>
       <r>  17.7061   1.1924  31.0601 </r>
       <r>  17.7892   1.2255  31.1619 </r>
       <r>  17.8722   0.9652  31.2421 </r>
       <r>  17.9553   0.9849  31.3239 </r>
       <r>  18.0383   1.1021  31.4154 </r>
       <r>  18.1213   0.9660  31.4956 </r>
       <r>  18.2044   0.8286  31.5644 </r>
       <r>  18.2874   0.9820  31.6459 </r>
       <r>  18.3705   0.8719  31.7184 </r>
       <r>  18.4535   0.7335  31.7793 </r>
       <r>  18.5366   0.5475  31.8247 </r>
       <r>  18.6196   0.4777  31.8644 </r>
       <r>  18.7026   0.3546  31.8938 </r>
       <r>  18.7857   0.4260  31.9292 </r>
       <r>  18.8687   0.2106  31.9467 </r>
       <r>  18.9518   0.0543  31.9512 </r>
       <r>  19.0348   0.2223  31.9697 </r>
       <r>  19.1178   0.1865  31.9852 </r>
       <r>  19.2009   0.0682  31.9908 </r>
       <r>  19.2839   0.0816  31.9976 </r>
       <r>  19.3670   0.0054  31.9981 </r>
       <r>  19.4500   0.0037  31.9984 </r>
       <r>  19.5331   0.0185  31.9999 </r>
       <r>  19.6161   0.0017  32.0000 </r>
       <r>  19.6991  -0.0006  32.0000 </r>
       <r>  19.7822   0.0001  32.0000 </r>
       <r>  19.8652   0.0000  32.0000 </r>
       <r>  19.9483   0.0000  32.0000 </r>
       <r>  20.0313   0.0000  32.0000 </r>
       <r>  20.1143   0.0000  32.0000 </r>
       <r>  20.1974   0.0000  32.0000 </r>
       <r>  20.2804   0.0000  32.0000 </r>
       <r>  20.3635   0.0000  32.0000 </r>
       <r>  20.4465   0.0000  32.0000 </r>
       <r>  20.5296   0.0000  32.0000 </r>
       <r>  20.6126   0.0000  32.0000 </r>
      </set>
     </set>
    </array>
   </total>
  </dos>
 </calculation>
 <structure name="finalpos" >
  <crystal>
   <varray name="basis" >
    <v>       4.04053900       0.00000000       0.00000000 </v>
    <v>       0.00000000       4.08094400       0.00000000 </v>
    <v>       0.00000000       0.00000000       4.04053900 </v>
   </varray>
   <i name="volume">     66.62530978 </i>
   <varray name="rec_basis" >
    <v>       0.24749173       0.00000000       0.00000000 </v>
    <v>       0.00000000       0.24504134       0.00000000 </v>
    <v>       0.00000000       0.00000000       0.24749173 </v>
   </varray>
  </crystal>
  <varray name="positions" >
   <v>       0.00000000       0.00000000       0.00000000 </v>
   <v>       0.50000000       0.50000000       0.00000000 </v>
   <v>       0.50000000       0.00000000       0.50000000 </v>
   <v>       0.00000000       0.50000000       0.50000000 </v>
  </varray>
 </structure>
</modeling>
