<?xml version="1.0" encoding="ISO-8859-1"?>
<modeling>
 <generator>
  <i name="program" type="string">vasp </i>
  <i name="version" type="string">5.3.5  </i>
  <i name="subversion" type="string">31Mar14 (build Nov 26 2015 00:12:42) complex                          parallel </i>
  <i name="platform" type="string">LinuxIFC </i>
  <i name="date" type="string">2016 06 05 </i>
  <i name="time" type="string">03:09:12 </i>
 </generator>
 <incar>
  <i type="int" name="ISTART">     0</i>
  <i type="string" name="PREC">accurate</i>
  <i type="int" name="NELMIN">     5</i>
  <i name="EDIFF">     -0.00000000</i>
  <i name="ENCUT">   1225.00000000</i>
  <i type="string" name="LREAL"> Auto</i>
  <i type="int" name="ISMEAR">    -5</i>
  <i name="SIGMA">      0.01000000</i>
  <i type="logical" name="LWAVE"> F  </i>
  <i type="logical" name="LCHARG"> F  </i>
  <i type="logical" name="LCHIMAG"> T  </i>
  <i name="DQ">      0.00100000</i>
  <i type="int" name="ICHIBARE">     1</i>
  <i type="logical" name="LNMR_SYM_RED"> T  </i>
 </incar>
 <kpoints>
  <generation param="Gamma">
   <v type="int" name="divisions">       9        9        9 </v>
   <v name="usershift">      0.00000000       0.00000000       0.00000000 </v>
   <v name="genvec1">      0.11111111       0.00000000      -0.00000000 </v>
   <v name="genvec2">      0.00000000       0.11111111       0.00000000 </v>
   <v name="genvec3">      0.00000000       0.00000000       0.11111111 </v>
   <v name="shift">      0.00000000       0.00000000       0.00000000 </v>
  </generation>
  <varray name="kpointlist" >
   <v>       0.00000000       0.00000000       0.00000000 </v>
   <v>       0.11111111       0.00000000       0.00000000 </v>
   <v>       0.22222222       0.00000000       0.00000000 </v>
   <v>       0.33333333       0.00000000       0.00000000 </v>
   <v>       0.44444444       0.00000000       0.00000000 </v>
   <v>       0.11111111       0.11111111      -0.00000000 </v>
   <v>       0.22222222       0.11111111      -0.00000000 </v>
   <v>       0.33333333       0.11111111      -0.00000000 </v>
   <v>       0.44444444       0.11111111      -0.00000000 </v>
   <v>      -0.44444444       0.11111111      -0.00000000 </v>
   <v>      -0.33333333       0.11111111       0.00000000 </v>
   <v>      -0.22222222       0.11111111      -0.00000000 </v>
   <v>      -0.11111111       0.11111111      -0.00000000 </v>
   <v>       0.22222222       0.22222222       0.00000000 </v>
   <v>       0.33333333       0.22222222      -0.00000000 </v>
   <v>       0.44444444       0.22222222       0.00000000 </v>
   <v>      -0.44444444       0.22222222      -0.00000000 </v>
   <v>      -0.33333333       0.22222222      -0.00000000 </v>
   <v>      -0.22222222       0.22222222       0.00000000 </v>
   <v>       0.33333333       0.33333333      -0.00000000 </v>
   <v>       0.44444444       0.33333333       0.00000000 </v>
   <v>      -0.44444444       0.33333333       0.00000000 </v>
   <v>      -0.33333333       0.33333333       0.00000000 </v>
   <v>       0.44444444       0.44444444       0.00000000 </v>
   <v>      -0.44444444       0.44444444       0.00000000 </v>
   <v>       0.00000000       0.00000000       0.11111111 </v>
   <v>       0.22222222       0.00000000       0.11111111 </v>
   <v>       0.33333333       0.00000000       0.11111111 </v>
   <v>       0.44444444       0.00000000       0.11111111 </v>
   <v>      -0.44444444       0.00000000       0.11111111 </v>
   <v>      -0.33333333       0.00000000       0.11111111 </v>
   <v>      -0.22222222       0.00000000       0.11111111 </v>
   <v>      -0.11111111       0.00000000       0.11111111 </v>
   <v>       0.33333333       0.22222222       0.11111111 </v>
   <v>       0.44444444       0.22222222       0.11111111 </v>
   <v>      -0.44444444       0.22222222       0.11111111 </v>
   <v>       0.33333333       0.33333333       0.11111111 </v>
   <v>       0.44444444       0.33333333       0.11111111 </v>
   <v>      -0.44444444       0.33333333       0.11111111 </v>
   <v>      -0.33333333       0.33333333       0.11111111 </v>
   <v>      -0.22222222       0.33333333       0.11111111 </v>
   <v>      -0.11111111       0.33333333       0.11111111 </v>
   <v>       0.44444444       0.44444444       0.11111111 </v>
   <v>      -0.44444444       0.44444444       0.11111111 </v>
   <v>      -0.33333333       0.44444444       0.11111111 </v>
   <v>      -0.22222222       0.44444444       0.11111111 </v>
   <v>      -0.11111111       0.44444444       0.11111111 </v>
   <v>      -0.44444444      -0.44444444       0.11111111 </v>
   <v>      -0.33333333      -0.44444444       0.11111111 </v>
   <v>      -0.22222222      -0.44444444       0.11111111 </v>
   <v>      -0.11111111      -0.44444444       0.11111111 </v>
   <v>      -0.33333333      -0.33333333       0.11111111 </v>
   <v>      -0.22222222      -0.33333333       0.11111111 </v>
   <v>      -0.11111111      -0.33333333       0.11111111 </v>
   <v>      -0.22222222      -0.22222222       0.11111111 </v>
   <v>      -0.11111111      -0.22222222       0.11111111 </v>
   <v>      -0.11111111      -0.11111111       0.11111111 </v>
   <v>       0.00000000       0.00000000       0.22222222 </v>
   <v>       0.44444444       0.00000000       0.22222222 </v>
   <v>      -0.44444444       0.00000000       0.22222222 </v>
   <v>      -0.33333333       0.00000000       0.22222222 </v>
   <v>      -0.22222222       0.00000000       0.22222222 </v>
   <v>      -0.11111111       0.00000000       0.22222222 </v>
   <v>      -0.44444444       0.44444444       0.22222222 </v>
   <v>      -0.33333333       0.44444444       0.22222222 </v>
   <v>      -0.44444444      -0.44444444       0.22222222 </v>
   <v>      -0.33333333      -0.44444444       0.22222222 </v>
   <v>      -0.22222222      -0.44444444       0.22222222 </v>
   <v>      -0.11111111      -0.44444444       0.22222222 </v>
   <v>      -0.33333333      -0.33333333       0.22222222 </v>
   <v>      -0.22222222      -0.33333333       0.22222222 </v>
   <v>      -0.11111111      -0.33333333       0.22222222 </v>
   <v>      -0.22222222      -0.22222222       0.22222222 </v>
   <v>      -0.11111111      -0.22222222       0.22222222 </v>
   <v>      -0.11111111      -0.11111111       0.22222222 </v>
   <v>       0.00000000       0.00000000       0.33333333 </v>
   <v>      -0.33333333       0.00000000       0.33333333 </v>
   <v>      -0.22222222       0.00000000       0.33333333 </v>
   <v>      -0.11111111       0.00000000       0.33333333 </v>
   <v>      -0.22222222      -0.33333333       0.33333333 </v>
   <v>      -0.22222222      -0.22222222       0.33333333 </v>
   <v>      -0.11111111      -0.22222222       0.33333333 </v>
   <v>      -0.11111111      -0.11111111       0.33333333 </v>
   <v>       0.00000000       0.00000000       0.44444444 </v>
   <v>      -0.11111111       0.00000000       0.44444444 </v>
  </varray>
  <varray name="weights" >
   <v>       0.00137174 </v>
   <v>       0.00823045 </v>
   <v>       0.00823045 </v>
   <v>       0.00823045 </v>
   <v>       0.00823045 </v>
   <v>       0.00823045 </v>
   <v>       0.01646091 </v>
   <v>       0.01646091 </v>
   <v>       0.01646091 </v>
   <v>       0.01646091 </v>
   <v>       0.01646091 </v>
   <v>       0.01646091 </v>
   <v>       0.00823045 </v>
   <v>       0.00823045 </v>
   <v>       0.01646091 </v>
   <v>       0.01646091 </v>
   <v>       0.01646091 </v>
   <v>       0.01646091 </v>
   <v>       0.00823045 </v>
   <v>       0.00823045 </v>
   <v>       0.01646091 </v>
   <v>       0.01646091 </v>
   <v>       0.00823045 </v>
   <v>       0.00823045 </v>
   <v>       0.00823045 </v>
   <v>       0.00274348 </v>
   <v>       0.00823045 </v>
   <v>       0.00823045 </v>
   <v>       0.00823045 </v>
   <v>       0.00823045 </v>
   <v>       0.00823045 </v>
   <v>       0.00823045 </v>
   <v>       0.00823045 </v>
   <v>       0.01646091 </v>
   <v>       0.01646091 </v>
   <v>       0.01646091 </v>
   <v>       0.00823045 </v>
   <v>       0.01646091 </v>
   <v>       0.01646091 </v>
   <v>       0.01646091 </v>
   <v>       0.01646091 </v>
   <v>       0.01646091 </v>
   <v>       0.00823045 </v>
   <v>       0.01646091 </v>
   <v>       0.01646091 </v>
   <v>       0.01646091 </v>
   <v>       0.01646091 </v>
   <v>       0.00823045 </v>
   <v>       0.01646091 </v>
   <v>       0.01646091 </v>
   <v>       0.01646091 </v>
   <v>       0.00823045 </v>
   <v>       0.01646091 </v>
   <v>       0.01646091 </v>
   <v>       0.00823045 </v>
   <v>       0.01646091 </v>
   <v>       0.00823045 </v>
   <v>       0.00274348 </v>
   <v>       0.00823045 </v>
   <v>       0.00823045 </v>
   <v>       0.00823045 </v>
   <v>       0.00823045 </v>
   <v>       0.00823045 </v>
   <v>       0.01646091 </v>
   <v>       0.01646091 </v>
   <v>       0.00823045 </v>
   <v>       0.01646091 </v>
   <v>       0.01646091 </v>
   <v>       0.01646091 </v>
   <v>       0.00823045 </v>
   <v>       0.01646091 </v>
   <v>       0.01646091 </v>
   <v>       0.00823045 </v>
   <v>       0.01646091 </v>
   <v>       0.00823045 </v>
   <v>       0.00274348 </v>
   <v>       0.00823045 </v>
   <v>       0.00823045 </v>
   <v>       0.00823045 </v>
   <v>       0.01646091 </v>
   <v>       0.00823045 </v>
   <v>       0.01646091 </v>
   <v>       0.00823045 </v>
   <v>       0.00274348 </v>
   <v>       0.00823045 </v>
  </varray>
  <varray name="tetrahedronlist"  type="int" >
   <v type="int" >       12        1        2        2        6 </v>
   <v type="int" >       12        1        2        6       26 </v>
   <v type="int" >       12        2        6        7       13 </v>
   <v type="int" >       12        2        3        7       13 </v>
   <v type="int" >       12        2        3       13       27 </v>
   <v type="int" >       12        2        2        6       13 </v>
   <v type="int" >       12        2        6       13       27 </v>
   <v type="int" >       12        3        7        8       12 </v>
   <v type="int" >       12        3        4        8       12 </v>
   <v type="int" >       12        3        4       12       28 </v>
   <v type="int" >       12        3        7       12       13 </v>
   <v type="int" >       12        3       12       13       27 </v>
   <v type="int" >       12        3       12       27       28 </v>
   <v type="int" >       12        4        8        9       11 </v>
   <v type="int" >       12        4        5        9       11 </v>
   <v type="int" >       12        4        5       11       29 </v>
   <v type="int" >       12        4        8       11       12 </v>
   <v type="int" >       12        4       11       12       28 </v>
   <v type="int" >       12        4       11       28       29 </v>
   <v type="int" >       12        5        9       10       10 </v>
   <v type="int" >        6        5        5       10       10 </v>
   <v type="int" >       12        5        5       10       30 </v>
   <v type="int" >       12        5        9       10       11 </v>
   <v type="int" >       12        5       10       11       29 </v>
   <v type="int" >       12        5       10       29       30 </v>
   <v type="int" >       12        4        5        9       31 </v>
   <v type="int" >       12        5        9       10       30 </v>
   <v type="int" >       12        5        9       30       31 </v>
   <v type="int" >       12        3        4        8       32 </v>
   <v type="int" >       12        4        8        9       31 </v>
   <v type="int" >       12        4        8       31       32 </v>
   <v type="int" >       12        2        3        7       33 </v>
   <v type="int" >       12        3        7        8       32 </v>
   <v type="int" >       12        3        7       32       33 </v>
   <v type="int" >       12        2        6        7       33 </v>
   <v type="int" >       12        2        6       26       33 </v>
   <v type="int" >       12        6        7       14       27 </v>
   <v type="int" >       12        6        7       13       27 </v>
   <v type="int" >       12        7       14       15       34 </v>
   <v type="int" >       12        7        8       15       34 </v>
   <v type="int" >       12        7        8       12       34 </v>
   <v type="int" >       12        7       14       27       34 </v>
   <v type="int" >       12        7       13       27       34 </v>
   <v type="int" >       12        7       12       13       34 </v>
   <v type="int" >       12        8       15       16       35 </v>
   <v type="int" >       12        8        9       16       35 </v>
   <v type="int" >       12        8        9       11       35 </v>
   <v type="int" >       12        8       15       34       35 </v>
   <v type="int" >       12        8       12       34       35 </v>
   <v type="int" >       12        8       11       12       35 </v>
   <v type="int" >       12        9       16       17       36 </v>
   <v type="int" >       12        9       10       17       36 </v>
   <v type="int" >       12        9       10       10       36 </v>
   <v type="int" >       12        9       16       35       36 </v>
   <v type="int" >       12        9       11       35       36 </v>
   <v type="int" >       12        9       10       11       36 </v>
   <v type="int" >       12       10       17       18       36 </v>
   <v type="int" >       12       10       11       18       36 </v>
   <v type="int" >       12       10       17       36       36 </v>
   <v type="int" >        6       10       10       36       36 </v>
   <v type="int" >       12       11       18       19       35 </v>
   <v type="int" >       12       11       12       19       35 </v>
   <v type="int" >       12       11       18       35       36 </v>
   <v type="int" >       12       12       12       19       34 </v>
   <v type="int" >       12       12       12       13       34 </v>
   <v type="int" >       12       12       19       34       35 </v>
   <v type="int" >       12       12       13       27       34 </v>
   <v type="int" >       12       14       15       20       37 </v>
   <v type="int" >       12       14       15       34       37 </v>
   <v type="int" >       12       14       27       34       37 </v>
   <v type="int" >       12       15       20       21       38 </v>
   <v type="int" >       12       15       16       21       38 </v>
   <v type="int" >       12       15       16       35       38 </v>
   <v type="int" >       12       15       20       37       38 </v>
   <v type="int" >       12       15       34       37       38 </v>
   <v type="int" >       12       15       34       35       38 </v>
   <v type="int" >       12       16       21       22       39 </v>
   <v type="int" >       12       16       17       22       39 </v>
   <v type="int" >       12       16       17       36       39 </v>
   <v type="int" >       12       16       21       38       39 </v>
   <v type="int" >       12       16       35       38       39 </v>
   <v type="int" >       12       16       35       36       39 </v>
   <v type="int" >       12       17       22       23       40 </v>
   <v type="int" >       12       17       18       23       40 </v>
   <v type="int" >       12       17       18       36       40 </v>
   <v type="int" >       12       17       22       39       40 </v>
   <v type="int" >       12       17       36       39       40 </v>
   <v type="int" >       12       17       36       36       40 </v>
   <v type="int" >       12       18       18       23       41 </v>
   <v type="int" >       12       18       18       19       41 </v>
   <v type="int" >       12       18       19       35       41 </v>
   <v type="int" >       12       18       23       40       41 </v>
   <v type="int" >       12       18       36       40       41 </v>
   <v type="int" >       12       18       35       36       41 </v>
   <v type="int" >       12       11       18       19       42 </v>
   <v type="int" >       12       11       12       19       42 </v>
   <v type="int" >       12       12       19       34       42 </v>
   <v type="int" >       12       18       19       41       42 </v>
   <v type="int" >       12       19       35       41       42 </v>
   <v type="int" >       12       19       34       35       42 </v>
   <v type="int" >       12       11       12       28       42 </v>
   <v type="int" >       12       12       28       34       42 </v>
   <v type="int" >       12       12       27       28       34 </v>
   <v type="int" >       12       20       21       24       43 </v>
   <v type="int" >       12       20       21       38       43 </v>
   <v type="int" >       12       20       37       38       43 </v>
   <v type="int" >       12       21       24       25       44 </v>
   <v type="int" >       12       21       22       25       44 </v>
   <v type="int" >       12       21       22       39       44 </v>
   <v type="int" >       12       21       24       43       44 </v>
   <v type="int" >       12       21       38       43       44 </v>
   <v type="int" >       12       21       38       39       44 </v>
   <v type="int" >       12       22       22       25       45 </v>
   <v type="int" >       12       22       22       23       45 </v>
   <v type="int" >       12       22       23       40       45 </v>
   <v type="int" >       12       22       25       44       45 </v>
   <v type="int" >       12       22       39       44       45 </v>
   <v type="int" >       12       22       39       40       45 </v>
   <v type="int" >       12       17       22       23       46 </v>
   <v type="int" >       12       17       18       23       46 </v>
   <v type="int" >       12       18       23       41       46 </v>
   <v type="int" >       12       22       23       45       46 </v>
   <v type="int" >       12       23       40       45       46 </v>
   <v type="int" >       12       23       40       41       46 </v>
   <v type="int" >       12       10       17       18       47 </v>
   <v type="int" >       12       10       11       18       47 </v>
   <v type="int" >       12       11       18       42       47 </v>
   <v type="int" >       12       17       18       46       47 </v>
   <v type="int" >       12       18       41       46       47 </v>
   <v type="int" >       12       18       41       42       47 </v>
   <v type="int" >       12       10       11       29       47 </v>
   <v type="int" >       12       11       29       42       47 </v>
   <v type="int" >       12       11       28       29       42 </v>
   <v type="int" >       12       24       24       25       48 </v>
   <v type="int" >       12       24       25       44       48 </v>
   <v type="int" >       12       24       43       44       48 </v>
   <v type="int" >       12       21       24       25       49 </v>
   <v type="int" >       12       21       22       25       49 </v>
   <v type="int" >       12       22       25       45       49 </v>
   <v type="int" >       12       24       25       48       49 </v>
   <v type="int" >       12       25       44       48       49 </v>
   <v type="int" >       12       25       44       45       49 </v>
   <v type="int" >       12       16       21       22       50 </v>
   <v type="int" >       12       16       17       22       50 </v>
   <v type="int" >       12       17       22       46       50 </v>
   <v type="int" >       12       21       22       49       50 </v>
   <v type="int" >       12       22       45       49       50 </v>
   <v type="int" >       12       22       45       46       50 </v>
   <v type="int" >       12        9       16       17       51 </v>
   <v type="int" >       12        9       10       17       51 </v>
   <v type="int" >       12       10       17       47       51 </v>
   <v type="int" >       12       16       17       50       51 </v>
   <v type="int" >       12       17       46       50       51 </v>
   <v type="int" >       12       17       46       47       51 </v>
   <v type="int" >       12        9       10       30       51 </v>
   <v type="int" >       12       10       30       47       51 </v>
   <v type="int" >       12       10       29       30       47 </v>
   <v type="int" >       12       20       21       24       52 </v>
   <v type="int" >       12       21       24       49       52 </v>
   <v type="int" >       12       24       48       49       52 </v>
   <v type="int" >       12       15       20       21       53 </v>
   <v type="int" >       12       15       16       21       53 </v>
   <v type="int" >       12       16       21       50       53 </v>
   <v type="int" >       12       20       21       52       53 </v>
   <v type="int" >       12       21       49       52       53 </v>
   <v type="int" >       12       21       49       50       53 </v>
   <v type="int" >       12        8       15       16       54 </v>
   <v type="int" >       12        8        9       16       54 </v>
   <v type="int" >       12        9       16       51       54 </v>
   <v type="int" >       12       15       16       53       54 </v>
   <v type="int" >       12       16       50       53       54 </v>
   <v type="int" >       12       16       50       51       54 </v>
   <v type="int" >       12        8        9       31       54 </v>
   <v type="int" >       12        9       31       51       54 </v>
   <v type="int" >       12        9       30       31       51 </v>
   <v type="int" >       12       14       15       20       55 </v>
   <v type="int" >       12       15       20       53       55 </v>
   <v type="int" >       12       20       52       53       55 </v>
   <v type="int" >       12        7       14       15       56 </v>
   <v type="int" >       12        7        8       15       56 </v>
   <v type="int" >       12        8       15       54       56 </v>
   <v type="int" >       12       14       15       55       56 </v>
   <v type="int" >       12       15       53       55       56 </v>
   <v type="int" >       12       15       53       54       56 </v>
   <v type="int" >       12        7        8       32       56 </v>
   <v type="int" >       12        8       32       54       56 </v>
   <v type="int" >       12        8       31       32       54 </v>
   <v type="int" >       12        6        7       14       57 </v>
   <v type="int" >       12        7       14       56       57 </v>
   <v type="int" >       12       14       55       56       57 </v>
   <v type="int" >       12        6        7       33       57 </v>
   <v type="int" >       12        7       33       56       57 </v>
   <v type="int" >       12        7       32       33       56 </v>
   <v type="int" >       12        6       26       33       57 </v>
   <v type="int" >       12       26       33       57       58 </v>
   <v type="int" >       12       27       28       34       37 </v>
   <v type="int" >       12       28       29       42       59 </v>
   <v type="int" >       12       28       34       37       42 </v>
   <v type="int" >       12       28       37       42       59 </v>
   <v type="int" >       12       29       30       47       60 </v>
   <v type="int" >       12       29       42       47       59 </v>
   <v type="int" >       12       29       47       59       60 </v>
   <v type="int" >       12       30       31       51       61 </v>
   <v type="int" >       12       30       47       51       60 </v>
   <v type="int" >       12       30       51       60       61 </v>
   <v type="int" >       12       31       32       54       62 </v>
   <v type="int" >       12       31       51       54       61 </v>
   <v type="int" >       12       31       54       61       62 </v>
   <v type="int" >       12       32       33       56       63 </v>
   <v type="int" >       12       32       54       56       62 </v>
   <v type="int" >       12       32       56       62       63 </v>
   <v type="int" >       12       33       56       57       63 </v>
   <v type="int" >       12       33       57       58       63 </v>
   <v type="int" >       12       34       37       38       42 </v>
   <v type="int" >       12       34       35       38       42 </v>
   <v type="int" >       12       35       38       39       41 </v>
   <v type="int" >       12       35       36       39       41 </v>
   <v type="int" >       12       35       38       41       42 </v>
   <v type="int" >       12       36       39       40       40 </v>
   <v type="int" >        6       36       36       40       40 </v>
   <v type="int" >       12       36       39       40       41 </v>
   <v type="int" >       12       37       38       43       59 </v>
   <v type="int" >       12       37       38       42       59 </v>
   <v type="int" >       12       38       43       44       64 </v>
   <v type="int" >       12       38       39       44       64 </v>
   <v type="int" >       12       38       39       41       64 </v>
   <v type="int" >       12       38       43       59       64 </v>
   <v type="int" >       12       38       42       59       64 </v>
   <v type="int" >       12       38       41       42       64 </v>
   <v type="int" >       12       39       44       45       65 </v>
   <v type="int" >       12       39       40       45       65 </v>
   <v type="int" >       12       39       40       40       65 </v>
   <v type="int" >       12       39       44       64       65 </v>
   <v type="int" >       12       39       41       64       65 </v>
   <v type="int" >       12       39       40       41       65 </v>
   <v type="int" >       12       40       45       46       65 </v>
   <v type="int" >       12       40       41       46       65 </v>
   <v type="int" >       12       40       45       65       65 </v>
   <v type="int" >        6       40       40       65       65 </v>
   <v type="int" >       12       41       46       47       64 </v>
   <v type="int" >       12       41       42       47       64 </v>
   <v type="int" >       12       41       46       64       65 </v>
   <v type="int" >       12       42       47       59       64 </v>
   <v type="int" >       12       43       44       48       66 </v>
   <v type="int" >       12       43       44       64       66 </v>
   <v type="int" >       12       43       59       64       66 </v>
   <v type="int" >       12       44       48       49       67 </v>
   <v type="int" >       12       44       45       49       67 </v>
   <v type="int" >       12       44       45       65       67 </v>
   <v type="int" >       12       44       48       66       67 </v>
   <v type="int" >       12       44       64       66       67 </v>
   <v type="int" >       12       44       64       65       67 </v>
   <v type="int" >       12       45       49       50       68 </v>
   <v type="int" >       12       45       46       50       68 </v>
   <v type="int" >       12       45       46       65       68 </v>
   <v type="int" >       12       45       49       67       68 </v>
   <v type="int" >       12       45       65       67       68 </v>
   <v type="int" >       12       45       65       65       68 </v>
   <v type="int" >       12       46       50       51       69 </v>
   <v type="int" >       12       46       47       51       69 </v>
   <v type="int" >       12       46       47       64       69 </v>
   <v type="int" >       12       46       50       68       69 </v>
   <v type="int" >       12       46       65       68       69 </v>
   <v type="int" >       12       46       64       65       69 </v>
   <v type="int" >       12       47       51       60       69 </v>
   <v type="int" >       12       47       60       64       69 </v>
   <v type="int" >       12       47       59       60       64 </v>
   <v type="int" >       12       48       49       52       70 </v>
   <v type="int" >       12       48       49       67       70 </v>
   <v type="int" >       12       48       66       67       70 </v>
   <v type="int" >       12       49       52       53       71 </v>
   <v type="int" >       12       49       50       53       71 </v>
   <v type="int" >       12       49       50       68       71 </v>
   <v type="int" >       12       49       52       70       71 </v>
   <v type="int" >       12       49       67       70       71 </v>
   <v type="int" >       12       49       67       68       71 </v>
   <v type="int" >       12       50       53       54       72 </v>
   <v type="int" >       12       50       51       54       72 </v>
   <v type="int" >       12       50       51       69       72 </v>
   <v type="int" >       12       50       53       71       72 </v>
   <v type="int" >       12       50       68       71       72 </v>
   <v type="int" >       12       50       68       69       72 </v>
   <v type="int" >       12       51       54       61       72 </v>
   <v type="int" >       12       51       61       69       72 </v>
   <v type="int" >       12       51       60       61       69 </v>
   <v type="int" >       12       52       53       55       73 </v>
   <v type="int" >       12       52       53       71       73 </v>
   <v type="int" >       12       52       70       71       73 </v>
   <v type="int" >       12       53       55       56       74 </v>
   <v type="int" >       12       53       54       56       74 </v>
   <v type="int" >       12       53       54       72       74 </v>
   <v type="int" >       12       53       55       73       74 </v>
   <v type="int" >       12       53       71       73       74 </v>
   <v type="int" >       12       53       71       72       74 </v>
   <v type="int" >       12       54       56       62       74 </v>
   <v type="int" >       12       54       62       72       74 </v>
   <v type="int" >       12       54       61       62       72 </v>
   <v type="int" >       12       55       56       57       75 </v>
   <v type="int" >       12       55       56       74       75 </v>
   <v type="int" >       12       55       73       74       75 </v>
   <v type="int" >       12       56       57       63       75 </v>
   <v type="int" >       12       56       63       74       75 </v>
   <v type="int" >       12       56       62       63       74 </v>
   <v type="int" >       12       57       58       63       75 </v>
   <v type="int" >       12       58       63       75       76 </v>
   <v type="int" >       12       59       60       64       66 </v>
   <v type="int" >       12       60       61       69       77 </v>
   <v type="int" >       12       60       64       66       69 </v>
   <v type="int" >       12       60       66       69       77 </v>
   <v type="int" >       12       61       62       72       78 </v>
   <v type="int" >       12       61       69       72       77 </v>
   <v type="int" >       12       61       72       77       78 </v>
   <v type="int" >       12       62       63       74       79 </v>
   <v type="int" >       12       62       72       74       78 </v>
   <v type="int" >       12       62       74       78       79 </v>
   <v type="int" >       12       63       74       75       79 </v>
   <v type="int" >       12       63       75       76       79 </v>
   <v type="int" >       12       64       66       67       69 </v>
   <v type="int" >       12       64       65       67       69 </v>
   <v type="int" >       12       65       67       68       68 </v>
   <v type="int" >        6       65       65       68       68 </v>
   <v type="int" >       12       65       67       68       69 </v>
   <v type="int" >       12       66       67       70       77 </v>
   <v type="int" >       12       66       67       69       77 </v>
   <v type="int" >       12       67       70       71       80 </v>
   <v type="int" >       12       67       68       71       80 </v>
   <v type="int" >       12       67       68       68       80 </v>
   <v type="int" >       12       67       70       77       80 </v>
   <v type="int" >       12       67       69       77       80 </v>
   <v type="int" >       12       67       68       69       80 </v>
   <v type="int" >       12       68       71       72       80 </v>
   <v type="int" >       12       68       69       72       80 </v>
   <v type="int" >       12       68       71       80       80 </v>
   <v type="int" >        6       68       68       80       80 </v>
   <v type="int" >       12       69       72       77       80 </v>
   <v type="int" >       12       70       71       73       81 </v>
   <v type="int" >       12       70       71       80       81 </v>
   <v type="int" >       12       70       77       80       81 </v>
   <v type="int" >       12       71       73       74       82 </v>
   <v type="int" >       12       71       72       74       82 </v>
   <v type="int" >       12       71       72       80       82 </v>
   <v type="int" >       12       71       73       81       82 </v>
   <v type="int" >       12       71       80       81       82 </v>
   <v type="int" >       12       71       80       80       82 </v>
   <v type="int" >       12       72       74       78       82 </v>
   <v type="int" >       12       72       78       80       82 </v>
   <v type="int" >       12       72       77       78       80 </v>
   <v type="int" >       12       73       74       75       83 </v>
   <v type="int" >       12       73       74       82       83 </v>
   <v type="int" >       12       73       81       82       83 </v>
   <v type="int" >       12       74       75       79       83 </v>
   <v type="int" >       12       74       79       82       83 </v>
   <v type="int" >       12       74       78       79       82 </v>
   <v type="int" >       12       75       76       79       83 </v>
   <v type="int" >       12       76       79       83       84 </v>
   <v type="int" >       12       77       78       80       81 </v>
   <v type="int" >       12       78       79       82       85 </v>
   <v type="int" >       12       78       80       81       82 </v>
   <v type="int" >       12       78       81       82       85 </v>
   <v type="int" >       12       79       82       83       85 </v>
   <v type="int" >       12       79       83       84       85 </v>
   <v type="int" >       12       80       81       82       82 </v>
   <v type="int" >        6       80       80       82       82 </v>
   <v type="int" >       12       81       82       83       85 </v>
   <v type="int" >       12       81       82       82       85 </v>
   <v type="int" >       12       82       83       85       85 </v>
   <v type="int" >        6       82       82       85       85 </v>
   <v type="int" >       12       83       84       85       85 </v>
   <v type="int" >        6       84       84       85       85 </v>
  </varray>
  <i name="volumeweight">      0.00022862 </i>
 </kpoints>
 <parameters>
  <separator name="general" >
   <i type="string" name="SYSTEM">unknown system</i>
   <i type="logical" name="LCOMPAT"> F  </i>
  </separator>
  <separator name="electronic" >
   <i type="string" name="PREC">accura</i>
   <i name="ENMAX">   1225.00000000</i>
   <i name="ENAUG">    980.15600000</i>
   <i name="EDIFF">      0.00000000</i>
   <i type="int" name="IALGO">    38</i>
   <i type="int" name="IWAVPR">    10</i>
   <i type="int" name="NBANDS">    48</i>
   <i name="NELECT">     64.00000000</i>
   <i type="int" name="TURBO">     0</i>
   <i type="int" name="IRESTART">     0</i>
   <i type="int" name="NREBOOT">     0</i>
   <i type="int" name="NMIN">     0</i>
   <i name="EREF">      0.00000000</i>
   <separator name="electronic smearing" >
    <i type="int" name="ISMEAR">    -5</i>
    <i name="SIGMA">      0.01000000</i>
    <i name="KSPACING">      0.50000000</i>
    <i type="logical" name="KGAMMA"> T  </i>
   </separator>
   <separator name="electronic projectors" >
    <i type="logical" name="LREAL"> T  </i>
    <v name="ROPT">     -0.00025000     -0.00025000     -0.00025000</v>
    <i type="int" name="LMAXPAW">  -100</i>
    <i type="int" name="LMAXMIX">     2</i>
    <i type="logical" name="NLSPLINE"> F  </i>
   </separator>
   <separator name="electronic startup" >
    <i type="int" name="ISTART">     0</i>
    <i type="int" name="ICHARG">     2</i>
    <i type="int" name="INIWAV">     1</i>
   </separator>
   <separator name="electronic spin" >
    <i type="int" name="ISPIN">     1</i>
    <i type="logical" name="LNONCOLLINEAR"> F  </i>
    <v name="MAGMOM">      1.00000000      1.00000000      1.00000000      1.00000000      1.00000000      1.00000000      1.00000000      1.00000000      1.00000000      1.00000000</v>
    <i name="NUPDOWN">     -1.00000000</i>
    <i type="logical" name="LSORBIT"> F  </i>
    <v name="SAXIS">      0.00000000      0.00000000      1.00000000</v>
    <i type="logical" name="LSPIRAL"> F  </i>
    <v name="QSPIRAL">      0.00000000      0.00000000      0.00000000</v>
    <i type="logical" name="LZEROZ"> F  </i>
   </separator>
   <separator name="electronic exchange-correlation" >
    <i type="logical" name="LASPH"> F  </i>
    <i type="logical" name="LMETAGGA"> F  </i>
   </separator>
   <separator name="electronic convergence" >
    <i type="int" name="NELM">    60</i>
    <i type="int" name="NELMDL">    -5</i>
    <i type="int" name="NELMIN">     5</i>
    <i name="ENINI">   1225.00000000</i>
    <separator name="electronic convergence detail" >
     <i type="logical" name="LDIAG"> T  </i>
     <i type="logical" name="LSUBROT"> F  </i>
     <i name="WEIMIN">      0.00000000</i>
     <i name="EBREAK">      0.00000000</i>
     <i name="DEPER">      0.30000000</i>
     <i type="int" name="NRMM">     4</i>
     <i name="TIME">      0.40000000</i>
    </separator>
   </separator>
   <separator name="electronic mixer" >
    <i name="AMIX">      0.40000000</i>
    <i name="BMIX">      1.00000000</i>
    <i name="AMIN">      0.10000000</i>
    <i name="AMIX_MAG">      1.60000000</i>
    <i name="BMIX_MAG">      1.00000000</i>
    <separator name="electronic mixer details" >
     <i type="int" name="IMIX">     4</i>
     <i type="int" name="MAXMIX">   -45</i>
     <i name="WC">    100.00000000</i>
     <i type="int" name="INIMIX">     1</i>
     <i type="int" name="MIXPRE">     1</i>
     <i type="int" name="MREMOVE">     5</i>
    </separator>
   </separator>
   <separator name="electronic dipolcorrection" >
    <i type="logical" name="LDIPOL"> F  </i>
    <i type="logical" name="LMONO"> F  </i>
    <i type="int" name="IDIPOL">     0</i>
    <i name="EPSILON">      1.00000000</i>
    <v name="DIPOL">   -100.00000000   -100.00000000   -100.00000000</v>
    <i name="EFIELD">      0.00000000</i>
   </separator>
  </separator>
  <separator name="grids" >
   <i type="int" name="NGX">    54</i>
   <i type="int" name="NGY">    54</i>
   <i type="int" name="NGZ">    70</i>
   <i type="int" name="NGXF">   108</i>
   <i type="int" name="NGYF">   108</i>
   <i type="int" name="NGZF">   140</i>
   <i type="logical" name="ADDGRID"> F  </i>
  </separator>
  <separator name="ionic" >
   <i type="int" name="NSW">     0</i>
   <i type="int" name="IBRION">    -1</i>
   <i type="int" name="ISIF">     2</i>
   <i name="PSTRESS">      0.00000000</i>
   <i name="EDIFFG">      0.00000000</i>
   <i type="int" name="NFREE">     0</i>
   <i name="POTIM">      0.50000000</i>
   <i name="SMASS">     -3.00000000</i>
   <i name="SCALEE">      1.00000000</i>
  </separator>
  <separator name="ionic md" >
   <i name="TEBEG">      0.00010000</i>
   <i name="TEEND">      0.00010000</i>
   <i type="int" name="NBLOCK">     1</i>
   <i type="int" name="KBLOCK">     1</i>
   <i type="int" name="NPACO">   256</i>
   <i name="APACO">     16.00000000</i>
  </separator>
  <separator name="symmetry" >
   <i type="int" name="ISYM">     2</i>
   <i name="SYMPREC">      0.00001000</i>
  </separator>
  <separator name="dos" >
   <i type="logical" name="LORBIT"> F  </i>
   <v name="RWIGS">     -1.00000000     -1.00000000     -1.00000000</v>
   <i type="int" name="NEDOS">   301</i>
   <i name="EMIN">     10.00000000</i>
   <i name="EMAX">    -10.00000000</i>
   <i name="EFERMI">      0.00000000</i>
  </separator>
  <separator name="writing" >
   <i type="int" name="NWRITE">     2</i>
   <i type="logical" name="LWAVE"> F  </i>
   <i type="logical" name="LCHARG"> F  </i>
   <i type="logical" name="LPARD"> F  </i>
   <i type="logical" name="LVTOT"> F  </i>
   <i type="logical" name="LVHAR"> F  </i>
   <i type="logical" name="LELF"> F  </i>
   <i type="logical" name="LOPTICS"> F  </i>
   <v name="STM">      0.00000000      0.00000000      0.00000000      0.00000000      0.00000000      0.00000000      0.00000000</v>
  </separator>
  <separator name="performance" >
   <i type="int" name="NPAR">    16</i>
   <i type="int" name="NSIM">     4</i>
   <i type="int" name="NBLK">    -1</i>
   <i type="logical" name="LPLANE"> T  </i>
   <i type="logical" name="LSCALAPACK"> T  </i>
   <i type="logical" name="LSCAAWARE"> F  </i>
   <i type="logical" name="LSCALU"> F  </i>
   <i type="logical" name="LASYNC"> F  </i>
   <i type="logical" name="LORBITALREAL"> F  </i>
  </separator>
  <separator name="miscellaneous" >
   <i type="int" name="IDIOT">     3</i>
   <i type="logical" name="LMUSIC"> F  </i>
   <v name="POMASS">     24.30500000     12.01100000     16.00000000</v>
   <v name="DARWINR">      0.00000000      0.00000000      0.00000000</v>
   <v name="DARWINV">      1.00000000      1.00000000      1.00000000</v>
   <i type="logical" name="LCORR"> T  </i>
  </separator>
  <i type="logical" name="GGA_COMPAT"> T  </i>
  <i type="logical" name="LBERRY"> F  </i>
  <i type="int" name="ICORELEVEL">     0</i>
  <i type="logical" name="LDAU"> F  </i>
  <i type="int" name="I_CONSTRAINED_M">     0</i>
  <separator name="electronic exchange-correlation" >
   <i type="string" name="GGA">--</i>
   <i type="int" name="VOSKOWN">     0</i>
   <i type="logical" name="LHFCALC"> F  </i>
   <i type="string" name="PRECFOCK"></i>
   <i type="logical" name="LSYMGRAD"> F  </i>
   <i type="logical" name="LHFONE"> F  </i>
   <i type="logical" name="LRHFCALC"> F  </i>
   <i type="logical" name="LTHOMAS"> F  </i>
   <i type="logical" name="LMODELHF"> F  </i>
   <i name="ENCUT4O">     -1.00000000</i>
   <i type="int" name="EXXOEP">     0</i>
   <i type="int" name="FOURORBIT">     0</i>
   <i name="AEXX">      0.00000000</i>
   <i name="HFALPHA">      0.00000000</i>
   <i name="MCALPHA">      0.00000000</i>
   <i name="ALDAX">      1.00000000</i>
   <i name="AGGAX">      1.00000000</i>
   <i name="ALDAC">      1.00000000</i>
   <i name="AGGAC">      1.00000000</i>
   <i type="int" name="NKREDX">     1</i>
   <i type="int" name="NKREDY">     1</i>
   <i type="int" name="NKREDZ">     1</i>
   <i type="logical" name="SHIFTRED"> F  </i>
   <i type="logical" name="ODDONLY"> F  </i>
   <i type="logical" name="EVENONLY"> F  </i>
   <i type="int" name="LMAXFOCK">     0</i>
   <i type="int" name="NMAXFOCKAE">     0</i>
   <i type="logical" name="LFOCKAEDFT"> F  </i>
   <i name="HFSCREEN">      0.00000000</i>
   <i name="HFSCREENC">      0.00000000</i>
   <i type="int" name="NBANDSGWLOW">     0</i>
  </separator>
  <separator name="vdW DFT" >
   <i type="logical" name="LUSE_VDW"> F  </i>
   <i name="Zab_VDW">     -0.84910000</i>
   <i name="PARAM1">      0.12340000</i>
   <i name="PARAM2">      1.00000000</i>
   <i name="PARAM3">      0.00000000</i>
  </separator>
  <separator name="model GW" >
   <i type="int" name="MODEL_GW">     0</i>
   <i name="MODEL_EPS0">      5.73041514</i>
   <i name="MODEL_ALPHA">      1.00000000</i>
  </separator>
  <separator name="linear response parameters" >
   <i type="logical" name="LEPSILON"> F  </i>
   <i type="logical" name="LRPA"> F  </i>
   <i type="logical" name="LNABLA"> F  </i>
   <i type="logical" name="LVEL"> F  </i>
   <i type="int" name="KINTER">     0</i>
   <i name="CSHIFT">      0.10000000</i>
   <i name="OMEGAMAX">     -1.00000000</i>
   <i name="DEG_THRESHOLD">      0.00200000</i>
  </separator>
  <separator name="orbital magnetization" >
   <i type="logical" name="NUCIND"> F  </i>
   <v name="MAGPOS">      0.00000000      0.00000000      0.00000000</v>
   <i type="logical" name="LNICSALL"> T  </i>
   <i type="logical" name="ORBITALMAG"> F  </i>
   <i type="logical" name="LMAGBLOCH"> F  </i>
   <i type="logical" name="LCHIMAG"> T  </i>
   <i type="logical" name="LGAUGE"> T  </i>
   <i type="int" name="MAGATOM">     0</i>
   <v name="MAGDIPOL">      0.00000000      0.00000000      0.00000000</v>
   <v name="AVECCONST">      0.00000000      0.00000000      0.00000000</v>
  </separator>
  <separator name="response functions" >
   <i type="logical" name="LADDER"> F  </i>
   <i type="logical" name="LFXC"> F  </i>
   <i type="logical" name="LHARTREE"> T  </i>
   <i type="int" name="IBSE">     0</i>
   <i type="logical" name="LTCTE"> F  </i>
   <i type="logical" name="LTETE"> F  </i>
   <i type="logical" name="LTRIPLET"> F  </i>
   <i type="logical" name="LFXCEPS"> F  </i>
   <i type="logical" name="LFXHEG"> F  </i>
   <i type="logical" name="L2ORDER"> F  </i>
   <i type="logical" name="LUSEW"> F  </i>
   <i name="ENCUTGW">     -2.00000000</i>
   <i name="ENCUTGWSOFT">     -2.00000000</i>
   <i name="ENCUTLF">     -1.00000000</i>
   <i type="int" name="LMAXMP2">    -1</i>
   <i name="SCISSOR">      0.00000000</i>
   <i type="int" name="NOMEGA">     0</i>
   <i type="int" name="NOMEGAR">     0</i>
   <i type="int" name="NBANDSGW">    -1</i>
   <i type="int" name="NBANDSO">    -1</i>
   <i type="int" name="NBANDSV">    -1</i>
   <i type="int" name="NELM">     1</i>
   <i type="int" name="DIM">     3</i>
   <i type="int" name="ANTIRES">     0</i>
   <i name="OMEGAMAX">    -30.00000000</i>
   <i name="OMEGAMIN">    -30.00000000</i>
   <i name="OMEGATL">   -200.00000000</i>
   <i type="int" name="OMEGAGRID">     0</i>
   <i name="CSHIFT">     -0.10000000</i>
   <i type="logical" name="SELFENERGY"> F  </i>
   <i type="logical" name="LSPECTRAL"> F  </i>
   <i type="logical" name="ODDONLYGW"> F  </i>
   <i type="logical" name="EVENONLYGW"> F  </i>
   <i type="int" name="NKREDLFX">     1</i>
   <i type="int" name="NKREDLFY">     1</i>
   <i type="int" name="NKREDLFZ">     1</i>
   <i type="int" name="MAXMEM">  1800</i>
   <i type="int" name="TELESCOPE">     0</i>
   <i type="int" name="TAUPAR">     1</i>
  </separator>
  <separator name="External order field" >
   <i name="OFIELD_KAPPA">      0.00000000</i>
   <v name="OFIELD_K">      0.00000000      0.00000000      0.00000000</v>
   <i name="OFIELD_Q6_NEAR">      0.00000000</i>
   <i name="OFIELD_Q6_FAR">      0.00000000</i>
   <i name="OFIELD_A">      0.00000000</i>
  </separator>
 </parameters>
 <atominfo>
  <atoms>      10 </atoms>
  <types>       3 </types>
  <array name="atoms" >
   <dimension dim="1">ion</dimension>
   <field type="string">element</field>
   <field type="int">atomtype</field>
   <set>
    <rc><c>Mg</c><c>   1</c></rc>
    <rc><c>Mg</c><c>   1</c></rc>
    <rc><c>C </c><c>   2</c></rc>
    <rc><c>C </c><c>   2</c></rc>
    <rc><c>O </c><c>   3</c></rc>
    <rc><c>O </c><c>   3</c></rc>
    <rc><c>O </c><c>   3</c></rc>
    <rc><c>O </c><c>   3</c></rc>
    <rc><c>O </c><c>   3</c></rc>
    <rc><c>O </c><c>   3</c></rc>
   </set>
  </array>
  <array name="atomtypes" >
   <dimension dim="1">type</dimension>
   <field type="int">atomspertype</field>
   <field type="string">element</field>
   <field>mass</field>
   <field>valence</field>
   <field type="string">pseudopotential</field>
   <set>
    <rc><c>   2</c><c>Mg</c><c>     24.30500000</c><c>     10.00000000</c><c>  PAW_PBE Mg_sv 12Apr2007               </c></rc>
    <rc><c>   2</c><c>C </c><c>     12.01100000</c><c>      4.00000000</c><c>  PAW_PBE C_h 06Feb2004                 </c></rc>
    <rc><c>   6</c><c>O </c><c>     16.00000000</c><c>      6.00000000</c><c>  PAW_PBE O_h 06Feb2004                 </c></rc>
   </set>
  </array>
 </atominfo>
 <structure name="initialpos" >
  <crystal>
   <varray name="basis" >
    <v>      -2.33732100      -4.04835800       0.00000000 </v>
    <v>      -4.67464100       0.00000000       0.00000000 </v>
    <v>      -2.33732100      -1.34945300      -5.04670200 </v>
   </varray>
   <i name="volume">     95.50691906 </i>
   <varray name="rec_basis" >
    <v>       0.00000000      -0.24701373       0.06604975 </v>
    <v>      -0.21392017       0.12350689       0.06604974 </v>
    <v>       0.00000000       0.00000000      -0.19814921 </v>
   </varray>
  </crystal>
  <varray name="positions" >
   <v>       0.00000000       0.00000000       0.00000000 </v>
   <v>       0.50000000       0.50000000       0.50000000 </v>
   <v>       0.25000000       0.25000000       0.25000000 </v>
   <v>       0.75000000       0.75000000       0.75000000 </v>
   <v>       0.25000000       0.97348000       0.25000000 </v>
   <v>       0.97348000       0.52652000       0.25000000 </v>
   <v>       0.52652000       0.25000000       0.25000000 </v>
   <v>       0.75000000       0.02652000       0.75000000 </v>
   <v>       0.02652000       0.47348000       0.75000000 </v>
   <v>       0.47348000       0.75000000       0.75000000 </v>
  </varray>
 </structure>
 <calculation>
  <scstep>
   <time name="dav">    4.42    4.44</time>
   <time name="total">    4.55    4.57</time>
   <energy>
    <i name="alphaZ">    178.12868319 </i>
    <i name="ewald">  -3826.76938392 </i>
    <i name="hartreedc">  -1840.65889823 </i>
    <i name="XCdc">    304.52251960 </i>
    <i name="pawpsdc">   3771.42644917 </i>
    <i name="pawaedc">  -3946.11536277 </i>
    <i name="eentropy">      0.00000000 </i>
    <i name="bandstr">   -109.31140889 </i>
    <i name="atom">   6345.38986913 </i>
    <i name="e_fr_energy">    876.61246727 </i>
    <i name="e_wo_entrp">    876.61246727 </i>
    <i name="e_0_energy">    876.61246727 </i>
   </energy>
  </scstep>
  <scstep>
   <time name="dav">    5.58    5.58</time>
   <time name="total">    5.59    5.60</time>
   <energy>
    <i name="e_fr_energy">     -6.86666027 </i>
    <i name="e_wo_entrp">     -6.86666027 </i>
    <i name="e_0_energy">     -6.86666027 </i>
   </energy>
  </scstep>
  <scstep>
   <time name="dav">    6.59    6.60</time>
   <time name="total">    6.60    6.61</time>
   <energy>
    <i name="e_fr_energy">    -75.87103102 </i>
    <i name="e_wo_entrp">    -75.87103102 </i>
    <i name="e_0_energy">    -75.87103102 </i>
   </energy>
  </scstep>
  <scstep>
   <time name="dav">    5.58    5.59</time>
   <time name="total">    5.59    5.60</time>
   <energy>
    <i name="e_fr_energy">    -78.06435150 </i>
    <i name="e_wo_entrp">    -78.06435150 </i>
    <i name="e_0_energy">    -78.06435150 </i>
   </energy>
  </scstep>
  <scstep>
   <time name="dav">    5.74    5.74</time>
   <time name="total">    6.05    6.06</time>
   <energy>
    <i name="e_fr_energy">    -78.15101279 </i>
    <i name="e_wo_entrp">    -78.15101279 </i>
    <i name="e_0_energy">    -78.15101279 </i>
   </energy>
  </scstep>
  <scstep>
   <time name="dav">    5.56    5.56</time>
   <time name="total">    5.94    5.95</time>
   <energy>
    <i name="e_fr_energy">    -71.96254264 </i>
    <i name="e_wo_entrp">    -71.96254264 </i>
    <i name="e_0_energy">    -71.96254264 </i>
   </energy>
  </scstep>
  <scstep>
   <time name="dav">    5.50    5.50</time>
   <time name="total">    5.88    5.90</time>
   <energy>
    <i name="e_fr_energy">    -71.89758694 </i>
    <i name="e_wo_entrp">    -71.89758694 </i>
    <i name="e_0_energy">    -71.89758694 </i>
   </energy>
  </scstep>
  <scstep>
   <time name="dav">    5.94    5.94</time>
   <time name="total">    6.32    6.34</time>
   <energy>
    <i name="e_fr_energy">    -71.88377614 </i>
    <i name="e_wo_entrp">    -71.88377614 </i>
    <i name="e_0_energy">    -71.88377614 </i>
   </energy>
  </scstep>
  <scstep>
   <time name="dav">    5.66    5.66</time>
   <time name="total">    6.03    6.05</time>
   <energy>
    <i name="e_fr_energy">    -71.87927842 </i>
    <i name="e_wo_entrp">    -71.87927842 </i>
    <i name="e_0_energy">    -71.87927842 </i>
   </energy>
  </scstep>
  <scstep>
   <time name="dav">    5.13    5.13</time>
   <time name="total">    5.50    5.56</time>
   <energy>
    <i name="e_fr_energy">    -71.87984684 </i>
    <i name="e_wo_entrp">    -71.87984684 </i>
    <i name="e_0_energy">    -71.87984684 </i>
   </energy>
  </scstep>
  <scstep>
   <time name="dav">    5.82    5.83</time>
   <time name="total">    6.20    6.23</time>
   <energy>
    <i name="e_fr_energy">    -71.88027892 </i>
    <i name="e_wo_entrp">    -71.88027892 </i>
    <i name="e_0_energy">    -71.88027892 </i>
   </energy>
  </scstep>
  <scstep>
   <time name="dav">    5.63    5.64</time>
   <time name="total">    6.00    6.07</time>
   <energy>
    <i name="e_fr_energy">    -71.88027917 </i>
    <i name="e_wo_entrp">    -71.88027917 </i>
    <i name="e_0_energy">    -71.88027917 </i>
   </energy>
  </scstep>
  <scstep>
   <time name="dav">    5.36    5.36</time>
   <time name="total">    5.73    5.74</time>
   <energy>
    <i name="e_fr_energy">    -71.88028229 </i>
    <i name="e_wo_entrp">    -71.88028229 </i>
    <i name="e_0_energy">    -71.88028229 </i>
   </energy>
  </scstep>
  <scstep>
   <time name="dav">    5.45    5.45</time>
   <time name="total">    5.83    5.84</time>
   <energy>
    <i name="e_fr_energy">    -71.88028243 </i>
    <i name="e_wo_entrp">    -71.88028243 </i>
    <i name="e_0_energy">    -71.88028243 </i>
   </energy>
  </scstep>
  <scstep>
   <time name="dav">    5.30    5.30</time>
   <time name="total">    5.67    5.70</time>
   <energy>
    <i name="e_fr_energy">    -71.88028244 </i>
    <i name="e_wo_entrp">    -71.88028244 </i>
    <i name="e_0_energy">    -71.88028244 </i>
   </energy>
  </scstep>
  <scstep>
   <time name="dav">    5.35    5.35</time>
   <time name="total">    5.73    5.76</time>
   <energy>
    <i name="e_fr_energy">    -71.88028241 </i>
    <i name="e_wo_entrp">    -71.88028241 </i>
    <i name="e_0_energy">    -71.88028241 </i>
   </energy>
  </scstep>
  <scstep>
   <time name="dav">    5.29    5.30</time>
   <time name="total">    5.68    5.69</time>
   <energy>
    <i name="e_fr_energy">    -71.88028240 </i>
    <i name="e_wo_entrp">    -71.88028240 </i>
    <i name="e_0_energy">    -71.88028240 </i>
   </energy>
  </scstep>
  <scstep>
   <time name="dav">    4.17    4.17</time>
   <time name="total">    4.54    4.66</time>
   <energy>
    <i name="e_fr_energy">    -71.88028239 </i>
    <i name="e_wo_entrp">    -71.88028239 </i>
    <i name="e_0_energy">    -71.88028239 </i>
   </energy>
  </scstep>
  <scstep>
   <time name="dav">    4.28    4.28</time>
   <time name="total">    4.66    4.68</time>
   <energy>
    <i name="e_fr_energy">    -71.88028239 </i>
    <i name="e_wo_entrp">    -71.88028239 </i>
    <i name="e_0_energy">    -71.88028239 </i>
   </energy>
  </scstep>
  <scstep>
   <time name="dav">    4.16    4.16</time>
   <time name="total">    4.54    4.55</time>
   <energy>
    <i name="e_fr_energy">    -71.88028239 </i>
    <i name="e_wo_entrp">    -71.88028239 </i>
    <i name="e_0_energy">    -71.88028239 </i>
   </energy>
  </scstep>
  <scstep>
   <time name="dav">    4.20    4.20</time>
   <time name="total">    4.58    6.15</time>
   <energy>
    <i name="e_fr_energy">    -71.88028239 </i>
    <i name="e_wo_entrp">    -71.88028239 </i>
    <i name="e_0_energy">    -71.88028239 </i>
   </energy>
  </scstep>
  <scstep>
   <time name="dav">    3.90    3.90</time>
   <time name="total">    3.97    4.00</time>
   <energy>
    <i name="alphaZ">    178.12868319 </i>
    <i name="ewald">  -3826.76938392 </i>
    <i name="hartreedc">  -1895.27731451 </i>
    <i name="XCdc">    309.72399013 </i>
    <i name="pawpsdc">   9638.72242556 </i>
    <i name="pawaedc">  -9842.37718764 </i>
    <i name="eentropy">      0.00000000 </i>
    <i name="bandstr">   -979.42136433 </i>
    <i name="atom">   6345.38986913 </i>
    <i name="e_fr_energy">    -71.88028239 </i>
    <i name="e_wo_entrp">    -71.88028239 </i>
    <i name="e_0_energy">    -71.88028239 </i>
   </energy>
  </scstep>
  <structure>
   <crystal>
    <varray name="basis" >
     <v>      -2.33732100      -4.04835800       0.00000000 </v>
     <v>      -4.67464100       0.00000000       0.00000000 </v>
     <v>      -2.33732100      -1.34945300      -5.04670200 </v>
    </varray>
    <i name="volume">     95.50691906 </i>
    <varray name="rec_basis" >
     <v>       0.00000000      -0.24701373       0.06604975 </v>
     <v>      -0.21392017       0.12350689       0.06604974 </v>
     <v>       0.00000000       0.00000000      -0.19814921 </v>
    </varray>
   </crystal>
   <varray name="positions" >
    <v>       0.00000000       0.00000000       0.00000000 </v>
    <v>       0.50000000       0.50000000       0.50000000 </v>
    <v>       0.25000000       0.25000000       0.25000000 </v>
    <v>       0.75000000       0.75000000       0.75000000 </v>
    <v>       0.25000000       0.97348000       0.25000000 </v>
    <v>       0.97348000       0.52652000       0.25000000 </v>
    <v>       0.52652000       0.25000000       0.25000000 </v>
    <v>       0.75000000       0.02652000       0.75000000 </v>
    <v>       0.02652000       0.47348000       0.75000000 </v>
    <v>       0.47348000       0.75000000       0.75000000 </v>
   </varray>
  </structure>
  <varray name="forces" >
   <v>      -0.00000000      -0.00000000       0.00000000 </v>
   <v>      -0.00000000      -0.00000000       0.00000000 </v>
   <v>      -0.00000000      -0.00000000       0.00000000 </v>
   <v>      -0.00000000      -0.00000000       0.00000000 </v>
   <v>      -0.00155077      -0.00000000      -0.00000000 </v>
   <v>       0.00077539      -0.00134301      -0.00000000 </v>
   <v>       0.00077539       0.00134301       0.00000000 </v>
   <v>       0.00155077      -0.00000000      -0.00000000 </v>
   <v>      -0.00077539       0.00134301       0.00000000 </v>
   <v>      -0.00077539      -0.00134301      -0.00000000 </v>
  </varray>
  <varray name="stress" >
   <v>       9.57701284       0.00000118       0.00000058 </v>
   <v>       0.00000118       9.57701351       0.00000058 </v>
   <v>       0.00000058       0.00000058       8.73953758 </v>
  </varray>
  <energy>
   <i name="e_fr_energy">    -71.88028239 </i>
   <i name="e_wo_entrp">    -71.88028239 </i>
   <i name="e_0_energy">      0.00000000 </i>
  </energy>
  <kpoints>
   <generation param="Gamma">
    <v type="int" name="divisions">       9        9        9 </v>
    <v name="usershift">      0.00000000       0.00000000       0.00000000 </v>
    <v name="genvec1">      0.11111111       0.00000000      -0.00000000 </v>
    <v name="genvec2">      0.00000000       0.11111111       0.00000000 </v>
    <v name="genvec3">      0.00000000       0.00000000       0.11111111 </v>
    <v name="shift">      0.00000000       0.00000000       0.00000000 </v>
   </generation>
   <varray name="kpointlist" >
    <v>       0.00000000       0.00000000       0.00000000 </v>
    <v>       0.11111111       0.00000000       0.00000000 </v>
    <v>       0.22222222       0.00000000       0.00000000 </v>
    <v>       0.33333333       0.00000000       0.00000000 </v>
    <v>       0.44444444       0.00000000       0.00000000 </v>
    <v>      -0.00000000       0.11111111      -0.00000000 </v>
    <v>       0.11111111       0.11111111      -0.00000000 </v>
    <v>       0.22222222       0.11111111      -0.00000000 </v>
    <v>       0.33333333       0.11111111      -0.00000000 </v>
    <v>       0.44444444       0.11111111      -0.00000000 </v>
    <v>      -0.44444444       0.11111111      -0.00000000 </v>
    <v>      -0.33333333       0.11111111       0.00000000 </v>
    <v>      -0.22222222       0.11111111      -0.00000000 </v>
    <v>      -0.11111111       0.11111111      -0.00000000 </v>
    <v>      -0.00000000       0.22222222       0.00000000 </v>
    <v>       0.11111111       0.22222222      -0.00000000 </v>
    <v>       0.22222222       0.22222222       0.00000000 </v>
    <v>       0.33333333       0.22222222      -0.00000000 </v>
    <v>       0.44444444       0.22222222       0.00000000 </v>
    <v>      -0.44444444       0.22222222      -0.00000000 </v>
    <v>      -0.33333333       0.22222222      -0.00000000 </v>
    <v>      -0.22222222       0.22222222       0.00000000 </v>
    <v>      -0.11111111       0.22222222       0.00000000 </v>
    <v>       0.00000000       0.33333333       0.00000000 </v>
    <v>       0.11111111       0.33333333       0.00000000 </v>
    <v>       0.22222222       0.33333333      -0.00000000 </v>
    <v>       0.33333333       0.33333333      -0.00000000 </v>
    <v>       0.44444444       0.33333333       0.00000000 </v>
    <v>      -0.44444444       0.33333333       0.00000000 </v>
    <v>      -0.33333333       0.33333333       0.00000000 </v>
    <v>      -0.22222222       0.33333333       0.00000000 </v>
    <v>      -0.11111111       0.33333333       0.00000000 </v>
    <v>      -0.00000000       0.44444444       0.00000000 </v>
    <v>       0.11111111       0.44444444      -0.00000000 </v>
    <v>       0.22222222       0.44444444      -0.00000000 </v>
    <v>       0.33333333       0.44444444      -0.00000000 </v>
    <v>       0.44444444       0.44444444       0.00000000 </v>
    <v>      -0.44444444       0.44444444       0.00000000 </v>
    <v>      -0.33333333       0.44444444      -0.00000000 </v>
    <v>      -0.22222222       0.44444444      -0.00000000 </v>
    <v>      -0.11111111       0.44444444      -0.00000000 </v>
    <v>       0.00000000       0.00000000       0.11111111 </v>
    <v>       0.11111111       0.00000000       0.11111111 </v>
    <v>       0.22222222       0.00000000       0.11111111 </v>
    <v>       0.33333333       0.00000000       0.11111111 </v>
    <v>       0.44444444       0.00000000       0.11111111 </v>
    <v>      -0.44444444       0.00000000       0.11111111 </v>
    <v>      -0.33333333       0.00000000       0.11111111 </v>
    <v>      -0.22222222       0.00000000       0.11111111 </v>
    <v>      -0.11111111       0.00000000       0.11111111 </v>
    <v>      -0.00000000       0.22222222       0.11111111 </v>
    <v>       0.11111111       0.22222222       0.11111111 </v>
    <v>       0.33333333       0.22222222       0.11111111 </v>
    <v>       0.44444444       0.22222222       0.11111111 </v>
    <v>      -0.44444444       0.22222222       0.11111111 </v>
    <v>       0.00000000       0.33333333       0.11111111 </v>
    <v>       0.11111111       0.33333333       0.11111111 </v>
    <v>       0.22222222       0.33333333       0.11111111 </v>
    <v>       0.33333333       0.33333333       0.11111111 </v>
    <v>       0.44444444       0.33333333       0.11111111 </v>
    <v>      -0.44444444       0.33333333       0.11111111 </v>
    <v>      -0.33333333       0.33333333       0.11111111 </v>
    <v>      -0.22222222       0.33333333       0.11111111 </v>
    <v>      -0.11111111       0.33333333       0.11111111 </v>
    <v>      -0.00000000       0.44444444       0.11111111 </v>
    <v>       0.11111111       0.44444444       0.11111111 </v>
    <v>       0.22222222       0.44444444       0.11111111 </v>
    <v>       0.33333333       0.44444444       0.11111111 </v>
    <v>       0.44444444       0.44444444       0.11111111 </v>
    <v>      -0.44444444       0.44444444       0.11111111 </v>
    <v>      -0.33333333       0.44444444       0.11111111 </v>
    <v>      -0.22222222       0.44444444       0.11111111 </v>
    <v>      -0.11111111       0.44444444       0.11111111 </v>
    <v>       0.00000000      -0.44444444       0.11111111 </v>
    <v>       0.11111111      -0.44444444       0.11111111 </v>
    <v>       0.22222222      -0.44444444       0.11111111 </v>
    <v>       0.33333333      -0.44444444       0.11111111 </v>
    <v>       0.44444444      -0.44444444       0.11111111 </v>
    <v>      -0.44444444      -0.44444444       0.11111111 </v>
    <v>      -0.33333333      -0.44444444       0.11111111 </v>
    <v>      -0.22222222      -0.44444444       0.11111111 </v>
    <v>      -0.11111111      -0.44444444       0.11111111 </v>
    <v>      -0.00000000      -0.33333333       0.11111111 </v>
    <v>       0.11111111      -0.33333333       0.11111111 </v>
    <v>       0.22222222      -0.33333333       0.11111111 </v>
    <v>       0.33333333      -0.33333333       0.11111111 </v>
    <v>       0.44444444      -0.33333333       0.11111111 </v>
    <v>      -0.44444444      -0.33333333       0.11111111 </v>
    <v>      -0.33333333      -0.33333333       0.11111111 </v>
    <v>      -0.22222222      -0.33333333       0.11111111 </v>
    <v>      -0.11111111      -0.33333333       0.11111111 </v>
    <v>       0.00000000      -0.22222222       0.11111111 </v>
    <v>       0.11111111      -0.22222222       0.11111111 </v>
    <v>       0.22222222      -0.22222222       0.11111111 </v>
    <v>       0.33333333      -0.22222222       0.11111111 </v>
    <v>       0.44444444      -0.22222222       0.11111111 </v>
    <v>      -0.44444444      -0.22222222       0.11111111 </v>
    <v>      -0.33333333      -0.22222222       0.11111111 </v>
    <v>      -0.22222222      -0.22222222       0.11111111 </v>
    <v>      -0.11111111      -0.22222222       0.11111111 </v>
    <v>       0.00000000      -0.11111111       0.11111111 </v>
    <v>       0.11111111      -0.11111111       0.11111111 </v>
    <v>       0.22222222      -0.11111111       0.11111111 </v>
    <v>       0.33333333      -0.11111111       0.11111111 </v>
    <v>       0.44444444      -0.11111111       0.11111111 </v>
    <v>      -0.44444444      -0.11111111       0.11111111 </v>
    <v>      -0.33333333      -0.11111111       0.11111111 </v>
    <v>      -0.22222222      -0.11111111       0.11111111 </v>
    <v>      -0.11111111      -0.11111111       0.11111111 </v>
    <v>       0.00000000       0.00000000       0.22222222 </v>
    <v>       0.11111111       0.00000000       0.22222222 </v>
    <v>       0.22222222       0.00000000       0.22222222 </v>
    <v>       0.33333333       0.00000000       0.22222222 </v>
    <v>       0.44444444       0.00000000       0.22222222 </v>
    <v>      -0.44444444       0.00000000       0.22222222 </v>
    <v>      -0.33333333       0.00000000       0.22222222 </v>
    <v>      -0.22222222       0.00000000       0.22222222 </v>
    <v>      -0.11111111       0.00000000       0.22222222 </v>
    <v>      -0.00000000       0.44444444       0.22222222 </v>
    <v>       0.11111111       0.44444444       0.22222222 </v>
    <v>       0.22222222       0.44444444       0.22222222 </v>
    <v>      -0.44444444       0.44444444       0.22222222 </v>
    <v>      -0.33333333       0.44444444       0.22222222 </v>
    <v>       0.00000000      -0.44444444       0.22222222 </v>
    <v>       0.11111111      -0.44444444       0.22222222 </v>
    <v>       0.22222222      -0.44444444       0.22222222 </v>
    <v>       0.33333333      -0.44444444       0.22222222 </v>
    <v>       0.44444444      -0.44444444       0.22222222 </v>
    <v>      -0.44444444      -0.44444444       0.22222222 </v>
    <v>      -0.33333333      -0.44444444       0.22222222 </v>
    <v>      -0.22222222      -0.44444444       0.22222222 </v>
    <v>      -0.11111111      -0.44444444       0.22222222 </v>
    <v>      -0.00000000      -0.33333333       0.22222222 </v>
    <v>       0.11111111      -0.33333333       0.22222222 </v>
    <v>       0.22222222      -0.33333333       0.22222222 </v>
    <v>       0.33333333      -0.33333333       0.22222222 </v>
    <v>       0.44444444      -0.33333333       0.22222222 </v>
    <v>      -0.44444444      -0.33333333       0.22222222 </v>
    <v>      -0.33333333      -0.33333333       0.22222222 </v>
    <v>      -0.22222222      -0.33333333       0.22222222 </v>
    <v>      -0.11111111      -0.33333333       0.22222222 </v>
    <v>       0.00000000      -0.22222222       0.22222222 </v>
    <v>       0.11111111      -0.22222222       0.22222222 </v>
    <v>       0.22222222      -0.22222222       0.22222222 </v>
    <v>       0.33333333      -0.22222222       0.22222222 </v>
    <v>       0.44444444      -0.22222222       0.22222222 </v>
    <v>      -0.44444444      -0.22222222       0.22222222 </v>
    <v>      -0.33333333      -0.22222222       0.22222222 </v>
    <v>      -0.22222222      -0.22222222       0.22222222 </v>
    <v>      -0.11111111      -0.22222222       0.22222222 </v>
    <v>       0.00000000      -0.11111111       0.22222222 </v>
    <v>       0.11111111      -0.11111111       0.22222222 </v>
    <v>       0.22222222      -0.11111111       0.22222222 </v>
    <v>       0.33333333      -0.11111111       0.22222222 </v>
    <v>       0.44444444      -0.11111111       0.22222222 </v>
    <v>      -0.44444444      -0.11111111       0.22222222 </v>
    <v>      -0.33333333      -0.11111111       0.22222222 </v>
    <v>      -0.22222222      -0.11111111       0.22222222 </v>
    <v>      -0.11111111      -0.11111111       0.22222222 </v>
    <v>       0.00000000       0.00000000       0.33333333 </v>
    <v>       0.11111111       0.00000000       0.33333333 </v>
    <v>       0.22222222       0.00000000       0.33333333 </v>
    <v>       0.33333333       0.00000000       0.33333333 </v>
    <v>       0.44444444       0.00000000       0.33333333 </v>
    <v>      -0.44444444       0.00000000       0.33333333 </v>
    <v>      -0.33333333       0.00000000       0.33333333 </v>
    <v>      -0.22222222       0.00000000       0.33333333 </v>
    <v>      -0.11111111       0.00000000       0.33333333 </v>
    <v>      -0.00000000      -0.33333333       0.33333333 </v>
    <v>       0.11111111      -0.33333333       0.33333333 </v>
    <v>       0.22222222      -0.33333333       0.33333333 </v>
    <v>       0.33333333      -0.33333333       0.33333333 </v>
    <v>      -0.22222222      -0.33333333       0.33333333 </v>
    <v>       0.00000000      -0.22222222       0.33333333 </v>
    <v>       0.11111111      -0.22222222       0.33333333 </v>
    <v>       0.22222222      -0.22222222       0.33333333 </v>
    <v>       0.33333333      -0.22222222       0.33333333 </v>
    <v>       0.44444444      -0.22222222       0.33333333 </v>
    <v>      -0.44444444      -0.22222222       0.33333333 </v>
    <v>      -0.33333333      -0.22222222       0.33333333 </v>
    <v>      -0.22222222      -0.22222222       0.33333333 </v>
    <v>      -0.11111111      -0.22222222       0.33333333 </v>
    <v>       0.00000000      -0.11111111       0.33333333 </v>
    <v>       0.11111111      -0.11111111       0.33333333 </v>
    <v>       0.22222222      -0.11111111       0.33333333 </v>
    <v>       0.33333333      -0.11111111       0.33333333 </v>
    <v>       0.44444444      -0.11111111       0.33333333 </v>
    <v>      -0.44444444      -0.11111111       0.33333333 </v>
    <v>      -0.33333333      -0.11111111       0.33333333 </v>
    <v>      -0.22222222      -0.11111111       0.33333333 </v>
    <v>      -0.11111111      -0.11111111       0.33333333 </v>
    <v>       0.00000000       0.00000000       0.44444444 </v>
    <v>       0.11111111       0.00000000       0.44444444 </v>
    <v>       0.22222222       0.00000000       0.44444444 </v>
    <v>       0.33333333       0.00000000       0.44444444 </v>
    <v>       0.44444444       0.00000000       0.44444444 </v>
    <v>      -0.44444444       0.00000000       0.44444444 </v>
    <v>      -0.33333333       0.00000000       0.44444444 </v>
    <v>      -0.22222222       0.00000000       0.44444444 </v>
    <v>      -0.11111111       0.00000000       0.44444444 </v>
    <v>       0.00000000      -0.11111111       0.44444444 </v>
    <v>       0.11111111      -0.11111111       0.44444444 </v>
    <v>       0.22222222      -0.11111111       0.44444444 </v>
    <v>       0.33333333      -0.11111111       0.44444444 </v>
    <v>       0.44444444      -0.11111111       0.44444444 </v>
   </varray>
   <varray name="weights" >
    <v>       0.00137174 </v>
    <v>       0.00274348 </v>
    <v>       0.00274348 </v>
    <v>       0.00274348 </v>
    <v>       0.00274348 </v>
    <v>       0.00548697 </v>
    <v>       0.00548697 </v>
    <v>       0.00548697 </v>
    <v>       0.00548697 </v>
    <v>       0.00548697 </v>
    <v>       0.00548697 </v>
    <v>       0.00548697 </v>
    <v>       0.00548697 </v>
    <v>       0.00548697 </v>
    <v>       0.00548697 </v>
    <v>       0.00548697 </v>
    <v>       0.00548697 </v>
    <v>       0.00548697 </v>
    <v>       0.00548697 </v>
    <v>       0.00548697 </v>
    <v>       0.00548697 </v>
    <v>       0.00548697 </v>
    <v>       0.00548697 </v>
    <v>       0.00548697 </v>
    <v>       0.00548697 </v>
    <v>       0.00548697 </v>
    <v>       0.00548697 </v>
    <v>       0.00548697 </v>
    <v>       0.00548697 </v>
    <v>       0.00548697 </v>
    <v>       0.00548697 </v>
    <v>       0.00548697 </v>
    <v>       0.00548697 </v>
    <v>       0.00548697 </v>
    <v>       0.00548697 </v>
    <v>       0.00548697 </v>
    <v>       0.00548697 </v>
    <v>       0.00548697 </v>
    <v>       0.00548697 </v>
    <v>       0.00548697 </v>
    <v>       0.00548697 </v>
    <v>       0.00274348 </v>
    <v>       0.00274348 </v>
    <v>       0.00274348 </v>
    <v>       0.00274348 </v>
    <v>       0.00274348 </v>
    <v>       0.00274348 </v>
    <v>       0.00274348 </v>
    <v>       0.00274348 </v>
    <v>       0.00274348 </v>
    <v>       0.00548697 </v>
    <v>       0.00274348 </v>
    <v>       0.00548697 </v>
    <v>       0.00548697 </v>
    <v>       0.00548697 </v>
    <v>       0.00548697 </v>
    <v>       0.00548697 </v>
    <v>       0.00548697 </v>
    <v>       0.00548697 </v>
    <v>       0.00548697 </v>
    <v>       0.00548697 </v>
    <v>       0.00548697 </v>
    <v>       0.00548697 </v>
    <v>       0.00548697 </v>
    <v>       0.00548697 </v>
    <v>       0.00548697 </v>
    <v>       0.00548697 </v>
    <v>       0.00548697 </v>
    <v>       0.00548697 </v>
    <v>       0.00548697 </v>
    <v>       0.00548697 </v>
    <v>       0.00548697 </v>
    <v>       0.00548697 </v>
    <v>       0.00548697 </v>
    <v>       0.00548697 </v>
    <v>       0.00548697 </v>
    <v>       0.00548697 </v>
    <v>       0.00548697 </v>
    <v>       0.00548697 </v>
    <v>       0.00548697 </v>
    <v>       0.00548697 </v>
    <v>       0.00548697 </v>
    <v>       0.00548697 </v>
    <v>       0.00548697 </v>
    <v>       0.00548697 </v>
    <v>       0.00548697 </v>
    <v>       0.00548697 </v>
    <v>       0.00548697 </v>
    <v>       0.00548697 </v>
    <v>       0.00548697 </v>
    <v>       0.00548697 </v>
    <v>       0.00548697 </v>
    <v>       0.00548697 </v>
    <v>       0.00548697 </v>
    <v>       0.00548697 </v>
    <v>       0.00548697 </v>
    <v>       0.00548697 </v>
    <v>       0.00548697 </v>
    <v>       0.00548697 </v>
    <v>       0.00548697 </v>
    <v>       0.00548697 </v>
    <v>       0.00548697 </v>
    <v>       0.00548697 </v>
    <v>       0.00548697 </v>
    <v>       0.00548697 </v>
    <v>       0.00548697 </v>
    <v>       0.00548697 </v>
    <v>       0.00548697 </v>
    <v>       0.00548697 </v>
    <v>       0.00274348 </v>
    <v>       0.00274348 </v>
    <v>       0.00274348 </v>
    <v>       0.00274348 </v>
    <v>       0.00274348 </v>
    <v>       0.00274348 </v>
    <v>       0.00274348 </v>
    <v>       0.00274348 </v>
    <v>       0.00274348 </v>
    <v>       0.00548697 </v>
    <v>       0.00548697 </v>
    <v>       0.00274348 </v>
    <v>       0.00548697 </v>
    <v>       0.00548697 </v>
    <v>       0.00548697 </v>
    <v>       0.00548697 </v>
    <v>       0.00548697 </v>
    <v>       0.00548697 </v>
    <v>       0.00548697 </v>
    <v>       0.00548697 </v>
    <v>       0.00548697 </v>
    <v>       0.00548697 </v>
    <v>       0.00548697 </v>
    <v>       0.00548697 </v>
    <v>       0.00548697 </v>
    <v>       0.00548697 </v>
    <v>       0.00548697 </v>
    <v>       0.00548697 </v>
    <v>       0.00548697 </v>
    <v>       0.00548697 </v>
    <v>       0.00548697 </v>
    <v>       0.00548697 </v>
    <v>       0.00548697 </v>
    <v>       0.00548697 </v>
    <v>       0.00548697 </v>
    <v>       0.00548697 </v>
    <v>       0.00548697 </v>
    <v>       0.00548697 </v>
    <v>       0.00548697 </v>
    <v>       0.00548697 </v>
    <v>       0.00548697 </v>
    <v>       0.00548697 </v>
    <v>       0.00548697 </v>
    <v>       0.00548697 </v>
    <v>       0.00548697 </v>
    <v>       0.00548697 </v>
    <v>       0.00548697 </v>
    <v>       0.00548697 </v>
    <v>       0.00548697 </v>
    <v>       0.00548697 </v>
    <v>       0.00274348 </v>
    <v>       0.00274348 </v>
    <v>       0.00274348 </v>
    <v>       0.00274348 </v>
    <v>       0.00274348 </v>
    <v>       0.00274348 </v>
    <v>       0.00274348 </v>
    <v>       0.00274348 </v>
    <v>       0.00274348 </v>
    <v>       0.00548697 </v>
    <v>       0.00548697 </v>
    <v>       0.00548697 </v>
    <v>       0.00274348 </v>
    <v>       0.00548697 </v>
    <v>       0.00548697 </v>
    <v>       0.00548697 </v>
    <v>       0.00548697 </v>
    <v>       0.00548697 </v>
    <v>       0.00548697 </v>
    <v>       0.00548697 </v>
    <v>       0.00548697 </v>
    <v>       0.00548697 </v>
    <v>       0.00548697 </v>
    <v>       0.00548697 </v>
    <v>       0.00548697 </v>
    <v>       0.00548697 </v>
    <v>       0.00548697 </v>
    <v>       0.00548697 </v>
    <v>       0.00548697 </v>
    <v>       0.00548697 </v>
    <v>       0.00548697 </v>
    <v>       0.00548697 </v>
    <v>       0.00274348 </v>
    <v>       0.00274348 </v>
    <v>       0.00274348 </v>
    <v>       0.00274348 </v>
    <v>       0.00274348 </v>
    <v>       0.00274348 </v>
    <v>       0.00274348 </v>
    <v>       0.00274348 </v>
    <v>       0.00274348 </v>
    <v>       0.00548697 </v>
    <v>       0.00548697 </v>
    <v>       0.00548697 </v>
    <v>       0.00548697 </v>
    <v>       0.00274348 </v>
   </varray>
   <varray name="tetrahedronlist"  type="int" >
    <v type="int" >        4        1        6        6        7 </v>
    <v type="int" >        4        1        2        6        7 </v>
    <v type="int" >        4        1        2        6       43 </v>
    <v type="int" >        4        1        6        7       42 </v>
    <v type="int" >        4        1        6       42       43 </v>
    <v type="int" >        4        2        7        8       14 </v>
    <v type="int" >        4        2        3        8       14 </v>
    <v type="int" >        4        2        3       14       44 </v>
    <v type="int" >        4        2        6        7       14 </v>
    <v type="int" >        4        2        6       14       43 </v>
    <v type="int" >        4        2       14       43       44 </v>
    <v type="int" >        4        3        8        9       13 </v>
    <v type="int" >        4        3        4        9       13 </v>
    <v type="int" >        4        3        4       13       45 </v>
    <v type="int" >        4        3        8       13       14 </v>
    <v type="int" >        4        3       13       14       44 </v>
    <v type="int" >        4        3       13       44       45 </v>
    <v type="int" >        4        4        9       10       12 </v>
    <v type="int" >        4        4        5       10       12 </v>
    <v type="int" >        4        4        5       12       46 </v>
[...]
       <r>  -37.1810    1.0000 </r>
       <r>  -37.1805    1.0000 </r>
       <r>  -37.1805    1.0000 </r>
       <r>  -37.1474    1.0000 </r>
       <r>  -37.1462    1.0000 </r>
       <r>  -19.2974    1.0000 </r>
       <r>  -19.2087    1.0000 </r>
       <r>  -15.9908    1.0000 </r>
       <r>  -15.9908    1.0000 </r>
       <r>  -15.9621    1.0000 </r>
       <r>  -15.9621    1.0000 </r>
       <r>   -6.0252    1.0000 </r>
       <r>   -6.0190    1.0000 </r>
       <r>   -3.7729    1.0000 </r>
       <r>   -3.7729    1.0000 </r>
       <r>   -3.7070    1.0000 </r>
       <r>   -3.7070    1.0000 </r>
       <r>   -3.2852    1.0000 </r>
       <r>   -2.8750    1.0000 </r>
       <r>    0.5321    1.0000 </r>
       <r>    0.5321    1.0000 </r>
       <r>    0.5513    1.0000 </r>
       <r>    0.5513    1.0000 </r>
       <r>    1.0892    1.0000 </r>
       <r>    1.2104    1.0000 </r>
       <r>    1.3545    1.0000 </r>
       <r>    1.3545    1.0000 </r>
       <r>    1.5275    1.0000 </r>
       <r>    1.5275    1.0000 </r>
       <r>    7.4890    0.0000 </r>
       <r>    7.6216    0.0000 </r>
       <r>   10.4732    0.0000 </r>
       <r>   11.1583    0.0000 </r>
       <r>   14.6459    0.0000 </r>
       <r>   14.6459    0.0000 </r>
       <r>   14.6630    0.0000 </r>
       <r>   14.7461    0.0000 </r>
       <r>   14.7461    0.0000 </r>
       <r>   14.8910    0.0000 </r>
       <r>   16.3313    0.0000 </r>
       <r>   16.8778    0.0000 </r>
       <r>   17.0961    0.0000 </r>
       <r>   17.0961    0.0000 </r>
       <r>   17.4872    0.0000 </r>
       <r>   17.4872    0.0000 </r>
      </set>
      <set comment="kpoint 85">
       <r>  -70.4119    1.0000 </r>
       <r>  -70.4119    1.0000 </r>
       <r>  -37.1814    1.0000 </r>
       <r>  -37.1812    1.0000 </r>
       <r>  -37.1803    1.0000 </r>
       <r>  -37.1802    1.0000 </r>
       <r>  -37.1470    1.0000 </r>
       <r>  -37.1466    1.0000 </r>
       <r>  -19.2528    1.0000 </r>
       <r>  -19.2258    1.0000 </r>
       <r>  -16.0437    1.0000 </r>
       <r>  -16.0159    1.0000 </r>
       <r>  -15.9597    1.0000 </r>
       <r>  -15.9506    1.0000 </r>
       <r>   -5.9567    1.0000 </r>
       <r>   -5.9493    1.0000 </r>
       <r>   -3.7902    1.0000 </r>
       <r>   -3.7461    1.0000 </r>
       <r>   -3.7390    1.0000 </r>
       <r>   -3.6555    1.0000 </r>
       <r>   -3.1245    1.0000 </r>
       <r>   -3.0044    1.0000 </r>
       <r>    0.3604    1.0000 </r>
       <r>    0.4153    1.0000 </r>
       <r>    0.5074    1.0000 </r>
       <r>    0.5736    1.0000 </r>
       <r>    1.1308    1.0000 </r>
       <r>    1.2111    1.0000 </r>
       <r>    1.2775    1.0000 </r>
       <r>    1.4097    1.0000 </r>
       <r>    1.4678    1.0000 </r>
       <r>    1.5733    1.0000 </r>
       <r>    7.6186    0.0000 </r>
       <r>    7.6500    0.0000 </r>
       <r>   10.8270    0.0000 </r>
       <r>   11.0521    0.0000 </r>
       <r>   13.9886    0.0000 </r>
       <r>   14.2128    0.0000 </r>
       <r>   14.2760    0.0000 </r>
       <r>   14.8057    0.0000 </r>
       <r>   15.1516    0.0000 </r>
       <r>   15.5022    0.0000 </r>
       <r>   16.4092    0.0000 </r>
       <r>   16.4729    0.0000 </r>
       <r>   17.1221    0.0000 </r>
       <r>   17.4146    0.0000 </r>
       <r>   17.4196    0.0000 </r>
       <r>   17.5586    0.0000 </r>
      </set>
     </set>
    </set>
   </array>
  </eigenvalues>
  <separator name="orbital magnetization" >
   <v name="MAGDIPOLOUT">      0.00000000      0.00000000      0.00000000</v>
  </separator>
  <dos>
   <i name="efermi">      2.66098613 </i>
   <total>
    <array>
     <dimension dim="1">gridpoints</dimension>
     <dimension dim="2">spin</dimension>
     <field>energy</field>
     <field>total</field>
     <field>integrated</field>
     <set>
      <set comment="spin 1">
       <r>   -74.8484     0.0000     0.0000 </r>
       <r>   -74.5231     0.0000     0.0000 </r>
       <r>   -74.1977     0.0000     0.0000 </r>
       <r>   -73.8724     0.0000     0.0000 </r>
       <r>   -73.5471     0.0000     0.0000 </r>
       <r>   -73.2218     0.0000     0.0000 </r>
       <r>   -72.8964     0.0000     0.0000 </r>
       <r>   -72.5711     0.0000     0.0000 </r>
       <r>   -72.2458     0.0000     0.0000 </r>
       <r>   -71.9204     0.0000     0.0000 </r>
       <r>   -71.5951     0.0000     0.0000 </r>
       <r>   -71.2698     0.0000     0.0000 </r>
       <r>   -70.9445     0.0000     0.0000 </r>
       <r>   -70.6191     0.0000     0.0000 </r>
       <r>   -70.2938     0.0000     4.0000 </r>
       <r>   -69.9685     0.0000     4.0000 </r>
       <r>   -69.6431     0.0000     4.0000 </r>
       <r>   -69.3178     0.0000     4.0000 </r>
       <r>   -68.9925     0.0000     4.0000 </r>
       <r>   -68.6672     0.0000     4.0000 </r>
       <r>   -68.3418     0.0000     4.0000 </r>
       <r>   -68.0165     0.0000     4.0000 </r>
       <r>   -67.6912     0.0000     4.0000 </r>
       <r>   -67.3659     0.0000     4.0000 </r>
       <r>   -67.0405     0.0000     4.0000 </r>
       <r>   -66.7152     0.0000     4.0000 </r>
       <r>   -66.3899     0.0000     4.0000 </r>
       <r>   -66.0645     0.0000     4.0000 </r>
       <r>   -65.7392     0.0000     4.0000 </r>
       <r>   -65.4139     0.0000     4.0000 </r>
       <r>   -65.0886     0.0000     4.0000 </r>
       <r>   -64.7632     0.0000     4.0000 </r>
       <r>   -64.4379     0.0000     4.0000 </r>
       <r>   -64.1126     0.0000     4.0000 </r>
       <r>   -63.7872     0.0000     4.0000 </r>
       <r>   -63.4619     0.0000     4.0000 </r>
       <r>   -63.1366     0.0000     4.0000 </r>
       <r>   -62.8113     0.0000     4.0000 </r>
       <r>   -62.4859     0.0000     4.0000 </r>
       <r>   -62.1606     0.0000     4.0000 </r>
       <r>   -61.8353     0.0000     4.0000 </r>
       <r>   -61.5100     0.0000     4.0000 </r>
       <r>   -61.1846     0.0000     4.0000 </r>
       <r>   -60.8593     0.0000     4.0000 </r>
       <r>   -60.5340     0.0000     4.0000 </r>
       <r>   -60.2086     0.0000     4.0000 </r>
       <r>   -59.8833     0.0000     4.0000 </r>
       <r>   -59.5580     0.0000     4.0000 </r>
       <r>   -59.2327     0.0000     4.0000 </r>
       <r>   -58.9073     0.0000     4.0000 </r>
       <r>   -58.5820     0.0000     4.0000 </r>
       <r>   -58.2567     0.0000     4.0000 </r>
       <r>   -57.9313     0.0000     4.0000 </r>
       <r>   -57.6060     0.0000     4.0000 </r>
       <r>   -57.2807     0.0000     4.0000 </r>
       <r>   -56.9554     0.0000     4.0000 </r>
       <r>   -56.6300     0.0000     4.0000 </r>
       <r>   -56.3047     0.0000     4.0000 </r>
       <r>   -55.9794     0.0000     4.0000 </r>
       <r>   -55.6540     0.0000     4.0000 </r>
       <r>   -55.3287     0.0000     4.0000 </r>
       <r>   -55.0034     0.0000     4.0000 </r>
       <r>   -54.6781     0.0000     4.0000 </r>
       <r>   -54.3527     0.0000     4.0000 </r>
       <r>   -54.0274     0.0000     4.0000 </r>
       <r>   -53.7021     0.0000     4.0000 </r>
       <r>   -53.3768     0.0000     4.0000 </r>
       <r>   -53.0514     0.0000     4.0000 </r>
       <r>   -52.7261     0.0000     4.0000 </r>
       <r>   -52.4008     0.0000     4.0000 </r>
       <r>   -52.0754     0.0000     4.0000 </r>
       <r>   -51.7501     0.0000     4.0000 </r>
       <r>   -51.4248     0.0000     4.0000 </r>
       <r>   -51.0995     0.0000     4.0000 </r>
       <r>   -50.7741     0.0000     4.0000 </r>
       <r>   -50.4488     0.0000     4.0000 </r>
       <r>   -50.1235     0.0000     4.0000 </r>
       <r>   -49.7981     0.0000     4.0000 </r>
       <r>   -49.4728     0.0000     4.0000 </r>
       <r>   -49.1475     0.0000     4.0000 </r>
       <r>   -48.8222     0.0000     4.0000 </r>
       <r>   -48.4968     0.0000     4.0000 </r>
       <r>   -48.1715     0.0000     4.0000 </r>
       <r>   -47.8462     0.0000     4.0000 </r>
       <r>   -47.5208     0.0000     4.0000 </r>
       <r>   -47.1955     0.0000     4.0000 </r>
       <r>   -46.8702     0.0000     4.0000 </r>
       <r>   -46.5449     0.0000     4.0000 </r>
       <r>   -46.2195     0.0000     4.0000 </r>
       <r>   -45.8942     0.0000     4.0000 </r>
       <r>   -45.5689     0.0000     4.0000 </r>
       <r>   -45.2436     0.0000     4.0000 </r>
       <r>   -44.9182     0.0000     4.0000 </r>
       <r>   -44.5929     0.0000     4.0000 </r>
       <r>   -44.2676     0.0000     4.0000 </r>
       <r>   -43.9422     0.0000     4.0000 </r>
       <r>   -43.6169     0.0000     4.0000 </r>
       <r>   -43.2916     0.0000     4.0000 </r>
       <r>   -42.9663     0.0000     4.0000 </r>
       <r>   -42.6409     0.0000     4.0000 </r>
       <r>   -42.3156     0.0000     4.0000 </r>
       <r>   -41.9903     0.0000     4.0000 </r>
       <r>   -41.6649     0.0000     4.0000 </r>
       <r>   -41.3396     0.0000     4.0000 </r>
       <r>   -41.0143     0.0000     4.0000 </r>
       <r>   -40.6890     0.0000     4.0000 </r>
       <r>   -40.3636     0.0000     4.0000 </r>
       <r>   -40.0383     0.0000     4.0000 </r>
       <r>   -39.7130     0.0000     4.0000 </r>
       <r>   -39.3877     0.0000     4.0000 </r>
       <r>   -39.0623     0.0000     4.0000 </r>
       <r>   -38.7370     0.0000     4.0000 </r>
       <r>   -38.4117     0.0000     4.0000 </r>
       <r>   -38.0863     0.0000     4.0000 </r>
       <r>   -37.7610     0.0000     4.0000 </r>
       <r>   -37.4357     0.0000     4.0000 </r>
       <r>   -37.1104     0.0000    16.0000 </r>
       <r>   -36.7850     0.0000    16.0000 </r>
       <r>   -36.4597     0.0000    16.0000 </r>
       <r>   -36.1344     0.0000    16.0000 </r>
       <r>   -35.8090     0.0000    16.0000 </r>
       <r>   -35.4837     0.0000    16.0000 </r>
       <r>   -35.1584     0.0000    16.0000 </r>
       <r>   -34.8331     0.0000    16.0000 </r>
       <r>   -34.5077     0.0000    16.0000 </r>
       <r>   -34.1824     0.0000    16.0000 </r>
       <r>   -33.8571     0.0000    16.0000 </r>
       <r>   -33.5317     0.0000    16.0000 </r>
       <r>   -33.2064     0.0000    16.0000 </r>
       <r>   -32.8811     0.0000    16.0000 </r>
       <r>   -32.5558     0.0000    16.0000 </r>
       <r>   -32.2304     0.0000    16.0000 </r>
       <r>   -31.9051     0.0000    16.0000 </r>
       <r>   -31.5798     0.0000    16.0000 </r>
       <r>   -31.2545     0.0000    16.0000 </r>
       <r>   -30.9291     0.0000    16.0000 </r>
       <r>   -30.6038     0.0000    16.0000 </r>
       <r>   -30.2785     0.0000    16.0000 </r>
       <r>   -29.9531     0.0000    16.0000 </r>
       <r>   -29.6278     0.0000    16.0000 </r>
       <r>   -29.3025     0.0000    16.0000 </r>
       <r>   -28.9772     0.0000    16.0000 </r>
       <r>   -28.6518     0.0000    16.0000 </r>
       <r>   -28.3265     0.0000    16.0000 </r>
       <r>   -28.0012     0.0000    16.0000 </r>
       <r>   -27.6758     0.0000    16.0000 </r>
       <r>   -27.3505     0.0000    16.0000 </r>
       <r>   -27.0252     0.0000    16.0000 </r>
       <r>   -26.6999     0.0000    16.0000 </r>
       <r>   -26.3745     0.0000    16.0000 </r>
       <r>   -26.0492     0.0000    16.0000 </r>
       <r>   -25.7239     0.0000    16.0000 </r>
       <r>   -25.3985     0.0000    16.0000 </r>
       <r>   -25.0732     0.0000    16.0000 </r>
       <r>   -24.7479     0.0000    16.0000 </r>
       <r>   -24.4226     0.0000    16.0000 </r>
       <r>   -24.0972     0.0000    16.0000 </r>
       <r>   -23.7719     0.0000    16.0000 </r>
       <r>   -23.4466     0.0000    16.0000 </r>
       <r>   -23.1213     0.0000    16.0000 </r>
       <r>   -22.7959     0.0000    16.0000 </r>
       <r>   -22.4706     0.0000    16.0000 </r>
       <r>   -22.1453     0.0000    16.0000 </r>
       <r>   -21.8199     0.0000    16.0000 </r>
       <r>   -21.4946     0.0000    16.0000 </r>
       <r>   -21.1693     0.0000    16.0000 </r>
       <r>   -20.8440     0.0000    16.0000 </r>
       <r>   -20.5186     0.0000    16.0000 </r>
       <r>   -20.1933     0.0000    16.0000 </r>
       <r>   -19.8680     0.0000    16.0000 </r>
       <r>   -19.5426     0.0000    16.0000 </r>
       <r>   -19.2173     9.3754    17.0444 </r>
       <r>   -18.8920     0.0000    20.0000 </r>
       <r>   -18.5667     0.0000    20.0000 </r>
       <r>   -18.2413     0.0000    20.0000 </r>
       <r>   -17.9160     0.0000    20.0000 </r>
       <r>   -17.5907     0.0000    20.0000 </r>
       <r>   -17.2654     0.0000    20.0000 </r>
       <r>   -16.9400     0.0000    20.0000 </r>
       <r>   -16.6147     0.0000    20.0000 </r>
       <r>   -16.2894     3.3888    20.0291 </r>
       <r>   -15.9640    21.1453    26.7107 </r>
       <r>   -15.6387     0.0000    28.0000 </r>
       <r>   -15.3134     0.0000    28.0000 </r>
       <r>   -14.9881     0.0000    28.0000 </r>
       <r>   -14.6627     0.0000    28.0000 </r>
       <r>   -14.3374     0.0000    28.0000 </r>
       <r>   -14.0121     0.0000    28.0000 </r>
       <r>   -13.6867     0.0000    28.0000 </r>
       <r>   -13.3614     0.0000    28.0000 </r>
       <r>   -13.0361     0.0000    28.0000 </r>
       <r>   -12.7108     0.0000    28.0000 </r>
       <r>   -12.3854     0.0000    28.0000 </r>
       <r>   -12.0601     0.0000    28.0000 </r>
       <r>   -11.7348     0.0000    28.0000 </r>
       <r>   -11.4094     0.0000    28.0000 </r>
       <r>   -11.0841     0.0000    28.0000 </r>
       <r>   -10.7588     0.0000    28.0000 </r>
       <r>   -10.4335     0.0000    28.0000 </r>
       <r>   -10.1081     0.0000    28.0000 </r>
       <r>    -9.7828     0.0000    28.0000 </r>
       <r>    -9.4575     0.0000    28.0000 </r>
       <r>    -9.1322     0.0000    28.0000 </r>
       <r>    -8.8068     0.0000    28.0000 </r>
       <r>    -8.4815     0.0000    28.0000 </r>
       <r>    -8.1562     0.0000    28.0000 </r>
       <r>    -7.8308     0.0000    28.0000 </r>
       <r>    -7.5055     0.0000    28.0000 </r>
       <r>    -7.1802     0.0000    28.0000 </r>
       <r>    -6.8549     0.0000    28.0000 </r>
       <r>    -6.5295     0.0000    28.0000 </r>
       <r>    -6.2042     0.0000    28.0000 </r>
       <r>    -5.8789     2.1848    28.1798 </r>
       <r>    -5.5535     3.9863    29.1962 </r>
       <r>    -5.2282     7.0336    31.2129 </r>
       <r>    -4.9029     0.0000    32.0000 </r>
       <r>    -4.5776     0.0000    32.0000 </r>
       <r>    -4.2522     1.6253    32.1097 </r>
       <r>    -3.9269     8.7274    33.9485 </r>
       <r>    -3.6016    11.2602    38.5068 </r>
       <r>    -3.2762     3.8118    40.7932 </r>
       <r>    -2.9509     1.4698    42.0282 </r>
       <r>    -2.6256     3.4957    43.2074 </r>
       <r>    -2.3003     1.1076    43.8284 </r>
       <r>    -1.9749     0.0000    44.0000 </r>
       <r>    -1.6496     0.0000    44.0000 </r>
       <r>    -1.3243     0.0000    44.0000 </r>
       <r>    -0.9990     0.0000    44.0000 </r>
       <r>    -0.6736     0.0000    44.0000 </r>
       <r>    -0.3483     5.7703    45.6202 </r>
       <r>    -0.0230     3.5706    46.9571 </r>
       <r>     0.3024    10.1144    50.0333 </r>
       <r>     0.6277     7.9902    52.9795 </r>
       <r>     0.9530     7.6109    55.1773 </r>
       <r>     1.2783    13.7844    57.1890 </r>
       <r>     1.6037     6.5858    59.7371 </r>
       <r>     1.9290     5.1388    60.9680 </r>
       <r>     2.2543     9.0508    62.6195 </r>
       <r>     2.5797     0.0000    64.0000 </r>
       <r>     2.9050     0.0000    64.0000 </r>
       <r>     3.2303     0.0000    64.0000 </r>
       <r>     3.5556     0.0000    64.0000 </r>
       <r>     3.8810     0.0000    64.0000 </r>
       <r>     4.2063     0.0000    64.0000 </r>
       <r>     4.5316     0.0000    64.0000 </r>
       <r>     4.8569     0.0000    64.0000 </r>
       <r>     5.1823     0.0000    64.0000 </r>
       <r>     5.5076     0.0000    64.0000 </r>
       <r>     5.8329     0.0000    64.0000 </r>
       <r>     6.1583     0.0000    64.0000 </r>
       <r>     6.4836     0.0000    64.0000 </r>
       <r>     6.8089     0.0000    64.0000 </r>
       <r>     7.1342     0.0000    64.0000 </r>
       <r>     7.4596     0.0052    64.0000 </r>
       <r>     7.7849     1.8119    64.2808 </r>
       <r>     8.1102     7.8788    65.5254 </r>
       <r>     8.4356     1.3928    67.9839 </r>
       <r>     8.7609     0.1041    68.0121 </r>
       <r>     9.0862     0.2021    68.0607 </r>
       <r>     9.4115     0.3075    68.1435 </r>
       <r>     9.7369     0.4259    68.2620 </r>
       <r>    10.0622     0.5645    68.4229 </r>
       <r>    10.3875     0.7253    68.6312 </r>
       <r>    10.7129     0.9550    68.9050 </r>
       <r>    11.0382     1.3248    69.2673 </r>
       <r>    11.3635     1.3872    69.7924 </r>
       <r>    11.6888     0.7346    70.1314 </r>
       <r>    12.0142     1.5949    70.6498 </r>
       <r>    12.3395     1.3412    71.1157 </r>
       <r>    12.6648     4.8977    72.2380 </r>
       <r>    12.9901     4.2582    73.9313 </r>
       <r>    13.3155     2.9246    74.9898 </r>
       <r>    13.6408     3.4673    75.9506 </r>
       <r>    13.9661     3.3554    77.0743 </r>
       <r>    14.2915     3.6201    78.2051 </r>
       <r>    14.6168     3.3252    79.6370 </r>
       <r>    14.9421     3.9043    80.7852 </r>
       <r>    15.2674     4.4156    82.1802 </r>
       <r>    15.5928     3.3532    83.3227 </r>
       <r>    15.9181     3.0767    84.3633 </r>
       <r>    16.2434     3.5931    85.3377 </r>
       <r>    16.5688     5.3130    86.9600 </r>
       <r>    16.8941     4.9895    88.5818 </r>
       <r>    17.2194     7.8053    90.4837 </r>
       <r>    17.5447     5.6617    92.5541 </r>
       <r>    17.8701     6.3337    94.5297 </r>
       <r>    18.1954     1.4186    95.9535 </r>
       <r>    18.5207     0.0000    96.0000 </r>
       <r>    18.8461     0.0000    96.0000 </r>
       <r>    19.1714     0.0000    96.0000 </r>
       <r>    19.4967     0.0000    96.0000 </r>
       <r>    19.8220     0.0000    96.0000 </r>
       <r>    20.1474     0.0000    96.0000 </r>
       <r>    20.4727     0.0000    96.0000 </r>
       <r>    20.7980     0.0000    96.0000 </r>
       <r>    21.1233     0.0000    96.0000 </r>
       <r>    21.4487     0.0000    96.0000 </r>
       <r>    21.7740     0.0000    96.0000 </r>
       <r>    22.0993     0.0000    96.0000 </r>
       <r>    22.4247     0.0000    96.0000 </r>
       <r>    22.7500     0.0000    96.0000 </r>
      </set>
     </set>
    </array>
   </total>
  </dos>
 </calculation>
 <structure name="finalpos" >
  <crystal>
   <varray name="basis" >
    <v>      -2.33732100      -4.04835800       0.00000000 </v>
    <v>      -4.67464100       0.00000000       0.00000000 </v>
    <v>      -2.33732100      -1.34945300      -5.04670200 </v>
   </varray>
   <i name="volume">     95.50691906 </i>
   <varray name="rec_basis" >
    <v>       0.00000000      -0.24701373       0.06604975 </v>
    <v>      -0.21392017       0.12350689       0.06604974 </v>
    <v>       0.00000000       0.00000000      -0.19814921 </v>
   </varray>
  </crystal>
  <varray name="positions" >
   <v>       0.00000000       0.00000000       0.00000000 </v>
   <v>       0.50000000       0.50000000       0.50000000 </v>
   <v>       0.25000000       0.25000000       0.25000000 </v>
   <v>       0.75000000       0.75000000       0.75000000 </v>
   <v>       0.25000000       0.97348000       0.25000000 </v>
   <v>       0.97348000       0.52652000       0.25000000 </v>
   <v>       0.52652000       0.25000000       0.25000000 </v>
   <v>       0.75000000       0.02652000       0.75000000 </v>
   <v>       0.02652000       0.47348000       0.75000000 </v>
   <v>       0.47348000       0.75000000       0.75000000 </v>
  </varray>
 </structure>
</modeling>
