
Running Job 1 of 1 mol.qin
qchem mol.qin_53392.0 /tmp/qchem53392/ 1
srun -n 1 /global/common/cori/software/qchem/5.1beta/exe/qcprog.exe mol.qin_53392.0 /tmp/qchem53392/

Process 0 of 1 is on nid01908 - thread support 0
initial socket setup ...start
initial socket setup ...done 
now start server 0 ... 
Check license passed

                  Welcome to Q-Chem
     A Quantum Leap Into The Future Of Chemistry


 Q-Chem 5.1, Q-Chem, Inc., Pleasanton, CA (2018)

 Yihan Shao,  Zhengting Gan,  E. Epifanovsky,  A. T. B. Gilbert,  M. Wormit,  
 J. Kussmann,  A. W. Lange,  A. Behn,  Jia Deng,  Xintian Feng,  D. Ghosh,  
 M. Goldey,  P. R. Horn,  L. D. Jacobson,  I. Kaliman,  T. Kus,  A. Landau,  
 Jie Liu,  E. I. Proynov,  R. M. Richard,  R. P. Steele,  E. J. Sundstrom,  
 H. L. Woodcock III,  P. M. Zimmerman,  D. Zuev,  B. Albrecht,  E. Alguire,  
 S. A. Baeppler,  D. Barton,  Z. Benda,  Y. A. Bernard,  E. J. Berquist,  
 K. B. Bravaya,  H. Burton,  D. Casanova,  Chun-Min Chang,  Yunqing Chen,  
 A. Chien,  K. D. Closser,  M. P. Coons,  S. Coriani,  S. Dasgupta,  
 A. L. Dempwolff,  M. Diedenhofen,  Hainam Do,  R. G. Edgar,  Po-Tung Fang,  
 S. Faraji,  S. Fatehi,  Qingguo Feng,  K. D. Fenk,  J. Fosso-Tande,  
 Qinghui Ge,  A. Ghysels,  G. Gidofalvi,  J. Gomes,  J. Gonthier,  A. Gunina,  
 M. W. D. Hanson-Heine,  P. H. P. Harbach,  A. W. Hauser,  J. E. Herr,  
 E. G. Hohenstein,  Z. C. Holden,  Kerwin Hui,  T.-C. Jagau,  Hyunjun Ji,  
 B. Kaduk,  K. Khistyaev,  Jaehoon Kim,  P. Klunzinger,  K. Koh,  
 D. Kosenkov,  L. Koulias,  T. Kowalczyk,  C. M. Krauter,  A. Kunitsa,  
 Ka Un Lao,  A. Laurent,  K. V. Lawler,  Joonho Lee,  D. Lefrancois,  
 S. Lehtola,  D. S. Levine,  Yi-Pei Li,  You-Sheng Lin,  Fenglai Liu,  
 E. Livshits,  A. Luenser,  P. Manohar,  E. Mansoor,  S. F. Manzer,  
 Shan-Ping Mao,  Yuezhi Mao,  N. Mardirossian,  A. V. Marenich,  
 T. Markovich,  L. A. Martinez-Martinez,  S. A. Maurer,  N. J. Mayhall,  
 S. C. McKenzie,  J.-M. Mewes,  A. F. Morrison,  J. W. Mullinax,  K. Nanda,  
 T. S. Nguyen-Beck,  R. Olivares-Amaya,  J. A. Parkhill,  T. M. Perrine,  
 F. Plasser,  P. Pokhilko,  S. Prager,  A. Prociuk,  E. Ramos,  D. R. Rehn,  
 F. Rob,  M. Schneider,  N. Sergueev,  S. M. Sharada,  S. Sharma,  
 D. W. Small,  T. Stauch,  T. Stein,  Yu-Chuan Su,  A. J. W. Thom,  
 A. Tkatchenko,  T. Tsuchimochi,  N. M. Tubman,  L. Vogt,  M. L. Vidal,  
 O. Vydrov,  M. A. Watson,  J. Wenzel,  M. de Wergifosse,  T. A. Wesolowski,  
 A. White,  J. Witte,  A. Yamada,  Jun Yang,  K. Yao,  S. Yeganeh,  
 S. R. Yost,  Zhi-Qiang You,  A. Zech,  Igor Ying Zhang,  Xing Zhang,  
 Yan Zhao,  Ying Zhu,  B. R. Brooks,  G. K. L. Chan,  C. J. Cramer,  
 M. S. Gordon,  W. J. Hehre,  A. Klamt,  M. W. Schmidt,  C. D. Sherrill,  
 D. G. Truhlar,  A. Aspuru-Guzik,  R. Baer,  A. T. Bell,  N. A. Besley,  
 Jeng-Da Chai,  R. A. DiStasio Jr.,  A. Dreuw,  B. D. Dunietz,  
 T. R. Furlani,  Chao-Ping Hsu,  Yousung Jung,  Jing Kong,  D. S. Lambrecht,  
 WanZhen Liang,  C. Ochsenfeld,  V. A. Rassolov,  L. V. Slipchenko,  
 J. E. Subotnik,  T. Van Voorhis,  J. M. Herbert,  A. I. Krylov,  
 P. M. W. Gill,  M. Head-Gordon

 Contributors to earlier versions of Q-Chem not listed above: 
 R. D. Adamson,  B. Austin,  J. Baker,  G. J. O. Beran,  K. Brandhorst,  
 S. T. Brown,  E. F. C. Byrd,  A. K. Chakraborty,  C.-L. Cheng,  
 Siu Hung Chien,  D. M. Chipman,  D. L. Crittenden,  H. Dachsel,  
 R. J. Doerksen,  A. D. Dutoi,  L. Fusti-Molnar,  W. A. Goddard III,  
 A. Golubeva-Zadorozhnaya,  S. R. Gwaltney,  G. Hawkins,  A. Heyden,  
 S. Hirata,  G. Kedziora,  F. J. Keil,  C. Kelley,  Jihan Kim,  R. A. King,  
 R. Z. Khaliullin,  P. P. Korambath,  W. Kurlancheek,  A. M. Lee,  M. S. Lee,  
 S. V. Levchenko,  Ching Yeh Lin,  D. Liotard,  R. C. Lochan,  I. Lotan,  
 P. E. Maslen,  N. Nair,  D. P. O'Neill,  D. Neuhauser,  E. Neuscamman,  
 C. M. Oana,  R. Olson,  B. Peters,  R. Peverati,  P. A. Pieniazek,  
 Y. M. Rhee,  J. Ritchie,  M. A. Rohrdanz,  E. Rosta,  N. J. Russ,  
 H. F. Schaefer III,  N. E. Schultz,  N. Shenvi,  A. C. Simmonett,  A. Sodt,  
 D. Stuck,  K. S. Thanthiriwatte,  V. Vanovschi,  Tao Wang,  A. Warshel,  
 C. F. Williams,  Q. Wu,  X. Xu,  W. Zhang

 Please cite Q-Chem as follows:
 Y. Shao et al., Mol. Phys. 113, 184-215 (2015)
 DOI: 10.1080/00268976.2014.952696

 Q-Chem 5.1.0 for Intel X86 EM64T Linux

 Parts of Q-Chem use Armadillo 8.300.2 (Tropical Shenanigans).
 http://arma.sourceforge.net/

 Q-Chem begins on Mon Oct 29 16:40:43 2018  

Host: cori01
0

     Scratch files written to /tmp/qchem53392//
 Mar1918  _RNUM -1
 Parallel job on  1  processors
Processing $rem in /global/common/cori/software/qchem/5.1beta/config/preferences.
 MEM_TOTAL  2000 
Symmetry turned off for PCM/SM12/SMD calculation

Checking the input file for inconsistencies... 	...done.

--------------------------------------------------------------
User input:
--------------------------------------------------------------
$molecule
-1 2
O     -1.9622175816      1.1060043230      0.0709687370
O     -1.9610805772     -1.0946698475     -0.1143048199
O     -0.0125851665      0.0011715900      0.0321374564
C     -3.3514895076      0.7444938189      0.1514985019
C     -3.3520420153     -0.7383009053     -0.1914964325
C     -1.2127898708      0.0048581859      0.0095983571
H     -3.9138657601      1.3715404079     -0.5375146771
H     -3.6804534788      0.8998570317      1.2004203943
H     -3.8918573164     -1.3201602542      0.5686059192
H     -3.7116187257     -0.9731943504     -1.1922134364
$end

$rem
job_type = freq
basis = 6-311++g*
max_scf_cycles = 200
gen_scfman = true
scf_algorithm = gdm
method = wb97xd
geom_opt_max_cycles = 200
solvent_method = pcm
xc_grid = 3
$end

$pcm
heavypoints 194
hpoints 194
radii uff
theory cpcm
vdwscale 1.1
$end

$solvent
dielectric 30.0
$end
--------------------------------------------------------------
 ----------------------------------------------------------------
             Standard Nuclear Orientation (Angstroms)
    I     Atom           X                Y                Z
 ----------------------------------------------------------------
    1      O      -1.9622175816     1.1060043230     0.0709687370
    2      O      -1.9610805772    -1.0946698475    -0.1143048199
    3      O      -0.0125851665     0.0011715900     0.0321374564
    4      C      -3.3514895076     0.7444938189     0.1514985019
    5      C      -3.3520420153    -0.7383009053    -0.1914964325
    6      C      -1.2127898708     0.0048581859     0.0095983571
    7      H      -3.9138657601     1.3715404079    -0.5375146771
    8      H      -3.6804534788     0.8998570317     1.2004203943
    9      H      -3.8918573164    -1.3201602542     0.5686059192
   10      H      -3.7116187257    -0.9731943504    -1.1922134364
 ----------------------------------------------------------------
 Nuclear Repulsion Energy =   247.0464671767 hartrees
 There are       24 alpha and       23 beta electrons
 Requested basis set is 6-311++G(d)
 There are 52 shells and 148 basis functions

 Total QAlloc Memory Limit   2000 MB
 Mega-Array Size       188 MB
 MEM_STATIC part       192 MB
 Discretize the solute cavity surface with Lebedev spheres
	Using 194 Lebedev grid points for each H atom
	Using 194 Lebedev grid points for other atoms
	Atomic van der Waals radii will be scaled by 1.10
 Remove points where switching function is < 1.0e-08
 Keep 923 surface tesserae and discard 1017 interior tesserae
 Molecular Surface Area = 128.519 Angst**2

                       Distance Matrix (Angstroms)
             O (  1)   O (  2)   O (  3)   C (  4)   C (  5)   C (  6)
   O (  2)  2.208460
   O (  3)  2.241256  2.240301
   C (  4)  1.437794  2.320864  3.422727
   C (  5)  2.324212  1.437961  3.427653  1.521948
   C (  6)  1.333391  1.335759  1.200422  2.267429  2.273571
   H (  7)  2.061478  3.174062  4.174015  1.088207  2.210612  3.076193
   H (  8)  2.066517  2.943278  3.952946  1.110222  2.174591  2.882437
   H (  9)  3.139654  2.060367  4.133094  2.174574  1.098962  3.040652
   H ( 10)  2.996515  2.059375  4.016376  2.210364  1.088993  2.940252
             H (  7)   H (  8)   H (  9)
   H (  8)  1.815870
   H (  9)  2.910196  2.317835
   H ( 10)  2.442809  3.038748  1.803706
 
 A cutoff of  1.0D-12 yielded   1339 shell pairs
 There are     11083 function pairs (     12016 Cartesian)
 
 -------------------------------------------------------
 OpenMP Integral Computing Module                       
 Release: version 1.0, May 2013, Q-Chem Inc. Pittsburgh 
 -------------------------------------------------------
 Integral Job Info:
 Integral job number is                      11
 Integral operator is                         1
 short-range coefficients              22203600
 long-range coefficients              100000000
 Omega coefficients                         200
 if combine SR and LR in K                    1
 Integral screening is                        0
 Integral computing path is                   2
 max size of driver memory is            800000
 size of driver memory is                593474
 size of scratch memory is              2428936
 max col of scratch BK array               1296
 max len of scratch array in speh3          155
 max len of scratch index in speh4           18
 max int batch size is                      520
 min int batch size is                       52
 fixed nKL is                                52
 max L of basis functions is                  2
 order of int derivative is                   0
 number of shells is                         52
 number of basis is                         154
 number of cartesian basis is               154
 number of contracted shell pairs          1339
 number of primitive shell pairs           3872
 maxK2 (contraction) of shell pair           36
 max number of K2 of shell pair               1
 max number of CS2 of shell pair            228
 max number of PS2 of shell pair            648
 mem total for path MDJ                  528446
 -------------------------------------------------------
 Smallest overlap matrix eigenvalue = 6.98E-05
 Guess from superposition of atomic densities
 Warning:  Energy on first SCF cycle will be non-variational
 SAD guess density has 46.000000 electrons

 -----------------------------------------------------------------------
  General SCF calculation program by
  Eric Jon Sundstrom, Paul Horn, Yuezhi Mao, Dmitri Zuev, Alec White,
  David Stuck, Shaama M.S., Shane Yost, Joonho Lee, David Small,
  Daniel Levine, Susi Lehtola, Hugh Burton, Evgeny Epifanovsky
 -----------------------------------------------------------------------
 Exchange:     0.2220 Hartree-Fock + 1.0000 wB97X-D + LR-HF
 Correlation:  1.0000 wB97X-D
 Using SG-3 standard quadrature grid
 Dispersion:   Grimme D
 using 32 threads for integral computing
 -------------------------------------------------------
 OpenMP Integral computing Module                
 Release: version 1.0, May 2013, Q-Chem Inc. Pittsburgh 
 -------------------------------------------------------
 using 32 threads for integral computing
 -------------------------------------------------------
 OpenMP Integral computing Module                
 Release: version 1.0, May 2013, Q-Chem Inc. Pittsburgh 
 -------------------------------------------------------
 -------------------------------------------------------
 OpenMP BLAS3 based DFT computing Module                
 Release: version 1.0, May 2013, Q-Chem Inc. Pittsburgh 
 -------------------------------------------------------
 A unrestricted SCF calculation will be
 performed using Roothaan-Hall, GDM
 SCF converges when RMS gradient is below 1.0e-08
 ---------------------------------------
  Cycle       Energy         DIIS error
 ---------------------------------------
    1    -343.8562756610      2.83e-02  Roothaan Step
 ---------------------------------------
  Cycle       Energy        RMS Gradient
 ---------------------------------------
    1    -342.2353866607      1.11e-01   Descent step
    2    -342.3827208294      4.64e-02   Normal BFGS step
    3    -342.3993558849      2.30e-02   Normal BFGS step
    4    -342.4052153436      2.04e-02   Normal BFGS step
    5    -342.4096567220      1.87e-02   Normal BFGS step
    6    -342.4127987270      2.05e-02   Normal BFGS step
    7    -342.4144378846      1.63e-02   Normal BFGS step
    8    -342.4158696796      1.22e-02   Normal BFGS step
    9    -342.4166746961      1.02e-02   Normal BFGS step
   10    -342.4173475647      7.10e-03   Normal BFGS step
   11    -342.4178753441      7.11e-03   Normal BFGS step
   12    -342.4183191792      6.85e-03   Normal BFGS step
   13    -342.4186590684      5.11e-03   Normal BFGS step
   14    -342.4188115718      2.84e-03   Normal BFGS step
   15    -342.4188711972      2.25e-03   Normal BFGS step
   16    -342.4188933853      1.29e-03   Normal BFGS step
   17    -342.4188991356      6.94e-04   Normal BFGS step
   18    -342.4189018193      5.94e-04   Normal BFGS step
   19    -342.4189042320      5.18e-04   Normal BFGS step
   20    -342.4189065015      5.31e-04   Normal BFGS step
   21    -342.4189101051      5.53e-04   Normal BFGS step
   22    -342.4189130231      4.82e-04   Normal BFGS step
   23    -342.4189145489      2.35e-04   Normal BFGS step
   24    -342.4189149398      6.35e-05   Normal BFGS step
   25    -342.4189149893      2.79e-05   Normal BFGS step
   26    -342.4189150002      1.11e-05   Normal BFGS step
   27    -342.4189150020      5.72e-06   Normal BFGS step
   28    -342.4189150025      3.29e-06   Normal BFGS step
   29    -342.4189150025      1.28e-06   Normal BFGS step
   30    -342.4189150025      4.86e-07   Normal BFGS step
   31    -342.4189150025      2.63e-07   Normal BFGS step
   32    -342.4189150025      1.20e-07   Normal BFGS step
   33    -342.4189150025      7.77e-08   Normal BFGS step
   34    -342.4189150025      2.62e-08   Normal BFGS step
   35    -342.4189150025      2.12e-08   Normal BFGS step
   36    -342.4189150025      1.45e-08   Normal BFGS step
   37    -342.4189150025      1.24e-08   Normal BFGS step
   38    -342.4189150025      6.40e-09  Convergence criterion met
 ---------------------------------------
 SCF time:   CPU 1049.34s  wall 40.00s 
 SCF   energy in the final basis set =     -342.4189150025
<S^2> =          0.750484908

************** Final PCM Free Energy Summary **************
 G_electrostatic  =      -0.07564715 hartree =     -47.46930004 kcal/mol
 G_cavitation     =       0.00000000 hartree =       0.00000000 kcal/mol
 G_dispersion     =       0.00000000 hartree =       0.00000000 kcal/mol
 G_repulsion      =       0.00000000 hartree =       0.00000000 kcal/mol
 --------------------------------------------------
 Non-electrostatic Free Energy =       0.00000000 hartree =       0.00000000 kcal/mol
 Total                         =      -0.07564715 hartree =     -47.46930004 kcal/mol
 --------------------------------------------------
 SCF Energy (H0 + V/2)                       =    -342.41891500 
 Solute Internal Energy (H0)                 =    -342.34326786 
 Total Free Energy (H0 + V/2 + non-elec)     =    -342.41891500 hartree
                                             = -214871.11221363 kcal/mol
***********************************************************

 
 --------------------------------------------------------------
 
                    Orbital Energies (a.u.)
 --------------------------------------------------------------
 
 Alpha MOs
 -- Occupied --
-19.308 -19.308 -19.239 -10.467 -10.346 -10.341  -1.276  -1.157
 -1.149  -0.877  -0.774  -0.703  -0.632  -0.610  -0.588  -0.538
 -0.531  -0.518  -0.471  -0.457  -0.401  -0.394  -0.389  -0.100
 -- Virtual --
  0.058   0.064   0.069   0.096   0.104   0.113   0.122   0.127
  0.131   0.163   0.171   0.176   0.179   0.191   0.194   0.200
  0.204   0.238   0.269   0.277   0.293   0.304   0.310   0.335
  0.337   0.343   0.347   0.349   0.367   0.380   0.382   0.391
  0.412   0.434   0.447   0.456   0.495   0.539   0.546   0.584
  0.648   0.655   0.678   0.680   0.728   0.740   0.761   0.775
  0.777   0.817   0.863   0.943   1.034   1.101   1.121   1.161
  1.197   1.201   1.226   1.234   1.268   1.273   1.292   1.359
  1.399   1.449   1.473   1.573   1.639   1.665   1.708   1.717
  1.762   1.795   1.841   1.859   1.867   1.958   1.964   2.052
  2.170   2.488   2.594   2.597   2.629   2.637   2.862   2.894
  2.954   2.970   3.003   3.028   3.054   3.099   3.119   3.225
  3.231   3.248   3.304   3.371   3.476   3.559   3.648   3.755
  3.925   3.937   4.123   4.134   4.177   5.090   5.119   5.147
  5.225   5.355   5.464   5.497   5.948   6.013  23.635  23.802
 23.947  49.952  50.048  50.156
 
 Beta MOs
 -- Occupied --
-19.308 -19.308 -19.239 -10.467 -10.346 -10.339  -1.275  -1.157
 -1.148  -0.875  -0.773  -0.702  -0.630  -0.609  -0.586  -0.538
 -0.530  -0.517  -0.471  -0.456  -0.400  -0.393  -0.388
 -- Virtual --
  0.075   0.099   0.106   0.113   0.131   0.141   0.148   0.161
  0.172   0.188   0.202   0.206   0.222   0.228   0.239   0.246
  0.260   0.274   0.290   0.298   0.311   0.319   0.326   0.349
  0.356   0.359   0.360   0.366   0.384   0.386   0.407   0.417
  0.426   0.445   0.448   0.474   0.487   0.499   0.559   0.577
  0.594   0.658   0.668   0.686   0.695   0.737   0.759   0.768
  0.782   0.790   0.821   0.868   0.947   1.039   1.104   1.124
  1.164   1.201   1.205   1.228   1.237   1.270   1.275   1.295
  1.361   1.402   1.450   1.474   1.577   1.641   1.669   1.710
  1.718   1.763   1.797   1.844   1.861   1.870   1.959   1.965
  2.052   2.173   2.491   2.597   2.599   2.630   2.641   2.864
  2.894   2.955   2.971   3.004   3.030   3.054   3.099   3.120
  3.226   3.232   3.249   3.304   3.372   3.477   3.559   3.648
  3.755   3.926   3.938   4.123   4.135   4.177   5.090   5.120
  5.148   5.226   5.355   5.465   5.497   5.948   6.014  23.637
 23.803  23.947  49.953  50.048  50.156
 --------------------------------------------------------------
 
          Ground-State Mulliken Net Atomic Charges

     Atom                 Charge (a.u.)    Spin (a.u.)
  --------------------------------------------------------
      1 O                    -0.083618      -0.026258
      2 O                    -0.094643      -0.015302
      3 O                    -0.440708       0.004821
      4 C                     0.438095      -0.836182
      5 C                    -0.103551      -0.341523
      6 C                     0.567360      -0.188386
      7 H                     0.077951       0.202506
      8 H                    -1.393992       1.666647
      9 H                    -0.181201       0.454311
     10 H                     0.214307       0.079367
  --------------------------------------------------------
  Sum of atomic charges =    -1.000000
  Sum of spin   charges =     1.000000

 -----------------------------------------------------------------
                    Cartesian Multipole Moments
 -----------------------------------------------------------------
    Charge (ESU x 10^10)
                -4.8032
    Dipole Moment (Debye)
         X      11.0042      Y      -0.9065      Z     -10.7011
       Tot      15.3762
    Quadrupole Moments (Debye-Ang)
        XX     -89.6062     XY       3.4603     YY     -49.9847
        XZ      41.1069     YZ      -3.0508     ZZ     -65.6261
    Octopole Moments (Debye-Ang^2)
       XXX     513.6229    XXY     -15.5410    XYY     121.6651
       YYY      -6.8742    XXZ    -181.5378    XYZ      10.9678
       YYZ     -28.4949    XZZ     191.3648    YZZ     -11.5505
       ZZZ    -106.8909
    Hexadecapole Moments (Debye-Ang^3)
      XXXX   -2986.1534   XXXY      77.3017   XXYY    -448.0100
      XYYY      25.6179   YYYY    -287.1077   XXXZ     872.6753
      XXYZ     -51.3192   XYYZ     109.5759   YYYZ     -31.3218
      XXZZ    -744.6206   XYZZ      43.8112   YYZZ    -122.6596
      XZZZ     402.9970   YZZZ     -46.7977   ZZZZ    -447.4560
 -----------------------------------------------------------------
 Calculating MO derivatives via CPSCF
 Computing fast CPCM-SWIG hessian.
 D1JvT checksum  = 389640 24054.404011322
 D1KAT checksum  = 770880 3918.984094599
 D1JvT checksum  = 389640 14208.483298718
 D1KAT checksum  = 770880 2151.967644442
   1         3          30      0.612373    0.227919
   2         3          30      0.422885    0.209130
   3         3          30      0.178770    0.089172
   4         3          30      0.036339    0.018068
   5         3          30      0.005382    0.002631
   6        12          21      0.000704    0.000339
   7        30           3      0.000092    0.000046
   8        30           3      0.000016    0.000008
   9        32           1      0.000002    0.000002
  10        33           0      0.000000    0.000000    Roots Converged
 Time for AOints: 49.4 s (CPU) 2.4 s (wall)
 ------------------------------------------------------------------------------
                     AOints        : Timing summary (seconds)
 ------------------------------------------------------------------------------
     job step          cpu (% of tot)      sys (% of tot)     wall (% of tot)
 ------------------------------------------------------------------------------
  cpscf_lag         0.5125E+03 (37.8)   0.2851E-02 (38.9)   0.1762E+03 (64.0)
  iterzp            0.7915E+03 (58.4)   0.3968E-02 (54.2)   0.9684E+02 (35.1)
  make_fx           0.0000E+00 ( 0.0)   0.0000E+00 ( 0.0)   0.0000E+00 ( 0.0)
  AOints            0.4940E+02 ( 3.6)   0.4850E-03 ( 6.6)   0.2416E+01 ( 0.9)
 ------------------------------------------------------------------------------
   Grand Totals     0.1354E+04          0.7322E-02          0.2755E+03
 ------------------------------------------------------------------------------
 Calculating analytic Hessian of the SCF energy
 Polarizability Matrix (a.u.)
            1           2           3
    1-786.0071841 -44.8274427 -10.9912126
    2 -44.8274427-2113.5140819-437.4305602
    3 -10.9912126-437.4305602-274.6009295
atom: 0 element: 8
atom: 1 element: 8
atom: 2 element: 8
atom: 3 element: 6
atom: 4 element: 6
atom: 5 element: 6
atom: 6 element: 1
atom: 7 element: 1
atom: 8 element: 1
atom: 9 element: 1
 
 Direct stationary perturbation theory relativistic correction:
 
 rels  =       0.117613736337
 relv  =      -0.521897686825
 rel2e =       0.000000000000
 E_rel =      -0.404283950488
 
 Computing fast CPCM-SWIG hessian
 Hessian of the SCF Energy
            1           2           3           4           5           6
    1   0.3916803  -0.0802984  -0.0267999  -0.0016996   0.0083376  -0.0047194
    2  -0.0802984   0.3734162   0.0212930  -0.0095379  -0.0855941  -0.0074512
    3  -0.0267999   0.0212930  -0.0133574  -0.0030504  -0.0110549   0.0106717
    4  -0.0016996  -0.0095379  -0.0030504   0.3946678   0.0782208   0.0316715
    5   0.0083376  -0.0855941  -0.0110549   0.0782208   0.3708919   0.0368769
    6  -0.0047194  -0.0074512   0.0106717   0.0316715   0.0368769  -0.0085133
    7  -0.0710994   0.0406164   0.0061868  -0.0727639  -0.0397122   0.0000301
    8   0.0589659  -0.0046343  -0.0014211  -0.0585612  -0.0039671  -0.0025832
    9  -0.0008477   0.0003504   0.0070212  -0.0085244  -0.0038448   0.0056427
   10  -0.1584722  -0.0143008   0.0145290  -0.0293579   0.0161788   0.0041064
   11  -0.0483683  -0.0596705   0.0023517   0.0217618  -0.0341869   0.0038389
   12   0.0134680  -0.0028002  -0.0229686  -0.0006177   0.0000349   0.0001448
   13  -0.0302267  -0.0170977  -0.0047041  -0.1560527   0.0167839  -0.0078108
   14  -0.0199698  -0.0345943  -0.0052833   0.0490076  -0.0628280  -0.0047684
   15   0.0021784   0.0062202   0.0016287  -0.0095699  -0.0000737  -0.0284415
   16  -0.0877359   0.0608466   0.0030736  -0.0857944  -0.0569905  -0.0144007
   17   0.1071146  -0.1953257  -0.0093452  -0.1028995  -0.1937432  -0.0262867
   18   0.0198263  -0.0153900   0.0149934  -0.0090998  -0.0147631   0.0151380
   19  -0.0262436   0.0203134  -0.0189695   0.0015573   0.0007346   0.0007554
   20  -0.0107586   0.0080464  -0.0071347   0.0037292  -0.0034087  -0.0000850
   21   0.0015248  -0.0036806   0.0032031   0.0028434  -0.0033050  -0.0000898
   22  -0.0198104   0.0016478   0.0295709   0.0028408   0.0037347   0.0015831
   23  -0.0084216   0.0025087   0.0101390   0.0008638   0.0013425  -0.0013785
   24  -0.0020352   0.0065152   0.0007817  -0.0005515   0.0016925  -0.0010506
   25   0.0025802  -0.0007218  -0.0007351  -0.0268646  -0.0173475   0.0205116
   26  -0.0038376  -0.0028382   0.0010707   0.0099878   0.0067730  -0.0076720
   27  -0.0021640  -0.0052599  -0.0017627  -0.0004948  -0.0067583   0.0027278
   28   0.0010274  -0.0014676   0.0008989  -0.0265328  -0.0099403  -0.0317272
   29  -0.0027638  -0.0013141  -0.0006152   0.0074277   0.0047206   0.0095092
   30  -0.0004313   0.0002031  -0.0002111  -0.0026063   0.0011956   0.0037701
            7           8           9          10          11          12
    1  -0.0710994   0.0589659  -0.0008477  -0.1584722  -0.0483683   0.0134680
    2   0.0406164  -0.0046343   0.0003504  -0.0143008  -0.0596705  -0.0028002
    3   0.0061868  -0.0014211   0.0070212   0.0145290   0.0023517  -0.0229686
    4  -0.0727639  -0.0585612  -0.0085244  -0.0293579   0.0217618  -0.0006177
    5  -0.0397122  -0.0039671  -0.0038448   0.0161788  -0.0341869   0.0000349
    6   0.0000301  -0.0025832   0.0056427   0.0041064   0.0038389   0.0001448
    7   0.8198642  -0.0027891   0.0184417   0.0112794   0.0074027   0.0051616
    8  -0.0027891  -0.0189647   0.0059586  -0.0053199  -0.0072375  -0.0012853
    9   0.0184417   0.0059586  -0.0794307  -0.0009941  -0.0007466   0.0044868
   10   0.0112794  -0.0053199  -0.0009941   0.4477701  -0.1156764   0.0103054
   11   0.0074027  -0.0072375  -0.0007466  -0.1156764   0.4737643  -0.0370935
   12   0.0051616  -0.0012853   0.0044868   0.0103054  -0.0370935   0.5215393
   13   0.0110800   0.0051252  -0.0003789  -0.0183575   0.0125804  -0.0029997
   14  -0.0103532  -0.0075280  -0.0000230  -0.0102203  -0.1694751  -0.0260285
   15   0.0024291   0.0004223   0.0062762  -0.0040122  -0.0512810  -0.0596834
   16  -0.6824714   0.0027417  -0.0127833  -0.0544546   0.0188644  -0.0050294
   17   0.0023749   0.0367092  -0.0012340   0.0418669   0.0220739   0.0084118
   18  -0.0263164  -0.0011787   0.0554665   0.0071575  -0.0037106   0.0020970
   19  -0.0039543   0.0022405   0.0018048  -0.1016199   0.0825505  -0.0860263
   20   0.0001013   0.0011258   0.0005295   0.0911704  -0.1362284   0.1082592
   21  -0.0003963   0.0001952  -0.0002585  -0.1018758   0.1144376  -0.1563383
   22  -0.0054503   0.0015113   0.0025121  -0.0854014   0.0186431   0.0638455
   23   0.0010138   0.0022722  -0.0008930   0.0159425  -0.0788632  -0.0358574
   24  -0.0017148   0.0011778   0.0004956   0.0734733  -0.0367407  -0.2807294
   25  -0.0035198  -0.0018296  -0.0004109  -0.0084044   0.0014892   0.0004653
   26   0.0005879   0.0014022   0.0001353  -0.0137327  -0.0084922   0.0133094
   27  -0.0025782  -0.0011033   0.0006040  -0.0028407   0.0025732  -0.0069964
   28  -0.0029646  -0.0020849   0.0011807  -0.0029816   0.0007526   0.0014272
   29   0.0007573   0.0008222  -0.0002324  -0.0059086  -0.0016843  -0.0269505
   30  -0.0012436  -0.0001823  -0.0003038   0.0001513   0.0063711  -0.0015518
           13          14          15          16          17          18
    1  -0.0302267  -0.0199698   0.0021784  -0.0877359   0.1071146   0.0198263
    2  -0.0170977  -0.0345943   0.0062202   0.0608466  -0.1953257  -0.0153900
    3  -0.0047041  -0.0052833   0.0016287   0.0030736  -0.0093452   0.0149934
    4  -0.1560527   0.0490076  -0.0095699  -0.0857944  -0.1028995  -0.0090998
    5   0.0167839  -0.0628280  -0.0000737  -0.0569905  -0.1937432  -0.0147631
    6  -0.0078108  -0.0047684  -0.0284415  -0.0144007  -0.0262867   0.0151380
    7   0.0110800  -0.0103532   0.0024291  -0.6824714   0.0023749  -0.0263164
    8   0.0051252  -0.0075280   0.0004223   0.0027417   0.0367092  -0.0011787
    9  -0.0003789  -0.0000230   0.0062762  -0.0127833  -0.0012340   0.0554665
   10  -0.0183575  -0.0102203  -0.0040122  -0.0544546   0.0418669   0.0071575
   11   0.0125804  -0.1694751  -0.0512810   0.0188644   0.0220739  -0.0037106
   12  -0.0029997  -0.0260285  -0.0596834  -0.0050294   0.0084118   0.0020970
   13   0.3968096   0.0967031   0.0084578  -0.0541078  -0.0407337  -0.0068139
   14   0.0967031   0.4013268   0.0062926  -0.0145071   0.0237318  -0.0014824
   15   0.0084578   0.0062926   0.5253233  -0.0073344  -0.0036150  -0.0044364
   16  -0.0541078  -0.0145071  -0.0073344   0.9738407  -0.0078894   0.0323934
   17  -0.0407337   0.0237318  -0.0036150  -0.0078894   0.3445253   0.0337075
   18  -0.0068139  -0.0014824  -0.0044364   0.0323934   0.0337075  -0.0692493
   19  -0.0027242  -0.0027186   0.0025357  -0.0026022  -0.0080727  -0.0052861
   20   0.0128359  -0.0060443   0.0193692  -0.0020252  -0.0065817  -0.0014233
   21   0.0046747  -0.0088653   0.0022758   0.0012439  -0.0023328  -0.0017039
   22  -0.0181265  -0.0042111  -0.0003350  -0.0038644  -0.0086457  -0.0098226
   23   0.0109190  -0.0016707  -0.0183350  -0.0020917  -0.0170270   0.0048385
   24   0.0047324   0.0078166  -0.0183987  -0.0010593  -0.0048602  -0.0063234
   25  -0.0792519  -0.0629728   0.0804299  -0.0030202   0.0071945   0.0010459
   26  -0.0739560  -0.0998990   0.0989640   0.0012124  -0.0088039  -0.0012932
   27   0.0892978   0.0910397  -0.1447715   0.0020782   0.0041382  -0.0049648
   28  -0.0490422  -0.0207579  -0.0747794   0.0002102   0.0096900  -0.0030843
   29  -0.0231600  -0.0430192  -0.0579635  -0.0001613  -0.0055586   0.0006953
   30  -0.0844554  -0.0586980  -0.2797726   0.0018180   0.0014165  -0.0010172
           19          20          21          22          23          24
    1  -0.0262436  -0.0107586   0.0015248  -0.0198104  -0.0084216  -0.0020352
    2   0.0203134   0.0080464  -0.0036806   0.0016478   0.0025087   0.0065152
    3  -0.0189695  -0.0071347   0.0032031   0.0295709   0.0101390   0.0007817
    4   0.0015573   0.0037292   0.0028434   0.0028408   0.0008638  -0.0005515
    5   0.0007346  -0.0034087  -0.0033050   0.0037347   0.0013425   0.0016925
    6   0.0007554  -0.0000850  -0.0000898   0.0015831  -0.0013785  -0.0010506
    7  -0.0039543   0.0001013  -0.0003963  -0.0054503   0.0010138  -0.0017148
    8   0.0022405   0.0011258   0.0001952   0.0015113   0.0022722   0.0011778
    9   0.0018048   0.0005295  -0.0002585   0.0025121  -0.0008930   0.0004956
   10  -0.1016199   0.0911704  -0.1018758  -0.0854014   0.0159425   0.0734733
   11   0.0825505  -0.1362284   0.1144376   0.0186431  -0.0788632  -0.0367407
   12  -0.0860263   0.1082592  -0.1563383   0.0638455  -0.0358574  -0.2807294
   13  -0.0027242   0.0128359   0.0046747  -0.0181265   0.0109190   0.0047324
   14  -0.0027186  -0.0060443  -0.0088653  -0.0042111  -0.0016707   0.0078166
   15   0.0025357   0.0193692   0.0022758  -0.0003350  -0.0183350  -0.0183987
   16  -0.0026022  -0.0020252   0.0012439  -0.0038644  -0.0020917  -0.0010593
   17  -0.0080727  -0.0065817  -0.0023328  -0.0086457  -0.0170270  -0.0048602
   18  -0.0052861  -0.0014233  -0.0017039  -0.0098226   0.0048385  -0.0063234
   19   0.1125754  -0.0915947   0.1035517   0.0186889  -0.0043694   0.0025276
   20  -0.0915947   0.1310496  -0.1173403  -0.0027913   0.0145783  -0.0026868
   21   0.1035517  -0.1173403   0.1550684  -0.0132811   0.0176863  -0.0051050
   22   0.0186889  -0.0027913  -0.0132811   0.0934695  -0.0095431  -0.0729720
   23  -0.0043694   0.0145783   0.0176863  -0.0095431   0.0778255   0.0292245
   24   0.0025276  -0.0026868  -0.0051050  -0.0729720   0.0292245   0.2909808
   25   0.0022318  -0.0007613   0.0013705   0.0135705  -0.0049259  -0.0027693
   26   0.0009346  -0.0042209   0.0024740   0.0005879   0.0019571   0.0000285
   27  -0.0010371   0.0009209   0.0013594  -0.0018920   0.0010296   0.0213021
   28   0.0020908   0.0000942   0.0003442   0.0040832   0.0006126   0.0003689
   29  -0.0000182   0.0016839   0.0007309  -0.0009335  -0.0029232  -0.0021674
   30   0.0001438  -0.0004088   0.0015886   0.0007911  -0.0064540  -0.0019532
           25          26          27          28          29          30
    1   0.0025802  -0.0038376  -0.0021640   0.0010274  -0.0027638  -0.0004313
    2  -0.0007218  -0.0028382  -0.0052599  -0.0014676  -0.0013141   0.0002031
    3  -0.0007351   0.0010707  -0.0017627   0.0008989  -0.0006152  -0.0002111
    4  -0.0268646   0.0099878  -0.0004948  -0.0265328   0.0074277  -0.0026063
    5  -0.0173475   0.0067730  -0.0067583  -0.0099403   0.0047206   0.0011956
    6   0.0205116  -0.0076720   0.0027278  -0.0317272   0.0095092   0.0037701
    7  -0.0035198   0.0005879  -0.0025782  -0.0029646   0.0007573  -0.0012436
    8  -0.0018296   0.0014022  -0.0011033  -0.0020849   0.0008222  -0.0001823
    9  -0.0004109   0.0001353   0.0006040   0.0011807  -0.0002324  -0.0003038
   10  -0.0084044  -0.0137327  -0.0028407  -0.0029816  -0.0059086   0.0001513
   11   0.0014892  -0.0084922   0.0025732   0.0007526  -0.0016843   0.0063711
   12   0.0004653   0.0133094  -0.0069964   0.0014272  -0.0269505  -0.0015518
   13  -0.0792519  -0.0739560   0.0892978  -0.0490422  -0.0231600  -0.0844554
   14  -0.0629728  -0.0998990   0.0910397  -0.0207579  -0.0430192  -0.0586980
   15   0.0804299   0.0989640  -0.1447715  -0.0747794  -0.0579635  -0.2797726
   16  -0.0030202   0.0012124   0.0020782   0.0002102  -0.0001613   0.0018180
   17   0.0071945  -0.0088039   0.0041382   0.0096900  -0.0055586   0.0014165
   18   0.0010459  -0.0012932  -0.0049648  -0.0030843   0.0006953  -0.0010172
   19   0.0022318   0.0009346  -0.0010371   0.0020908  -0.0000182   0.0001438
   20  -0.0007613  -0.0042209   0.0009209   0.0000942   0.0016839  -0.0004088
   21   0.0013705   0.0024740   0.0013594   0.0003442   0.0007309   0.0015886
   22   0.0135705   0.0005879  -0.0018920   0.0040832  -0.0009335   0.0007911
   23  -0.0049259   0.0019571   0.0010296   0.0006126  -0.0029232  -0.0064540
   24  -0.0027693   0.0000285   0.0213021   0.0003689  -0.0021674  -0.0019532
   25   0.0932096   0.0744842  -0.0927071   0.0094687   0.0053909  -0.0072009
   26   0.0744842   0.1077535  -0.1006379   0.0037316   0.0063685  -0.0063788
   27  -0.0927071  -0.1006379   0.1445476   0.0123378   0.0140578  -0.0120456
   28   0.0094687   0.0037316   0.0123378   0.0646409   0.0193697   0.0930333
   29   0.0053909   0.0063685   0.0140578   0.0193697   0.0409043   0.0629358
   30  -0.0072009  -0.0063788  -0.0120456   0.0930333   0.0629358   0.2914966
 Gradient time:  CPU 1727.56 s  wall 524.03 s
 **********************************************************************
 **                                                                  **
 **                       VIBRATIONAL ANALYSIS                       **
 **                       --------------------                       **
 **                                                                  **
 **        VIBRATIONAL FREQUENCIES (CM**-1) AND NORMAL MODES         **
 **     FORCE CONSTANTS (mDYN/ANGSTROM) AND REDUCED MASSES (AMU)     **
 **                  INFRARED INTENSITIES (KM/MOL)                   **
 **                                                                  **
 **********************************************************************
 

 Mode:                 1                      2                      3
 Frequency:        95.01                 190.75                 532.48
 Force Cnst:      0.0117                 0.1050                 1.4911
 Red. Mass:       2.1959                 4.8981                 8.9259
 IR Active:          YES                    YES                    YES
 IR Intens:       77.379                179.222                 27.060
 Raman Active:       YES                    YES                    YES
               X      Y      Z        X      Y      Z        X      Y      Z
 O         -0.009  0.010 -0.127    0.009 -0.024  0.293    0.089 -0.281 -0.016
 O         -0.015 -0.014  0.166   -0.005 -0.022  0.247   -0.090 -0.280 -0.029
 O         -0.005  0.002 -0.019    0.007  0.018 -0.276    0.003  0.494  0.039
 C          0.016 -0.041  0.138   -0.035  0.023 -0.170    0.153  0.132  0.013
 C          0.013  0.040 -0.155    0.024  0.011 -0.121   -0.156  0.133  0.004
 C         -0.004  0.003  0.001    0.003 -0.007  0.040    0.001 -0.253 -0.004
 H         -0.171  0.072  0.394    0.234  0.007 -0.406    0.287  0.231 -0.013
 H          0.249 -0.259  0.248   -0.407  0.094 -0.299    0.149  0.239 -0.001
 H         -0.228 -0.104 -0.451   -0.199  0.035 -0.267   -0.270  0.218 -0.022
 H          0.296  0.273 -0.315    0.290  0.007 -0.217   -0.178  0.255 -0.012
 TransDip  -0.030 -0.195 -0.202    0.410 -0.113  0.057   -0.022 -0.165 -0.011

 Mode:                 4                      5                      6
 Frequency:       723.09                 731.86                 737.10
 Force Cnst:      1.0424                 3.4363                 2.0666
 Red. Mass:       3.3839                10.8889                 6.4559
 IR Active:          YES                    YES                    YES
 IR Intens:     2871.931                 16.625                684.723
 Raman Active:       YES                    YES                    YES
               X      Y      Z        X      Y      Z        X      Y      Z
 O          0.077  0.052 -0.031   -0.104 -0.254 -0.043   -0.166 -0.077 -0.133
 O         -0.098  0.070 -0.032   -0.084  0.244  0.034    0.152 -0.074 -0.127
 O          0.022  0.045 -0.096    0.492 -0.008  0.021    0.007 -0.058 -0.147
 C          0.111 -0.106 -0.087   -0.354 -0.059  0.014   -0.154  0.163  0.055
 C         -0.121 -0.083 -0.079   -0.330  0.078 -0.001    0.165  0.149  0.054
 C          0.001  0.016  0.327    0.356  0.002 -0.025   -0.012 -0.095  0.465
 H         -0.001  0.147  0.254   -0.167  0.087 -0.006   -0.104 -0.026 -0.175
 H          0.344 -0.476  0.037   -0.323  0.033  0.020   -0.164  0.428  0.013
 H          0.022  0.164  0.267   -0.193 -0.100 -0.040    0.140 -0.080 -0.179
 H         -0.272 -0.435  0.058   -0.224  0.029 -0.025    0.250  0.417 -0.034
 TransDip  -0.871  1.411  0.442    0.070 -0.107 -0.027   -0.629 -0.536  0.142

 Mode:                 7                      8                      9
 Frequency:       868.07                 927.09                 999.25
 Force Cnst:      0.6834                 4.5584                 1.4812
 Red. Mass:       1.5392                 9.0016                 2.5177
 IR Active:          YES                    YES                    YES
 IR Intens:     3234.776                 62.855               1564.328
 Raman Active:       YES                    YES                    YES
               X      Y      Z        X      Y      Z        X      Y      Z
 O         -0.071 -0.042  0.024   -0.086 -0.416 -0.025   -0.061  0.094  0.014
 O          0.067 -0.030  0.035   -0.103  0.426  0.028   -0.058 -0.091 -0.014
 O         -0.003 -0.019  0.009   -0.159  0.004 -0.001    0.053 -0.000  0.002
 C         -0.046  0.066 -0.049    0.244 -0.168 -0.027    0.046 -0.208 -0.049
 C          0.055  0.094 -0.064    0.240  0.155  0.047    0.047  0.213  0.050
 C         -0.003 -0.036 -0.051   -0.106 -0.005 -0.013    0.043 -0.009 -0.001
 H         -0.183  0.361  0.333    0.366 -0.220 -0.157   -0.214 -0.550 -0.136
 H          0.094 -0.403  0.075    0.131 -0.052 -0.081   -0.086 -0.292 -0.090
 H          0.225  0.409  0.339    0.301  0.099  0.059   -0.151  0.435  0.115
 H         -0.099 -0.388  0.113    0.216  0.177  0.052   -0.111  0.403  0.069
 TransDip  -0.108  1.800  0.255    0.077  0.237  0.050    0.238  1.202  0.322

 Mode:                10                     11                     12
 Frequency:      1064.71                1121.31                1158.36
 Force Cnst:      4.1705                 7.4152                 1.2864
 Red. Mass:       6.2442                10.0096                 1.6272
 IR Active:          YES                    YES                    YES
 IR Intens:       66.803                753.915               1268.871
 Raman Active:       YES                    YES                    YES
               X      Y      Z        X      Y      Z        X      Y      Z
 O         -0.287 -0.040  0.021    0.379 -0.080 -0.012    0.019  0.013 -0.049
 O          0.269 -0.040  0.012    0.407  0.098  0.019    0.025 -0.003  0.031
 O          0.003 -0.089 -0.003   -0.217  0.001 -0.010   -0.014 -0.001 -0.003
 C          0.338  0.004 -0.024   -0.276 -0.224 -0.082    0.006 -0.034  0.165
 C         -0.323  0.000  0.004   -0.310  0.232  0.069   -0.016  0.025 -0.143
 C          0.003  0.175 -0.003   -0.147 -0.029  0.017   -0.005 -0.001  0.010
 H          0.425  0.106 -0.006   -0.255 -0.151 -0.016    0.403 -0.173 -0.280
 H          0.254  0.177 -0.071    0.094 -0.254  0.026   -0.544  0.146 -0.040
 H         -0.450  0.082 -0.043   -0.090 -0.024  0.033    0.245  0.220  0.211
 H         -0.196  0.188 -0.082   -0.053  0.375 -0.033   -0.381 -0.236  0.049
 TransDip  -0.047 -0.247 -0.074   -0.836  0.266  0.065    1.012  0.483  0.210

 Mode:                13                     14                     15
 Frequency:      1201.63                1230.46                1271.68
 Force Cnst:      2.9547                 1.0301                 1.0269
 Red. Mass:       3.4731                 1.1547                 1.0778
 IR Active:          YES                    YES                    YES
 IR Intens:      700.885               4732.447               1774.173
 Raman Active:       YES                    YES                    YES
               X      Y      Z        X      Y      Z        X      Y      Z
 O          0.067 -0.129  0.000   -0.024  0.015  0.031    0.012 -0.024  0.022
 O         -0.060 -0.136  0.005    0.001  0.003  0.042    0.007  0.010 -0.018
 O         -0.005 -0.028 -0.002    0.008  0.002  0.000   -0.001 -0.001 -0.000
 C         -0.116 -0.063 -0.023    0.009  0.008 -0.029   -0.006  0.011  0.039
 C          0.103 -0.011 -0.030   -0.018  0.020 -0.068   -0.003 -0.003 -0.046
 C         -0.002  0.366  0.027   -0.000 -0.045 -0.006   -0.003  0.015  0.002
 H          0.245  0.322  0.038   -0.230 -0.233 -0.061   -0.344 -0.399 -0.066
 H          0.386  0.299  0.090    0.440  0.274  0.060    0.301  0.428  0.070
 H         -0.030  0.234  0.046    0.544 -0.340  0.034   -0.296  0.358  0.022
 H         -0.460  0.321  0.087   -0.403  0.167  0.030    0.206 -0.418 -0.022
 TransDip  -0.700 -0.450 -0.165   -1.968 -0.926 -0.351   -0.389 -1.264 -0.267

 Mode:                16                     17                     18
 Frequency:      1387.85                1433.18                1468.17
 Force Cnst:      1.5481                 1.8273                 1.4603
 Red. Mass:       1.3642                 1.5099                 1.1498
 IR Active:          YES                    YES                    YES
 IR Intens:     2633.071                277.298               5009.363
 Raman Active:       YES                    YES                    YES
               X      Y      Z        X      Y      Z        X      Y      Z
 O         -0.027  0.044  0.002   -0.025  0.056  0.006    0.009 -0.001 -0.002
 O         -0.023 -0.032 -0.014    0.023  0.053  0.006   -0.000 -0.009  0.000
 O          0.013  0.001  0.003    0.001  0.012  0.001   -0.011 -0.001 -0.002
 C         -0.042 -0.103  0.007   -0.039 -0.097 -0.012    0.049 -0.065 -0.025
 C         -0.028  0.111  0.022    0.036 -0.085 -0.022    0.021  0.066  0.012
 C         -0.008 -0.012 -0.009   -0.000 -0.124 -0.010    0.012  0.010  0.007
 H          0.514  0.250 -0.114    0.166  0.392  0.257   -0.270  0.187  0.462
 H          0.342  0.201  0.084    0.116  0.515 -0.074   -0.360  0.386 -0.213
 H          0.224 -0.207 -0.057   -0.154  0.416  0.236   -0.072 -0.245 -0.322
 H          0.440 -0.417 -0.014   -0.072  0.400 -0.090   -0.224 -0.301  0.183
 TransDip  -1.463 -0.732 -0.158   -0.017 -0.532  0.033    1.329 -1.828 -0.177

 Mode:                19                     20                     21
 Frequency:      1499.34                1828.69                2790.43
 Force Cnst:      1.5384                24.6700                 4.9567
 Red. Mass:       1.1615                12.5209                 1.0804
 IR Active:          YES                    YES                    YES
 IR Intens:     1505.172               1514.606              20559.761
 Raman Active:       YES                    YES                    YES
               X      Y      Z        X      Y      Z        X      Y      Z
 O          0.017 -0.022 -0.003   -0.042  0.008  0.001    0.001  0.002  0.000
 O         -0.026 -0.032 -0.005   -0.040 -0.006 -0.005   -0.001  0.001 -0.000
 O          0.003 -0.005 -0.001   -0.497  0.002 -0.011   -0.000  0.000 -0.000
 C          0.040 -0.010 -0.001   -0.045  0.007 -0.000    0.030 -0.020 -0.071
 C         -0.067 -0.007 -0.014   -0.044 -0.006 -0.003   -0.009 -0.009  0.007
 C         -0.003  0.063  0.006    0.837 -0.007  0.024   -0.001 -0.002  0.001
 H         -0.247 -0.006  0.233    0.027  0.020 -0.079   -0.063  0.062 -0.076
 H         -0.273  0.174 -0.146    0.121 -0.013  0.055   -0.292  0.141  0.919
 H          0.457  0.037  0.410    0.053  0.000  0.076    0.091  0.101 -0.102
 H          0.518  0.178 -0.259    0.077 -0.010 -0.064    0.013  0.014  0.014
 TransDip   0.391  1.129  0.342    1.231 -0.155 -0.117    0.216 -4.491 -0.937

 Mode:                22                     23                     24
 Frequency:      2934.50                3139.54                3150.02
 Force Cnst:      5.4499                 6.3468                 6.3881
 Red. Mass:       1.0742                 1.0929                 1.0927
 IR Active:          YES                    YES                    YES
 IR Intens:    19694.866                233.558                 61.232
 Raman Active:       YES                    YES                    YES
               X      Y      Z        X      Y      Z        X      Y      Z
 O         -0.000 -0.001 -0.000    0.000 -0.000 -0.000   -0.001 -0.000  0.000
 O          0.001 -0.001  0.000   -0.001  0.000  0.001   -0.000 -0.000  0.000
 O         -0.000 -0.000  0.000   -0.000 -0.000 -0.000   -0.001  0.000 -0.000
 C          0.004 -0.001 -0.012    0.020 -0.022  0.028   -0.036  0.044 -0.053
 C          0.045  0.047 -0.041   -0.017 -0.010 -0.075   -0.010 -0.008 -0.040
 C         -0.001  0.000 -0.001    0.000  0.001  0.000    0.002 -0.000 -0.000
 H         -0.001  0.002 -0.003   -0.241  0.269 -0.300    0.446 -0.507  0.555
 H         -0.045  0.049  0.161    0.012 -0.006 -0.031   -0.025  0.021  0.078
 H         -0.477 -0.536  0.646   -0.072 -0.085  0.090   -0.029 -0.034  0.035
 H         -0.058 -0.032 -0.164    0.278  0.186  0.799    0.151  0.105  0.429
 TransDip   0.414  4.318  1.178   -0.000  0.475  0.118    0.065  0.194 -0.145

 STANDARD THERMODYNAMIC QUANTITIES AT   298.15 K  AND     1.00 ATM

   This Molecule has  0 Imaginary Frequencies
   Zero point vibrational energy:       46.439 kcal/mol

   Atom    1 Element O  Has Mass   15.99491
   Atom    2 Element O  Has Mass   15.99491
   Atom    3 Element O  Has Mass   15.99491
   Atom    4 Element C  Has Mass   12.00000
   Atom    5 Element C  Has Mass   12.00000
   Atom    6 Element C  Has Mass   12.00000
   Atom    7 Element H  Has Mass    1.00783
   Atom    8 Element H  Has Mass    1.00783
   Atom    9 Element H  Has Mass    1.00783
   Atom   10 Element H  Has Mass    1.00783
   Molecular Mass:    88.016050 amu
   Principal axes and moments of inertia in amu*Bohr^2:
                             1           2           3
    Eigenvalues --      220.84939   468.23157   663.59436
          X               0.99990    -0.00312    -0.01381
          Y               0.00129     0.99147    -0.13030
          Z               0.01410     0.13027     0.99138
   Rotational Symmetry Number is   1
   The Molecule is an Asymmetric Top
   Translational Enthalpy:        0.889 kcal/mol
   Rotational Enthalpy:           0.889 kcal/mol
   Vibrational Enthalpy:         47.764 kcal/mol
   gas constant (RT):             0.592 kcal/mol
   Translational Entropy:        39.337  cal/mol.K
   Rotational Entropy:           25.731  cal/mol.K
   Vibrational Entropy:           7.899  cal/mol.K

   Total Enthalpy:               50.134 kcal/mol
   Total Entropy:                72.967  cal/mol.K
Archival summary:
1\1\nid01908\FREQ\ProcedureUnspecified\BasisUnspecified\334(1-,2)\sblau\MonOct2916:50:082018MonOct2916:50:082018\0\\#,FREQ,ProcedureUnspecified,BasisUnspecified,\\-1,2\O\C,1,1.33576\O,2,1.20042,1,124.008\O,2,1.33339,1,111.665,3,178.431,0\C,4,1.43779,2,109.756,1,7.14729,0\H,5,1.08821,4,108.603,2,-134.876,0\H,5,1.11022,4,107.7,2,104.39,0\C,1,1.43796,2,110.052,3,-176.361,0\H,8,1.08899,1,108.377,2,112.397,0\H,8,1.09896,1,107.867,2,-127.288,0\\\@

 Total job time:  564.96s(wall), 2790.88s(cpu) 
 Mon Oct 29 16:50:08 2018

        *************************************************************
        *                                                           *
        *  Thank you very much for using Q-Chem.  Have a nice day.  *
        *                                                           *
        *************************************************************


0 sent ACK to 0 
now end server 0 ... 
cleanup process ... done
