 vasp.5.3.5 31Mar14 (build Oct 24 2014 12:38:34) complex                        
  
 executed on             LinuxIFC date 2016.10.20  19:12:51
 running on    8 total cores
 distrk:  each k-point on    8 cores,    1 groups
 distr:  one band on NCORES_PER_BAND=   1 cores,    8 groups


--------------------------------------------------------------------------------------------------------


 INCAR:
 POTCAR:    PAW_PBE Ba_sv 06Sep2000               
 POTCAR:    PAW_PBE Ti_pv 07Sep2000               
 POTCAR:    PAW_PBE O 08Apr2002                   

 ----------------------------------------------------------------------------- 
|                                                                             |
|           W    W    AA    RRRRR   N    N  II  N    N   GGGG   !!!           |
|           W    W   A  A   R    R  NN   N  II  NN   N  G    G  !!!           |
|           W    W  A    A  R    R  N N  N  II  N N  N  G       !!!           |
|           W WW W  AAAAAA  RRRRR   N  N N  II  N  N N  G  GGG   !            |
|           WW  WW  A    A  R   R   N   NN  II  N   NN  G    G                |
|           W    W  A    A  R    R  N    N  II  N    N   GGGG   !!!           |
|                                                                             |
|      For optimal performance we recommend to set                            |
|        NCORE= 4 - approx SQRT( number of cores)                             |
|      NCORE specifies how many cores store one orbital (NPAR=cpu/NCORE).     |
|      This setting can  greatly improve the performance of VASP for DFT.     |
|      The default, NPAR=number of cores might be grossly inefficient         |
|      on modern multi-core architectures or massively parallel machines.     |
|      Do your own testing !!!!                                               |
|      Unfortunately you need to use the default for GW and RPA calculations. |
|      (for HF NCORE is supported but not extensively tested yet)             |
|                                                                             |
 ----------------------------------------------------------------------------- 

 POTCAR:    PAW_PBE Ba_sv 06Sep2000               
   VRHFIN =Ba: 5s5p6s                                                           
   LEXCH  = PE                                                                  
   EATOM  =   700.8560 eV,   51.5115 Ry                                         
                                                                                
   TITEL  = PAW_PBE Ba_sv 06Sep2000                                             
   LULTRA =        F    use ultrasoft PP ?                                      
   IUNSCR =        1    unscreen: 0-lin 1-nonlin 2-no                           
   RPACOR =    2.400    partial core radius                                     
   POMASS =  137.327; ZVAL   =   10.000    mass and valenz                      
   RCORE  =    2.800    outmost cutoff radius                                   
   RWIGS  =    3.740; RWIGS  =    1.979    wigner-seitz radius (au A)           
   ENMAX  =  187.181; ENMIN  =  140.386 eV                                      
   RCLOC  =    2.516    cutoff for local pot                                    
   LCOR   =        T    correct aug charges                                     
   LPAW   =        T    paw PP                                                  
   EAUG   =  351.165                                                            
   DEXC   =    0.000                                                            
   RMAX   =    2.865    core radius for proj-oper                               
   RAUG   =    1.300    factor for augmentation sphere                          
   RDEP   =    2.976    radius for radial grids                                 
   RDEPT  =    2.289    core radius for aug-charge                              
                                                                                
   Atomic configuration                                                         
   13 entries                                                                   
     n  l   j            E        occ.                                          
     1  0  0.50    -37249.5946   2.0000                                         
     2  0  0.50     -5887.1925   2.0000                                         
     2  1  1.50     -5278.3977   6.0000                                         
     3  0  0.50     -1242.7293   2.0000                                         
     3  1  1.50     -1047.6609   6.0000                                         
     3  2  2.50      -764.6158  10.0000                                         
     4  0  0.50      -243.8228   2.0000                                         
     4  1  1.50      -180.9218   6.0000                                         
     4  2  2.50       -89.6477  10.0000                                         
     5  0  0.50       -33.6549   2.0000                                         
     6  0  0.50        -3.2247   1.9900                                         
     5  1  1.50       -18.7193   6.0000                                         
     5  2  2.50        -2.0115   0.0100                                         
   Description                                                                  
     l       E           TYP  RCUT    TYP  RCUT                                 
     0    -33.6549039     23  2.800                                             
     0     -3.2246942     23  2.800                                             
     1    -18.7193050     23  2.700                                             
     1     27.2116520     23  2.700                                             
     2     -2.0115002     23  2.700                                             
     2      0.3057420     23  2.700                                             
  local pseudopotential read in
  partial core-charges read in
  partial kinetic energy density read in
  atomic valenz-charges read in
  non local Contribution for L=           0  read in
    real space projection operators read in
  non local Contribution for L=           0  read in
    real space projection operators read in
  non local Contribution for L=           1  read in
    real space projection operators read in
  non local Contribution for L=           1  read in
    real space projection operators read in
  non local Contribution for L=           2  read in
    real space projection operators read in
  non local Contribution for L=           2  read in
    real space projection operators read in
    PAW grid and wavefunctions read in
 
   number of l-projection  operators is LMAX  =           6
   number of lm-projection operators is LMMAX =          18
 
 POTCAR:    PAW_PBE Ti_pv 07Sep2000               
   VRHFIN =Ti: d3 s1                                                            
   LEXCH  = PE                                                                  
   EATOM  =  1042.5995 eV,   76.6289 Ry                                         
                                                                                
   TITEL  = PAW_PBE Ti_pv 07Sep2000                                             
   LULTRA =        F    use ultrasoft PP ?                                      
   IUNSCR =        1    unscreen: 0-lin 1-nonlin 2-no                           
   RPACOR =    2.200    partial core radius                                     
   POMASS =   47.880; ZVAL   =   10.000    mass and valenz                      
   RCORE  =    2.500    outmost cutoff radius                                   
   RWIGS  =    2.500; RWIGS  =    1.323    wigner-seitz radius (au A)           
   ENMAX  =  222.335; ENMIN  =  166.751 eV                                      
   RCLOC  =    1.701    cutoff for local pot                                    
   LCOR   =        T    correct aug charges                                     
   LPAW   =        T    paw PP                                                  
   EAUG   =  482.848                                                            
   DEXC   =    0.000                                                            
   RMAX   =    2.564    core radius for proj-oper                               
   RAUG   =    1.300    factor for augmentation sphere                          
   RDEP   =    2.538    radius for radial grids                                 
   RDEPT  =    1.952    core radius for aug-charge                              
                                                                                
   Atomic configuration                                                         
    8 entries                                                                   
     n  l   j            E        occ.                                          
     1  0  0.50     -4865.3608   2.0000                                         
     2  0  0.50      -533.1368   2.0000                                         
     2  1  1.50      -440.5031   6.0000                                         
     3  0  0.50       -59.3186   2.0000                                         
     3  1  1.50       -35.7012   6.0000                                         
     3  2  2.50        -1.9157   3.0000                                         
     4  0  0.50        -3.7291   1.0000                                         
     4  3  2.50        -1.3606   0.0000                                         
   Description                                                                  
     l       E           TYP  RCUT    TYP  RCUT                                 
     1    -35.7012140     23  2.300                                             
     1     -1.3605826     23  2.300                                             
     2     -1.9156996     23  2.500                                             
     2     -0.4063033     23  2.500                                             
     0     -3.7290856     23  2.500                                             
     0     20.4087390     23  2.500                                             
  local pseudopotential read in
  partial core-charges read in
  partial kinetic energy density read in
  atomic valenz-charges read in
  non local Contribution for L=           1  read in
    real space projection operators read in
  non local Contribution for L=           1  read in
    real space projection operators read in
  non local Contribution for L=           2  read in
    real space projection operators read in
  non local Contribution for L=           2  read in
    real space projection operators read in
  non local Contribution for L=           0  read in
    real space projection operators read in
  non local Contribution for L=           0  read in
    real space projection operators read in
    PAW grid and wavefunctions read in
 
   number of l-projection  operators is LMAX  =           6
   number of lm-projection operators is LMMAX =          18
 
 POTCAR:    PAW_PBE O 08Apr2002                   
   VRHFIN =O: s2p4                                                              
   LEXCH  = PE                                                                  
   EATOM  =   432.3788 eV,   31.7789 Ry                                         
                                                                                
   TITEL  = PAW_PBE O 08Apr2002                                                 
   LULTRA =        F    use ultrasoft PP ?                                      
   IUNSCR =        1    unscreen: 0-lin 1-nonlin 2-no                           
   RPACOR =    1.200    partial core radius                                     
   POMASS =   16.000; ZVAL   =    6.000    mass and valenz                      
   RCORE  =    1.520    outmost cutoff radius                                   
   RWIGS  =    1.550; RWIGS  =    0.820    wigner-seitz radius (au A)           
   ENMAX  =  400.000; ENMIN  =  300.000 eV                                      
   ICORE  =        2    local potential                                         
   LCOR   =        T    correct aug charges                                     
   LPAW   =        T    paw PP                                                  
   EAUG   =  605.392                                                            
   DEXC   =    0.000                                                            
   RMAX   =    1.553    core radius for proj-oper                               
   RAUG   =    1.300    factor for augmentation sphere                          
   RDEP   =    1.550    radius for radial grids                                 
   RDEPT  =    1.329    core radius for aug-charge                              
                                                                                
   Atomic configuration                                                         
    4 entries                                                                   
     n  l   j            E        occ.                                          
     1  0  0.50      -514.6923   2.0000                                         
     2  0  0.50       -23.9615   2.0000                                         
     2  1  0.50        -9.0305   4.0000                                         
     3  2  1.50        -9.5241   0.0000                                         
   Description                                                                  
     l       E           TYP  RCUT    TYP  RCUT                                 
     0    -23.9615318     23  1.200                                             
     0     -9.5240782     23  1.200                                             
     1     -9.0304911     23  1.520                                             
     1      8.1634956     23  1.520                                             
     2     -9.5240782      7  1.500                                             
  local pseudopotential read in
  partial core-charges read in
  partial kinetic energy density read in
  kinetic energy density of atom read in
  atomic valenz-charges read in
  non local Contribution for L=           0  read in
    real space projection operators read in
  non local Contribution for L=           0  read in
    real space projection operators read in
  non local Contribution for L=           1  read in
    real space projection operators read in
  non local Contribution for L=           1  read in
    real space projection operators read in
    PAW grid and wavefunctions read in
 
   number of l-projection  operators is LMAX  =           4
   number of lm-projection operators is LMMAX =           8
 

 ----------------------------------------------------------------------------- 
|                                                                             |
|  ADVICE TO THIS USER RUNNING 'VASP/VAMP'   (HEAR YOUR MASTER'S VOICE ...):  |
|                                                                             |
|      You have a (more or less) 'small supercell' and for smaller cells      |
|      it is recommended  to use the reciprocal-space projection scheme!      |
|      The real space optimization is not  efficient for small cells and it   |
|      is also less accurate ...                                              |
|      Therefore set LREAL=.FALSE. in the  INCAR file                         |
|                                                                             |
 ----------------------------------------------------------------------------- 

 Optimization of the real space projectors (new method)

 maximal supplied QI-value         = 13.42
 optimisation between [QCUT,QGAM] = [ 11.67, 23.35] = [ 38.16,152.62] Ry 
 Optimized for a Real-space Cutoff    1.68 Angstroem

   l    n(q)    QCUT    max X(q) W(low)/X(q) W(high)/X(q)  e(spline) 
   0     12    11.673    13.244    0.27E-04    0.53E-05    0.55E-07
   0     12    11.673    14.240    0.39E-04    0.74E-05    0.11E-06
   1     11    11.673     4.828    0.65E-05    0.14E-04    0.51E-07
   1     11    11.673     3.934    0.16E-04    0.58E-04    0.38E-06
   2     11    11.673    87.714    0.23E-03    0.16E-03    0.84E-06
   2     11    11.673    59.874    0.22E-03    0.15E-03    0.81E-06
 Optimization of the real space projectors (new method)

 maximal supplied QI-value         = 15.12
 optimisation between [QCUT,QGAM] = [ 11.64, 23.28] = [ 37.95,151.78] Ry 
 Optimized for a Real-space Cutoff    1.49 Angstroem

   l    n(q)    QCUT    max X(q) W(low)/X(q) W(high)/X(q)  e(spline) 
   1     10    11.641     4.216    0.17E-04    0.40E-04    0.50E-07
   1     10    11.641     5.422    0.66E-04    0.10E-03    0.13E-06
   2      9    11.641    72.084    0.68E-04    0.13E-03    0.50E-06
   2      9    11.641    65.965    0.66E-04    0.13E-03    0.50E-06
   0     10    11.641    41.531    0.10E-03    0.87E-04    0.31E-06
   0     10    11.641    16.290    0.75E-04    0.66E-04    0.24E-06
 Optimization of the real space projectors (new method)

 maximal supplied QI-value         = 24.76
 optimisation between [QCUT,QGAM] = [ 11.64, 23.27] = [ 37.91,151.63] Ry 
 Optimized for a Real-space Cutoff    1.14 Angstroem

   l    n(q)    QCUT    max X(q) W(low)/X(q) W(high)/X(q)  e(spline) 
   0      8    11.635    20.381    0.10E-03    0.33E-03    0.24E-06
   0      8    11.635    15.268    0.11E-03    0.35E-03    0.26E-06
   1      7    11.635     5.964    0.24E-03    0.31E-03    0.30E-06
   1      7    11.635     5.382    0.22E-03    0.25E-03    0.26E-06
  PAW_PBE Ba_sv 06Sep2000               :
 energy of atom  1       EATOM= -700.8560
 kinetic energy error for atom=    0.0005 (will be added to EATOM!!)
  PAW_PBE Ti_pv 07Sep2000               :
 energy of atom  2       EATOM=-1042.5995
 kinetic energy error for atom=    0.0019 (will be added to EATOM!!)
  PAW_PBE O 08Apr2002                   :
 energy of atom  3       EATOM= -432.3788
 kinetic energy error for atom=    0.0208 (will be added to EATOM!!)
 
 
 POSCAR: Ba1 Ti1 O3                              
  positions in direct lattice
  No initial velocities read in
 exchange correlation table for  LEXCH =        8
   RHO(1)=    0.500       N(1)  =     2000
   RHO(2)=  100.500       N(2)  =     4000
 


--------------------------------------------------------------------------------------------------------


 ion  position               nearest neighbor table
   1  0.000  0.000  0.020-   3 2.82   4 2.82   3 2.82   4 2.82   5 2.84   5 2.84   5 2.84   5 2.84
                             3 2.99   4 2.99   4 2.99   3 2.99   2 3.48   2 3.48   2 3.48   2 3.48
   2  0.500  0.500  0.539-   5 1.82   4 2.01   3 2.01   4 2.01   3 2.01   5 2.39   1 3.48   1 3.48
                             1 3.48   1 3.48   1 3.58   1 3.58   1 3.58   1 3.58
   3  0.000  0.500  0.492-   2 2.01   2 2.01   1 2.82   1 2.82   1 2.99   1 2.99
   4  0.500  0.000  0.492-   2 2.01   2 2.01   1 2.82   1 2.82   1 2.99   1 2.99
   5  0.500  0.500  0.971-   2 1.82   2 2.39   1 2.84   1 2.84   1 2.84   1 2.84
 
  LATTYP: Found a simple tetragonal cell.
 ALAT       =     4.0013680000
 C/A-ratio  =     1.0535756771
  
  Lattice vectors:
  
 A1 = (   4.0013680000,   0.0000000000,   0.0000000000)
 A2 = (   0.0000000000,   4.0013680000,   0.0000000000)
 A3 = (   0.0000000000,   0.0000000000,   4.2157440000)


Analysis of symmetry for initial positions (statically):
=====================================================================
 Subroutine PRICEL returns:
 Original cell was already a primitive cell.
 

 Routine SETGRP: Setting up the symmetry group for a 
 simple tetragonal supercell.


 Subroutine GETGRP returns: Found  8 space group operations
 (whereof  8 operations were pure point group operations)
 out of a pool of 16 trial point group operations.


The static configuration has the point symmetry C_4v.


Analysis of symmetry for dynamics (positions and initial velocities):
=====================================================================
 Subroutine PRICEL returns:
 Original cell was already a primitive cell.
 

 Routine SETGRP: Setting up the symmetry group for a 
 simple tetragonal supercell.


 Subroutine GETGRP returns: Found  8 space group operations
 (whereof  8 operations were pure point group operations)
 out of a pool of 16 trial point group operations.


The dynamic configuration has the point symmetry C_4v.


Analysis of magnetic symmetry:
=====================================================================
 Subroutine PRICEL returns:
 Original cell was already a primitive cell.
 

 Subroutine MAGSYM returns: Found  8 space group operations
 (whereof  8 operations were pure point group operations)
 out of a pool of  8 trial space group operations
 (whereof  8 operations were pure point group operations)
 and found also     1 'primitive' translations


The magnetic configuration has the point symmetry C_4v.
 
 
 KPOINTS: Automatic kpoint scheme                 

Automatic generation of k-mesh.
Space group operators:
 irot       det(A)        alpha          n_x          n_y          n_z        tau_x        tau_y        tau_z
    1     1.000000     0.000001     1.000000     0.000000     0.000000     0.000000     0.000000     0.000000
    2     1.000000    90.000000     0.000000     0.000000    -1.000000     0.000000     0.000000     0.000000
    3     1.000000   179.999999     0.000000     0.000000     1.000000     0.000000     0.000000     0.000000
    4     1.000000    90.000000     0.000000     0.000000     1.000000     0.000000     0.000000     0.000000
    5    -1.000000   180.000000     0.000000     1.000000     0.000000     0.000000     0.000000     0.000000
    6    -1.000000   180.000000     0.707107     0.707107     0.000000     0.000000     0.000000     0.000000
    7    -1.000000   180.000000     1.000000     0.000000     0.000000     0.000000     0.000000     0.000000
    8    -1.000000   180.000000     0.707107    -0.707107     0.000000     0.000000     0.000000     0.000000
 
 Subroutine IBZKPT returns following result:
 ===========================================
 
 Found     75 irreducible k-points:
 
 Following reciprocal coordinates:
            Coordinates               Weight
  0.000000  0.000000  0.000000      1.000000
  0.125000  0.000000  0.000000      4.000000
  0.250000  0.000000  0.000000      4.000000
  0.375000  0.000000  0.000000      4.000000
  0.500000  0.000000  0.000000      2.000000
  0.125000  0.125000  0.000000      4.000000
  0.250000  0.125000  0.000000      8.000000
  0.375000  0.125000  0.000000      8.000000
  0.500000  0.125000  0.000000      4.000000
  0.250000  0.250000  0.000000      4.000000
  0.375000  0.250000  0.000000      8.000000
  0.500000  0.250000  0.000000      4.000000
  0.375000  0.375000  0.000000      4.000000
  0.500000  0.375000  0.000000      4.000000
  0.500000  0.500000  0.000000      1.000000
  0.000000  0.000000  0.125000      2.000000
  0.125000  0.000000  0.125000      8.000000
  0.250000  0.000000  0.125000      8.000000
  0.375000  0.000000  0.125000      8.000000
  0.500000  0.000000  0.125000      4.000000
  0.125000  0.125000  0.125000      8.000000
  0.250000  0.125000  0.125000     16.000000
  0.375000  0.125000  0.125000     16.000000
  0.500000  0.125000  0.125000      8.000000
  0.250000  0.250000  0.125000      8.000000
  0.375000  0.250000  0.125000     16.000000
  0.500000  0.250000  0.125000      8.000000
  0.375000  0.375000  0.125000      8.000000
  0.500000  0.375000  0.125000      8.000000
  0.500000  0.500000  0.125000      2.000000
  0.000000  0.000000  0.250000      2.000000
  0.125000  0.000000  0.250000      8.000000
  0.250000  0.000000  0.250000      8.000000
  0.375000  0.000000  0.250000      8.000000
  0.500000  0.000000  0.250000      4.000000
  0.125000  0.125000  0.250000      8.000000
  0.250000  0.125000  0.250000     16.000000
  0.375000  0.125000  0.250000     16.000000
  0.500000  0.125000  0.250000      8.000000
  0.250000  0.250000  0.250000      8.000000
  0.375000  0.250000  0.250000     16.000000
  0.500000  0.250000  0.250000      8.000000
  0.375000  0.375000  0.250000      8.000000
  0.500000  0.375000  0.250000      8.000000
  0.500000  0.500000  0.250000      2.000000
  0.000000  0.000000  0.375000      2.000000
  0.125000  0.000000  0.375000      8.000000
  0.250000  0.000000  0.375000      8.000000
  0.375000  0.000000  0.375000      8.000000
  0.500000  0.000000  0.375000      4.000000
  0.125000  0.125000  0.375000      8.000000
  0.250000  0.125000  0.375000     16.000000
  0.375000  0.125000  0.375000     16.000000
  0.500000  0.125000  0.375000      8.000000
  0.250000  0.250000  0.375000      8.000000
  0.375000  0.250000  0.375000     16.000000
  0.500000  0.250000  0.375000      8.000000
  0.375000  0.375000  0.375000      8.000000
  0.500000  0.375000  0.375000      8.000000
  0.500000  0.500000  0.375000      2.000000
  0.000000  0.000000  0.500000      1.000000
  0.125000  0.000000  0.500000      4.000000
  0.250000  0.000000  0.500000      4.000000
  0.375000  0.000000  0.500000      4.000000
  0.500000  0.000000  0.500000      2.000000
  0.125000  0.125000  0.500000      4.000000
  0.250000  0.125000  0.500000      8.000000
  0.375000  0.125000  0.500000      8.000000
  0.500000  0.125000  0.500000      4.000000
  0.250000  0.250000  0.500000      4.000000
  0.375000  0.250000  0.500000      8.000000
  0.500000  0.250000  0.500000      4.000000
  0.375000  0.375000  0.500000      4.000000
  0.500000  0.375000  0.500000      4.000000
  0.500000  0.500000  0.500000      1.000000
 
 Following cartesian coordinates:
            Coordinates               Weight
  0.000000  0.000000  0.000000      1.000000
  0.031239  0.000000  0.000000      4.000000
  0.062479  0.000000  0.000000      4.000000
  0.093718  0.000000  0.000000      4.000000
  0.124957  0.000000  0.000000      2.000000
  0.031239  0.031239  0.000000      4.000000
  0.062479  0.031239  0.000000      8.000000
  0.093718  0.031239  0.000000      8.000000
  0.124957  0.031239  0.000000      4.000000
  0.062479  0.062479  0.000000      4.000000
  0.093718  0.062479  0.000000      8.000000
  0.124957  0.062479  0.000000      4.000000
  0.093718  0.093718  0.000000      4.000000
  0.124957  0.093718  0.000000      4.000000
  0.124957  0.124957  0.000000      1.000000
  0.000000  0.000000  0.029651      2.000000
  0.031239  0.000000  0.029651      8.000000
  0.062479  0.000000  0.029651      8.000000
  0.093718  0.000000  0.029651      8.000000
  0.124957  0.000000  0.029651      4.000000
  0.031239  0.031239  0.029651      8.000000
  0.062479  0.031239  0.029651     16.000000
  0.093718  0.031239  0.029651     16.000000
  0.124957  0.031239  0.029651      8.000000
  0.062479  0.062479  0.029651      8.000000
  0.093718  0.062479  0.029651     16.000000
  0.124957  0.062479  0.029651      8.000000
  0.093718  0.093718  0.029651      8.000000
  0.124957  0.093718  0.029651      8.000000
  0.124957  0.124957  0.029651      2.000000
  0.000000  0.000000  0.059302      2.000000
  0.031239  0.000000  0.059302      8.000000
  0.062479  0.000000  0.059302      8.000000
  0.093718  0.000000  0.059302      8.000000
  0.124957  0.000000  0.059302      4.000000
  0.031239  0.031239  0.059302      8.000000
  0.062479  0.031239  0.059302     16.000000
  0.093718  0.031239  0.059302     16.000000
  0.124957  0.031239  0.059302      8.000000
  0.062479  0.062479  0.059302      8.000000
  0.093718  0.062479  0.059302     16.000000
  0.124957  0.062479  0.059302      8.000000
  0.093718  0.093718  0.059302      8.000000
  0.124957  0.093718  0.059302      8.000000
  0.124957  0.124957  0.059302      2.000000
  0.000000  0.000000  0.088952      2.000000
  0.031239  0.000000  0.088952      8.000000
  0.062479  0.000000  0.088952      8.000000
  0.093718  0.000000  0.088952      8.000000
  0.124957  0.000000  0.088952      4.000000
  0.031239  0.031239  0.088952      8.000000
  0.062479  0.031239  0.088952     16.000000
  0.093718  0.031239  0.088952     16.000000
  0.124957  0.031239  0.088952      8.000000
  0.062479  0.062479  0.088952      8.000000
  0.093718  0.062479  0.088952     16.000000
  0.124957  0.062479  0.088952      8.000000
  0.093718  0.093718  0.088952      8.000000
  0.124957  0.093718  0.088952      8.000000
  0.124957  0.124957  0.088952      2.000000
  0.000000  0.000000  0.118603      1.000000
  0.031239  0.000000  0.118603      4.000000
  0.062479  0.000000  0.118603      4.000000
  0.093718  0.000000  0.118603      4.000000
  0.124957  0.000000  0.118603      2.000000
  0.031239  0.031239  0.118603      4.000000
  0.062479  0.031239  0.118603      8.000000
  0.093718  0.031239  0.118603      8.000000
  0.124957  0.031239  0.118603      4.000000
  0.062479  0.062479  0.118603      4.000000
  0.093718  0.062479  0.118603      8.000000
  0.124957  0.062479  0.118603      4.000000
  0.093718  0.093718  0.118603      4.000000
  0.124957  0.093718  0.118603      4.000000
  0.124957  0.124957  0.118603      1.000000
 
 TETIRR: Found    768 inequivalent tetrahedra from     3072
 
 Subroutine IBZKPT_HF returns following result:
 ==============================================
 
 Found    512 k-points in 1st BZ
 the following    512 k-points will be used (e.g. in the exchange kernel)
 Following reciprocal coordinates:   # in IRBZ
  0.000000  0.000000  0.000000       1 t-inv F
  0.125000  0.000000  0.000000       2 t-inv F
  0.250000  0.000000  0.000000       3 t-inv F
  0.375000  0.000000  0.000000       4 t-inv F
  0.500000  0.000000  0.000000       5 t-inv F
  0.125000  0.125000  0.000000       6 t-inv F
  0.250000  0.125000  0.000000       7 t-inv F
  0.375000  0.125000  0.000000       8 t-inv F
  0.500000  0.125000  0.000000       9 t-inv F
  0.250000  0.250000  0.000000      10 t-inv F
  0.375000  0.250000  0.000000      11 t-inv F
  0.500000  0.250000  0.000000      12 t-inv F
  0.375000  0.375000  0.000000      13 t-inv F
  0.500000  0.375000  0.000000      14 t-inv F
  0.500000  0.500000  0.000000      15 t-inv F
  0.000000  0.000000  0.125000      16 t-inv F
  0.125000  0.000000  0.125000      17 t-inv F
  0.250000  0.000000  0.125000      18 t-inv F
  0.375000  0.000000  0.125000      19 t-inv F
  0.500000  0.000000  0.125000      20 t-inv F
  0.125000  0.125000  0.125000      21 t-inv F
  0.250000  0.125000  0.125000      22 t-inv F
  0.375000  0.125000  0.125000      23 t-inv F
  0.500000  0.125000  0.125000      24 t-inv F
  0.250000  0.250000  0.125000      25 t-inv F
  0.375000  0.250000  0.125000      26 t-inv F
  0.500000  0.250000  0.125000      27 t-inv F
  0.375000  0.375000  0.125000      28 t-inv F
  0.500000  0.375000  0.125000      29 t-inv F
  0.500000  0.500000  0.125000      30 t-inv F
  0.000000  0.000000  0.250000      31 t-inv F
  0.125000  0.000000  0.250000      32 t-inv F
  0.250000  0.000000  0.250000      33 t-inv F
  0.375000  0.000000  0.250000      34 t-inv F
  0.500000  0.000000  0.250000      35 t-inv F
  0.125000  0.125000  0.250000      36 t-inv F
  0.250000  0.125000  0.250000      37 t-inv F
  0.375000  0.125000  0.250000      38 t-inv F
  0.500000  0.125000  0.250000      39 t-inv F
  0.250000  0.250000  0.250000      40 t-inv F
  0.375000  0.250000  0.250000      41 t-inv F
  0.500000  0.250000  0.250000      42 t-inv F
  0.375000  0.375000  0.250000      43 t-inv F
  0.500000  0.375000  0.250000      44 t-inv F
  0.500000  0.500000  0.250000      45 t-inv F
  0.000000  0.000000  0.375000      46 t-inv F
  0.125000  0.000000  0.375000      47 t-inv F
  0.250000  0.000000  0.375000      48 t-inv F
  0.375000  0.000000  0.375000      49 t-inv F
  0.500000  0.000000  0.375000      50 t-inv F
  0.125000  0.125000  0.375000      51 t-inv F
  0.250000  0.125000  0.375000      52 t-inv F
  0.375000  0.125000  0.375000      53 t-inv F
  0.500000  0.125000  0.375000      54 t-inv F
  0.250000  0.250000  0.375000      55 t-inv F
  0.375000  0.250000  0.375000      56 t-inv F
  0.500000  0.250000  0.375000      57 t-inv F
  0.375000  0.375000  0.375000      58 t-inv F
  0.500000  0.375000  0.375000      59 t-inv F
  0.500000  0.500000  0.375000      60 t-inv F
  0.000000  0.000000  0.500000      61 t-inv F
  0.125000  0.000000  0.500000      62 t-inv F
  0.250000  0.000000  0.500000      63 t-inv F
  0.375000  0.000000  0.500000      64 t-inv F
  0.500000  0.000000  0.500000      65 t-inv F
  0.125000  0.125000  0.500000      66 t-inv F
  0.250000  0.125000  0.500000      67 t-inv F
  0.375000  0.125000  0.500000      68 t-inv F
  0.500000  0.125000  0.500000      69 t-inv F
  0.250000  0.250000  0.500000      70 t-inv F
  0.375000  0.250000  0.500000      71 t-inv F
  0.500000  0.250000  0.500000      72 t-inv F
  0.375000  0.375000  0.500000      73 t-inv F
  0.500000  0.375000  0.500000      74 t-inv F
  0.500000  0.500000  0.500000      75 t-inv F
  0.000000  0.125000  0.000000       2 t-inv F
 -0.125000  0.000000  0.000000       2 t-inv F
  0.000000 -0.125000  0.000000       2 t-inv F
  0.000000  0.250000  0.000000       3 t-inv F
 -0.250000  0.000000  0.000000       3 t-inv F
  0.000000 -0.250000  0.000000       3 t-inv F
  0.000000  0.375000  0.000000       4 t-inv F
 -0.375000  0.000000  0.000000       4 t-inv F
  0.000000 -0.375000  0.000000       4 t-inv F
  0.000000  0.500000  0.000000       5 t-inv F
 -0.125000  0.125000  0.000000       6 t-inv F
 -0.125000 -0.125000  0.000000       6 t-inv F
  0.125000 -0.125000  0.000000       6 t-inv F
 -0.125000  0.250000  0.000000       7 t-inv F
 -0.250000 -0.125000  0.000000       7 t-inv F
  0.125000 -0.250000  0.000000       7 t-inv F
  0.250000 -0.125000  0.000000       7 t-inv F
 -0.125000 -0.250000  0.000000       7 t-inv F
 -0.250000  0.125000  0.000000       7 t-inv F
  0.125000  0.250000  0.000000       7 t-inv F
 -0.125000  0.375000  0.000000       8 t-inv F
 -0.375000 -0.125000  0.000000       8 t-inv F
  0.125000 -0.375000  0.000000       8 t-inv F
  0.375000 -0.125000  0.000000       8 t-inv F
 -0.125000 -0.375000  0.000000       8 t-inv F
 -0.375000  0.125000  0.000000       8 t-inv F
  0.125000  0.375000  0.000000       8 t-inv F
 -0.125000  0.500000  0.000000       9 t-inv F
 -0.500000 -0.125000  0.000000       9 t-inv F
  0.125000 -0.500000  0.000000       9 t-inv F
 -0.250000  0.250000  0.000000      10 t-inv F
 -0.250000 -0.250000  0.000000      10 t-inv F
  0.250000 -0.250000  0.000000      10 t-inv F
 -0.250000  0.375000  0.000000      11 t-inv F
 -0.375000 -0.250000  0.000000      11 t-inv F
  0.250000 -0.375000  0.000000      11 t-inv F
  0.375000 -0.250000  0.000000      11 t-inv F
 -0.250000 -0.375000  0.000000      11 t-inv F
 -0.375000  0.250000  0.000000      11 t-inv F
  0.250000  0.375000  0.000000      11 t-inv F
 -0.250000  0.500000  0.000000      12 t-inv F
 -0.500000 -0.250000  0.000000      12 t-inv F
  0.250000 -0.500000  0.000000      12 t-inv F
 -0.375000  0.375000  0.000000      13 t-inv F
 -0.375000 -0.375000  0.000000      13 t-inv F
  0.375000 -0.375000  0.000000      13 t-inv F
 -0.375000  0.500000  0.000000      14 t-inv F
 -0.500000 -0.375000  0.000000      14 t-inv F
  0.375000 -0.500000  0.000000      14 t-inv F
  0.000000  0.125000  0.125000      17 t-inv F
 -0.125000  0.000000  0.125000      17 t-inv F
  0.000000 -0.125000  0.125000      17 t-inv F
  0.000000  0.250000  0.125000      18 t-inv F
 -0.250000  0.000000  0.125000      18 t-inv F
  0.000000 -0.250000  0.125000      18 t-inv F
  0.000000  0.375000  0.125000      19 t-inv F
 -0.375000  0.000000  0.125000      19 t-inv F
  0.000000 -0.375000  0.125000      19 t-inv F
  0.000000  0.500000  0.125000      20 t-inv F
 -0.125000  0.125000  0.125000      21 t-inv F
 -0.125000 -0.125000  0.125000      21 t-inv F
  0.125000 -0.125000  0.125000      21 t-inv F
 -0.125000  0.250000  0.125000      22 t-inv F
 -0.250000 -0.125000  0.125000      22 t-inv F
  0.125000 -0.250000  0.125000      22 t-inv F
  0.250000 -0.125000  0.125000      22 t-inv F
 -0.125000 -0.250000  0.125000      22 t-inv F
 -0.250000  0.125000  0.125000      22 t-inv F
  0.125000  0.250000  0.125000      22 t-inv F
 -0.125000  0.375000  0.125000      23 t-inv F
 -0.375000 -0.125000  0.125000      23 t-inv F
  0.125000 -0.375000  0.125000      23 t-inv F
  0.375000 -0.125000  0.125000      23 t-inv F
 -0.125000 -0.375000  0.125000      23 t-inv F
 -0.375000  0.125000  0.125000      23 t-inv F
  0.125000  0.375000  0.125000      23 t-inv F
 -0.125000  0.500000  0.125000      24 t-inv F
 -0.500000 -0.125000  0.125000      24 t-inv F
  0.125000 -0.500000  0.125000      24 t-inv F
 -0.250000  0.250000  0.125000      25 t-inv F
 -0.250000 -0.250000  0.125000      25 t-inv F
  0.250000 -0.250000  0.125000      25 t-inv F
 -0.250000  0.375000  0.125000      26 t-inv F
 -0.375000 -0.250000  0.125000      26 t-inv F
  0.250000 -0.375000  0.125000      26 t-inv F
  0.375000 -0.250000  0.125000      26 t-inv F
 -0.250000 -0.375000  0.125000      26 t-inv F
 -0.375000  0.250000  0.125000      26 t-inv F
  0.250000  0.375000  0.125000      26 t-inv F
 -0.250000  0.500000  0.125000      27 t-inv F
 -0.500000 -0.250000  0.125000      27 t-inv F
  0.250000 -0.500000  0.125000      27 t-inv F
 -0.375000  0.375000  0.125000      28 t-inv F
 -0.375000 -0.375000  0.125000      28 t-inv F
  0.375000 -0.375000  0.125000      28 t-inv F
 -0.375000  0.500000  0.125000      29 t-inv F
 -0.500000 -0.375000  0.125000      29 t-inv F
  0.375000 -0.500000  0.125000      29 t-inv F
  0.000000  0.125000  0.250000      32 t-inv F
 -0.125000  0.000000  0.250000      32 t-inv F
  0.000000 -0.125000  0.250000      32 t-inv F
  0.000000  0.250000  0.250000      33 t-inv F
 -0.250000  0.000000  0.250000      33 t-inv F
  0.000000 -0.250000  0.250000      33 t-inv F
  0.000000  0.375000  0.250000      34 t-inv F
 -0.375000  0.000000  0.250000      34 t-inv F
  0.000000 -0.375000  0.250000      34 t-inv F
  0.000000  0.500000  0.250000      35 t-inv F
 -0.125000  0.125000  0.250000      36 t-inv F
 -0.125000 -0.125000  0.250000      36 t-inv F
  0.125000 -0.125000  0.250000      36 t-inv F
 -0.125000  0.250000  0.250000      37 t-inv F
 -0.250000 -0.125000  0.250000      37 t-inv F
  0.125000 -0.250000  0.250000      37 t-inv F
  0.250000 -0.125000  0.250000      37 t-inv F
 -0.125000 -0.250000  0.250000      37 t-inv F
 -0.250000  0.125000  0.250000      37 t-inv F
  0.125000  0.250000  0.250000      37 t-inv F
 -0.125000  0.375000  0.250000      38 t-inv F
 -0.375000 -0.125000  0.250000      38 t-inv F
  0.125000 -0.375000  0.250000      38 t-inv F
  0.375000 -0.125000  0.250000      38 t-inv F
 -0.125000 -0.375000  0.250000      38 t-inv F
 -0.375000  0.125000  0.250000      38 t-inv F
  0.125000  0.375000  0.250000      38 t-inv F
 -0.125000  0.500000  0.250000      39 t-inv F
 -0.500000 -0.125000  0.250000      39 t-inv F
  0.125000 -0.500000  0.250000      39 t-inv F
 -0.250000  0.250000  0.250000      40 t-inv F
 -0.250000 -0.250000  0.250000      40 t-inv F
  0.250000 -0.250000  0.250000      40 t-inv F
 -0.250000  0.375000  0.250000      41 t-inv F
 -0.375000 -0.250000  0.250000      41 t-inv F
  0.250000 -0.375000  0.250000      41 t-inv F
  0.375000 -0.250000  0.250000      41 t-inv F
 -0.250000 -0.375000  0.250000      41 t-inv F
 -0.375000  0.250000  0.250000      41 t-inv F
  0.250000  0.375000  0.250000      41 t-inv F
 -0.250000  0.500000  0.250000      42 t-inv F
 -0.500000 -0.250000  0.250000      42 t-inv F
  0.250000 -0.500000  0.250000      42 t-inv F
 -0.375000  0.375000  0.250000      43 t-inv F
 -0.375000 -0.375000  0.250000      43 t-inv F
  0.375000 -0.375000  0.250000      43 t-inv F
 -0.375000  0.500000  0.250000      44 t-inv F
 -0.500000 -0.375000  0.250000      44 t-inv F
  0.375000 -0.500000  0.250000      44 t-inv F
  0.000000  0.125000  0.375000      47 t-inv F
 -0.125000  0.000000  0.375000      47 t-inv F
  0.000000 -0.125000  0.375000      47 t-inv F
  0.000000  0.250000  0.375000      48 t-inv F
 -0.250000  0.000000  0.375000      48 t-inv F
  0.000000 -0.250000  0.375000      48 t-inv F
  0.000000  0.375000  0.375000      49 t-inv F
 -0.375000  0.000000  0.375000      49 t-inv F
  0.000000 -0.375000  0.375000      49 t-inv F
  0.000000  0.500000  0.375000      50 t-inv F
 -0.125000  0.125000  0.375000      51 t-inv F
 -0.125000 -0.125000  0.375000      51 t-inv F
  0.125000 -0.125000  0.375000      51 t-inv F
 -0.125000  0.250000  0.375000      52 t-inv F
 -0.250000 -0.125000  0.375000      52 t-inv F
  0.125000 -0.250000  0.375000      52 t-inv F
  0.250000 -0.125000  0.375000      52 t-inv F
 -0.125000 -0.250000  0.375000      52 t-inv F
 -0.250000  0.125000  0.375000      52 t-inv F
  0.125000  0.250000  0.375000      52 t-inv F
 -0.125000  0.375000  0.375000      53 t-inv F
 -0.375000 -0.125000  0.375000      53 t-inv F
  0.125000 -0.375000  0.375000      53 t-inv F
  0.375000 -0.125000  0.375000      53 t-inv F
 -0.125000 -0.375000  0.375000      53 t-inv F
 -0.375000  0.125000  0.375000      53 t-inv F
  0.125000  0.375000  0.375000      53 t-inv F
 -0.125000  0.500000  0.375000      54 t-inv F
 -0.500000 -0.125000  0.375000      54 t-inv F
  0.125000 -0.500000  0.375000      54 t-inv F
 -0.250000  0.250000  0.375000      55 t-inv F
 -0.250000 -0.250000  0.375000      55 t-inv F
  0.250000 -0.250000  0.375000      55 t-inv F
 -0.250000  0.375000  0.375000      56 t-inv F
 -0.375000 -0.250000  0.375000      56 t-inv F
  0.250000 -0.375000  0.375000      56 t-inv F
  0.375000 -0.250000  0.375000      56 t-inv F
 -0.250000 -0.375000  0.375000      56 t-inv F
 -0.375000  0.250000  0.375000      56 t-inv F
  0.250000  0.375000  0.375000      56 t-inv F
 -0.250000  0.500000  0.375000      57 t-inv F
 -0.500000 -0.250000  0.375000      57 t-inv F
  0.250000 -0.500000  0.375000      57 t-inv F
 -0.375000  0.375000  0.375000      58 t-inv F
 -0.375000 -0.375000  0.375000      58 t-inv F
  0.375000 -0.375000  0.375000      58 t-inv F
 -0.375000  0.500000  0.375000      59 t-inv F
 -0.500000 -0.375000  0.375000      59 t-inv F
  0.375000 -0.500000  0.375000      59 t-inv F
  0.000000  0.125000  0.500000      62 t-inv F
 -0.125000  0.000000  0.500000      62 t-inv F
  0.000000 -0.125000  0.500000      62 t-inv F
  0.000000  0.250000  0.500000      63 t-inv F
 -0.250000  0.000000  0.500000      63 t-inv F
  0.000000 -0.250000  0.500000      63 t-inv F
  0.000000  0.375000  0.500000      64 t-inv F
 -0.375000  0.000000  0.500000      64 t-inv F
  0.000000 -0.375000  0.500000      64 t-inv F
  0.000000  0.500000  0.500000      65 t-inv F
 -0.125000  0.125000  0.500000      66 t-inv F
 -0.125000 -0.125000  0.500000      66 t-inv F
  0.125000 -0.125000  0.500000      66 t-inv F
 -0.125000  0.250000  0.500000      67 t-inv F
 -0.250000 -0.125000  0.500000      67 t-inv F
  0.125000 -0.250000  0.500000      67 t-inv F
  0.250000 -0.125000  0.500000      67 t-inv F
 -0.125000 -0.250000  0.500000      67 t-inv F
 -0.250000  0.125000  0.500000      67 t-inv F
  0.125000  0.250000  0.500000      67 t-inv F
 -0.125000  0.375000  0.500000      68 t-inv F
 -0.375000 -0.125000  0.500000      68 t-inv F
  0.125000 -0.375000  0.500000      68 t-inv F
  0.375000 -0.125000  0.500000      68 t-inv F
 -0.125000 -0.375000  0.500000      68 t-inv F
 -0.375000  0.125000  0.500000      68 t-inv F
  0.125000  0.375000  0.500000      68 t-inv F
 -0.125000  0.500000  0.500000      69 t-inv F
 -0.500000 -0.125000  0.500000      69 t-inv F
  0.125000 -0.500000  0.500000      69 t-inv F
 -0.250000  0.250000  0.500000      70 t-inv F
 -0.250000 -0.250000  0.500000      70 t-inv F
  0.250000 -0.250000  0.500000      70 t-inv F
 -0.250000  0.375000  0.500000      71 t-inv F
 -0.375000 -0.250000  0.500000      71 t-inv F
  0.250000 -0.375000  0.500000      71 t-inv F
  0.375000 -0.250000  0.500000      71 t-inv F
 -0.250000 -0.375000  0.500000      71 t-inv F
 -0.375000  0.250000  0.500000      71 t-inv F
  0.250000  0.375000  0.500000      71 t-inv F
 -0.250000  0.500000  0.500000      72 t-inv F
 -0.500000 -0.250000  0.500000      72 t-inv F
  0.250000 -0.500000  0.500000      72 t-inv F
 -0.375000  0.375000  0.500000      73 t-inv F
 -0.375000 -0.375000  0.500000      73 t-inv F
  0.375000 -0.375000  0.500000      73 t-inv F
 -0.375000  0.500000  0.500000      74 t-inv F
 -0.500000 -0.375000  0.500000      74 t-inv F
  0.375000 -0.500000  0.500000      74 t-inv F
  0.000000  0.000000 -0.125000      16 t-inv T
 -0.125000  0.000000 -0.125000      17 t-inv T
  0.000000 -0.125000 -0.125000      17 t-inv T
  0.125000  0.000000 -0.125000      17 t-inv T
  0.000000  0.125000 -0.125000      17 t-inv T
 -0.250000  0.000000 -0.125000      18 t-inv T
  0.000000 -0.250000 -0.125000      18 t-inv T
  0.250000  0.000000 -0.125000      18 t-inv T
  0.000000  0.250000 -0.125000      18 t-inv T
 -0.375000  0.000000 -0.125000      19 t-inv T
  0.000000 -0.375000 -0.125000      19 t-inv T
  0.375000  0.000000 -0.125000      19 t-inv T
  0.000000  0.375000 -0.125000      19 t-inv T
 -0.500000  0.000000 -0.125000      20 t-inv T
  0.000000 -0.500000 -0.125000      20 t-inv T
 -0.125000 -0.125000 -0.125000      21 t-inv T
  0.125000 -0.125000 -0.125000      21 t-inv T
  0.125000  0.125000 -0.125000      21 t-inv T
 -0.125000  0.125000 -0.125000      21 t-inv T
 -0.250000 -0.125000 -0.125000      22 t-inv T
  0.125000 -0.250000 -0.125000      22 t-inv T
  0.250000  0.125000 -0.125000      22 t-inv T
 -0.125000  0.250000 -0.125000      22 t-inv T
 -0.250000  0.125000 -0.125000      22 t-inv T
  0.125000  0.250000 -0.125000      22 t-inv T
  0.250000 -0.125000 -0.125000      22 t-inv T
 -0.125000 -0.250000 -0.125000      22 t-inv T
 -0.375000 -0.125000 -0.125000      23 t-inv T
  0.125000 -0.375000 -0.125000      23 t-inv T
  0.375000  0.125000 -0.125000      23 t-inv T
 -0.125000  0.375000 -0.125000      23 t-inv T
 -0.375000  0.125000 -0.125000      23 t-inv T
  0.125000  0.375000 -0.125000      23 t-inv T
  0.375000 -0.125000 -0.125000      23 t-inv T
 -0.125000 -0.375000 -0.125000      23 t-inv T
 -0.500000 -0.125000 -0.125000      24 t-inv T
  0.125000 -0.500000 -0.125000      24 t-inv T
  0.500000  0.125000 -0.125000      24 t-inv T
 -0.125000  0.500000 -0.125000      24 t-inv T
 -0.250000 -0.250000 -0.125000      25 t-inv T
  0.250000 -0.250000 -0.125000      25 t-inv T
  0.250000  0.250000 -0.125000      25 t-inv T
 -0.250000  0.250000 -0.125000      25 t-inv T
 -0.375000 -0.250000 -0.125000      26 t-inv T
  0.250000 -0.375000 -0.125000      26 t-inv T
  0.375000  0.250000 -0.125000      26 t-inv T
 -0.250000  0.375000 -0.125000      26 t-inv T
 -0.375000  0.250000 -0.125000      26 t-inv T
  0.250000  0.375000 -0.125000      26 t-inv T
  0.375000 -0.250000 -0.125000      26 t-inv T
 -0.250000 -0.375000 -0.125000      26 t-inv T
 -0.500000 -0.250000 -0.125000      27 t-inv T
  0.250000 -0.500000 -0.125000      27 t-inv T
  0.500000  0.250000 -0.125000      27 t-inv T
 -0.250000  0.500000 -0.125000      27 t-inv T
 -0.375000 -0.375000 -0.125000      28 t-inv T
  0.375000 -0.375000 -0.125000      28 t-inv T
  0.375000  0.375000 -0.125000      28 t-inv T
 -0.375000  0.375000 -0.125000      28 t-inv T
 -0.500000 -0.375000 -0.125000      29 t-inv T
  0.375000 -0.500000 -0.125000      29 t-inv T
  0.500000  0.375000 -0.125000      29 t-inv T
 -0.375000  0.500000 -0.125000      29 t-inv T
 -0.500000 -0.500000 -0.125000      30 t-inv T
  0.000000  0.000000 -0.250000      31 t-inv T
 -0.125000  0.000000 -0.250000      32 t-inv T
  0.000000 -0.125000 -0.250000      32 t-inv T
  0.125000  0.000000 -0.250000      32 t-inv T
  0.000000  0.125000 -0.250000      32 t-inv T
 -0.250000  0.000000 -0.250000      33 t-inv T
  0.000000 -0.250000 -0.250000      33 t-inv T
  0.250000  0.000000 -0.250000      33 t-inv T
  0.000000  0.250000 -0.250000      33 t-inv T
 -0.375000  0.000000 -0.250000      34 t-inv T
  0.000000 -0.375000 -0.250000      34 t-inv T
  0.375000  0.000000 -0.250000      34 t-inv T
  0.000000  0.375000 -0.250000      34 t-inv T
 -0.500000  0.000000 -0.250000      35 t-inv T
  0.000000 -0.500000 -0.250000      35 t-inv T
 -0.125000 -0.125000 -0.250000      36 t-inv T
  0.125000 -0.125000 -0.250000      36 t-inv T
  0.125000  0.125000 -0.250000      36 t-inv T
 -0.125000  0.125000 -0.250000      36 t-inv T
 -0.250000 -0.125000 -0.250000      37 t-inv T
  0.125000 -0.250000 -0.250000      37 t-inv T
  0.250000  0.125000 -0.250000      37 t-inv T
 -0.125000  0.250000 -0.250000      37 t-inv T
 -0.250000  0.125000 -0.250000      37 t-inv T
  0.125000  0.250000 -0.250000      37 t-inv T
  0.250000 -0.125000 -0.250000      37 t-inv T
 -0.125000 -0.250000 -0.250000      37 t-inv T
 -0.375000 -0.125000 -0.250000      38 t-inv T
  0.125000 -0.375000 -0.250000      38 t-inv T
  0.375000  0.125000 -0.250000      38 t-inv T
 -0.125000  0.375000 -0.250000      38 t-inv T
 -0.375000  0.125000 -0.250000      38 t-inv T
  0.125000  0.375000 -0.250000      38 t-inv T
  0.375000 -0.125000 -0.250000      38 t-inv T
 -0.125000 -0.375000 -0.250000      38 t-inv T
 -0.500000 -0.125000 -0.250000      39 t-inv T
  0.125000 -0.500000 -0.250000      39 t-inv T
  0.500000  0.125000 -0.250000      39 t-inv T
 -0.125000  0.500000 -0.250000      39 t-inv T
 -0.250000 -0.250000 -0.250000      40 t-inv T
  0.250000 -0.250000 -0.250000      40 t-inv T
  0.250000  0.250000 -0.250000      40 t-inv T
 -0.250000  0.250000 -0.250000      40 t-inv T
 -0.375000 -0.250000 -0.250000      41 t-inv T
  0.250000 -0.375000 -0.250000      41 t-inv T
  0.375000  0.250000 -0.250000      41 t-inv T
 -0.250000  0.375000 -0.250000      41 t-inv T
 -0.375000  0.250000 -0.250000      41 t-inv T
  0.250000  0.375000 -0.250000      41 t-inv T
  0.375000 -0.250000 -0.250000      41 t-inv T
 -0.250000 -0.375000 -0.250000      41 t-inv T
 -0.500000 -0.250000 -0.250000      42 t-inv T
  0.250000 -0.500000 -0.250000      42 t-inv T
  0.500000  0.250000 -0.250000      42 t-inv T
 -0.250000  0.500000 -0.250000      42 t-inv T
 -0.375000 -0.375000 -0.250000      43 t-inv T
  0.375000 -0.375000 -0.250000      43 t-inv T
  0.375000  0.375000 -0.250000      43 t-inv T
 -0.375000  0.375000 -0.250000      43 t-inv T
 -0.500000 -0.375000 -0.250000      44 t-inv T
  0.375000 -0.500000 -0.250000      44 t-inv T
  0.500000  0.375000 -0.250000      44 t-inv T
 -0.375000  0.500000 -0.250000      44 t-inv T
 -0.500000 -0.500000 -0.250000      45 t-inv T
  0.000000  0.000000 -0.375000      46 t-inv T
 -0.125000  0.000000 -0.375000      47 t-inv T
  0.000000 -0.125000 -0.375000      47 t-inv T
  0.125000  0.000000 -0.375000      47 t-inv T
  0.000000  0.125000 -0.375000      47 t-inv T
 -0.250000  0.000000 -0.375000      48 t-inv T
  0.000000 -0.250000 -0.375000      48 t-inv T
  0.250000  0.000000 -0.375000      48 t-inv T
  0.000000  0.250000 -0.375000      48 t-inv T
 -0.375000  0.000000 -0.375000      49 t-inv T
  0.000000 -0.375000 -0.375000      49 t-inv T
  0.375000  0.000000 -0.375000      49 t-inv T
  0.000000  0.375000 -0.375000      49 t-inv T
 -0.500000  0.000000 -0.375000      50 t-inv T
  0.000000 -0.500000 -0.375000      50 t-inv T
 -0.125000 -0.125000 -0.375000      51 t-inv T
  0.125000 -0.125000 -0.375000      51 t-inv T
  0.125000  0.125000 -0.375000      51 t-inv T
 -0.125000  0.125000 -0.375000      51 t-inv T
 -0.250000 -0.125000 -0.375000      52 t-inv T
  0.125000 -0.250000 -0.375000      52 t-inv T
  0.250000  0.125000 -0.375000      52 t-inv T
 -0.125000  0.250000 -0.375000      52 t-inv T
 -0.250000  0.125000 -0.375000      52 t-inv T
  0.125000  0.250000 -0.375000      52 t-inv T
  0.250000 -0.125000 -0.375000      52 t-inv T
 -0.125000 -0.250000 -0.375000      52 t-inv T
 -0.375000 -0.125000 -0.375000      53 t-inv T
  0.125000 -0.375000 -0.375000      53 t-inv T
  0.375000  0.125000 -0.375000      53 t-inv T
 -0.125000  0.375000 -0.375000      53 t-inv T
 -0.375000  0.125000 -0.375000      53 t-inv T
  0.125000  0.375000 -0.375000      53 t-inv T
  0.375000 -0.125000 -0.375000      53 t-inv T
 -0.125000 -0.375000 -0.375000      53 t-inv T
 -0.500000 -0.125000 -0.375000      54 t-inv T
  0.125000 -0.500000 -0.375000      54 t-inv T
  0.500000  0.125000 -0.375000      54 t-inv T
 -0.125000  0.500000 -0.375000      54 t-inv T
 -0.250000 -0.250000 -0.375000      55 t-inv T
  0.250000 -0.250000 -0.375000      55 t-inv T
  0.250000  0.250000 -0.375000      55 t-inv T
 -0.250000  0.250000 -0.375000      55 t-inv T
 -0.375000 -0.250000 -0.375000      56 t-inv T
  0.250000 -0.375000 -0.375000      56 t-inv T
  0.375000  0.250000 -0.375000      56 t-inv T
 -0.250000  0.375000 -0.375000      56 t-inv T
 -0.375000  0.250000 -0.375000      56 t-inv T
  0.250000  0.375000 -0.375000      56 t-inv T
  0.375000 -0.250000 -0.375000      56 t-inv T
 -0.250000 -0.375000 -0.375000      56 t-inv T
 -0.500000 -0.250000 -0.375000      57 t-inv T
  0.250000 -0.500000 -0.375000      57 t-inv T
  0.500000  0.250000 -0.375000      57 t-inv T
 -0.250000  0.500000 -0.375000      57 t-inv T
 -0.375000 -0.375000 -0.375000      58 t-inv T
  0.375000 -0.375000 -0.375000      58 t-inv T
  0.375000  0.375000 -0.375000      58 t-inv T
 -0.375000  0.375000 -0.375000      58 t-inv T
 -0.500000 -0.375000 -0.375000      59 t-inv T
  0.375000 -0.500000 -0.375000      59 t-inv T
  0.500000  0.375000 -0.375000      59 t-inv T
 -0.375000  0.500000 -0.375000      59 t-inv T
 -0.500000 -0.500000 -0.375000      60 t-inv T


--------------------------------------------------------------------------------------------------------




 Dimension of arrays:
   k-points           NKPTS =     75   k-points in BZ     NKDIM =     75   number of bands    NBANDS=     24
   number of dos      NEDOS =    301   number of ions     NIONS =      5
   non local maximal  LDIM  =      6   non local SUM 2l+1 LMDIM =     18
   total plane-waves  NPLWV =  28800
   max r-space proj   IRMAX =   8464   max aug-charges    IRDMAX=  26905
   dimension x,y,z NGX =    30 NGY =   30 NGZ =   32
   dimension x,y,z NGXF=    60 NGYF=   60 NGZF=   64
   support grid    NGXF=    60 NGYF=   60 NGZF=   64
   ions per type =               1   1   3
 NGX,Y,Z   is equivalent  to a cutoff of  12.46, 12.46, 12.62 a.u.
 NGXF,Y,Z  is equivalent  to a cutoff of  24.93, 24.93, 25.24 a.u.


 I would recommend the setting:
   dimension x,y,z NGX =    30 NGY =   30 NGZ =   31
 SYSTEM =  unknown system                          
 POSCAR =  Ba1 Ti1 O3                              

 Startparameter for this run:
   NWRITE =      2    write-flag & timer
   PREC   = accura    normal or accurate (medium, high low for compatibility)
   ISTART =      1    job   : 0-new  1-cont  2-samecut
   ICHARG =      0    charge: 1-file 2-atom 10-const
   ISPIN  =      2    spin polarized calculation?
   LNONCOLLINEAR =      F non collinear calculations
   LSORBIT =      F    spin-orbit coupling
   INIWAV =      1    electr: 0-lowe 1-rand  2-diag
   LASPH  =      F    aspherical Exc in radial PAW
   METAGGA=      F    non-selfconsistent MetaGGA calc.

 Electronic Relaxation 1
   ENCUT  =  520.0 eV  38.22 Ry    6.18 a.u.   7.44  7.44  7.84*2*pi/ulx,y,z
   ENINI  =  520.0     initial cutoff
   ENAUG  =  605.4 eV  augmentation charge cutoff
   NELM   =    100;   NELMIN=  2; NELMDL=  0     # of ELM steps 
   EDIFF  = 0.3E-03   stopping-criterion for ELM
   LREAL  =      T    real-space projection
   NLSPLINE    = F    spline interpolate recip. space projectors
   LCOMPAT=      F    compatible to vasp.4.4
   GGA_COMPAT  = T    GGA compatible to vasp.4.4-vasp.4.6
   LMAXPAW     = -100 max onsite density
   LMAXMIX     =    2 max onsite mixed and CHGCAR
   VOSKOWN=      0    Vosko Wilk Nusair interpolation
   ROPT   =   -0.00025  -0.00025  -0.00025
 Ionic relaxation
   EDIFFG = 0.3E-02   stopping-criterion for IOM
   NSW    =      0    number of steps for IOM
   NBLOCK =      1;   KBLOCK =      1    inner block; outer block 
   IBRION =     -1    ionic relax: 0-MD 1-quasi-New 2-CG
   NFREE  =      0    steps in history (QN), initial steepest desc. (CG)
   ISIF   =      3    stress and relaxation
   IWAVPR =     10    prediction:  0-non 1-charg 2-wave 3-comb
   ISYM   =      2    0-nonsym 1-usesym 2-fastsym
   LCORR  =      T    Harris-Foulkes like correction to forces

   POTIM  = 0.5000    time-step for ionic-motion
   TEIN   =    0.0    initial temperature
   TEBEG  =    0.0;   TEEND  =   0.0 temperature during run
   SMASS  =  -3.00    Nose mass-parameter (am)
   estimated Nose-frequenzy (Omega)   =  0.10E-29 period in steps =****** mass=  -0.366E-27a.u.
   SCALEE = 1.0000    scale energy and forces
   NPACO  =    256;   APACO  = 16.0  distance and # of slots for P.C.
   PSTRESS=    0.0 pullay stress

  Mass of Ions in am
   POMASS = 137.33 47.88 16.00
  Ionic Valenz
   ZVAL   =  10.00 10.00  6.00
  Atomic Wigner-Seitz radii
   RWIGS  =  -1.00 -1.00 -1.00
  virtual crystal weights 
   VCA    =   1.00  1.00  1.00
   NELECT =      38.0000    total number of electrons
   NUPDOWN=      -1.0000    fix difference up-down

 DOS related values:
   EMIN   =  10.00;   EMAX   =-10.00  energy-range for DOS
   EFERMI =   0.00
   ISMEAR =    -5;   SIGMA  =   0.05  broadening in eV -4-tet -1-fermi 0-gaus

 Electronic relaxation 2 (details)
   IALGO  =     38    algorithm
   LDIAG  =      T    sub-space diagonalisation (order eigenvalues)
   LSUBROT=      F    optimize rotation matrix (better conditioning)
   TURBO    =      0    0=normal 1=particle mesh
   IRESTART =      0    0=no restart 2=restart with 2 vectors
   NREBOOT  =      0    no. of reboots
   NMIN     =      0    reboot dimension
   EREF     =   0.00    reference energy to select bands
   IMIX   =      4    mixing-type and parameters
     AMIX     =   0.40;   BMIX     =  1.00
     AMIX_MAG =   1.60;   BMIX_MAG =  1.00
     AMIN     =   0.10
     WC   =   100.;   INIMIX=   1;  MIXPRE=   1;  MAXMIX= -45

 Intra band minimization:
   WEIMIN = 0.0000     energy-eigenvalue tresh-hold
   EBREAK =  0.26E-05  absolut break condition
   DEPER  =   0.30     relativ break condition  

   TIME   =   0.40     timestep for ELM

  volume/ion in A,a.u.               =      13.50        91.10
  Fermi-wavevector in a.u.,A,eV,Ry     =   1.351779  2.554491 24.862006  1.827306
  Thomas-Fermi vector in A             =   2.479172
 
 Write flags
   LWAVE  =      F    write WAVECAR
   LCHARG =      T    write CHGCAR
   LVTOT  =      F    write LOCPOT, total local potential
   LVHAR  =      T    write LOCPOT, Hartree potential only
   LELF   =      F    write electronic localiz. function (ELF)
   LORBIT =     11    0 simple, 1 ext, 2 COOP (PROOUT)


 Dipole corrections
   LMONO  =      F    monopole corrections only (constant potential shift)
   LDIPOL =      F    correct potential (dipole corrections)
   IDIPOL =      0    1-x, 2-y, 3-z, 4-all directions 
   EPSILON=  1.0000000 bulk dielectric constant

 Exchange correlation treatment:
   GGA     =    --    GGA type
   LEXCH   =     8    internal setting for exchange type
   VOSKOWN=      0    Vosko Wilk Nusair interpolation
   LHFCALC =     F    Hartree Fock is set to
   LHFONE  =     F    Hartree Fock one center treatment
   AEXX    =    0.0000 exact exchange contribution

 Linear response parameters
   LEPSILON=     F    determine dielectric tensor
   LRPA    =     F    only Hartree local field effects (RPA)
   LNABLA  =     F    use nabla operator in PAW spheres
   LVEL    =     F    velocity operator in full k-point grid
   LINTERFAST=   F  fast interpolation
   KINTER  =     0    interpolate to denser k-point grid
   CSHIFT  =0.1000    complex shift for real part using Kramers Kronig
   OMEGAMAX=  -1.0    maximum frequency
   DEG_THRESHOLD= 0.2000000E-02 threshold for treating states as degnerate
   RTIME   =    0.100 relaxation time in fs

 Orbital magnetization related:
   ORBITALMAG=     F  switch on orbital magnetization
   LCHIMAG   =     F  perturbation theory with respect to B field
   DQ        =  0.001000  dq finite difference perturbation B field

 PEAD related settings:
   LPEAD      =     T    switch on PEAD
   IPEAD      =     4    finite difference order for dpsi/dk
   LCALCPOL   =     T    calculate macroscopic polarization
   LCALCEPS   =     F    calculate dielectric tensor
   EFIELD_PEAD=    0.0000    0.0000    0.0000
   SKIP_EDOTP =     F
   LRPA       =     F
   SKIP_SCF   =     F


--------------------------------------------------------------------------------------------------------


 Static calculation
 charge density and potential will be updated during run
 spin polarized calculation
 Variant of blocked Davidson
 Davidson routine will perform the subspace rotation
 perform sub-space diagonalisation
    after iterative eigenvector-optimisation
 modified Broyden-mixing scheme, WC =      100.0
 initial mixing is a Kerker type mixing with AMIX =  0.4000 and BMIX =      1.0000
 Hartree-type preconditioning will be used
 using additional bands            5
 real space projection scheme for non local part
 use partial core corrections
 calculate Harris-corrections to forces 
   (improved forces if not selfconsistent)
 use gradient corrections 
 use of overlap-Matrix (Vanderbilt PP)
 Fermi weights with tetrahedron method with Bloechl corrections


--------------------------------------------------------------------------------------------------------


  energy-cutoff  :      520.00
  volume of cell :       67.50
      direct lattice vectors                 reciprocal lattice vectors
     4.001368000  0.000000000  0.000000000     0.249914529  0.000000000  0.000000000
     0.000000000  4.001368000  0.000000000     0.000000000  0.249914529  0.000000000
     0.000000000  0.000000000  4.215744000     0.000000000  0.000000000  0.237206054

  length of vectors
     4.001368000  4.001368000  4.215744000     0.249914529  0.249914529  0.237206054


 
 old parameters found on file WAVECAR:
  energy-cutoff  :      520.00
  volume of cell :       67.50
      direct lattice vectors                 reciprocal lattice vectors
     4.001368000  0.000000000  0.000000000     0.249914529  0.000000000  0.000000000
     0.000000000  4.001368000  0.000000000     0.000000000  0.249914529  0.000000000
     0.000000000  0.000000000  4.215744000     0.000000000  0.000000000  0.237206054

  length of vectors

 
 k-points in units of 2pi/SCALE and weight: Automatic kpoint scheme                 
   0.00000000  0.00000000  0.00000000       0.002
   0.03123932  0.00000000  0.00000000       0.008
   0.06247863  0.00000000  0.00000000       0.008
   0.09371795  0.00000000  0.00000000       0.008
   0.12495726  0.00000000  0.00000000       0.004
   0.03123932  0.03123932  0.00000000       0.008
   0.06247863  0.03123932  0.00000000       0.016
   0.09371795  0.03123932  0.00000000       0.016
   0.12495726  0.03123932  0.00000000       0.008
   0.06247863  0.06247863  0.00000000       0.008
   0.09371795  0.06247863  0.00000000       0.016
   0.12495726  0.06247863  0.00000000       0.008
   0.09371795  0.09371795  0.00000000       0.008
   0.12495726  0.09371795  0.00000000       0.008
   0.12495726  0.12495726  0.00000000       0.002
   0.00000000  0.00000000  0.02965076       0.004
   0.03123932  0.00000000  0.02965076       0.016
   0.06247863  0.00000000  0.02965076       0.016
   0.09371795  0.00000000  0.02965076       0.016
   0.12495726  0.00000000  0.02965076       0.008
   0.03123932  0.03123932  0.02965076       0.016
   0.06247863  0.03123932  0.02965076       0.031
   0.09371795  0.03123932  0.02965076       0.031
   0.12495726  0.03123932  0.02965076       0.016
   0.06247863  0.06247863  0.02965076       0.016
   0.09371795  0.06247863  0.02965076       0.031
   0.12495726  0.06247863  0.02965076       0.016
   0.09371795  0.09371795  0.02965076       0.016
   0.12495726  0.09371795  0.02965076       0.016
   0.12495726  0.12495726  0.02965076       0.004
   0.00000000  0.00000000  0.05930151       0.004
   0.03123932  0.00000000  0.05930151       0.016
   0.06247863  0.00000000  0.05930151       0.016
   0.09371795  0.00000000  0.05930151       0.016
   0.12495726  0.00000000  0.05930151       0.008
   0.03123932  0.03123932  0.05930151       0.016
   0.06247863  0.03123932  0.05930151       0.031
   0.09371795  0.03123932  0.05930151       0.031
   0.12495726  0.03123932  0.05930151       0.016
   0.06247863  0.06247863  0.05930151       0.016
   0.09371795  0.06247863  0.05930151       0.031
   0.12495726  0.06247863  0.05930151       0.016
   0.09371795  0.09371795  0.05930151       0.016
   0.12495726  0.09371795  0.05930151       0.016
   0.12495726  0.12495726  0.05930151       0.004
   0.00000000  0.00000000  0.08895227       0.004
   0.03123932  0.00000000  0.08895227       0.016
   0.06247863  0.00000000  0.08895227       0.016
   0.09371795  0.00000000  0.08895227       0.016
   0.12495726  0.00000000  0.08895227       0.008
   0.03123932  0.03123932  0.08895227       0.016
   0.06247863  0.03123932  0.08895227       0.031
   0.09371795  0.03123932  0.08895227       0.031
   0.12495726  0.03123932  0.08895227       0.016
   0.06247863  0.06247863  0.08895227       0.016
   0.09371795  0.06247863  0.08895227       0.031
   0.12495726  0.06247863  0.08895227       0.016
   0.09371795  0.09371795  0.08895227       0.016
   0.12495726  0.09371795  0.08895227       0.016
   0.12495726  0.12495726  0.08895227       0.004
   0.00000000  0.00000000  0.11860303       0.002
   0.03123932  0.00000000  0.11860303       0.008
   0.06247863  0.00000000  0.11860303       0.008
   0.09371795  0.00000000  0.11860303       0.008
   0.12495726  0.00000000  0.11860303       0.004
   0.03123932  0.03123932  0.11860303       0.008
   0.06247863  0.03123932  0.11860303       0.016
   0.09371795  0.03123932  0.11860303       0.016
   0.12495726  0.03123932  0.11860303       0.008
   0.06247863  0.06247863  0.11860303       0.008
   0.09371795  0.06247863  0.11860303       0.016
   0.12495726  0.06247863  0.11860303       0.008
   0.09371795  0.09371795  0.11860303       0.008
   0.12495726  0.09371795  0.11860303       0.008
   0.12495726  0.12495726  0.11860303       0.002
 
 k-points in reciprocal lattice and weights: Automatic kpoint scheme                 
   0.00000000  0.00000000  0.00000000       0.002
   0.12500000  0.00000000  0.00000000       0.008
   0.25000000  0.00000000  0.00000000       0.008
   0.37500000  0.00000000  0.00000000       0.008
   0.50000000  0.00000000  0.00000000       0.004
   0.12500000  0.12500000  0.00000000       0.008
   0.25000000  0.12500000  0.00000000       0.016
   0.37500000  0.12500000  0.00000000       0.016
   0.50000000  0.12500000  0.00000000       0.008
   0.25000000  0.25000000  0.00000000       0.008
   0.37500000  0.25000000  0.00000000       0.016
   0.50000000  0.25000000  0.00000000       0.008
   0.37500000  0.37500000  0.00000000       0.008
   0.50000000  0.37500000  0.00000000       0.008
   0.50000000  0.50000000  0.00000000       0.002
   0.00000000  0.00000000  0.12500000       0.004
   0.12500000  0.00000000  0.12500000       0.016
   0.25000000  0.00000000  0.12500000       0.016
   0.37500000  0.00000000  0.12500000       0.016
   0.50000000  0.00000000  0.12500000       0.008
   0.12500000  0.12500000  0.12500000       0.016
   0.25000000  0.12500000  0.12500000       0.031
   0.37500000  0.12500000  0.12500000       0.031
   0.50000000  0.12500000  0.12500000       0.016
   0.25000000  0.25000000  0.12500000       0.016
   0.37500000  0.25000000  0.12500000       0.031
   0.50000000  0.25000000  0.12500000       0.016
   0.37500000  0.37500000  0.12500000       0.016
   0.50000000  0.37500000  0.12500000       0.016
   0.50000000  0.50000000  0.12500000       0.004
   0.00000000  0.00000000  0.25000000       0.004
   0.12500000  0.00000000  0.25000000       0.016
   0.25000000  0.00000000  0.25000000       0.016
   0.37500000  0.00000000  0.25000000       0.016
   0.50000000  0.00000000  0.25000000       0.008
   0.12500000  0.12500000  0.25000000       0.016
   0.25000000  0.12500000  0.25000000       0.031
   0.37500000  0.12500000  0.25000000       0.031
   0.50000000  0.12500000  0.25000000       0.016
   0.25000000  0.25000000  0.25000000       0.016
   0.37500000  0.25000000  0.25000000       0.031
   0.50000000  0.25000000  0.25000000       0.016
   0.37500000  0.37500000  0.25000000       0.016
   0.50000000  0.37500000  0.25000000       0.016
   0.50000000  0.50000000  0.25000000       0.004
   0.00000000  0.00000000  0.37500000       0.004
   0.12500000  0.00000000  0.37500000       0.016
   0.25000000  0.00000000  0.37500000       0.016
   0.37500000  0.00000000  0.37500000       0.016
   0.50000000  0.00000000  0.37500000       0.008
   0.12500000  0.12500000  0.37500000       0.016
   0.25000000  0.12500000  0.37500000       0.031
   0.37500000  0.12500000  0.37500000       0.031
   0.50000000  0.12500000  0.37500000       0.016
   0.25000000  0.25000000  0.37500000       0.016
   0.37500000  0.25000000  0.37500000       0.031
   0.50000000  0.25000000  0.37500000       0.016
   0.37500000  0.37500000  0.37500000       0.016
   0.50000000  0.37500000  0.37500000       0.016
   0.50000000  0.50000000  0.37500000       0.004
   0.00000000  0.00000000  0.50000000       0.002
   0.12500000  0.00000000  0.50000000       0.008
   0.25000000  0.00000000  0.50000000       0.008
   0.37500000  0.00000000  0.50000000       0.008
   0.50000000  0.00000000  0.50000000       0.004
   0.12500000  0.12500000  0.50000000       0.008
   0.25000000  0.12500000  0.50000000       0.016
   0.37500000  0.12500000  0.50000000       0.016
   0.50000000  0.12500000  0.50000000       0.008
   0.25000000  0.25000000  0.50000000       0.008
   0.37500000  0.25000000  0.50000000       0.016
   0.50000000  0.25000000  0.50000000       0.008
   0.37500000  0.37500000  0.50000000       0.008
   0.50000000  0.37500000  0.50000000       0.008
   0.50000000  0.50000000  0.50000000       0.002
 
 position of ions in fractional coordinates (direct lattice) 
   0.00000000  0.00000000  0.02027300
   0.50000000  0.50000000  0.53885200
   0.00000000  0.50000000  0.49202200
   0.50000000  0.00000000  0.49202200
   0.50000000  0.50000000  0.97082900
 
 position of ions in cartesian coordinates  (Angst):
   0.00000000  0.00000000  0.08546578
   2.00068400  2.00068400  2.27166209
   0.00000000  2.00068400  2.07423879
   2.00068400  0.00000000  2.07423879
   2.00068400  2.00068400  4.09276653
 


--------------------------------------------------------------------------------------------------------


 k-point  1 :   0.0000 0.0000 0.0000  plane waves:    1815
 k-point  2 :   0.1250 0.0000 0.0000  plane waves:    1823
 k-point  3 :   0.2500 0.0000 0.0000  plane waves:    1813
 k-point  4 :   0.3750 0.0000 0.0000  plane waves:    1817
 k-point  5 :   0.5000 0.0000 0.0000  plane waves:    1818
 k-point  6 :   0.1250 0.1250 0.0000  plane waves:    1811
 k-point  7 :   0.2500 0.1250 0.0000  plane waves:    1817
 k-point  8 :   0.3750 0.1250 0.0000  plane waves:    1815
 k-point  9 :   0.5000 0.1250 0.0000  plane waves:    1820
 k-point 10 :   0.2500 0.2500 0.0000  plane waves:    1827
 k-point 11 :   0.3750 0.2500 0.0000  plane waves:    1811
 k-point 12 :   0.5000 0.2500 0.0000  plane waves:    1804
 k-point 13 :   0.3750 0.3750 0.0000  plane waves:    1810
 k-point 14 :   0.5000 0.3750 0.0000  plane waves:    1798
 k-point 15 :   0.5000 0.5000 0.0000  plane waves:    1812
 k-point 16 :   0.0000 0.0000 0.1250  plane waves:    1819
 k-point 17 :   0.1250 0.0000 0.1250  plane waves:    1828
 k-point 18 :   0.2500 0.0000 0.1250  plane waves:    1820
 k-point 19 :   0.3750 0.0000 0.1250  plane waves:    1814
 k-point 20 :   0.5000 0.0000 0.1250  plane waves:    1820
 k-point 21 :   0.1250 0.1250 0.1250  plane waves:    1816
 k-point 22 :   0.2500 0.1250 0.1250  plane waves:    1814
 k-point 23 :   0.3750 0.1250 0.1250  plane waves:    1817
 k-point 24 :   0.5000 0.1250 0.1250  plane waves:    1820
 k-point 25 :   0.2500 0.2500 0.1250  plane waves:    1818
 k-point 26 :   0.3750 0.2500 0.1250  plane waves:    1814
 k-point 27 :   0.5000 0.2500 0.1250  plane waves:    1810
 k-point 28 :   0.3750 0.3750 0.1250  plane waves:    1812
 k-point 29 :   0.5000 0.3750 0.1250  plane waves:    1814
 k-point 30 :   0.5000 0.5000 0.1250  plane waves:    1804
 k-point 31 :   0.0000 0.0000 0.2500  plane waves:    1836
 k-point 32 :   0.1250 0.0000 0.2500  plane waves:    1828
 k-point 33 :   0.2500 0.0000 0.2500  plane waves:    1824
 k-point 34 :   0.3750 0.0000 0.2500  plane waves:    1813
 k-point 35 :   0.5000 0.0000 0.2500  plane waves:    1802
 k-point 36 :   0.1250 0.1250 0.2500  plane waves:    1832
 k-point 37 :   0.2500 0.1250 0.2500  plane waves:    1819
 k-point 38 :   0.3750 0.1250 0.2500  plane waves:    1810
 k-point 39 :   0.5000 0.1250 0.2500  plane waves:    1812
 k-point 40 :   0.2500 0.2500 0.2500  plane waves:    1811
 k-point 41 :   0.3750 0.2500 0.2500  plane waves:    1821
 k-point 42 :   0.5000 0.2500 0.2500  plane waves:    1818
 k-point 43 :   0.3750 0.3750 0.2500  plane waves:    1823
 k-point 44 :   0.5000 0.3750 0.2500  plane waves:    1810
 k-point 45 :   0.5000 0.5000 0.2500  plane waves:    1820
 k-point 46 :   0.0000 0.0000 0.3750  plane waves:    1848
 k-point 47 :   0.1250 0.0000 0.3750  plane waves:    1832
 k-point 48 :   0.2500 0.0000 0.3750  plane waves:    1828
 k-point 49 :   0.3750 0.0000 0.3750  plane waves:    1815
 k-point 50 :   0.5000 0.0000 0.3750  plane waves:    1794
 k-point 51 :   0.1250 0.1250 0.3750  plane waves:    1833
 k-point 52 :   0.2500 0.1250 0.3750  plane waves:    1830
 k-point 53 :   0.3750 0.1250 0.3750  plane waves:    1811
 k-point 54 :   0.5000 0.1250 0.3750  plane waves:    1808
 k-point 55 :   0.2500 0.2500 0.3750  plane waves:    1811
 k-point 56 :   0.3750 0.2500 0.3750  plane waves:    1815
 k-point 57 :   0.5000 0.2500 0.3750  plane waves:    1818
 k-point 58 :   0.3750 0.3750 0.3750  plane waves:    1814
 k-point 59 :   0.5000 0.3750 0.3750  plane waves:    1822
 k-point 60 :   0.5000 0.5000 0.3750  plane waves:    1820
 k-point 61 :   0.0000 0.0000 0.5000  plane waves:    1840
 k-point 62 :   0.1250 0.0000 0.5000  plane waves:    1840
 k-point 63 :   0.2500 0.0000 0.5000  plane waves:    1844
 k-point 64 :   0.3750 0.0000 0.5000  plane waves:    1822
 k-point 65 :   0.5000 0.0000 0.5000  plane waves:    1804
 k-point 66 :   0.1250 0.1250 0.5000  plane waves:    1832
 k-point 67 :   0.2500 0.1250 0.5000  plane waves:    1816
 k-point 68 :   0.3750 0.1250 0.5000  plane waves:    1808
 k-point 69 :   0.5000 0.1250 0.5000  plane waves:    1816
 k-point 70 :   0.2500 0.2500 0.5000  plane waves:    1822
 k-point 71 :   0.3750 0.2500 0.5000  plane waves:    1816
 k-point 72 :   0.5000 0.2500 0.5000  plane waves:    1820
 k-point 73 :   0.3750 0.3750 0.5000  plane waves:    1814
 k-point 74 :   0.5000 0.3750 0.5000  plane waves:    1816
 k-point 75 :   0.5000 0.5000 0.5000  plane waves:    1816

 maximum and minimum number of plane-waves per node :      1848     1794

 maximum number of plane-waves:      1848
 maximum index in each direction: 
   IXMAX=    7   IYMAX=    7   IZMAX=    7
   IXMIN=   -7   IYMIN=   -7   IZMIN=   -8

 NGX is ok and might be reduce to  30
 NGY is ok and might be reduce to  30
 NGZ is ok and might be reduce to  32

 serial   3D FFT for wavefunctions
 parallel 3D FFT for charge:
    minimum data exchange during FFTs selected (reduces bandwidth)


 total amount of memory used by VASP on root node    53643. kBytes
========================================================================

   base      :      30000. kBytes
   nonlr-proj:       3455. kBytes
   fftplans  :       1162. kBytes
   grid      :       5105. kBytes
   one-center:        155. kBytes
   wavefun   :      13766. kBytes
 
     INWAV:  cpu time    0.49: real time    0.49
 Broyden mixing: mesh for mixing (old mesh)
   NGX = 15   NGY = 15   NGZ = 15
  (NGX  = 60   NGY  = 60   NGZ  = 64)
  gives a total of   3375 points

 charge density for first step will be calculated from the start-wavefunctions


--------------------------------------------------------------------------------------------------------


 Maximum index for non-local projection operator         8157
 Maximum index for augmentation-charges         3792 (set IRDMAX)


--------------------------------------------------------------------------------------------------------


 initial charge from wavefunction
 First call to EWALD:  gamma=   0.435
 Maximum number of real-space cells 3x 3x 3
 Maximum number of reciprocal cells 3x 3x 3

 FEWALD executed in parallel
    FEWALD:  cpu time    0.00: real time    0.00


----------------------------------------- Iteration    1(   1)  ---------------------------------------


    POTLOK:  cpu time    0.09: real time    0.09
    SETDIJ:  cpu time    0.02: real time    0.02
     EDDAV:  cpu time   11.77: real time   11.77
 BZINTS: Fermi energy:  3.100253; 38.000000 electrons
         Band energy:-335.069097;  BLOECHL correction:  0.000000
       DOS:  cpu time    0.01: real time    0.01
    CHARGE:  cpu time    0.84: real time    0.84
    MIXING:  cpu time    0.00: real time    0.00
    --------------------------------------------
      LOOP:  cpu time   12.74: real time   12.74

 eigenvalue-minimisations  :  6968
 total energy-change (2. order) :-0.3994315E+02  (-0.1016676E-03)
 number of electron      37.9999981 magnetization       0.0000000
 augmentation part        4.8162523 magnetization      -0.0000014

 Broyden mixing:
  rms(total) = 0.94743E-02    rms(broyden)= 0.94722E-02
  rms(prec ) = 0.20051E-01
  weight for this iteration     100.00

 Free energy of the ion-electron system (eV)
  ---------------------------------------------------
  alpha Z        PSCENC =       248.24775878
  Ewald energy   TEWEN  =     -2470.23209786
  -Hartree energ DENC   =      -660.71449030
  -exchange      EXHF   =         0.00000000
  -V(xc)+E(xc)   XCENC  =       146.52873351
  PAW double counting   =      3650.09740159    -3659.32837723
  entropy T*S    EENTRO =         0.00000000
  eigenvalues    EBANDS =      -335.06909747
  atomic energy  EATOM  =      3040.52701931
  ---------------------------------------------------
  free energy    TOTEN  =       -39.94314969 eV

  energy without entropy =      -39.94314969  energy(sigma->0) =      -39.94314969


--------------------------------------------------------------------------------------------------------




----------------------------------------- Iteration    1(   2)  ---------------------------------------


    POTLOK:  cpu time    0.09: real time    0.09
    SETDIJ:  cpu time    0.02: real time    0.02
     EDDAV:  cpu time   14.32: real time   14.33
 BZINTS: Fermi energy:  3.098148; 38.000000 electrons
         Band energy:-334.969667;  BLOECHL correction:  0.000000
       DOS:  cpu time    0.01: real time    0.01
    --------------------------------------------
      LOOP:  cpu time   14.45: real time   14.45

 eigenvalue-minimisations  :  8944
 total energy-change (2. order) : 0.4380918E-04  (-0.1266543E-03)
 number of electron      37.9999981 magnetization       0.0000000
 augmentation part        4.8162523 magnetization      -0.0000014

 Free energy of the ion-electron system (eV)
  ---------------------------------------------------
  alpha Z        PSCENC =       248.24775878
  Ewald energy   TEWEN  =     -2470.23209786
  -Hartree energ DENC   =      -660.81347064
  -exchange      EXHF   =         0.00000000
  -V(xc)+E(xc)   XCENC  =       146.53966289
  PAW double counting   =      3650.21658282    -3659.45889429
  entropy T*S    EENTRO =         0.00000000
  eigenvalues    EBANDS =      -334.96966688
  atomic energy  EATOM  =      3040.52701931
  ---------------------------------------------------
  free energy    TOTEN  =       -39.94310588 eV

[...]
     10      -7.4036      1.00000
     11      -1.1044      1.00000
     12      -0.6456      1.00000
     13      -0.3246      1.00000
     14      -0.0923      1.00000
     15       0.3826      1.00000
     16       0.5035      1.00000
     17       2.1508      1.00000
     18       2.3852      1.00000
     19       2.4780      1.00000
     20       6.4632      0.00000
     21       6.5197      0.00000
     22       6.6482      0.00000
     23       8.8912      0.00000
     24       9.5682      0.00000

 k-point    72 :       0.5000    0.2500    0.5000
  band No.  band energies     occupation 
      1     -30.0806      1.00000
      2     -29.9702      1.00000
      3     -29.9451      1.00000
      4     -22.0108      1.00000
      5     -13.4230      1.00000
      6     -13.2846      1.00000
      7     -13.0844      1.00000
      8      -7.7166      1.00000
      9      -7.6093      1.00000
     10      -7.4934      1.00000
     11      -1.2306      1.00000
     12      -0.7107      1.00000
     13      -0.2863      1.00000
     14      -0.1094      1.00000
     15       0.3603      1.00000
     16       0.4089      1.00000
     17       2.1827      1.00000
     18       2.4763      1.00000
     19       2.5673      1.00000
     20       6.5127      0.00000
     21       6.6491      0.00000
     22       6.7644      0.00000
     23       8.8131      0.00000
     24       9.7307      0.00000

 k-point    73 :       0.3750    0.3750    0.5000
  band No.  band energies     occupation 
      1     -30.0801      1.00000
      2     -29.9624      1.00000
      3     -29.9623      1.00000
      4     -21.9978      1.00000
      5     -13.3792      1.00000
      6     -13.1905      1.00000
      7     -13.0389      1.00000
      8      -7.8994      1.00000
      9      -7.7439      1.00000
     10      -7.6298      1.00000
     11      -1.2154      1.00000
     12      -0.6218      1.00000
     13      -0.5758      1.00000
     14       0.0601      1.00000
     15       0.3461      1.00000
     16       0.3985      1.00000
     17       2.3940      1.00000
     18       2.5133      1.00000
     19       2.7355      1.00000
     20       6.6983      0.00000
     21       6.7185      0.00000
     22       6.7769      0.00000
     23       9.1352      0.00000
     24       9.4700      0.00000

 k-point    74 :       0.5000    0.3750    0.5000
  band No.  band energies     occupation 
      1     -30.0798      1.00000
      2     -29.9694      1.00000
      3     -29.9620      1.00000
      4     -21.9881      1.00000
      5     -13.3637      1.00000
      6     -13.0949      1.00000
      7     -13.0346      1.00000
      8      -7.9202      1.00000
      9      -7.8888      1.00000
     10      -7.7130      1.00000
     11      -1.3288      1.00000
     12      -0.7161      1.00000
     13      -0.5943      1.00000
     14       0.1899      1.00000
     15       0.3163      1.00000
     16       0.3948      1.00000
     17       2.4564      1.00000
     18       2.5760      1.00000
     19       2.8768      1.00000
     20       6.7523      0.00000
     21       6.8284      0.00000
     22       6.8833      0.00000
     23       8.9687      0.00000
     24       9.4968      0.00000

 k-point    75 :       0.5000    0.5000    0.5000
  band No.  band energies     occupation 
      1     -30.0794      1.00000
      2     -29.9690      1.00000
      3     -29.9690      1.00000
      4     -21.9786      1.00000
      5     -13.3384      1.00000
      6     -13.0135      1.00000
      7     -13.0135      1.00000
      8      -8.0027      1.00000
      9      -8.0027      1.00000
     10      -7.7949      1.00000
     11      -1.4270      1.00000
     12      -0.7638      1.00000
     13      -0.6926      1.00000
     14       0.2808      1.00000
     15       0.3954      1.00000
     16       0.3954      1.00000
     17       2.5882      1.00000
     18       2.5882      1.00000
     19       3.0390      1.00000
     20       6.8708      0.00000
     21       6.8708      0.00000
     22       6.9803      0.00000
     23       8.9029      0.00000
     24       9.3307      0.00000


--------------------------------------------------------------------------------------------------------


 soft charge-density along one line, spin component           1
         0         1         2         3         4         5         6         7         8         9
 total charge-density along one line
 
 soft charge-density along one line, spin component           2
         0         1         2         3         4         5         6         7         8         9
 total charge-density along one line
 
 pseudopotential strength for first ion, spin component:           1
  1.307  -5.118   0.000  -0.008   0.000   0.000   0.001   0.000
 -5.118   0.738  -0.000   0.005  -0.000   0.000  -0.002   0.000
  0.000  -0.000  -7.657   0.000   0.000   4.478   0.000   0.000
 -0.008   0.005   0.000  -7.659   0.000   0.000   4.476   0.000
  0.000  -0.000   0.000   0.000  -7.657   0.000   0.000   4.478
  0.000   0.000   4.478   0.000   0.000   6.736  -0.000  -0.000
  0.001  -0.002   0.000   4.476   0.000  -0.000   6.738  -0.000
  0.000   0.000   0.000   0.000   4.478  -0.000  -0.000   6.736
  0.000  -0.000  -0.000  -0.000   0.000  -0.000  -0.000   0.000
  0.000  -0.000  -0.003   0.000  -0.000  -0.001   0.000  -0.000
 -0.001   0.001  -0.000  -0.003  -0.000  -0.000  -0.000  -0.000
  0.000  -0.000  -0.000   0.000  -0.003  -0.000   0.000  -0.001
 -0.000   0.000  -0.000   0.000   0.000  -0.000   0.000   0.000
  0.000  -0.000   0.000  -0.000   0.000  -0.000  -0.000   0.000
  0.000  -0.000  -0.004   0.000  -0.000  -0.001   0.000  -0.000
 -0.002   0.001  -0.000  -0.004  -0.000  -0.000  -0.001  -0.000
  0.000  -0.000  -0.000   0.000  -0.004  -0.000   0.000  -0.001
 -0.000   0.000  -0.000   0.000   0.000  -0.000   0.000   0.000
 pseudopotential strength for first ion, spin component:           2
  1.307  -5.118   0.000  -0.008   0.000   0.000   0.001   0.000
 -5.118   0.738  -0.000   0.005  -0.000   0.000  -0.002   0.000
  0.000  -0.000  -7.657   0.000  -0.000   4.478   0.000  -0.000
 -0.008   0.005   0.000  -7.659   0.000   0.000   4.476   0.000
  0.000  -0.000  -0.000   0.000  -7.657  -0.000   0.000   4.478
  0.000   0.000   4.478   0.000  -0.000   6.736  -0.000   0.000
  0.001  -0.002   0.000   4.476   0.000  -0.000   6.738  -0.000
  0.000   0.000  -0.000   0.000   4.478   0.000  -0.000   6.736
 -0.000   0.000  -0.000   0.000   0.000  -0.000   0.000   0.000
  0.000  -0.000  -0.003   0.000   0.000  -0.001   0.000   0.000
 -0.001   0.001  -0.000  -0.003  -0.000  -0.000  -0.000  -0.000
  0.000  -0.000   0.000   0.000  -0.003   0.000   0.000  -0.001
 -0.000   0.000  -0.000   0.000   0.000  -0.000   0.000   0.000
 -0.000   0.000  -0.000   0.000   0.000  -0.000   0.000   0.000
  0.000  -0.000  -0.004   0.000   0.000  -0.001   0.000   0.000
 -0.002   0.001  -0.000  -0.004  -0.000  -0.000  -0.001  -0.000
  0.000  -0.000   0.000   0.000  -0.004   0.000   0.000  -0.001
 -0.000   0.000  -0.000   0.000   0.000  -0.000   0.000   0.000
 total augmentation occupancy for first ion, spin component:           1
  2.004  -0.005   0.000  -0.001   0.000   0.000  -0.001   0.000   0.000   0.000  -0.003   0.000   0.000   0.000   0.000   0.000
 -0.005   0.386   0.000  -0.027   0.000   0.000   0.006   0.000   0.000   0.000  -0.026   0.000   0.000   0.000  -0.000   0.015
  0.000   0.000   2.020  -0.000   0.000  -0.008   0.000   0.000   0.000  -0.042  -0.000   0.000   0.000   0.000   0.017   0.000
 -0.001  -0.027  -0.000   2.021   0.000   0.000  -0.010   0.000   0.000   0.000  -0.027   0.000   0.000   0.000   0.000   0.010
  0.000   0.000   0.000   0.000   2.020   0.000   0.000  -0.008   0.000   0.000   0.000  -0.042   0.000  -0.000   0.000   0.000
  0.000   0.000  -0.008   0.000   0.000   0.010  -0.000   0.000   0.000   0.013   0.000   0.000   0.000   0.000  -0.007   0.000
 -0.001   0.006   0.000  -0.010   0.000  -0.000   0.009   0.000   0.000  -0.000   0.010   0.000   0.000   0.000   0.000  -0.006
  0.000   0.000   0.000   0.000  -0.008   0.000   0.000   0.010  -0.000   0.000   0.000   0.013   0.000  -0.000   0.000   0.000
  0.000   0.000   0.000   0.000   0.000   0.000   0.000  -0.000   2.835   0.000   0.000   0.000   0.000  -1.509   0.000   0.000
  0.000   0.000  -0.042   0.000   0.000   0.013  -0.000   0.000   0.000   2.591  -0.000   0.000   0.000   0.000  -1.368   0.000
 -0.003  -0.026   0.000  -0.027   0.000   0.000   0.010   0.000   0.000  -0.000   1.747   0.000   0.000   0.000   0.000  -0.920
  0.000   0.000   0.000   0.000  -0.042   0.000   0.000   0.013  -0.000   0.000   0.000   2.591   0.000   0.000   0.000   0.000
  0.000   0.000   0.000   0.000   0.000   0.000   0.000   0.000   0.000   0.000   0.000   0.000   1.639   0.000   0.000   0.000
  0.000   0.000   0.000   0.000  -0.000   0.000   0.000  -0.000  -1.509   0.000   0.000  -0.000   0.000   0.804   0.000   0.000
  0.000   0.000   0.017  -0.000   0.000  -0.007   0.000   0.000   0.000  -1.368   0.000   0.000   0.000   0.000   0.724   0.000
  0.000   0.015  -0.000   0.010   0.000   0.000  -0.006   0.000   0.000  -0.000  -0.920   0.000   0.000   0.000   0.000   0.485
  0.000   0.000   0.000   0.000   0.017   0.000   0.000  -0.007   0.000   0.000   0.000  -1.368   0.000   0.000   0.000   0.000
  0.000   0.000   0.000   0.000   0.000   0.000   0.000   0.000  -0.000   0.000   0.000   0.000  -0.859   0.000   0.000   0.000
 total augmentation occupancy for first ion, spin component:           2
 -0.000  -0.000   0.000  -0.000   0.000   0.000  -0.000   0.000   0.000   0.000   0.000   0.000   0.000   0.000   0.000  -0.000
 -0.000   0.000   0.000  -0.000   0.000   0.000   0.000   0.000   0.000   0.000   0.000   0.000   0.000   0.000   0.000  -0.000
  0.000   0.000  -0.000   0.000   0.000   0.000   0.000   0.000   0.000   0.000   0.000   0.000   0.000   0.000  -0.000   0.000
 -0.000  -0.000   0.000  -0.000   0.000   0.000   0.000   0.000   0.000  -0.000   0.000   0.000   0.000   0.000   0.000  -0.000
  0.000   0.000   0.000   0.000  -0.000   0.000   0.000   0.000   0.000   0.000   0.000   0.000   0.000   0.000   0.000   0.000
  0.000   0.000   0.000   0.000   0.000  -0.000   0.000   0.000   0.000  -0.000  -0.000   0.000   0.000   0.000   0.000   0.000
 -0.000   0.000   0.000   0.000   0.000   0.000  -0.000   0.000   0.000   0.000   0.000   0.000   0.000   0.000   0.000  -0.000
  0.000   0.000   0.000   0.000   0.000   0.000   0.000  -0.000   0.000  -0.000   0.000  -0.000   0.000  -0.000   0.000   0.000
  0.000   0.000   0.000   0.000   0.000   0.000   0.000   0.000   0.000   0.000   0.000   0.000   0.000  -0.000  -0.000   0.000
  0.000   0.000   0.000  -0.000   0.000  -0.000   0.000  -0.000   0.000   0.000  -0.000   0.000   0.000   0.000  -0.000   0.000
  0.000   0.000   0.000   0.000   0.000  -0.000   0.000   0.000   0.000  -0.000   0.000   0.000   0.000   0.000   0.000  -0.000
  0.000   0.000   0.000   0.000   0.000   0.000   0.000  -0.000   0.000   0.000   0.000   0.000  -0.000   0.000   0.000   0.000
  0.000   0.000   0.000   0.000   0.000   0.000   0.000   0.000   0.000   0.000   0.000  -0.000   0.000   0.000   0.000   0.000
  0.000   0.000   0.000   0.000   0.000   0.000   0.000  -0.000  -0.000   0.000   0.000   0.000   0.000   0.000   0.000   0.000
  0.000   0.000  -0.000   0.000   0.000   0.000   0.000   0.000  -0.000  -0.000   0.000   0.000   0.000   0.000   0.000   0.000
 -0.000  -0.000   0.000  -0.000   0.000   0.000  -0.000   0.000   0.000   0.000  -0.000   0.000   0.000   0.000   0.000   0.000
  0.000   0.000   0.000   0.000  -0.000   0.000   0.000   0.000   0.000   0.000   0.000  -0.000   0.000  -0.000   0.000   0.000
  0.000   0.000  -0.000   0.000   0.000   0.000   0.000  -0.000   0.000   0.000   0.000   0.000  -0.000  -0.000   0.000   0.000


------------------------ aborting loop because EDIFF is reached ----------------------------------------


     CALCP:  cpu time  156.40: real time  156.35
 
            Ionic dipole moment: p[ion]=(     0.00000     0.00000    -5.56684 ) electrons Angst
 
    Spin resolved dipole moment: p[sp1]=(     2.00068    -2.00068     1.80837 ) electrons Angst
                                 p[sp2]=(    -2.00044     2.00087     1.80837 ) electrons Angst
 
 Total electronic dipole moment: p[elc]=(     0.00024     0.00019     3.61674 ) electrons Angst
 
 
 


 total charge     
 
# of ion     s       p       d       tot
----------------------------------------
  1        2.005   5.644   0.300   7.949
  2        0.310   6.416   1.970   8.696
  3        1.573   3.331   0.000   4.904
  4        1.551   3.573   0.000   5.124
  5        1.570   3.447   0.000   5.017
------------------------------------------------
tot        7.009  22.411   2.270  31.690
 


 magnetization (x)
 
# of ion     s       p       d       tot
----------------------------------------
  1       -0.000  -0.000  -0.000  -0.000
  2       -0.000  -0.000  -0.000  -0.000
  3       -0.000   0.000   0.000   0.000
  4       -0.000   0.000   0.000  -0.000
  5        0.000   0.000   0.000   0.000
------------------------------------------------
tot        0.000   0.000  -0.000   0.000
 
    CHARGE:  cpu time    0.84: real time    0.85
    FORLOC:  cpu time    0.00: real time    0.00
    FORNL :  cpu time    3.70: real time    3.70
    STRESS:  cpu time   10.85: real time   10.85
    FORCOR:  cpu time    0.09: real time    0.09
    FORHAR:  cpu time    0.01: real time    0.01
    MIXING:  cpu time    0.00: real time    0.00
    OFIELD:  cpu time    0.00: real time    0.00

  FORCE on cell =-STRESS in cart. coord.  units (eV):
  Direction    XX          YY          ZZ          XY          YZ          ZX
  --------------------------------------------------------------------------------------
  Alpha Z   248.24776   248.24776   248.24776
  Ewald    -811.55432  -811.55432  -847.12548     0.00000     0.00000     0.00000
  Hartree   230.75080   230.75080   199.44558    -0.00000    -0.00000    -0.00000
  E(xc)    -171.32311  -171.32311  -171.41044     0.00000    -0.00000     0.00000
  Local     -58.33309   -58.33309     9.35290    -0.00000    -0.00000     0.00000
  n-local  -129.00210  -126.90702  -128.44621    -0.30807    -0.26838    -0.23975
  augment    63.20085    63.20085    62.84554     0.00000     0.00000     0.00000
  Kinetic   621.31788   632.59296   627.06673    -2.47476    -2.32032    -2.08777
  Fock        0.00000     0.00000     0.00000     0.00000     0.00000     0.00000
  -------------------------------------------------------------------------------------
  Total      -0.01025    -0.01025    -0.02363     0.00000     0.00000     0.00000
  in kB      -0.24322    -0.24322    -0.56084     0.00000     0.00000     0.00000
  external pressure =       -0.35 kB  Pullay stress =        0.00 kB


 VOLUME and BASIS-vectors are now :
 -----------------------------------------------------------------------------
  energy-cutoff  :      520.00
  volume of cell :       67.50
      direct lattice vectors                 reciprocal lattice vectors
     4.001368000  0.000000000  0.000000000     0.249914529  0.000000000  0.000000000
     0.000000000  4.001368000  0.000000000     0.000000000  0.249914529  0.000000000
     0.000000000  0.000000000  4.215744000     0.000000000  0.000000000  0.237206054

  length of vectors
     4.001368000  4.001368000  4.215744000     0.249914529  0.249914529  0.237206054


 FORCES acting on ions
    electron-ion (+dipol)            ewald-force                    non-local-force                 convergence-correction
 -----------------------------------------------------------------------------------------------
   -.127E-13 -.134E-13 0.686E+01   0.443E-14 -.106E-13 -.594E+01   0.000E+00 -.867E-18 -.935E+00   -.167E-13 -.268E-14 0.105E-01
   0.148E-12 0.114E-11 0.669E+02   0.559E-16 -.974E-14 -.664E+02   0.000E+00 -.694E-17 -.508E+00   -.235E-14 -.119E-13 0.279E-01
   -.553E-14 0.191E-12 0.213E+02   -.187E-14 0.903E-14 -.223E+02   0.000E+00 0.000E+00 0.101E+01   -.491E-14 -.130E-13 -.241E-01
   0.122E-12 -.217E-12 0.213E+02   0.636E-14 0.119E-13 -.223E+02   -.217E-18 0.217E-18 0.101E+01   -.147E-13 -.449E-14 -.241E-01
   0.129E-12 0.170E-11 -.107E+03   -.771E-14 -.433E-16 0.117E+03   0.000E+00 0.000E+00 -.104E+02   -.818E-14 -.231E-13 0.949E-01
 -----------------------------------------------------------------------------------------------
   0.381E-12 0.279E-11 0.977E+01   0.127E-14 0.537E-15 0.000E+00   -.217E-18 -.759E-17 -.985E+01   -.469E-13 -.553E-13 0.852E-01
 
 
 POSITION                                       TOTAL-FORCE (eV/Angst)
 -----------------------------------------------------------------------------------
      0.00000      0.00000      0.08547         0.000000      0.000000      0.000789
      2.00068      2.00068      2.27166         0.000000     -0.000000      0.021834
      0.00000      2.00068      2.07424         0.000000      0.000000      0.003339
      2.00068      0.00000      2.07424         0.000000      0.000000      0.003339
      2.00068      2.00068      4.09277         0.000000      0.000000     -0.029300
 -----------------------------------------------------------------------------------
    total drift:                                0.000000      0.000000      0.002964


--------------------------------------------------------------------------------------------------------



  FREE ENERGIE OF THE ION-ELECTRON SYSTEM (eV)
  ---------------------------------------------------
  free  energy   TOTEN  =       -39.94310588 eV

  energy  without entropy=      -39.94310588  energy(sigma->0) =      -39.94310588
 


--------------------------------------------------------------------------------------------------------


    POTLOK:  cpu time    0.11: real time    0.11


--------------------------------------------------------------------------------------------------------


     LOOP+:  cpu time  200.53: real time  200.52
    4ORBIT:  cpu time    0.00: real time    0.00
 


 total charge     
 
# of ion     s       p       d       tot
----------------------------------------
  1        2.005   5.644   0.300   7.949
  2        0.310   6.416   1.970   8.696
  3        1.573   3.331   0.000   4.904
  4        1.551   3.573   0.000   5.124
  5        1.570   3.447   0.000   5.017
------------------------------------------------
tot        7.009  22.411   2.270  31.690
 


 magnetization (x)
 
# of ion     s       p       d       tot
----------------------------------------
  1       -0.000  -0.000  -0.000  -0.000
  2       -0.000  -0.000  -0.000  -0.000
  3       -0.000   0.000   0.000   0.000
  4       -0.000   0.000   0.000  -0.000
  5        0.000   0.000   0.000   0.000
------------------------------------------------
tot        0.000   0.000  -0.000   0.000
 
 BZINTS: Fermi energy:  3.098148; 38.000000 electrons
         Band energy:-334.969667;  BLOECHL correction:  0.000000

 total amount of memory used by VASP on root node    53643. kBytes
========================================================================

   base      :      30000. kBytes
   nonlr-proj:       3455. kBytes
   fftplans  :       1162. kBytes
   grid      :       5105. kBytes
   one-center:        155. kBytes
   wavefun   :      13766. kBytes
 
  
  
 General timing and accounting informations for this job:
 ========================================================
  
                  Total CPU time used (sec):      212.408
                            User time (sec):      199.087
                          System time (sec):       13.321
                         Elapsed time (sec):      213.551
  
                   Maximum memory used (kb):      122636.
                   Average memory used (kb):           0.
  
                          Minor page faults:      4144763
                          Major page faults:            7
                 Voluntary context switches:          729
