<?xml version="1.0" encoding="ISO-8859-1"?>
<modeling>
 <generator>
  <i name="program" type="string">vasp </i>
  <i name="version" type="string">5.2.2  </i>
  <i name="subversion" type="string">15Apr09 complex  parallel </i>
  <i name="platform" type="string">unknown </i>
  <i name="date" type="string">2012 01 31 </i>
  <i name="time" type="string">14:42:05 </i>
 </generator>
 <incar>
  <i type="string" name="SYSTEM"> Al</i>
  <i type="int" name="ISTART">     1</i>
  <i type="string" name="PREC">accurate</i>
  <i type="logical" name="ADDGRID"> F  </i>
  <i type="int" name="ISPIN">     1</i>
  <i type="int" name="ICHARG">     1</i>
  <i type="int" name="IBRION">     2</i>
  <i name="EDIFF">      0.00000010</i>
  <i name="EDIFFG">      0.00000010</i>
  <i type="int" name="NSW">     5</i>
  <i type="int" name="ISIF">     2</i>
  <i name="ENCUT">    550.00000000</i>
  <i name="POTIM">      0.10000000</i>
  <i type="string" name="LREAL"> AUTO</i>
  <i type="int" name="ISMEAR">     2</i>
  <i name="SIGMA">      0.10000000</i>
  <i type="logical" name="LWAVE"> F  </i>
  <i type="logical" name="LPEAD"> F  </i>
  <i type="logical" name="LCALCPOL"> F  </i>
  <i type="logical" name="LCALCEPS"> F  </i>
  <v name="EFIELD_PEAD">      0.00000000      0.00000000      0.00000000</v>
  <i type="int" name="VOSKOWN">     1</i>
  <i type="logical" name="LEFG"> F  </i>
 </incar>
 <kpoints>
  <generation param="Gamma">
   <v type="int" name="divisions">      20       20       20 </v>
   <v name="usershift">      0.00000000       0.00000000       0.00000000 </v>
   <v name="genvec1">      0.05000000       0.00000000       0.00000000 </v>
   <v name="genvec2">      0.00000000       0.05000000       0.00000000 </v>
   <v name="genvec3">      0.00000000       0.00000000       0.05000000 </v>
   <v name="shift">      0.00000000       0.00000000       0.00000000 </v>
  </generation>
  <varray name="kpointlist" >
   <v>       0.00000000       0.00000000       0.00000000 </v>
   <v>       0.05000000       0.00000000       0.00000000 </v>
   <v>       0.10000000       0.00000000       0.00000000 </v>
   <v>       0.15000000       0.00000000       0.00000000 </v>
   <v>       0.20000000       0.00000000       0.00000000 </v>
   <v>       0.25000000       0.00000000       0.00000000 </v>
   <v>       0.30000000       0.00000000       0.00000000 </v>
   <v>       0.35000000       0.00000000       0.00000000 </v>
   <v>       0.40000000       0.00000000       0.00000000 </v>
   <v>       0.45000000       0.00000000       0.00000000 </v>
   <v>       0.50000000       0.00000000       0.00000000 </v>
   <v>       0.05000000       0.05000000       0.00000000 </v>
   <v>       0.10000000       0.05000000       0.00000000 </v>
   <v>       0.15000000       0.05000000       0.00000000 </v>
   <v>       0.20000000       0.05000000       0.00000000 </v>
   <v>       0.25000000       0.05000000       0.00000000 </v>
   <v>       0.30000000       0.05000000       0.00000000 </v>
   <v>       0.35000000       0.05000000       0.00000000 </v>
   <v>       0.40000000       0.05000000       0.00000000 </v>
   <v>       0.45000000       0.05000000       0.00000000 </v>
   <v>       0.50000000       0.05000000       0.00000000 </v>
   <v>       0.10000000       0.10000000       0.00000000 </v>
   <v>       0.15000000       0.10000000       0.00000000 </v>
   <v>       0.20000000       0.10000000       0.00000000 </v>
   <v>       0.25000000       0.10000000       0.00000000 </v>
   <v>       0.30000000       0.10000000       0.00000000 </v>
   <v>       0.35000000       0.10000000       0.00000000 </v>
   <v>       0.40000000       0.10000000       0.00000000 </v>
   <v>       0.45000000       0.10000000       0.00000000 </v>
   <v>       0.50000000       0.10000000       0.00000000 </v>
   <v>       0.15000000       0.15000000       0.00000000 </v>
   <v>       0.20000000       0.15000000       0.00000000 </v>
   <v>       0.25000000       0.15000000       0.00000000 </v>
   <v>       0.30000000       0.15000000       0.00000000 </v>
   <v>       0.35000000       0.15000000       0.00000000 </v>
   <v>       0.40000000       0.15000000       0.00000000 </v>
   <v>       0.45000000       0.15000000       0.00000000 </v>
   <v>       0.50000000       0.15000000       0.00000000 </v>
   <v>       0.20000000       0.20000000       0.00000000 </v>
   <v>       0.25000000       0.20000000       0.00000000 </v>
   <v>       0.30000000       0.20000000       0.00000000 </v>
   <v>       0.35000000       0.20000000       0.00000000 </v>
   <v>       0.40000000       0.20000000       0.00000000 </v>
   <v>       0.45000000       0.20000000       0.00000000 </v>
   <v>       0.50000000       0.20000000       0.00000000 </v>
   <v>       0.25000000       0.25000000       0.00000000 </v>
   <v>       0.30000000       0.25000000       0.00000000 </v>
   <v>       0.35000000       0.25000000       0.00000000 </v>
   <v>       0.40000000       0.25000000       0.00000000 </v>
   <v>       0.45000000       0.25000000       0.00000000 </v>
   <v>       0.50000000       0.25000000       0.00000000 </v>
   <v>       0.30000000       0.30000000       0.00000000 </v>
   <v>       0.35000000       0.30000000       0.00000000 </v>
   <v>       0.40000000       0.30000000       0.00000000 </v>
   <v>       0.45000000       0.30000000       0.00000000 </v>
   <v>       0.50000000       0.30000000       0.00000000 </v>
   <v>       0.35000000       0.35000000       0.00000000 </v>
   <v>       0.40000000       0.35000000       0.00000000 </v>
   <v>       0.45000000       0.35000000       0.00000000 </v>
   <v>       0.50000000       0.35000000       0.00000000 </v>
   <v>       0.40000000       0.40000000       0.00000000 </v>
   <v>       0.45000000       0.40000000       0.00000000 </v>
   <v>       0.50000000       0.40000000       0.00000000 </v>
   <v>       0.45000000       0.45000000       0.00000000 </v>
   <v>       0.50000000       0.45000000       0.00000000 </v>
   <v>       0.50000000       0.50000000       0.00000000 </v>
   <v>       0.00000000       0.00000000       0.05000000 </v>
   <v>       0.05000000       0.00000000       0.05000000 </v>
   <v>       0.10000000       0.00000000       0.05000000 </v>
   <v>       0.15000000       0.00000000       0.05000000 </v>
   <v>       0.20000000       0.00000000       0.05000000 </v>
   <v>       0.25000000       0.00000000       0.05000000 </v>
   <v>       0.30000000       0.00000000       0.05000000 </v>
   <v>       0.35000000       0.00000000       0.05000000 </v>
   <v>       0.40000000       0.00000000       0.05000000 </v>
   <v>       0.45000000       0.00000000       0.05000000 </v>
   <v>       0.50000000       0.00000000       0.05000000 </v>
   <v>       0.05000000       0.05000000       0.05000000 </v>
   <v>       0.10000000       0.05000000       0.05000000 </v>
   <v>       0.15000000       0.05000000       0.05000000 </v>
   <v>       0.20000000       0.05000000       0.05000000 </v>
   <v>       0.25000000       0.05000000       0.05000000 </v>
   <v>       0.30000000       0.05000000       0.05000000 </v>
   <v>       0.35000000       0.05000000       0.05000000 </v>
   <v>       0.40000000       0.05000000       0.05000000 </v>
   <v>       0.45000000       0.05000000       0.05000000 </v>
   <v>       0.50000000       0.05000000       0.05000000 </v>
   <v>       0.10000000       0.10000000       0.05000000 </v>
   <v>       0.15000000       0.10000000       0.05000000 </v>
   <v>       0.20000000       0.10000000       0.05000000 </v>
   <v>       0.25000000       0.10000000       0.05000000 </v>
   <v>       0.30000000       0.10000000       0.05000000 </v>
   <v>       0.35000000       0.10000000       0.05000000 </v>
   <v>       0.40000000       0.10000000       0.05000000 </v>
   <v>       0.45000000       0.10000000       0.05000000 </v>
   <v>       0.50000000       0.10000000       0.05000000 </v>
   <v>       0.15000000       0.15000000       0.05000000 </v>
   <v>       0.20000000       0.15000000       0.05000000 </v>
   <v>       0.25000000       0.15000000       0.05000000 </v>
   <v>       0.30000000       0.15000000       0.05000000 </v>
   <v>       0.35000000       0.15000000       0.05000000 </v>
   <v>       0.40000000       0.15000000       0.05000000 </v>
   <v>       0.45000000       0.15000000       0.05000000 </v>
   <v>       0.50000000       0.15000000       0.05000000 </v>
   <v>       0.20000000       0.20000000       0.05000000 </v>
   <v>       0.25000000       0.20000000       0.05000000 </v>
   <v>       0.30000000       0.20000000       0.05000000 </v>
   <v>       0.35000000       0.20000000       0.05000000 </v>
   <v>       0.40000000       0.20000000       0.05000000 </v>
   <v>       0.45000000       0.20000000       0.05000000 </v>
   <v>       0.50000000       0.20000000       0.05000000 </v>
   <v>       0.25000000       0.25000000       0.05000000 </v>
   <v>       0.30000000       0.25000000       0.05000000 </v>
   <v>       0.35000000       0.25000000       0.05000000 </v>
   <v>       0.40000000       0.25000000       0.05000000 </v>
   <v>       0.45000000       0.25000000       0.05000000 </v>
   <v>       0.50000000       0.25000000       0.05000000 </v>
   <v>       0.30000000       0.30000000       0.05000000 </v>
   <v>       0.35000000       0.30000000       0.05000000 </v>
   <v>       0.40000000       0.30000000       0.05000000 </v>
   <v>       0.45000000       0.30000000       0.05000000 </v>
   <v>       0.50000000       0.30000000       0.05000000 </v>
   <v>       0.35000000       0.35000000       0.05000000 </v>
   <v>       0.40000000       0.35000000       0.05000000 </v>
   <v>       0.45000000       0.35000000       0.05000000 </v>
   <v>       0.50000000       0.35000000       0.05000000 </v>
   <v>       0.40000000       0.40000000       0.05000000 </v>
   <v>       0.45000000       0.40000000       0.05000000 </v>
   <v>       0.50000000       0.40000000       0.05000000 </v>
   <v>       0.45000000       0.45000000       0.05000000 </v>
   <v>       0.50000000       0.45000000       0.05000000 </v>
   <v>       0.50000000       0.50000000       0.05000000 </v>
   <v>       0.00000000       0.00000000       0.10000000 </v>
   <v>       0.05000000       0.00000000       0.10000000 </v>
   <v>       0.10000000       0.00000000       0.10000000 </v>
   <v>       0.15000000       0.00000000       0.10000000 </v>
   <v>       0.20000000       0.00000000       0.10000000 </v>
   <v>       0.25000000       0.00000000       0.10000000 </v>
   <v>       0.30000000       0.00000000       0.10000000 </v>
   <v>       0.35000000       0.00000000       0.10000000 </v>
   <v>       0.40000000       0.00000000       0.10000000 </v>
   <v>       0.45000000       0.00000000       0.10000000 </v>
   <v>       0.50000000       0.00000000       0.10000000 </v>
   <v>       0.05000000       0.05000000       0.10000000 </v>
   <v>       0.10000000       0.05000000       0.10000000 </v>
   <v>       0.15000000       0.05000000       0.10000000 </v>
   <v>       0.20000000       0.05000000       0.10000000 </v>
   <v>       0.25000000       0.05000000       0.10000000 </v>
   <v>       0.30000000       0.05000000       0.10000000 </v>
   <v>       0.35000000       0.05000000       0.10000000 </v>
   <v>       0.40000000       0.05000000       0.10000000 </v>
   <v>       0.45000000       0.05000000       0.10000000 </v>
   <v>       0.50000000       0.05000000       0.10000000 </v>
   <v>       0.10000000       0.10000000       0.10000000 </v>
   <v>       0.15000000       0.10000000       0.10000000 </v>
   <v>       0.20000000       0.10000000       0.10000000 </v>
   <v>       0.25000000       0.10000000       0.10000000 </v>
   <v>       0.30000000       0.10000000       0.10000000 </v>
   <v>       0.35000000       0.10000000       0.10000000 </v>
   <v>       0.40000000       0.10000000       0.10000000 </v>
   <v>       0.45000000       0.10000000       0.10000000 </v>
   <v>       0.50000000       0.10000000       0.10000000 </v>
   <v>       0.15000000       0.15000000       0.10000000 </v>
   <v>       0.20000000       0.15000000       0.10000000 </v>
   <v>       0.25000000       0.15000000       0.10000000 </v>
   <v>       0.30000000       0.15000000       0.10000000 </v>
   <v>       0.35000000       0.15000000       0.10000000 </v>
   <v>       0.40000000       0.15000000       0.10000000 </v>
   <v>       0.45000000       0.15000000       0.10000000 </v>
   <v>       0.50000000       0.15000000       0.10000000 </v>
   <v>       0.20000000       0.20000000       0.10000000 </v>
   <v>       0.25000000       0.20000000       0.10000000 </v>
   <v>       0.30000000       0.20000000       0.10000000 </v>
   <v>       0.35000000       0.20000000       0.10000000 </v>
   <v>       0.40000000       0.20000000       0.10000000 </v>
   <v>       0.45000000       0.20000000       0.10000000 </v>
   <v>       0.50000000       0.20000000       0.10000000 </v>
   <v>       0.25000000       0.25000000       0.10000000 </v>
   <v>       0.30000000       0.25000000       0.10000000 </v>
   <v>       0.35000000       0.25000000       0.10000000 </v>
   <v>       0.40000000       0.25000000       0.10000000 </v>
   <v>       0.45000000       0.25000000       0.10000000 </v>
   <v>       0.50000000       0.25000000       0.10000000 </v>
   <v>       0.30000000       0.30000000       0.10000000 </v>
   <v>       0.35000000       0.30000000       0.10000000 </v>
   <v>       0.40000000       0.30000000       0.10000000 </v>
   <v>       0.45000000       0.30000000       0.10000000 </v>
   <v>       0.50000000       0.30000000       0.10000000 </v>
   <v>       0.35000000       0.35000000       0.10000000 </v>
   <v>       0.40000000       0.35000000       0.10000000 </v>
   <v>       0.45000000       0.35000000       0.10000000 </v>
   <v>       0.50000000       0.35000000       0.10000000 </v>
   <v>       0.40000000       0.40000000       0.10000000 </v>
   <v>       0.45000000       0.40000000       0.10000000 </v>
   <v>       0.50000000       0.40000000       0.10000000 </v>
   <v>       0.45000000       0.45000000       0.10000000 </v>
   <v>       0.50000000       0.45000000       0.10000000 </v>
   <v>       0.50000000       0.50000000       0.10000000 </v>
   <v>       0.00000000       0.00000000       0.15000000 </v>
   <v>       0.05000000       0.00000000       0.15000000 </v>
   <v>       0.10000000       0.00000000       0.15000000 </v>
   <v>       0.15000000       0.00000000       0.15000000 </v>
   <v>       0.20000000       0.00000000       0.15000000 </v>
   <v>       0.25000000       0.00000000       0.15000000 </v>
   <v>       0.30000000       0.00000000       0.15000000 </v>
   <v>       0.35000000       0.00000000       0.15000000 </v>
   <v>       0.40000000       0.00000000       0.15000000 </v>
   <v>       0.45000000       0.00000000       0.15000000 </v>
   <v>       0.50000000       0.00000000       0.15000000 </v>
   <v>       0.05000000       0.05000000       0.15000000 </v>
   <v>       0.10000000       0.05000000       0.15000000 </v>
   <v>       0.15000000       0.05000000       0.15000000 </v>
   <v>       0.20000000       0.05000000       0.15000000 </v>
   <v>       0.25000000       0.05000000       0.15000000 </v>
   <v>       0.30000000       0.05000000       0.15000000 </v>
   <v>       0.35000000       0.05000000       0.15000000 </v>
   <v>       0.40000000       0.05000000       0.15000000 </v>
   <v>       0.45000000       0.05000000       0.15000000 </v>
   <v>       0.50000000       0.05000000       0.15000000 </v>
   <v>       0.10000000       0.10000000       0.15000000 </v>
   <v>       0.15000000       0.10000000       0.15000000 </v>
   <v>       0.20000000       0.10000000       0.15000000 </v>
   <v>       0.25000000       0.10000000       0.15000000 </v>
   <v>       0.30000000       0.10000000       0.15000000 </v>
   <v>       0.35000000       0.10000000       0.15000000 </v>
   <v>       0.40000000       0.10000000       0.15000000 </v>
   <v>       0.45000000       0.10000000       0.15000000 </v>
   <v>       0.50000000       0.10000000       0.15000000 </v>
   <v>       0.15000000       0.15000000       0.15000000 </v>
   <v>       0.20000000       0.15000000       0.15000000 </v>
   <v>       0.25000000       0.15000000       0.15000000 </v>
   <v>       0.30000000       0.15000000       0.15000000 </v>
   <v>       0.35000000       0.15000000       0.15000000 </v>
   <v>       0.40000000       0.15000000       0.15000000 </v>
   <v>       0.45000000       0.15000000       0.15000000 </v>
   <v>       0.50000000       0.15000000       0.15000000 </v>
   <v>       0.20000000       0.20000000       0.15000000 </v>
   <v>       0.25000000       0.20000000       0.15000000 </v>
   <v>       0.30000000       0.20000000       0.15000000 </v>
   <v>       0.35000000       0.20000000       0.15000000 </v>
   <v>       0.40000000       0.20000000       0.15000000 </v>
   <v>       0.45000000       0.20000000       0.15000000 </v>
   <v>       0.50000000       0.20000000       0.15000000 </v>
   <v>       0.25000000       0.25000000       0.15000000 </v>
   <v>       0.30000000       0.25000000       0.15000000 </v>
   <v>       0.35000000       0.25000000       0.15000000 </v>
   <v>       0.40000000       0.25000000       0.15000000 </v>
   <v>       0.45000000       0.25000000       0.15000000 </v>
   <v>       0.50000000       0.25000000       0.15000000 </v>
   <v>       0.30000000       0.30000000       0.15000000 </v>
   <v>       0.35000000       0.30000000       0.15000000 </v>
   <v>       0.40000000       0.30000000       0.15000000 </v>
   <v>       0.45000000       0.30000000       0.15000000 </v>
   <v>       0.50000000       0.30000000       0.15000000 </v>
   <v>       0.35000000       0.35000000       0.15000000 </v>
   <v>       0.40000000       0.35000000       0.15000000 </v>
   <v>       0.45000000       0.35000000       0.15000000 </v>
   <v>       0.50000000       0.35000000       0.15000000 </v>
   <v>       0.40000000       0.40000000       0.15000000 </v>
   <v>       0.45000000       0.40000000       0.15000000 </v>
   <v>       0.50000000       0.40000000       0.15000000 </v>
   <v>       0.45000000       0.45000000       0.15000000 </v>
   <v>       0.50000000       0.45000000       0.15000000 </v>
   <v>       0.50000000       0.50000000       0.15000000 </v>
   <v>       0.00000000       0.00000000       0.20000000 </v>
   <v>       0.05000000       0.00000000       0.20000000 </v>
   <v>       0.10000000       0.00000000       0.20000000 </v>
   <v>       0.15000000       0.00000000       0.20000000 </v>
   <v>       0.20000000       0.00000000       0.20000000 </v>
   <v>       0.25000000       0.00000000       0.20000000 </v>
   <v>       0.30000000       0.00000000       0.20000000 </v>
   <v>       0.35000000       0.00000000       0.20000000 </v>
   <v>       0.40000000       0.00000000       0.20000000 </v>
   <v>       0.45000000       0.00000000       0.20000000 </v>
   <v>       0.50000000       0.00000000       0.20000000 </v>
   <v>       0.05000000       0.05000000       0.20000000 </v>
   <v>       0.10000000       0.05000000       0.20000000 </v>
   <v>       0.15000000       0.05000000       0.20000000 </v>
   <v>       0.20000000       0.05000000       0.20000000 </v>
   <v>       0.25000000       0.05000000       0.20000000 </v>
   <v>       0.30000000       0.05000000       0.20000000 </v>
   <v>       0.35000000       0.05000000       0.20000000 </v>
   <v>       0.40000000       0.05000000       0.20000000 </v>
   <v>       0.45000000       0.05000000       0.20000000 </v>
   <v>       0.50000000       0.05000000       0.20000000 </v>
   <v>       0.10000000       0.10000000       0.20000000 </v>
   <v>       0.15000000       0.10000000       0.20000000 </v>
   <v>       0.20000000       0.10000000       0.20000000 </v>
   <v>       0.25000000       0.10000000       0.20000000 </v>
   <v>       0.30000000       0.10000000       0.20000000 </v>
   <v>       0.35000000       0.10000000       0.20000000 </v>
   <v>       0.40000000       0.10000000       0.20000000 </v>
   <v>       0.45000000       0.10000000       0.20000000 </v>
   <v>       0.50000000       0.10000000       0.20000000 </v>
   <v>       0.15000000       0.15000000       0.20000000 </v>
   <v>       0.20000000       0.15000000       0.20000000 </v>
   <v>       0.25000000       0.15000000       0.20000000 </v>
   <v>       0.30000000       0.15000000       0.20000000 </v>
   <v>       0.35000000       0.15000000       0.20000000 </v>
   <v>       0.40000000       0.15000000       0.20000000 </v>
   <v>       0.45000000       0.15000000       0.20000000 </v>
   <v>       0.50000000       0.15000000       0.20000000 </v>
   <v>       0.20000000       0.20000000       0.20000000 </v>
   <v>       0.25000000       0.20000000       0.20000000 </v>
   <v>       0.30000000       0.20000000       0.20000000 </v>
   <v>       0.35000000       0.20000000       0.20000000 </v>
   <v>       0.40000000       0.20000000       0.20000000 </v>
   <v>       0.45000000       0.20000000       0.20000000 </v>
   <v>       0.50000000       0.20000000       0.20000000 </v>
   <v>       0.25000000       0.25000000       0.20000000 </v>
   <v>       0.30000000       0.25000000       0.20000000 </v>
   <v>       0.35000000       0.25000000       0.20000000 </v>
   <v>       0.40000000       0.25000000       0.20000000 </v>
   <v>       0.45000000       0.25000000       0.20000000 </v>
   <v>       0.50000000       0.25000000       0.20000000 </v>
   <v>       0.30000000       0.30000000       0.20000000 </v>
   <v>       0.35000000       0.30000000       0.20000000 </v>
   <v>       0.40000000       0.30000000       0.20000000 </v>
   <v>       0.45000000       0.30000000       0.20000000 </v>
   <v>       0.50000000       0.30000000       0.20000000 </v>
   <v>       0.35000000       0.35000000       0.20000000 </v>
   <v>       0.40000000       0.35000000       0.20000000 </v>
   <v>       0.45000000       0.35000000       0.20000000 </v>
   <v>       0.50000000       0.35000000       0.20000000 </v>
   <v>       0.40000000       0.40000000       0.20000000 </v>
   <v>       0.45000000       0.40000000       0.20000000 </v>
   <v>       0.50000000       0.40000000       0.20000000 </v>
   <v>       0.45000000       0.45000000       0.20000000 </v>
   <v>       0.50000000       0.45000000       0.20000000 </v>
   <v>       0.50000000       0.50000000       0.20000000 </v>
   <v>       0.00000000       0.00000000       0.25000000 </v>
   <v>       0.05000000       0.00000000       0.25000000 </v>
   <v>       0.10000000       0.00000000       0.25000000 </v>
   <v>       0.15000000       0.00000000       0.25000000 </v>
   <v>       0.20000000       0.00000000       0.25000000 </v>
   <v>       0.25000000       0.00000000       0.25000000 </v>
   <v>       0.30000000       0.00000000       0.25000000 </v>
   <v>       0.35000000       0.00000000       0.25000000 </v>
   <v>       0.40000000       0.00000000       0.25000000 </v>
   <v>       0.45000000       0.00000000       0.25000000 </v>
   <v>       0.50000000       0.00000000       0.25000000 </v>
   <v>       0.05000000       0.05000000       0.25000000 </v>
   <v>       0.10000000       0.05000000       0.25000000 </v>
   <v>       0.15000000       0.05000000       0.25000000 </v>
   <v>       0.20000000       0.05000000       0.25000000 </v>
   <v>       0.25000000       0.05000000       0.25000000 </v>
   <v>       0.30000000       0.05000000       0.25000000 </v>
   <v>       0.35000000       0.05000000       0.25000000 </v>
   <v>       0.40000000       0.05000000       0.25000000 </v>
   <v>       0.45000000       0.05000000       0.25000000 </v>
   <v>       0.50000000       0.05000000       0.25000000 </v>
   <v>       0.10000000       0.10000000       0.25000000 </v>
   <v>       0.15000000       0.10000000       0.25000000 </v>
   <v>       0.20000000       0.10000000       0.25000000 </v>
   <v>       0.25000000       0.10000000       0.25000000 </v>
   <v>       0.30000000       0.10000000       0.25000000 </v>
   <v>       0.35000000       0.10000000       0.25000000 </v>
   <v>       0.40000000       0.10000000       0.25000000 </v>
   <v>       0.45000000       0.10000000       0.25000000 </v>
   <v>       0.50000000       0.10000000       0.25000000 </v>
   <v>       0.15000000       0.15000000       0.25000000 </v>
   <v>       0.20000000       0.15000000       0.25000000 </v>
   <v>       0.25000000       0.15000000       0.25000000 </v>
   <v>       0.30000000       0.15000000       0.25000000 </v>
   <v>       0.35000000       0.15000000       0.25000000 </v>
   <v>       0.40000000       0.15000000       0.25000000 </v>
   <v>       0.45000000       0.15000000       0.25000000 </v>
   <v>       0.50000000       0.15000000       0.25000000 </v>
   <v>       0.20000000       0.20000000       0.25000000 </v>
   <v>       0.25000000       0.20000000       0.25000000 </v>
   <v>       0.30000000       0.20000000       0.25000000 </v>
   <v>       0.35000000       0.20000000       0.25000000 </v>
   <v>       0.40000000       0.20000000       0.25000000 </v>
   <v>       0.45000000       0.20000000       0.25000000 </v>
   <v>       0.50000000       0.20000000       0.25000000 </v>
   <v>       0.25000000       0.25000000       0.25000000 </v>
   <v>       0.30000000       0.25000000       0.25000000 </v>
   <v>       0.35000000       0.25000000       0.25000000 </v>
   <v>       0.40000000       0.25000000       0.25000000 </v>
   <v>       0.45000000       0.25000000       0.25000000 </v>
   <v>       0.50000000       0.25000000       0.25000000 </v>
   <v>       0.30000000       0.30000000       0.25000000 </v>
   <v>       0.35000000       0.30000000       0.25000000 </v>
   <v>       0.40000000       0.30000000       0.25000000 </v>
   <v>       0.45000000       0.30000000       0.25000000 </v>
   <v>       0.50000000       0.30000000       0.25000000 </v>
   <v>       0.35000000       0.35000000       0.25000000 </v>
   <v>       0.40000000       0.35000000       0.25000000 </v>
   <v>       0.45000000       0.35000000       0.25000000 </v>
   <v>       0.50000000       0.35000000       0.25000000 </v>
   <v>       0.40000000       0.40000000       0.25000000 </v>
   <v>       0.45000000       0.40000000       0.25000000 </v>
   <v>       0.50000000       0.40000000       0.25000000 </v>
   <v>       0.45000000       0.45000000       0.25000000 </v>
   <v>       0.50000000       0.45000000       0.25000000 </v>
   <v>       0.50000000       0.50000000       0.25000000 </v>
   <v>       0.00000000       0.00000000       0.30000000 </v>
   <v>       0.05000000       0.00000000       0.30000000 </v>
   <v>       0.10000000       0.00000000       0.30000000 </v>
   <v>       0.15000000       0.00000000       0.30000000 </v>
   <v>       0.20000000       0.00000000       0.30000000 </v>
   <v>       0.25000000       0.00000000       0.30000000 </v>
   <v>       0.30000000       0.00000000       0.30000000 </v>
   <v>       0.35000000       0.00000000       0.30000000 </v>
   <v>       0.40000000       0.00000000       0.30000000 </v>
   <v>       0.45000000       0.00000000       0.30000000 </v>
   <v>       0.50000000       0.00000000       0.30000000 </v>
   <v>       0.05000000       0.05000000       0.30000000 </v>
   <v>       0.10000000       0.05000000       0.30000000 </v>
   <v>       0.15000000       0.05000000       0.30000000 </v>
   <v>       0.20000000       0.05000000       0.30000000 </v>
   <v>       0.25000000       0.05000000       0.30000000 </v>
   <v>       0.30000000       0.05000000       0.30000000 </v>
   <v>       0.35000000       0.05000000       0.30000000 </v>
   <v>       0.40000000       0.05000000       0.30000000 </v>
   <v>       0.45000000       0.05000000       0.30000000 </v>
   <v>       0.50000000       0.05000000       0.30000000 </v>
   <v>       0.10000000       0.10000000       0.30000000 </v>
   <v>       0.15000000       0.10000000       0.30000000 </v>
   <v>       0.20000000       0.10000000       0.30000000 </v>
   <v>       0.25000000       0.10000000       0.30000000 </v>
   <v>       0.30000000       0.10000000       0.30000000 </v>
   <v>       0.35000000       0.10000000       0.30000000 </v>
   <v>       0.40000000       0.10000000       0.30000000 </v>
   <v>       0.45000000       0.10000000       0.30000000 </v>
   <v>       0.50000000       0.10000000       0.30000000 </v>
   <v>       0.15000000       0.15000000       0.30000000 </v>
   <v>       0.20000000       0.15000000       0.30000000 </v>
   <v>       0.25000000       0.15000000       0.30000000 </v>
   <v>       0.30000000       0.15000000       0.30000000 </v>
   <v>       0.35000000       0.15000000       0.30000000 </v>
   <v>       0.40000000       0.15000000       0.30000000 </v>
   <v>       0.45000000       0.15000000       0.30000000 </v>
   <v>       0.50000000       0.15000000       0.30000000 </v>
   <v>       0.20000000       0.20000000       0.30000000 </v>
   <v>       0.25000000       0.20000000       0.30000000 </v>
   <v>       0.30000000       0.20000000       0.30000000 </v>
   <v>       0.35000000       0.20000000       0.30000000 </v>
   <v>       0.40000000       0.20000000       0.30000000 </v>
   <v>       0.45000000       0.20000000       0.30000000 </v>
   <v>       0.50000000       0.20000000       0.30000000 </v>
   <v>       0.25000000       0.25000000       0.30000000 </v>
   <v>       0.30000000       0.25000000       0.30000000 </v>
   <v>       0.35000000       0.25000000       0.30000000 </v>
   <v>       0.40000000       0.25000000       0.30000000 </v>
   <v>       0.45000000       0.25000000       0.30000000 </v>
   <v>       0.50000000       0.25000000       0.30000000 </v>
   <v>       0.30000000       0.30000000       0.30000000 </v>
   <v>       0.35000000       0.30000000       0.30000000 </v>
   <v>       0.40000000       0.30000000       0.30000000 </v>
   <v>       0.45000000       0.30000000       0.30000000 </v>
   <v>       0.50000000       0.30000000       0.30000000 </v>
   <v>       0.35000000       0.35000000       0.30000000 </v>
   <v>       0.40000000       0.35000000       0.30000000 </v>
   <v>       0.45000000       0.35000000       0.30000000 </v>
   <v>       0.50000000       0.35000000       0.30000000 </v>
   <v>       0.40000000       0.40000000       0.30000000 </v>
   <v>       0.45000000       0.40000000       0.30000000 </v>
   <v>       0.50000000       0.40000000       0.30000000 </v>
   <v>       0.45000000       0.45000000       0.30000000 </v>
   <v>       0.50000000       0.45000000       0.30000000 </v>
   <v>       0.50000000       0.50000000       0.30000000 </v>
   <v>       0.00000000       0.00000000       0.35000000 </v>
   <v>       0.05000000       0.00000000       0.35000000 </v>
   <v>       0.10000000       0.00000000       0.35000000 </v>
   <v>       0.15000000       0.00000000       0.35000000 </v>
   <v>       0.20000000       0.00000000       0.35000000 </v>
   <v>       0.25000000       0.00000000       0.35000000 </v>
   <v>       0.30000000       0.00000000       0.35000000 </v>
   <v>       0.35000000       0.00000000       0.35000000 </v>
   <v>       0.40000000       0.00000000       0.35000000 </v>
   <v>       0.45000000       0.00000000       0.35000000 </v>
   <v>       0.50000000       0.00000000       0.35000000 </v>
   <v>       0.05000000       0.05000000       0.35000000 </v>
   <v>       0.10000000       0.05000000       0.35000000 </v>
   <v>       0.15000000       0.05000000       0.35000000 </v>
   <v>       0.20000000       0.05000000       0.35000000 </v>
   <v>       0.25000000       0.05000000       0.35000000 </v>
   <v>       0.30000000       0.05000000       0.35000000 </v>
   <v>       0.35000000       0.05000000       0.35000000 </v>
   <v>       0.40000000       0.05000000       0.35000000 </v>
   <v>       0.45000000       0.05000000       0.35000000 </v>
   <v>       0.50000000       0.05000000       0.35000000 </v>
   <v>       0.10000000       0.10000000       0.35000000 </v>
   <v>       0.15000000       0.10000000       0.35000000 </v>
   <v>       0.20000000       0.10000000       0.35000000 </v>
   <v>       0.25000000       0.10000000       0.35000000 </v>
   <v>       0.30000000       0.10000000       0.35000000 </v>
   <v>       0.35000000       0.10000000       0.35000000 </v>
   <v>       0.40000000       0.10000000       0.35000000 </v>
   <v>       0.45000000       0.10000000       0.35000000 </v>
   <v>       0.50000000       0.10000000       0.35000000 </v>
   <v>       0.15000000       0.15000000       0.35000000 </v>
   <v>       0.20000000       0.15000000       0.35000000 </v>
   <v>       0.25000000       0.15000000       0.35000000 </v>
   <v>       0.30000000       0.15000000       0.35000000 </v>
   <v>       0.35000000       0.15000000       0.35000000 </v>
   <v>       0.40000000       0.15000000       0.35000000 </v>
   <v>       0.45000000       0.15000000       0.35000000 </v>
   <v>       0.50000000       0.15000000       0.35000000 </v>
   <v>       0.20000000       0.20000000       0.35000000 </v>
   <v>       0.25000000       0.20000000       0.35000000 </v>
   <v>       0.30000000       0.20000000       0.35000000 </v>
   <v>       0.35000000       0.20000000       0.35000000 </v>
   <v>       0.40000000       0.20000000       0.35000000 </v>
   <v>       0.45000000       0.20000000       0.35000000 </v>
   <v>       0.50000000       0.20000000       0.35000000 </v>
   <v>       0.25000000       0.25000000       0.35000000 </v>
   <v>       0.30000000       0.25000000       0.35000000 </v>
   <v>       0.35000000       0.25000000       0.35000000 </v>
   <v>       0.40000000       0.25000000       0.35000000 </v>
   <v>       0.45000000       0.25000000       0.35000000 </v>
   <v>       0.50000000       0.25000000       0.35000000 </v>
   <v>       0.30000000       0.30000000       0.35000000 </v>
   <v>       0.35000000       0.30000000       0.35000000 </v>
   <v>       0.40000000       0.30000000       0.35000000 </v>
   <v>       0.45000000       0.30000000       0.35000000 </v>
   <v>       0.50000000       0.30000000       0.35000000 </v>
   <v>       0.35000000       0.35000000       0.35000000 </v>
   <v>       0.40000000       0.35000000       0.35000000 </v>
   <v>       0.45000000       0.35000000       0.35000000 </v>
   <v>       0.50000000       0.35000000       0.35000000 </v>
   <v>       0.40000000       0.40000000       0.35000000 </v>
   <v>       0.45000000       0.40000000       0.35000000 </v>
   <v>       0.50000000       0.40000000       0.35000000 </v>
   <v>       0.45000000       0.45000000       0.35000000 </v>
   <v>       0.50000000       0.45000000       0.35000000 </v>
   <v>       0.50000000       0.50000000       0.35000000 </v>
   <v>       0.00000000       0.00000000       0.40000000 </v>
   <v>       0.05000000       0.00000000       0.40000000 </v>
   <v>       0.10000000       0.00000000       0.40000000 </v>
   <v>       0.15000000       0.00000000       0.40000000 </v>
   <v>       0.20000000       0.00000000       0.40000000 </v>
   <v>       0.25000000       0.00000000       0.40000000 </v>
   <v>       0.30000000       0.00000000       0.40000000 </v>
   <v>       0.35000000       0.00000000       0.40000000 </v>
   <v>       0.40000000       0.00000000       0.40000000 </v>
   <v>       0.45000000       0.00000000       0.40000000 </v>
   <v>       0.50000000       0.00000000       0.40000000 </v>
   <v>       0.05000000       0.05000000       0.40000000 </v>
   <v>       0.10000000       0.05000000       0.40000000 </v>
   <v>       0.15000000       0.05000000       0.40000000 </v>
   <v>       0.20000000       0.05000000       0.40000000 </v>
   <v>       0.25000000       0.05000000       0.40000000 </v>
   <v>       0.30000000       0.05000000       0.40000000 </v>
   <v>       0.35000000       0.05000000       0.40000000 </v>
   <v>       0.40000000       0.05000000       0.40000000 </v>
   <v>       0.45000000       0.05000000       0.40000000 </v>
   <v>       0.50000000       0.05000000       0.40000000 </v>
   <v>       0.10000000       0.10000000       0.40000000 </v>
   <v>       0.15000000       0.10000000       0.40000000 </v>
   <v>       0.20000000       0.10000000       0.40000000 </v>
   <v>       0.25000000       0.10000000       0.40000000 </v>
   <v>       0.30000000       0.10000000       0.40000000 </v>
   <v>       0.35000000       0.10000000       0.40000000 </v>
   <v>       0.40000000       0.10000000       0.40000000 </v>
   <v>       0.45000000       0.10000000       0.40000000 </v>
   <v>       0.50000000       0.10000000       0.40000000 </v>
   <v>       0.15000000       0.15000000       0.40000000 </v>
   <v>       0.20000000       0.15000000       0.40000000 </v>
   <v>       0.25000000       0.15000000       0.40000000 </v>
   <v>       0.30000000       0.15000000       0.40000000 </v>
   <v>       0.35000000       0.15000000       0.40000000 </v>
   <v>       0.40000000       0.15000000       0.40000000 </v>
   <v>       0.45000000       0.15000000       0.40000000 </v>
   <v>       0.50000000       0.15000000       0.40000000 </v>
   <v>       0.20000000       0.20000000       0.40000000 </v>
   <v>       0.25000000       0.20000000       0.40000000 </v>
   <v>       0.30000000       0.20000000       0.40000000 </v>
   <v>       0.35000000       0.20000000       0.40000000 </v>
   <v>       0.40000000       0.20000000       0.40000000 </v>
   <v>       0.45000000       0.20000000       0.40000000 </v>
   <v>       0.50000000       0.20000000       0.40000000 </v>
   <v>       0.25000000       0.25000000       0.40000000 </v>
   <v>       0.30000000       0.25000000       0.40000000 </v>
   <v>       0.35000000       0.25000000       0.40000000 </v>
   <v>       0.40000000       0.25000000       0.40000000 </v>
   <v>       0.45000000       0.25000000       0.40000000 </v>
   <v>       0.50000000       0.25000000       0.40000000 </v>
   <v>       0.30000000       0.30000000       0.40000000 </v>
   <v>       0.35000000       0.30000000       0.40000000 </v>
   <v>       0.40000000       0.30000000       0.40000000 </v>
   <v>       0.45000000       0.30000000       0.40000000 </v>
   <v>       0.50000000       0.30000000       0.40000000 </v>
   <v>       0.35000000       0.35000000       0.40000000 </v>
   <v>       0.40000000       0.35000000       0.40000000 </v>
   <v>       0.45000000       0.35000000       0.40000000 </v>
   <v>       0.50000000       0.35000000       0.40000000 </v>
   <v>       0.40000000       0.40000000       0.40000000 </v>
   <v>       0.45000000       0.40000000       0.40000000 </v>
   <v>       0.50000000       0.40000000       0.40000000 </v>
   <v>       0.45000000       0.45000000       0.40000000 </v>
   <v>       0.50000000       0.45000000       0.40000000 </v>
   <v>       0.50000000       0.50000000       0.40000000 </v>
   <v>       0.00000000       0.00000000       0.45000000 </v>
   <v>       0.05000000       0.00000000       0.45000000 </v>
   <v>       0.10000000       0.00000000       0.45000000 </v>
   <v>       0.15000000       0.00000000       0.45000000 </v>
   <v>       0.20000000       0.00000000       0.45000000 </v>
   <v>       0.25000000       0.00000000       0.45000000 </v>
   <v>       0.30000000       0.00000000       0.45000000 </v>
   <v>       0.35000000       0.00000000       0.45000000 </v>
   <v>       0.40000000       0.00000000       0.45000000 </v>
   <v>       0.45000000       0.00000000       0.45000000 </v>
   <v>       0.50000000       0.00000000       0.45000000 </v>
   <v>       0.05000000       0.05000000       0.45000000 </v>
   <v>       0.10000000       0.05000000       0.45000000 </v>
   <v>       0.15000000       0.05000000       0.45000000 </v>
   <v>       0.20000000       0.05000000       0.45000000 </v>
   <v>       0.25000000       0.05000000       0.45000000 </v>
   <v>       0.30000000       0.05000000       0.45000000 </v>
   <v>       0.35000000       0.05000000       0.45000000 </v>
   <v>       0.40000000       0.05000000       0.45000000 </v>
   <v>       0.45000000       0.05000000       0.45000000 </v>
   <v>       0.50000000       0.05000000       0.45000000 </v>
   <v>       0.10000000       0.10000000       0.45000000 </v>
   <v>       0.15000000       0.10000000       0.45000000 </v>
   <v>       0.20000000       0.10000000       0.45000000 </v>
   <v>       0.25000000       0.10000000       0.45000000 </v>
   <v>       0.30000000       0.10000000       0.45000000 </v>
   <v>       0.35000000       0.10000000       0.45000000 </v>
   <v>       0.40000000       0.10000000       0.45000000 </v>
   <v>       0.45000000       0.10000000       0.45000000 </v>
   <v>       0.50000000       0.10000000       0.45000000 </v>
   <v>       0.15000000       0.15000000       0.45000000 </v>
   <v>       0.20000000       0.15000000       0.45000000 </v>
   <v>       0.25000000       0.15000000       0.45000000 </v>
   <v>       0.30000000       0.15000000       0.45000000 </v>
   <v>       0.35000000       0.15000000       0.45000000 </v>
   <v>       0.40000000       0.15000000       0.45000000 </v>
   <v>       0.45000000       0.15000000       0.45000000 </v>
   <v>       0.50000000       0.15000000       0.45000000 </v>
   <v>       0.20000000       0.20000000       0.45000000 </v>
   <v>       0.25000000       0.20000000       0.45000000 </v>
   <v>       0.30000000       0.20000000       0.45000000 </v>
   <v>       0.35000000       0.20000000       0.45000000 </v>
   <v>       0.40000000       0.20000000       0.45000000 </v>
   <v>       0.45000000       0.20000000       0.45000000 </v>
   <v>       0.50000000       0.20000000       0.45000000 </v>
   <v>       0.25000000       0.25000000       0.45000000 </v>
   <v>       0.30000000       0.25000000       0.45000000 </v>
   <v>       0.35000000       0.25000000       0.45000000 </v>
   <v>       0.40000000       0.25000000       0.45000000 </v>
   <v>       0.45000000       0.25000000       0.45000000 </v>
   <v>       0.50000000       0.25000000       0.45000000 </v>
   <v>       0.30000000       0.30000000       0.45000000 </v>
   <v>       0.35000000       0.30000000       0.45000000 </v>
   <v>       0.40000000       0.30000000       0.45000000 </v>
   <v>       0.45000000       0.30000000       0.45000000 </v>
   <v>       0.50000000       0.30000000       0.45000000 </v>
   <v>       0.35000000       0.35000000       0.45000000 </v>
   <v>       0.40000000       0.35000000       0.45000000 </v>
   <v>       0.45000000       0.35000000       0.45000000 </v>
   <v>       0.50000000       0.35000000       0.45000000 </v>
   <v>       0.40000000       0.40000000       0.45000000 </v>
   <v>       0.45000000       0.40000000       0.45000000 </v>
   <v>       0.50000000       0.40000000       0.45000000 </v>
   <v>       0.45000000       0.45000000       0.45000000 </v>
   <v>       0.50000000       0.45000000       0.45000000 </v>
   <v>       0.50000000       0.50000000       0.45000000 </v>
   <v>       0.00000000       0.00000000       0.50000000 </v>
   <v>       0.05000000       0.00000000       0.50000000 </v>
   <v>       0.10000000       0.00000000       0.50000000 </v>
   <v>       0.15000000       0.00000000       0.50000000 </v>
   <v>       0.20000000       0.00000000       0.50000000 </v>
   <v>       0.25000000       0.00000000       0.50000000 </v>
   <v>       0.30000000       0.00000000       0.50000000 </v>
   <v>       0.35000000       0.00000000       0.50000000 </v>
   <v>       0.40000000       0.00000000       0.50000000 </v>
   <v>       0.45000000       0.00000000       0.50000000 </v>
   <v>       0.50000000       0.00000000       0.50000000 </v>
   <v>       0.05000000       0.05000000       0.50000000 </v>
   <v>       0.10000000       0.05000000       0.50000000 </v>
   <v>       0.15000000       0.05000000       0.50000000 </v>
   <v>       0.20000000       0.05000000       0.50000000 </v>
   <v>       0.25000000       0.05000000       0.50000000 </v>
   <v>       0.30000000       0.05000000       0.50000000 </v>
   <v>       0.35000000       0.05000000       0.50000000 </v>
   <v>       0.40000000       0.05000000       0.50000000 </v>
   <v>       0.45000000       0.05000000       0.50000000 </v>
   <v>       0.50000000       0.05000000       0.50000000 </v>
   <v>       0.10000000       0.10000000       0.50000000 </v>
   <v>       0.15000000       0.10000000       0.50000000 </v>
   <v>       0.20000000       0.10000000       0.50000000 </v>
   <v>       0.25000000       0.10000000       0.50000000 </v>
   <v>       0.30000000       0.10000000       0.50000000 </v>
   <v>       0.35000000       0.10000000       0.50000000 </v>
   <v>       0.40000000       0.10000000       0.50000000 </v>
   <v>       0.45000000       0.10000000       0.50000000 </v>
   <v>       0.50000000       0.10000000       0.50000000 </v>
   <v>       0.15000000       0.15000000       0.50000000 </v>
   <v>       0.20000000       0.15000000       0.50000000 </v>
   <v>       0.25000000       0.15000000       0.50000000 </v>
   <v>       0.30000000       0.15000000       0.50000000 </v>
   <v>       0.35000000       0.15000000       0.50000000 </v>
   <v>       0.40000000       0.15000000       0.50000000 </v>
   <v>       0.45000000       0.15000000       0.50000000 </v>
   <v>       0.50000000       0.15000000       0.50000000 </v>
   <v>       0.20000000       0.20000000       0.50000000 </v>
   <v>       0.25000000       0.20000000       0.50000000 </v>
   <v>       0.30000000       0.20000000       0.50000000 </v>
   <v>       0.35000000       0.20000000       0.50000000 </v>
   <v>       0.40000000       0.20000000       0.50000000 </v>
   <v>       0.45000000       0.20000000       0.50000000 </v>
   <v>       0.50000000       0.20000000       0.50000000 </v>
   <v>       0.25000000       0.25000000       0.50000000 </v>
   <v>       0.30000000       0.25000000       0.50000000 </v>
   <v>       0.35000000       0.25000000       0.50000000 </v>
   <v>       0.40000000       0.25000000       0.50000000 </v>
   <v>       0.45000000       0.25000000       0.50000000 </v>
   <v>       0.50000000       0.25000000       0.50000000 </v>
   <v>       0.30000000       0.30000000       0.50000000 </v>
   <v>       0.35000000       0.30000000       0.50000000 </v>
   <v>       0.40000000       0.30000000       0.50000000 </v>
   <v>       0.45000000       0.30000000       0.50000000 </v>
   <v>       0.50000000       0.30000000       0.50000000 </v>
   <v>       0.35000000       0.35000000       0.50000000 </v>
   <v>       0.40000000       0.35000000       0.50000000 </v>
   <v>       0.45000000       0.35000000       0.50000000 </v>
   <v>       0.50000000       0.35000000       0.50000000 </v>
   <v>       0.40000000       0.40000000       0.50000000 </v>
   <v>       0.45000000       0.40000000       0.50000000 </v>
   <v>       0.50000000       0.40000000       0.50000000 </v>
   <v>       0.45000000       0.45000000       0.50000000 </v>
   <v>       0.50000000       0.45000000       0.50000000 </v>
   <v>       0.50000000       0.50000000       0.50000000 </v>
  </varray>
  <varray name="weights" >
   <v>       0.00012500 </v>
   <v>       0.00050000 </v>
   <v>       0.00050000 </v>
   <v>       0.00050000 </v>
   <v>       0.00050000 </v>
   <v>       0.00050000 </v>
   <v>       0.00050000 </v>
   <v>       0.00050000 </v>
   <v>       0.00050000 </v>
   <v>       0.00050000 </v>
   <v>       0.00025000 </v>
   <v>       0.00050000 </v>
   <v>       0.00100000 </v>
   <v>       0.00100000 </v>
   <v>       0.00100000 </v>
   <v>       0.00100000 </v>
   <v>       0.00100000 </v>
   <v>       0.00100000 </v>
   <v>       0.00100000 </v>
   <v>       0.00100000 </v>
   <v>       0.00050000 </v>
   <v>       0.00050000 </v>
   <v>       0.00100000 </v>
   <v>       0.00100000 </v>
   <v>       0.00100000 </v>
   <v>       0.00100000 </v>
   <v>       0.00100000 </v>
   <v>       0.00100000 </v>
   <v>       0.00100000 </v>
   <v>       0.00050000 </v>
   <v>       0.00050000 </v>
   <v>       0.00100000 </v>
   <v>       0.00100000 </v>
   <v>       0.00100000 </v>
   <v>       0.00100000 </v>
   <v>       0.00100000 </v>
   <v>       0.00100000 </v>
   <v>       0.00050000 </v>
   <v>       0.00050000 </v>
   <v>       0.00100000 </v>
   <v>       0.00100000 </v>
   <v>       0.00100000 </v>
   <v>       0.00100000 </v>
   <v>       0.00100000 </v>
   <v>       0.00050000 </v>
   <v>       0.00050000 </v>
   <v>       0.00100000 </v>
   <v>       0.00100000 </v>
   <v>       0.00100000 </v>
   <v>       0.00100000 </v>
   <v>       0.00050000 </v>
   <v>       0.00050000 </v>
   <v>       0.00100000 </v>
   <v>       0.00100000 </v>
   <v>       0.00100000 </v>
   <v>       0.00050000 </v>
   <v>       0.00050000 </v>
   <v>       0.00100000 </v>
   <v>       0.00100000 </v>
   <v>       0.00050000 </v>
   <v>       0.00050000 </v>
   <v>       0.00100000 </v>
   <v>       0.00050000 </v>
   <v>       0.00050000 </v>
   <v>       0.00050000 </v>
   <v>       0.00012500 </v>
   <v>       0.00025000 </v>
   <v>       0.00100000 </v>
   <v>       0.00100000 </v>
   <v>       0.00100000 </v>
   <v>       0.00100000 </v>
   <v>       0.00100000 </v>
   <v>       0.00100000 </v>
   <v>       0.00100000 </v>
   <v>       0.00100000 </v>
   <v>       0.00100000 </v>
   <v>       0.00050000 </v>
   <v>       0.00100000 </v>
   <v>       0.00200000 </v>
   <v>       0.00200000 </v>
   <v>       0.00200000 </v>
   <v>       0.00200000 </v>
   <v>       0.00200000 </v>
   <v>       0.00200000 </v>
   <v>       0.00200000 </v>
   <v>       0.00200000 </v>
   <v>       0.00100000 </v>
   <v>       0.00100000 </v>
   <v>       0.00200000 </v>
   <v>       0.00200000 </v>
   <v>       0.00200000 </v>
   <v>       0.00200000 </v>
   <v>       0.00200000 </v>
   <v>       0.00200000 </v>
   <v>       0.00200000 </v>
   <v>       0.00100000 </v>
   <v>       0.00100000 </v>
   <v>       0.00200000 </v>
   <v>       0.00200000 </v>
   <v>       0.00200000 </v>
   <v>       0.00200000 </v>
   <v>       0.00200000 </v>
   <v>       0.00200000 </v>
   <v>       0.00100000 </v>
   <v>       0.00100000 </v>
   <v>       0.00200000 </v>
   <v>       0.00200000 </v>
   <v>       0.00200000 </v>
   <v>       0.00200000 </v>
   <v>       0.00200000 </v>
   <v>       0.00100000 </v>
   <v>       0.00100000 </v>
   <v>       0.00200000 </v>
   <v>       0.00200000 </v>
   <v>       0.00200000 </v>
   <v>       0.00200000 </v>
   <v>       0.00100000 </v>
   <v>       0.00100000 </v>
   <v>       0.00200000 </v>
   <v>       0.00200000 </v>
   <v>       0.00200000 </v>
   <v>       0.00100000 </v>
   <v>       0.00100000 </v>
   <v>       0.00200000 </v>
   <v>       0.00200000 </v>
   <v>       0.00100000 </v>
   <v>       0.00100000 </v>
   <v>       0.00200000 </v>
   <v>       0.00100000 </v>
   <v>       0.00100000 </v>
   <v>       0.00100000 </v>
   <v>       0.00025000 </v>
   <v>       0.00025000 </v>
   <v>       0.00100000 </v>
   <v>       0.00100000 </v>
   <v>       0.00100000 </v>
   <v>       0.00100000 </v>
   <v>       0.00100000 </v>
   <v>       0.00100000 </v>
   <v>       0.00100000 </v>
   <v>       0.00100000 </v>
   <v>       0.00100000 </v>
   <v>       0.00050000 </v>
   <v>       0.00100000 </v>
   <v>       0.00200000 </v>
   <v>       0.00200000 </v>
   <v>       0.00200000 </v>
   <v>       0.00200000 </v>
   <v>       0.00200000 </v>
   <v>       0.00200000 </v>
   <v>       0.00200000 </v>
   <v>       0.00200000 </v>
   <v>       0.00100000 </v>
   <v>       0.00100000 </v>
   <v>       0.00200000 </v>
   <v>       0.00200000 </v>
   <v>       0.00200000 </v>
   <v>       0.00200000 </v>
   <v>       0.00200000 </v>
   <v>       0.00200000 </v>
   <v>       0.00200000 </v>
   <v>       0.00100000 </v>
   <v>       0.00100000 </v>
   <v>       0.00200000 </v>
   <v>       0.00200000 </v>
   <v>       0.00200000 </v>
   <v>       0.00200000 </v>
   <v>       0.00200000 </v>
   <v>       0.00200000 </v>
   <v>       0.00100000 </v>
   <v>       0.00100000 </v>
   <v>       0.00200000 </v>
   <v>       0.00200000 </v>
   <v>       0.00200000 </v>
   <v>       0.00200000 </v>
   <v>       0.00200000 </v>
   <v>       0.00100000 </v>
   <v>       0.00100000 </v>
   <v>       0.00200000 </v>
   <v>       0.00200000 </v>
   <v>       0.00200000 </v>
   <v>       0.00200000 </v>
   <v>       0.00100000 </v>
   <v>       0.00100000 </v>
   <v>       0.00200000 </v>
   <v>       0.00200000 </v>
   <v>       0.00200000 </v>
   <v>       0.00100000 </v>
   <v>       0.00100000 </v>
   <v>       0.00200000 </v>
   <v>       0.00200000 </v>
   <v>       0.00100000 </v>
   <v>       0.00100000 </v>
   <v>       0.00200000 </v>
   <v>       0.00100000 </v>
   <v>       0.00100000 </v>
   <v>       0.00100000 </v>
   <v>       0.00025000 </v>
   <v>       0.00025000 </v>
   <v>       0.00100000 </v>
   <v>       0.00100000 </v>
   <v>       0.00100000 </v>
   <v>       0.00100000 </v>
   <v>       0.00100000 </v>
   <v>       0.00100000 </v>
   <v>       0.00100000 </v>
   <v>       0.00100000 </v>
   <v>       0.00100000 </v>
   <v>       0.00050000 </v>
   <v>       0.00100000 </v>
   <v>       0.00200000 </v>
   <v>       0.00200000 </v>
   <v>       0.00200000 </v>
   <v>       0.00200000 </v>
   <v>       0.00200000 </v>
   <v>       0.00200000 </v>
   <v>       0.00200000 </v>
   <v>       0.00200000 </v>
   <v>       0.00100000 </v>
   <v>       0.00100000 </v>
   <v>       0.00200000 </v>
   <v>       0.00200000 </v>
   <v>       0.00200000 </v>
   <v>       0.00200000 </v>
   <v>       0.00200000 </v>
   <v>       0.00200000 </v>
   <v>       0.00200000 </v>
   <v>       0.00100000 </v>
   <v>       0.00100000 </v>
   <v>       0.00200000 </v>
   <v>       0.00200000 </v>
   <v>       0.00200000 </v>
   <v>       0.00200000 </v>
   <v>       0.00200000 </v>
   <v>       0.00200000 </v>
   <v>       0.00100000 </v>
   <v>       0.00100000 </v>
   <v>       0.00200000 </v>
   <v>       0.00200000 </v>
   <v>       0.00200000 </v>
   <v>       0.00200000 </v>
   <v>       0.00200000 </v>
   <v>       0.00100000 </v>
   <v>       0.00100000 </v>
   <v>       0.00200000 </v>
   <v>       0.00200000 </v>
   <v>       0.00200000 </v>
   <v>       0.00200000 </v>
   <v>       0.00100000 </v>
   <v>       0.00100000 </v>
   <v>       0.00200000 </v>
   <v>       0.00200000 </v>
   <v>       0.00200000 </v>
   <v>       0.00100000 </v>
   <v>       0.00100000 </v>
   <v>       0.00200000 </v>
   <v>       0.00200000 </v>
   <v>       0.00100000 </v>
   <v>       0.00100000 </v>
   <v>       0.00200000 </v>
   <v>       0.00100000 </v>
   <v>       0.00100000 </v>
   <v>       0.00100000 </v>
   <v>       0.00025000 </v>
   <v>       0.00025000 </v>
   <v>       0.00100000 </v>
   <v>       0.00100000 </v>
   <v>       0.00100000 </v>
   <v>       0.00100000 </v>
   <v>       0.00100000 </v>
   <v>       0.00100000 </v>
   <v>       0.00100000 </v>
   <v>       0.00100000 </v>
   <v>       0.00100000 </v>
   <v>       0.00050000 </v>
   <v>       0.00100000 </v>
   <v>       0.00200000 </v>
   <v>       0.00200000 </v>
   <v>       0.00200000 </v>
   <v>       0.00200000 </v>
   <v>       0.00200000 </v>
   <v>       0.00200000 </v>
   <v>       0.00200000 </v>
   <v>       0.00200000 </v>
   <v>       0.00100000 </v>
   <v>       0.00100000 </v>
   <v>       0.00200000 </v>
   <v>       0.00200000 </v>
   <v>       0.00200000 </v>
   <v>       0.00200000 </v>
   <v>       0.00200000 </v>
   <v>       0.00200000 </v>
   <v>       0.00200000 </v>
   <v>       0.00100000 </v>
   <v>       0.00100000 </v>
   <v>       0.00200000 </v>
   <v>       0.00200000 </v>
   <v>       0.00200000 </v>
   <v>       0.00200000 </v>
   <v>       0.00200000 </v>
   <v>       0.00200000 </v>
   <v>       0.00100000 </v>
   <v>       0.00100000 </v>
   <v>       0.00200000 </v>
   <v>       0.00200000 </v>
   <v>       0.00200000 </v>
   <v>       0.00200000 </v>
   <v>       0.00200000 </v>
   <v>       0.00100000 </v>
   <v>       0.00100000 </v>
   <v>       0.00200000 </v>
   <v>       0.00200000 </v>
   <v>       0.00200000 </v>
   <v>       0.00200000 </v>
   <v>       0.00100000 </v>
   <v>       0.00100000 </v>
   <v>       0.00200000 </v>
   <v>       0.00200000 </v>
   <v>       0.00200000 </v>
   <v>       0.00100000 </v>
   <v>       0.00100000 </v>
   <v>       0.00200000 </v>
   <v>       0.00200000 </v>
   <v>       0.00100000 </v>
   <v>       0.00100000 </v>
   <v>       0.00200000 </v>
   <v>       0.00100000 </v>
   <v>       0.00100000 </v>
   <v>       0.00100000 </v>
   <v>       0.00025000 </v>
   <v>       0.00025000 </v>
   <v>       0.00100000 </v>
   <v>       0.00100000 </v>
   <v>       0.00100000 </v>
   <v>       0.00100000 </v>
   <v>       0.00100000 </v>
   <v>       0.00100000 </v>
   <v>       0.00100000 </v>
   <v>       0.00100000 </v>
   <v>       0.00100000 </v>
   <v>       0.00050000 </v>
   <v>       0.00100000 </v>
   <v>       0.00200000 </v>
   <v>       0.00200000 </v>
   <v>       0.00200000 </v>
   <v>       0.00200000 </v>
   <v>       0.00200000 </v>
   <v>       0.00200000 </v>
   <v>       0.00200000 </v>
   <v>       0.00200000 </v>
   <v>       0.00100000 </v>
   <v>       0.00100000 </v>
   <v>       0.00200000 </v>
   <v>       0.00200000 </v>
   <v>       0.00200000 </v>
   <v>       0.00200000 </v>
   <v>       0.00200000 </v>
   <v>       0.00200000 </v>
   <v>       0.00200000 </v>
   <v>       0.00100000 </v>
   <v>       0.00100000 </v>
   <v>       0.00200000 </v>
   <v>       0.00200000 </v>
   <v>       0.00200000 </v>
   <v>       0.00200000 </v>
   <v>       0.00200000 </v>
   <v>       0.00200000 </v>
   <v>       0.00100000 </v>
   <v>       0.00100000 </v>
   <v>       0.00200000 </v>
   <v>       0.00200000 </v>
   <v>       0.00200000 </v>
   <v>       0.00200000 </v>
   <v>       0.00200000 </v>
   <v>       0.00100000 </v>
   <v>       0.00100000 </v>
   <v>       0.00200000 </v>
   <v>       0.00200000 </v>
   <v>       0.00200000 </v>
   <v>       0.00200000 </v>
   <v>       0.00100000 </v>
   <v>       0.00100000 </v>
   <v>       0.00200000 </v>
   <v>       0.00200000 </v>
   <v>       0.00200000 </v>
   <v>       0.00100000 </v>
   <v>       0.00100000 </v>
   <v>       0.00200000 </v>
   <v>       0.00200000 </v>
   <v>       0.00100000 </v>
   <v>       0.00100000 </v>
   <v>       0.00200000 </v>
   <v>       0.00100000 </v>
   <v>       0.00100000 </v>
   <v>       0.00100000 </v>
   <v>       0.00025000 </v>
   <v>       0.00025000 </v>
   <v>       0.00100000 </v>
   <v>       0.00100000 </v>
   <v>       0.00100000 </v>
   <v>       0.00100000 </v>
   <v>       0.00100000 </v>
   <v>       0.00100000 </v>
   <v>       0.00100000 </v>
   <v>       0.00100000 </v>
   <v>       0.00100000 </v>
   <v>       0.00050000 </v>
   <v>       0.00100000 </v>
   <v>       0.00200000 </v>
   <v>       0.00200000 </v>
   <v>       0.00200000 </v>
   <v>       0.00200000 </v>
   <v>       0.00200000 </v>
   <v>       0.00200000 </v>
   <v>       0.00200000 </v>
   <v>       0.00200000 </v>
   <v>       0.00100000 </v>
   <v>       0.00100000 </v>
   <v>       0.00200000 </v>
   <v>       0.00200000 </v>
   <v>       0.00200000 </v>
   <v>       0.00200000 </v>
   <v>       0.00200000 </v>
   <v>       0.00200000 </v>
   <v>       0.00200000 </v>
   <v>       0.00100000 </v>
   <v>       0.00100000 </v>
   <v>       0.00200000 </v>
   <v>       0.00200000 </v>
   <v>       0.00200000 </v>
   <v>       0.00200000 </v>
   <v>       0.00200000 </v>
   <v>       0.00200000 </v>
   <v>       0.00100000 </v>
   <v>       0.00100000 </v>
   <v>       0.00200000 </v>
   <v>       0.00200000 </v>
   <v>       0.00200000 </v>
   <v>       0.00200000 </v>
   <v>       0.00200000 </v>
   <v>       0.00100000 </v>
   <v>       0.00100000 </v>
   <v>       0.00200000 </v>
   <v>       0.00200000 </v>
   <v>       0.00200000 </v>
   <v>       0.00200000 </v>
   <v>       0.00100000 </v>
   <v>       0.00100000 </v>
   <v>       0.00200000 </v>
   <v>       0.00200000 </v>
   <v>       0.00200000 </v>
   <v>       0.00100000 </v>
   <v>       0.00100000 </v>
   <v>       0.00200000 </v>
   <v>       0.00200000 </v>
   <v>       0.00100000 </v>
   <v>       0.00100000 </v>
   <v>       0.00200000 </v>
   <v>       0.00100000 </v>
   <v>       0.00100000 </v>
   <v>       0.00100000 </v>
   <v>       0.00025000 </v>
   <v>       0.00025000 </v>
   <v>       0.00100000 </v>
   <v>       0.00100000 </v>
   <v>       0.00100000 </v>
   <v>       0.00100000 </v>
   <v>       0.00100000 </v>
   <v>       0.00100000 </v>
   <v>       0.00100000 </v>
   <v>       0.00100000 </v>
   <v>       0.00100000 </v>
   <v>       0.00050000 </v>
   <v>       0.00100000 </v>
   <v>       0.00200000 </v>
   <v>       0.00200000 </v>
   <v>       0.00200000 </v>
   <v>       0.00200000 </v>
   <v>       0.00200000 </v>
   <v>       0.00200000 </v>
   <v>       0.00200000 </v>
   <v>       0.00200000 </v>
   <v>       0.00100000 </v>
   <v>       0.00100000 </v>
   <v>       0.00200000 </v>
   <v>       0.00200000 </v>
   <v>       0.00200000 </v>
   <v>       0.00200000 </v>
   <v>       0.00200000 </v>
   <v>       0.00200000 </v>
   <v>       0.00200000 </v>
   <v>       0.00100000 </v>
   <v>       0.00100000 </v>
   <v>       0.00200000 </v>
   <v>       0.00200000 </v>
   <v>       0.00200000 </v>
   <v>       0.00200000 </v>
   <v>       0.00200000 </v>
   <v>       0.00200000 </v>
   <v>       0.00100000 </v>
   <v>       0.00100000 </v>
   <v>       0.00200000 </v>
   <v>       0.00200000 </v>
   <v>       0.00200000 </v>
   <v>       0.00200000 </v>
   <v>       0.00200000 </v>
   <v>       0.00100000 </v>
   <v>       0.00100000 </v>
   <v>       0.00200000 </v>
   <v>       0.00200000 </v>
   <v>       0.00200000 </v>
   <v>       0.00200000 </v>
   <v>       0.00100000 </v>
   <v>       0.00100000 </v>
   <v>       0.00200000 </v>
   <v>       0.00200000 </v>
   <v>       0.00200000 </v>
   <v>       0.00100000 </v>
   <v>       0.00100000 </v>
   <v>       0.00200000 </v>
   <v>       0.00200000 </v>
   <v>       0.00100000 </v>
   <v>       0.00100000 </v>
   <v>       0.00200000 </v>
   <v>       0.00100000 </v>
   <v>       0.00100000 </v>
   <v>       0.00100000 </v>
   <v>       0.00025000 </v>
   <v>       0.00025000 </v>
   <v>       0.00100000 </v>
   <v>       0.00100000 </v>
   <v>       0.00100000 </v>
   <v>       0.00100000 </v>
   <v>       0.00100000 </v>
   <v>       0.00100000 </v>
   <v>       0.00100000 </v>
   <v>       0.00100000 </v>
   <v>       0.00100000 </v>
   <v>       0.00050000 </v>
   <v>       0.00100000 </v>
   <v>       0.00200000 </v>
   <v>       0.00200000 </v>
   <v>       0.00200000 </v>
   <v>       0.00200000 </v>
   <v>       0.00200000 </v>
   <v>       0.00200000 </v>
   <v>       0.00200000 </v>
   <v>       0.00200000 </v>
   <v>       0.00100000 </v>
   <v>       0.00100000 </v>
   <v>       0.00200000 </v>
   <v>       0.00200000 </v>
   <v>       0.00200000 </v>
   <v>       0.00200000 </v>
   <v>       0.00200000 </v>
   <v>       0.00200000 </v>
   <v>       0.00200000 </v>
   <v>       0.00100000 </v>
   <v>       0.00100000 </v>
   <v>       0.00200000 </v>
   <v>       0.00200000 </v>
   <v>       0.00200000 </v>
   <v>       0.00200000 </v>
   <v>       0.00200000 </v>
   <v>       0.00200000 </v>
   <v>       0.00100000 </v>
   <v>       0.00100000 </v>
   <v>       0.00200000 </v>
   <v>       0.00200000 </v>
   <v>       0.00200000 </v>
   <v>       0.00200000 </v>
   <v>       0.00200000 </v>
   <v>       0.00100000 </v>
   <v>       0.00100000 </v>
   <v>       0.00200000 </v>
   <v>       0.00200000 </v>
   <v>       0.00200000 </v>
   <v>       0.00200000 </v>
   <v>       0.00100000 </v>
   <v>       0.00100000 </v>
   <v>       0.00200000 </v>
   <v>       0.00200000 </v>
   <v>       0.00200000 </v>
   <v>       0.00100000 </v>
   <v>       0.00100000 </v>
   <v>       0.00200000 </v>
   <v>       0.00200000 </v>
   <v>       0.00100000 </v>
   <v>       0.00100000 </v>
   <v>       0.00200000 </v>
   <v>       0.00100000 </v>
   <v>       0.00100000 </v>
   <v>       0.00100000 </v>
   <v>       0.00025000 </v>
   <v>       0.00025000 </v>
   <v>       0.00100000 </v>
   <v>       0.00100000 </v>
   <v>       0.00100000 </v>
   <v>       0.00100000 </v>
   <v>       0.00100000 </v>
   <v>       0.00100000 </v>
   <v>       0.00100000 </v>
   <v>       0.00100000 </v>
   <v>       0.00100000 </v>
   <v>       0.00050000 </v>
   <v>       0.00100000 </v>
   <v>       0.00200000 </v>
   <v>       0.00200000 </v>
   <v>       0.00200000 </v>
   <v>       0.00200000 </v>
   <v>       0.00200000 </v>
   <v>       0.00200000 </v>
   <v>       0.00200000 </v>
   <v>       0.00200000 </v>
   <v>       0.00100000 </v>
   <v>       0.00100000 </v>
   <v>       0.00200000 </v>
   <v>       0.00200000 </v>
   <v>       0.00200000 </v>
   <v>       0.00200000 </v>
   <v>       0.00200000 </v>
   <v>       0.00200000 </v>
   <v>       0.00200000 </v>
   <v>       0.00100000 </v>
   <v>       0.00100000 </v>
   <v>       0.00200000 </v>
   <v>       0.00200000 </v>
   <v>       0.00200000 </v>
   <v>       0.00200000 </v>
   <v>       0.00200000 </v>
   <v>       0.00200000 </v>
   <v>       0.00100000 </v>
   <v>       0.00100000 </v>
   <v>       0.00200000 </v>
   <v>       0.00200000 </v>
   <v>       0.00200000 </v>
   <v>       0.00200000 </v>
   <v>       0.00200000 </v>
   <v>       0.00100000 </v>
   <v>       0.00100000 </v>
   <v>       0.00200000 </v>
   <v>       0.00200000 </v>
   <v>       0.00200000 </v>
   <v>       0.00200000 </v>
   <v>       0.00100000 </v>
   <v>       0.00100000 </v>
   <v>       0.00200000 </v>
   <v>       0.00200000 </v>
   <v>       0.00200000 </v>
   <v>       0.00100000 </v>
   <v>       0.00100000 </v>
   <v>       0.00200000 </v>
   <v>       0.00200000 </v>
   <v>       0.00100000 </v>
   <v>       0.00100000 </v>
   <v>       0.00200000 </v>
   <v>       0.00100000 </v>
   <v>       0.00100000 </v>
   <v>       0.00100000 </v>
   <v>       0.00025000 </v>
   <v>       0.00012500 </v>
   <v>       0.00050000 </v>
   <v>       0.00050000 </v>
   <v>       0.00050000 </v>
   <v>       0.00050000 </v>
   <v>       0.00050000 </v>
   <v>       0.00050000 </v>
   <v>       0.00050000 </v>
   <v>       0.00050000 </v>
   <v>       0.00050000 </v>
   <v>       0.00025000 </v>
   <v>       0.00050000 </v>
   <v>       0.00100000 </v>
   <v>       0.00100000 </v>
   <v>       0.00100000 </v>
   <v>       0.00100000 </v>
   <v>       0.00100000 </v>
   <v>       0.00100000 </v>
   <v>       0.00100000 </v>
   <v>       0.00100000 </v>
   <v>       0.00050000 </v>
   <v>       0.00050000 </v>
   <v>       0.00100000 </v>
   <v>       0.00100000 </v>
   <v>       0.00100000 </v>
   <v>       0.00100000 </v>
   <v>       0.00100000 </v>
   <v>       0.00100000 </v>
   <v>       0.00100000 </v>
   <v>       0.00050000 </v>
   <v>       0.00050000 </v>
   <v>       0.00100000 </v>
   <v>       0.00100000 </v>
   <v>       0.00100000 </v>
   <v>       0.00100000 </v>
   <v>       0.00100000 </v>
   <v>       0.00100000 </v>
   <v>       0.00050000 </v>
   <v>       0.00050000 </v>
   <v>       0.00100000 </v>
   <v>       0.00100000 </v>
   <v>       0.00100000 </v>
   <v>       0.00100000 </v>
   <v>       0.00100000 </v>
   <v>       0.00050000 </v>
   <v>       0.00050000 </v>
   <v>       0.00100000 </v>
   <v>       0.00100000 </v>
   <v>       0.00100000 </v>
   <v>       0.00100000 </v>
   <v>       0.00050000 </v>
   <v>       0.00050000 </v>
   <v>       0.00100000 </v>
   <v>       0.00100000 </v>
   <v>       0.00100000 </v>
   <v>       0.00050000 </v>
   <v>       0.00050000 </v>
   <v>       0.00100000 </v>
   <v>       0.00100000 </v>
   <v>       0.00050000 </v>
   <v>       0.00050000 </v>
   <v>       0.00100000 </v>
   <v>       0.00050000 </v>
   <v>       0.00050000 </v>
   <v>       0.00050000 </v>
   <v>       0.00012500 </v>
  </varray>
 </kpoints>
 <parameters>
  <separator name="general" >
   <i type="string" name="SYSTEM">Al</i>
   <i type="logical" name="LCOMPAT"> F  </i>
  </separator>
  <separator name="electronic" >
   <i type="string" name="PREC">accura</i>
   <i name="ENMAX">    550.00000000</i>
   <i name="ENAUG">    291.05200000</i>
   <i name="EDIFF">      0.00000010</i>
   <i type="int" name="IALGO">    38</i>
   <i type="int" name="IWAVPR">    11</i>
   <i type="int" name="NBANDS">    16</i>
   <i name="NELECT">     12.00000000</i>
   <separator name="electronic smearing" >
    <i type="int" name="ISMEAR">     2</i>
    <i name="SIGMA">      0.10000000</i>
   </separator>
   <separator name="electronic projectors" >
    <i type="logical" name="LREAL"> T  </i>
    <v name="ROPT">     -0.00025000</v>
    <i type="int" name="LMAXPAW">  -100</i>
    <i type="int" name="LMAXMIX">     2</i>
   </separator>
   <separator name="electronic startup" >
    <i type="int" name="ISTART">     0</i>
    <i type="int" name="ICHARG">     1</i>
    <i type="int" name="INIWAV">     1</i>
   </separator>
   <separator name="electronic spin" >
    <i type="int" name="ISPIN">     1</i>
    <i type="logical" name="LNONCOLLINEAR"> F  </i>
    <v name="MAGMOM">      1.00000000      1.00000000      1.00000000      1.00000000</v>
    <i name="NUPDOWN">     -1.00000000</i>
    <i type="logical" name="LSORBIT"> F  </i>
    <v name="SAXIS">      0.00000000      0.00000000      1.00000000</v>
    <i type="logical" name="LSPIRAL"> F  </i>
    <v name="QSPIRAL">      0.00000000      0.00000000      0.00000000</v>
    <i type="logical" name="LZEROZ"> F  </i>
   </separator>
   <separator name="electronic exchange-correlation" >
    <i type="logical" name="LASPH"> F  </i>
    <i type="logical" name="LMETAGGA"> F  </i>
   </separator>
   <separator name="electronic convergence" >
    <i type="int" name="NELM">    60</i>
    <i type="int" name="NELMDL">     0</i>
    <i type="int" name="NELMIN">     2</i>
    <i name="ENINI">    550.00000000</i>
    <separator name="electronic convergence detail" >
     <i type="logical" name="LDIAG"> T  </i>
     <i name="WEIMIN">      0.00100000</i>
     <i name="EBREAK">      0.00000000</i>
     <i name="DEPER">      0.30000000</i>
     <i type="int" name="NRMM">     4</i>
     <i name="TIME">      0.40000000</i>
    </separator>
   </separator>
   <separator name="electronic mixer" >
    <i name="AMIX">      0.40000000</i>
    <i name="BMIX">      1.00000000</i>
    <i name="AMIN">      0.10000000</i>
    <i name="AMIX_MAG">      1.60000000</i>
    <i name="BMIX_MAG">      1.00000000</i>
    <separator name="electronic mixer details" >
     <i type="int" name="IMIX">     4</i>
     <i type="int" name="MAXMIX">   -45</i>
     <i name="WC">    100.00000000</i>
     <i type="int" name="INIMIX">     1</i>
     <i type="int" name="MIXPRE">     1</i>
     <i type="int" name="MREMOVE">     5</i>
    </separator>
   </separator>
   <separator name="electronic dipolcorrection" >
    <i type="logical" name="LDIPOL"> F  </i>
    <i type="logical" name="LMONO"> F  </i>
    <i type="int" name="IDIPOL">     0</i>
    <i name="EPSILON">      1.00000000</i>
    <v name="DIPOL">   -100.00000000   -100.00000000   -100.00000000</v>
    <i name="EFIELD">      0.00000000</i>
   </separator>
  </separator>
  <separator name="grids" >
   <i type="int" name="NGX">    32</i>
   <i type="int" name="NGY">    32</i>
   <i type="int" name="NGZ">    32</i>
   <i type="int" name="NGXF">    64</i>
   <i type="int" name="NGYF">    64</i>
   <i type="int" name="NGZF">    64</i>
   <i type="logical" name="ADDGRID"> F  </i>
  </separator>
  <separator name="ionic" >
   <i type="int" name="NSW">     5</i>
   <i type="int" name="IBRION">     2</i>
   <i type="int" name="ISIF">     2</i>
   <i name="PSTRESS">      0.00000000</i>
   <i name="EDIFFG">      0.00000010</i>
   <i type="int" name="NFREE">     1</i>
   <i name="POTIM">      0.10000000</i>
   <i name="SMASS">     -3.00000000</i>
  </separator>
  <separator name="ionic md" >
   <i name="TEBEG">      0.00010000</i>
   <i name="TEEND">      0.00010000</i>
   <i type="int" name="NBLOCK">     1</i>
   <i type="int" name="KBLOCK">     5</i>
   <i type="int" name="NPACO">   256</i>
   <i name="APACO">     16.00000000</i>
  </separator>
  <separator name="symmetry" >
   <i type="int" name="ISYM">     2</i>
   <i name="SYMPREC">      0.00001000</i>
  </separator>
  <separator name="dos" >
   <i type="logical" name="LORBIT"> F  </i>
   <v name="RWIGS">     -1.00000000</v>
   <i type="int" name="NEDOS">   301</i>
   <i name="EMIN">     10.00000000</i>
   <i name="EMAX">    -10.00000000</i>
   <i name="EFERMI">      0.00000000</i>
  </separator>
  <separator name="writing" >
   <i type="int" name="NWRITE">     2</i>
   <i type="logical" name="LWAVE"> F  </i>
   <i type="logical" name="LCHARG"> T  </i>
   <i type="logical" name="LPARD"> F  </i>
   <i type="logical" name="LVTOT"> F  </i>
   <i type="logical" name="LELF"> F  </i>
   <i type="logical" name="LOPTICS"> F  </i>
   <v name="STM">      0.00000000      0.00000000      0.00000000      0.00000000      0.00000000</v>
  </separator>
  <separator name="performance" >
   <i type="int" name="NPAR">     8</i>
   <i type="int" name="NSIM">     4</i>
   <i type="int" name="NBLK">    32</i>
   <i type="logical" name="LPLANE"> T  </i>
   <i type="logical" name="LSCALAPACK"> T  </i>
   <i type="logical" name="LSCAAWARE"> F  </i>
   <i type="logical" name="LSCALU"> F  </i>
   <i type="logical" name="LASYNC"> F  </i>
  </separator>
  <separator name="miscellaneous" >
   <i type="int" name="IDIOT">     3</i>
   <i type="logical" name="LMUSIC"> F  </i>
   <v name="POMASS">     26.98200000</v>
   <i type="logical" name="LCORR"> T  </i>
  </separator>
  <i type="logical" name="LREAL_COMPAT"> F  </i>
  <i type="logical" name="GGA_COMPAT"> T  </i>
  <i type="logical" name="LBERRY"> F  </i>
  <i type="int" name="ICORELEVEL">     0</i>
  <i type="logical" name="LDAU"> F  </i>
  <i type="int" name="I_CONSTRAINED_M">     0</i>
  <separator name="electronic exchange-correlation" >
   <i type="string" name="GGA">--</i>
   <i type="int" name="VOSKOWN">     1</i>
   <i type="logical" name="LHFCALC"> F  </i>
   <i type="logical" name="LHFONE"> F  </i>
   <i type="logical" name="LRHFCALC"> F  </i>
   <i type="logical" name="LTHOMAS"> F  </i>
   <i type="logical" name="LMODELHF"> F  </i>
   <i name="ENCUTFOCK">      0.00000000</i>
   <i name="ENCUT4O">     -1.00000000</i>
   <i type="int" name="EXXOEP">     0</i>
   <i type="int" name="FOURORBIT">     0</i>
   <i name="AEXX">      0.00000000</i>
   <i name="HFALPHA">      0.00000000</i>
   <i name="ALDAX">      1.00000000</i>
   <i name="AGGAX">      1.00000000</i>
   <i name="ALDAC">      1.00000000</i>
   <i name="AGGAC">      1.00000000</i>
   <i type="int" name="NKREDX">     1</i>
   <i type="int" name="NKREDY">     1</i>
   <i type="int" name="NKREDZ">     1</i>
   <i type="logical" name="SHIFTRED"> F  </i>
   <i type="logical" name="ODDONLY"> F  </i>
   <i type="logical" name="EVENONLY"> F  </i>
   <i type="int" name="LMAXFOCK">     0</i>
   <i type="int" name="NMAXFOCKAE">     0</i>
   <i name="HFSCREEN">      0.00000000</i>
   <i name="HFSCREENC">      0.00000000</i>
  </separator>
  <separator name="model GW" >
   <i type="int" name="MODEL_GW">     0</i>
   <i name="MODEL_EPS0">     10.04327146</i>
   <i name="MODEL_ALPHA">      1.00000000</i>
  </separator>
  <separator name="linear response parameters" >
   <i type="logical" name="LEPSILON"> F  </i>
   <i type="logical" name="LRPA"> F  </i>
   <i type="logical" name="LNABLA"> F  </i>
   <i type="logical" name="LVEL"> F  </i>
   <i type="int" name="KINTER">     0</i>
   <i name="CSHIFT">      0.10000000</i>
   <i name="OMEGAMAX">     -1.00000000</i>
  </separator>
  <separator name="orbital magnetization" >
   <i type="logical" name="ORBITALMAG"> F  </i>
   <i type="logical" name="LMAGBLOCH"> F  </i>
   <i type="logical" name="LCHIMAG"> F  </i>
   <i type="logical" name="LGAUGE"> T  </i>
   <i type="int" name="MAGATOM">     0</i>
   <v name="MAGDIPOL">      0.00000000      0.00000000      0.00000000</v>
   <v name="AVECCONST">      0.00000000      0.00000000      0.00000000</v>
  </separator>
  <separator name="response functions" >
   <i type="logical" name="LRPA"> T  </i>
   <i type="logical" name="LTCTE"> F  </i>
   <i type="logical" name="LTETE"> F  </i>
   <i type="logical" name="L2ORDER"> F  </i>
   <i type="logical" name="LGWLF"> F  </i>
   <i name="ENCUTGW">    366.66666667</i>
   <i name="ENCUTGWSOFT">     -2.00000000</i>
   <i name="ENCUTLF">     -1.00000000</i>
   <i type="int" name="LMAXMP2">    -1</i>
   <i name="SCISSOR">      0.00000000</i>
   <i type="int" name="NOMEGA">     0</i>
   <i type="int" name="NOMEGAR">     0</i>
   <i type="int" name="NBANDSGW">    -1</i>
   <i type="int" name="NBANDSLF">    -1</i>
   <i type="int" name="NELM">     1</i>
   <i type="int" name="DIM">     3</i>
   <i type="int" name="ANTIRES">     0</i>
   <i type="logical" name="LUSEW"> F  </i>
   <i name="OMEGAMAX">    -30.00000000</i>
   <i name="OMEGATL">   -200.00000000</i>
   <i type="int" name="OMEGAGRID">     0</i>
   <i name="CSHIFT">     -0.10000000</i>
   <i type="logical" name="SELFENERGY"> F  </i>
   <i type="logical" name="LSPECTRAL"> F  </i>
   <i type="logical" name="ODDONLYGW"> F  </i>
   <i type="logical" name="EVENONLYGW"> F  </i>
   <i type="int" name="NKREDLFX">     1</i>
   <i type="int" name="NKREDLFY">     1</i>
   <i type="int" name="NKREDLFZ">     1</i>
   <i type="int" name="MAXMEM">  1024</i>
   <i type="int" name="TELESCOPE">     0</i>
  </separator>
 </parameters>
 <atominfo>
  <atoms>       4 </atoms>
  <types>       1 </types>
  <array name="atoms" >
   <dimension dim="1">ion</dimension>
   <field type="string">element</field>
   <field type="int">atomtype</field>
   <set>
    <rc><c>Al</c><c>   1</c></rc>
    <rc><c>Al</c><c>   1</c></rc>
    <rc><c>Al</c><c>   1</c></rc>
    <rc><c>Al</c><c>   1</c></rc>
   </set>
  </array>
  <array name="atomtypes" >
   <dimension dim="1">type</dimension>
   <field type="int">atomspertype</field>
   <field type="string">element</field>
   <field>mass</field>
   <field>valence</field>
   <field type="string">pseudopotential</field>
   <set>
    <rc><c>   4</c><c>Al</c><c>     26.98200000</c><c>      3.00000000</c><c> PAW_PBE Al 04Jan2001                   </c></rc>
   </set>
  </array>
 </atominfo>
 <structure name="initialpos" >
  <crystal>
   <varray name="basis" >
    <v>       4.04053900       0.00000000       0.00000000 </v>
    <v>       0.00000000       4.04053900       0.00000000 </v>
    <v>       0.00000000       0.00000000       4.10114700 </v>
   </varray>
   <i name="volume">     66.95514305 </i>
   <varray name="rec_basis" >
    <v>       0.24749173       0.00000000       0.00000000 </v>
    <v>       0.00000000       0.24749173       0.00000000 </v>
    <v>       0.00000000       0.00000000       0.24383422 </v>
   </varray>
  </crystal>
  <varray name="positions" >
   <v>       0.00000000       0.00000000       0.00000000 </v>
   <v>       0.50000000       0.50000000       0.00000000 </v>
[...]
      </set>
      <set comment="kpoint 718">
       <r>    1.5014    1.0000 </r>
       <r>    1.5014    1.0000 </r>
       <r>    3.2400    1.0000 </r>
       <r>    3.2400    1.0000 </r>
       <r>    4.1264    1.0000 </r>
       <r>    4.1264    1.0000 </r>
       <r>    5.8383    1.0000 </r>
       <r>    5.8383    1.0000 </r>
       <r>   15.9195    0.0000 </r>
       <r>   15.9195    0.0000 </r>
       <r>   16.6686    0.0000 </r>
       <r>   16.6686    0.0000 </r>
       <r>   17.3114    0.0000 </r>
       <r>   17.3114    0.0000 </r>
       <r>   17.7948    0.0000 </r>
       <r>   17.7948    0.0000 </r>
      </set>
      <set comment="kpoint 719">
       <r>    1.8740    1.0000 </r>
       <r>    1.8740    1.0000 </r>
       <r>    2.7454    1.0000 </r>
       <r>    2.7454    1.0000 </r>
       <r>    4.4883    1.0000 </r>
       <r>    4.4883    1.0000 </r>
       <r>    5.3463    1.0000 </r>
       <r>    5.3463    1.0000 </r>
       <r>   16.2566    0.0000 </r>
       <r>   16.2566    0.0000 </r>
       <r>   16.9846    0.0000 </r>
       <r>   16.9846    0.0000 </r>
       <r>   17.5640    0.0000 </r>
       <r>   17.5640    0.0000 </r>
       <r>   18.0183    0.0000 </r>
       <r>   18.0183    0.0000 </r>
      </set>
      <set comment="kpoint 720">
       <r>    2.2890    1.0000 </r>
       <r>    2.2890    1.0000 </r>
       <r>    2.2890    1.0000 </r>
       <r>    2.2890    1.0000 </r>
       <r>    4.8960    1.0000 </r>
       <r>    4.8960    1.0000 </r>
       <r>    4.8960    1.0000 </r>
       <r>    4.8960    1.0000 </r>
       <r>   16.6151    0.0000 </r>
       <r>   16.6151    0.0000 </r>
       <r>   16.6151    0.0000 </r>
       <r>   16.6151    0.0000 </r>
       <r>   18.0559    0.0000 </r>
       <r>   18.0559    0.0000 </r>
       <r>   18.0559    0.0000 </r>
       <r>   18.0559    0.0000 </r>
      </set>
      <set comment="kpoint 721">
       <r>    1.8303    1.0000 </r>
       <r>    1.8303    1.0000 </r>
       <r>    3.4838    1.0000 </r>
       <r>    3.4838    1.0000 </r>
       <r>    3.6684    1.0000 </r>
       <r>    3.6684    1.0000 </r>
       <r>    5.3041    1.0000 </r>
       <r>    5.3041    1.0000 </r>
       <r>   16.8747    0.0000 </r>
       <r>   16.8747    0.0000 </r>
       <r>   17.0143    0.0000 </r>
       <r>   17.0143    0.0000 </r>
       <r>   17.9417    0.0000 </r>
       <r>   17.9417    0.0000 </r>
       <r>   18.0485    0.0000 </r>
       <r>   18.0485    0.0000 </r>
      </set>
      <set comment="kpoint 722">
       <r>    2.2019    1.0000 </r>
       <r>    2.2019    1.0000 </r>
       <r>    3.0678    1.0000 </r>
       <r>    3.0678    1.0000 </r>
       <r>    3.9539    1.0000 </r>
       <r>    3.9539    1.0000 </r>
       <r>    4.8109    1.0000 </r>
       <r>    4.8109    1.0000 </r>
       <r>   17.2616    0.0000 </r>
       <r>   17.2616    0.0000 </r>
       <r>   17.8539    0.0000 </r>
       <r>   17.8539    0.0000 </r>
       <r>   17.9141    0.0000 </r>
       <r>   17.9141    0.0000 </r>
       <r>   18.2872    0.0000 </r>
       <r>   18.2872    0.0000 </r>
      </set>
      <set comment="kpoint 723">
       <r>    2.6153    1.0000 </r>
       <r>    2.6153    1.0000 </r>
       <r>    2.6153    1.0000 </r>
       <r>    2.6153    1.0000 </r>
       <r>    4.3599    1.0000 </r>
       <r>    4.3599    1.0000 </r>
       <r>    4.3599    1.0000 </r>
       <r>    4.3599    1.0000 </r>
       <r>   17.6032    0.0000 </r>
       <r>   17.6032    0.0000 </r>
       <r>   17.6032    0.0000 </r>
       <r>   17.6032    0.0000 </r>
       <r>   18.3466    0.0000 </r>
       <r>   18.3466    0.0000 </r>
       <r>   18.3466    0.0000 </r>
       <r>   18.3466    0.0000 </r>
      </set>
      <set comment="kpoint 724">
       <r>    2.5719    1.0000 </r>
       <r>    2.5719    1.0000 </r>
       <r>    3.3579    1.0000 </r>
       <r>    3.3579    1.0000 </r>
       <r>    3.5355    1.0000 </r>
       <r>    3.5355    1.0000 </r>
       <r>    4.3170    1.0000 </r>
       <r>    4.3170    1.0000 </r>
       <r>   18.1498    0.0000 </r>
       <r>   18.1498    0.0000 </r>
       <r>   18.1976    0.0000 </r>
       <r>   18.1976    0.0000 </r>
       <r>   18.5544    0.0000 </r>
       <r>   18.5545    0.0000 </r>
       <r>   18.6063    0.0000 </r>
       <r>   18.6064    0.0000 </r>
      </set>
      <set comment="kpoint 725">
       <r>    2.9816    1.0000 </r>
       <r>    2.9816    1.0000 </r>
       <r>    2.9816    1.0000 </r>
       <r>    2.9816    1.0000 </r>
       <r>    3.8675    1.0000 </r>
       <r>    3.8675    1.0000 </r>
       <r>    3.8675    1.0000 </r>
       <r>    3.8675    1.0000 </r>
       <r>   18.5065    0.0000 </r>
       <r>   18.5065    0.0000 </r>
       <r>   18.5065    0.0000 </r>
       <r>   18.5065    0.0000 </r>
       <r>   18.6722    0.0000 </r>
       <r>   18.6722    0.0000 </r>
       <r>   18.6722    0.0000 </r>
       <r>   18.6722    0.0000 </r>
      </set>
      <set comment="kpoint 726">
       <r>    3.3159    1.0000 </r>
       <r>    3.3159    1.0000 </r>
       <r>    3.3159    1.0000 </r>
       <r>    3.3159    1.0000 </r>
       <r>    3.4911    1.0000 </r>
       <r>    3.4911    1.0000 </r>
       <r>    3.4911    1.0000 </r>
       <r>    3.4911    1.0000 </r>
       <r>   18.9146    0.0000 </r>
       <r>   18.9147    0.0000 </r>
       <r>   18.9149    0.0000 </r>
       <r>   18.9176    0.0000 </r>
       <r>   19.0723    0.0000 </r>
       <r>   19.0725    0.0000 </r>
       <r>   19.0767    0.0000 </r>
       <r>   19.1124    0.0000 </r>
      </set>
     </set>
    </set>
   </array>
  </eigenvalues>
  <separator name="orbital magnetization" >
   <v name="MAGDIPOLOUT">      0.00000000      0.00000000      0.00000000</v>
  </separator>
  <dos>
   <i name="efermi">      7.86420755 </i>
   <total>
    <array>
     <dimension dim="1">gridpoints</dimension>
     <dimension dim="2">spin</dimension>
     <field>energy</field>
     <field>total</field>
     <field>integrated</field>
     <set>
      <set comment="spin 1">
       <r>  -4.3136   0.0000   0.0000 </r>
       <r>  -4.2308   0.0000   0.0000 </r>
       <r>  -4.1480   0.0000   0.0000 </r>
       <r>  -4.0652   0.0000   0.0000 </r>
       <r>  -3.9825   0.0000   0.0000 </r>
       <r>  -3.8997   0.0000   0.0000 </r>
       <r>  -3.8169   0.0000   0.0000 </r>
       <r>  -3.7341   0.0000   0.0000 </r>
       <r>  -3.6513   0.0000   0.0000 </r>
       <r>  -3.5685   0.0000   0.0000 </r>
       <r>  -3.4857   0.0000   0.0000 </r>
       <r>  -3.4030   0.0001   0.0000 </r>
       <r>  -3.3202   0.0002   0.0000 </r>
       <r>  -3.2374  -0.0034  -0.0003 </r>
       <r>  -3.1546   0.0261   0.0019 </r>
       <r>  -3.0718   0.1192   0.0118 </r>
       <r>  -2.9890   0.1815   0.0268 </r>
       <r>  -2.9062   0.2344   0.0462 </r>
       <r>  -2.8235   0.2496   0.0669 </r>
       <r>  -2.7407   0.3236   0.0937 </r>
       <r>  -2.6579   0.2946   0.1181 </r>
       <r>  -2.5751   0.3726   0.1489 </r>
       <r>  -2.4923   0.3901   0.1812 </r>
       <r>  -2.4095   0.3752   0.2123 </r>
       <r>  -2.3267   0.4256   0.2475 </r>
       <r>  -2.2440   0.4810   0.2873 </r>
       <r>  -2.1612   0.4645   0.3258 </r>
       <r>  -2.0784   0.4020   0.3590 </r>
       <r>  -1.9956   0.5999   0.4087 </r>
       <r>  -1.9128   0.5330   0.4528 </r>
       <r>  -1.8300   0.4761   0.4922 </r>
       <r>  -1.7472   0.5444   0.5373 </r>
       <r>  -1.6645   0.6495   0.5911 </r>
       <r>  -1.5817   0.5523   0.6368 </r>
       <r>  -1.4989   0.6419   0.6900 </r>
       <r>  -1.4161   0.5891   0.7387 </r>
       <r>  -1.3333   0.5826   0.7870 </r>
       <r>  -1.2505   0.6911   0.8442 </r>
       <r>  -1.1677   0.8036   0.9107 </r>
       <r>  -1.0850   0.5882   0.9594 </r>
       <r>  -1.0022   0.5575   1.0055 </r>
       <r>  -0.9194   0.8319   1.0744 </r>
       <r>  -0.8366   0.7480   1.1363 </r>
       <r>  -0.7538   0.7597   1.1992 </r>
       <r>  -0.6710   0.6793   1.2555 </r>
       <r>  -0.5882   0.8014   1.3218 </r>
       <r>  -0.5055   0.7295   1.3822 </r>
       <r>  -0.4227   0.7825   1.4470 </r>
       <r>  -0.3399   0.8312   1.5158 </r>
       <r>  -0.2571   0.8525   1.5864 </r>
       <r>  -0.1743   0.8631   1.6578 </r>
       <r>  -0.0915   0.8131   1.7251 </r>
       <r>  -0.0087   0.6968   1.7828 </r>
       <r>   0.0740   0.8445   1.8527 </r>
       <r>   0.1568   1.0592   1.9404 </r>
       <r>   0.2396   0.9767   2.0213 </r>
       <r>   0.3224   0.7536   2.0837 </r>
       <r>   0.4052   0.8155   2.1512 </r>
       <r>   0.4880   0.9999   2.2340 </r>
       <r>   0.5708   0.8771   2.3066 </r>
       <r>   0.6535   1.0549   2.3939 </r>
       <r>   0.7363   0.8687   2.4658 </r>
       <r>   0.8191   0.9429   2.5439 </r>
       <r>   0.9019   1.1077   2.6356 </r>
       <r>   0.9847   1.0007   2.7184 </r>
       <r>   1.0675   0.8151   2.7859 </r>
       <r>   1.1503   0.9945   2.8682 </r>
       <r>   1.2330   1.0689   2.9567 </r>
       <r>   1.3158   1.0038   3.0398 </r>
       <r>   1.3986   1.1490   3.1349 </r>
       <r>   1.4814   1.1762   3.2323 </r>
       <r>   1.5642   0.8858   3.3056 </r>
       <r>   1.6470   0.9822   3.3870 </r>
       <r>   1.7298   1.0477   3.4737 </r>
       <r>   1.8125   1.0989   3.5647 </r>
       <r>   1.8953   1.2165   3.6654 </r>
       <r>   1.9781   1.1931   3.7641 </r>
       <r>   2.0609   1.0939   3.8547 </r>
       <r>   2.1437   0.9274   3.9315 </r>
       <r>   2.2265   1.2220   4.0327 </r>
       <r>   2.3093   1.2449   4.1357 </r>
       <r>   2.3920   1.1418   4.2302 </r>
       <r>   2.4748   1.0326   4.3157 </r>
       <r>   2.5576   1.1651   4.4122 </r>
       <r>   2.6404   1.1798   4.5099 </r>
       <r>   2.7232   1.3586   4.6223 </r>
       <r>   2.8060   1.3192   4.7315 </r>
       <r>   2.8888   1.1135   4.8237 </r>
       <r>   2.9715   1.1475   4.9187 </r>
       <r>   3.0543   1.1814   5.0165 </r>
       <r>   3.1371   1.1757   5.1138 </r>
       <r>   3.2199   1.2835   5.2201 </r>
       <r>   3.3027   1.4319   5.3386 </r>
       <r>   3.3855   1.3641   5.4516 </r>
       <r>   3.4683   1.2873   5.5581 </r>
       <r>   3.5510   1.1226   5.6511 </r>
       <r>   3.6338   1.3497   5.7628 </r>
       <r>   3.7166   1.2261   5.8643 </r>
       <r>   3.7994   1.2682   5.9693 </r>
       <r>   3.8822   1.3835   6.0838 </r>
       <r>   3.9650   1.4106   6.2006 </r>
       <r>   4.0478   1.3669   6.3138 </r>
       <r>   4.1305   1.4163   6.4310 </r>
       <r>   4.2133   1.1457   6.5259 </r>
       <r>   4.2961   1.4328   6.6445 </r>
       <r>   4.3789   1.5236   6.7706 </r>
       <r>   4.4617   1.4621   6.8917 </r>
       <r>   4.5445   1.3853   7.0063 </r>
       <r>   4.6273   1.3141   7.1151 </r>
       <r>   4.7100   1.2311   7.2170 </r>
       <r>   4.7928   1.6180   7.3510 </r>
       <r>   4.8756   1.7060   7.4922 </r>
       <r>   4.9584   1.5694   7.6221 </r>
       <r>   5.0412   1.5135   7.7474 </r>
       <r>   5.1240   1.4526   7.8677 </r>
       <r>   5.2068   1.3854   7.9824 </r>
       <r>   5.2895   1.5025   8.1068 </r>
       <r>   5.3723   1.8465   8.2596 </r>
       <r>   5.4551   1.4472   8.3794 </r>
       <r>   5.5379   1.3220   8.4889 </r>
       <r>   5.6207   1.4775   8.6112 </r>
       <r>   5.7035   1.6575   8.7484 </r>
       <r>   5.7863   1.3481   8.8600 </r>
       <r>   5.8690   1.3558   8.9723 </r>
       <r>   5.9518   1.4312   9.0907 </r>
       <r>   6.0346   1.4574   9.2114 </r>
       <r>   6.1174   1.4158   9.3286 </r>
       <r>   6.2002   1.4145   9.4457 </r>
       <r>   6.2830   1.4210   9.5633 </r>
       <r>   6.3658   1.5527   9.6919 </r>
       <r>   6.4485   1.2976   9.7993 </r>
       <r>   6.5313   1.4894   9.9226 </r>
       <r>   6.6141   1.4489  10.0426 </r>
       <r>   6.6969   1.5182  10.1682 </r>
       <r>   6.7797   1.6067  10.3013 </r>
       <r>   6.8625   1.6785  10.4402 </r>
       <r>   6.9453   1.5375  10.5675 </r>
       <r>   7.0280   1.5645  10.6970 </r>
       <r>   7.1108   1.6656  10.8349 </r>
       <r>   7.1936   1.4924  10.9584 </r>
       <r>   7.2764   1.3569  11.0708 </r>
       <r>   7.3592   1.6816  11.2100 </r>
       <r>   7.4420   1.6662  11.3479 </r>
       <r>   7.5248   1.5385  11.4753 </r>
       <r>   7.6075   1.4604  11.5962 </r>
       <r>   7.6903   1.5426  11.7239 </r>
       <r>   7.7731   1.5080  11.8487 </r>
       <r>   7.8559   1.6542  11.9857 </r>
       <r>   7.9387   1.6786  12.1246 </r>
       <r>   8.0215   1.8913  12.2812 </r>
       <r>   8.1043   1.7606  12.4270 </r>
       <r>   8.1870   1.7322  12.5704 </r>
       <r>   8.2698   1.4703  12.6921 </r>
       <r>   8.3526   1.5608  12.8213 </r>
       <r>   8.4354   1.5972  12.9535 </r>
       <r>   8.5182   1.5017  13.0779 </r>
       <r>   8.6010   1.8852  13.2339 </r>
       <r>   8.6838   2.0359  13.4025 </r>
       <r>   8.7665   1.8731  13.5575 </r>
       <r>   8.8493   1.5639  13.6870 </r>
       <r>   8.9321   1.6634  13.8247 </r>
       <r>   9.0149   1.6568  13.9619 </r>
       <r>   9.0977   1.5322  14.0887 </r>
       <r>   9.1805   1.5156  14.2142 </r>
       <r>   9.2633   2.0202  14.3814 </r>
       <r>   9.3460   1.8421  14.5339 </r>
       <r>   9.4288   1.5869  14.6653 </r>
       <r>   9.5116   1.9236  14.8245 </r>
       <r>   9.5944   1.8510  14.9778 </r>
       <r>   9.6772   1.8269  15.1290 </r>
       <r>   9.7600   1.7676  15.2753 </r>
       <r>   9.8428   1.5591  15.4044 </r>
       <r>   9.9255   1.8933  15.5612 </r>
       <r>  10.0083   1.7037  15.7022 </r>
       <r>  10.0911   2.0582  15.8726 </r>
       <r>  10.1739   1.7972  16.0214 </r>
       <r>  10.2567   1.8155  16.1717 </r>
       <r>  10.3395   1.9144  16.3302 </r>
       <r>  10.4223   1.9264  16.4896 </r>
       <r>  10.5050   1.5067  16.6144 </r>
       <r>  10.5878   1.6874  16.7541 </r>
       <r>  10.6706   2.1892  16.9353 </r>
       <r>  10.7534   2.0982  17.1090 </r>
       <r>  10.8362   1.7014  17.2498 </r>
       <r>  10.9190   2.0021  17.4156 </r>
       <r>  11.0018   1.9615  17.5780 </r>
       <r>  11.0845   1.9046  17.7356 </r>
       <r>  11.1673   1.8189  17.8862 </r>
       <r>  11.2501   1.8897  18.0427 </r>
       <r>  11.3329   2.0413  18.2117 </r>
       <r>  11.4157   1.8056  18.3611 </r>
       <r>  11.4985   1.6828  18.5004 </r>
       <r>  11.5813   2.1178  18.6758 </r>
       <r>  11.6640   2.3820  18.8730 </r>
       <r>  11.7468   2.0036  19.0388 </r>
       <r>  11.8296   1.6198  19.1729 </r>
       <r>  11.9124   2.1028  19.3470 </r>
       <r>  11.9952   2.1438  19.5245 </r>
       <r>  12.0780   1.9868  19.6890 </r>
       <r>  12.1608   1.9651  19.8516 </r>
       <r>  12.2435   2.1218  20.0273 </r>
       <r>  12.3263   2.0481  20.1969 </r>
       <r>  12.4091   2.0406  20.3658 </r>
       <r>  12.4919   1.8163  20.5161 </r>
       <r>  12.5747   1.9694  20.6792 </r>
       <r>  12.6575   2.2505  20.8655 </r>
       <r>  12.7403   2.5360  21.0754 </r>
       <r>  12.8231   2.0393  21.2443 </r>
       <r>  12.9058   2.1129  21.4192 </r>
       <r>  12.9886   2.1631  21.5983 </r>
       <r>  13.0714   1.9201  21.7572 </r>
       <r>  13.1542   2.1498  21.9352 </r>
       <r>  13.2370   2.1504  22.1132 </r>
       <r>  13.3198   2.6519  22.3328 </r>
       <r>  13.4026   2.7145  22.5575 </r>
       <r>  13.4853   2.0638  22.7283 </r>
       <r>  13.5681   2.2073  22.9111 </r>
       <r>  13.6509   2.3100  23.1023 </r>
       <r>  13.7337   2.2845  23.2914 </r>
       <r>  13.8165   2.2717  23.4795 </r>
       <r>  13.8993   2.3927  23.6776 </r>
       <r>  13.9821   2.4457  23.8801 </r>
       <r>  14.0648   2.2219  24.0640 </r>
       <r>  14.1476   2.1868  24.2450 </r>
       <r>  14.2304   2.4530  24.4481 </r>
       <r>  14.3132   2.1455  24.6257 </r>
       <r>  14.3960   1.9664  24.7885 </r>
       <r>  14.4788   2.1991  24.9706 </r>
       <r>  14.5616   2.3066  25.1615 </r>
       <r>  14.6443   2.3900  25.3594 </r>
       <r>  14.7271   2.2147  25.5427 </r>
       <r>  14.8099   1.6956  25.6831 </r>
       <r>  14.8927   2.1183  25.8585 </r>
       <r>  14.9755   2.1871  26.0395 </r>
       <r>  15.0583   2.1039  26.2137 </r>
       <r>  15.1411   2.2797  26.4024 </r>
       <r>  15.2238   2.4184  26.6026 </r>
       <r>  15.3066   2.0829  26.7751 </r>
       <r>  15.3894   2.0131  26.9417 </r>
       <r>  15.4722   2.1677  27.1212 </r>
       <r>  15.5550   2.1509  27.2992 </r>
       <r>  15.6378   2.1202  27.4748 </r>
       <r>  15.7206   1.8056  27.6242 </r>
       <r>  15.8033   2.0710  27.7957 </r>
       <r>  15.8861   2.3382  27.9893 </r>
       <r>  15.9689   2.3665  28.1852 </r>
       <r>  16.0517   2.1667  28.3645 </r>
       <r>  16.1345   1.8902  28.5210 </r>
       <r>  16.2173   1.7416  28.6652 </r>
       <r>  16.3001   1.9875  28.8297 </r>
       <r>  16.3828   1.9147  28.9883 </r>
       <r>  16.4656   2.4445  29.1906 </r>
       <r>  16.5484   1.9689  29.3536 </r>
       <r>  16.6312   1.8694  29.5084 </r>
       <r>  16.7140   2.0970  29.6820 </r>
       <r>  16.7968   1.7048  29.8231 </r>
       <r>  16.8796   1.6941  29.9634 </r>
       <r>  16.9623   1.9071  30.1212 </r>
       <r>  17.0451   1.6566  30.2584 </r>
       <r>  17.1279   1.4790  30.3808 </r>
       <r>  17.2107   1.7168  30.5229 </r>
       <r>  17.2935   1.5747  30.6533 </r>
       <r>  17.3763   1.3656  30.7664 </r>
       <r>  17.4591   1.2507  30.8699 </r>
       <r>  17.5418   1.1159  30.9623 </r>
       <r>  17.6246   1.3549  31.0744 </r>
       <r>  17.7074   1.0867  31.1644 </r>
       <r>  17.7902   1.0175  31.2486 </r>
       <r>  17.8730   1.0166  31.3328 </r>
       <r>  17.9558   1.0542  31.4201 </r>
       <r>  18.0386   1.0422  31.5064 </r>
       <r>  18.1213   0.7889  31.5717 </r>
       <r>  18.2041   0.7360  31.6326 </r>
       <r>  18.2869   0.9112  31.7080 </r>
       <r>  18.3697   0.8345  31.7771 </r>
       <r>  18.4525   0.6060  31.8273 </r>
       <r>  18.5353   0.4103  31.8613 </r>
       <r>  18.6181   0.3602  31.8911 </r>
       <r>  18.7008   0.3490  31.9200 </r>
       <r>  18.7836   0.2800  31.9431 </r>
       <r>  18.8664   0.1407  31.9548 </r>
       <r>  18.9492   0.2073  31.9719 </r>
       <r>  19.0320   0.1347  31.9831 </r>
       <r>  19.1148   0.0935  31.9908 </r>
       <r>  19.1976   0.0787  31.9974 </r>
       <r>  19.2803   0.0084  31.9981 </r>
       <r>  19.3631   0.0040  31.9984 </r>
       <r>  19.4459   0.0184  31.9999 </r>
       <r>  19.5287   0.0017  32.0000 </r>
       <r>  19.6115  -0.0007  32.0000 </r>
       <r>  19.6943   0.0001  32.0000 </r>
       <r>  19.7771   0.0000  32.0000 </r>
       <r>  19.8598   0.0000  32.0000 </r>
       <r>  19.9426   0.0000  32.0000 </r>
       <r>  20.0254   0.0000  32.0000 </r>
       <r>  20.1082   0.0000  32.0000 </r>
       <r>  20.1910   0.0000  32.0000 </r>
       <r>  20.2738   0.0000  32.0000 </r>
       <r>  20.3566   0.0000  32.0000 </r>
       <r>  20.4393   0.0000  32.0000 </r>
       <r>  20.5221   0.0000  32.0000 </r>
      </set>
     </set>
    </array>
   </total>
  </dos>
 </calculation>
 <structure name="finalpos" >
  <crystal>
   <varray name="basis" >
    <v>       4.04053900       0.00000000       0.00000000 </v>
    <v>       0.00000000       4.04053900       0.00000000 </v>
    <v>       0.00000000       0.00000000       4.10114700 </v>
   </varray>
   <i name="volume">     66.95514305 </i>
   <varray name="rec_basis" >
    <v>       0.24749173       0.00000000       0.00000000 </v>
    <v>       0.00000000       0.24749173       0.00000000 </v>
    <v>       0.00000000       0.00000000       0.24383422 </v>
   </varray>
  </crystal>
  <varray name="positions" >
   <v>       0.00000000       0.00000000       0.00000000 </v>
   <v>       0.50000000       0.50000000       0.00000000 </v>
   <v>       0.50000000       0.00000000       0.50000000 </v>
   <v>       0.00000000       0.50000000       0.50000000 </v>
  </varray>
 </structure>
</modeling>
