
Running Job 1 of 1 hf.inp
qchem hf.inp_5783.0 /Users/xiaohuiqu/scratch/qchem5783/ 1
                  Welcome to Q-Chem
     A Quantum Leap Into The Future Of Chemistry

 Y. Shao, L. Fusti-Molnar, Y. Jung, J. Kussmann, C. Ochsenfeld, S. T. Brown, 
 A. T. B. Gilbert, L. V. Slipchenko, S. V. Levchenko, D. P. O'Neill, 
 R. A. DiStasio Jr., R. C. Lochan, T. Wang, G. J. O. Beran, N. A. Besley, 
 J. M. Herbert, C. Y. Lin, T. Van Voorhis, S. H. Chien, A. Sodt, R. P. Steele, 
 V. A. Rassolov, P. E. Maslen, P. P. Korambath, R. D. Adamson, B. Austin, 
 J. Baker, E. F. C. Byrd, H. Dachsel, R. J. Doerksen, A. Dreuw, B. D. Dunietz, 
 A. D. Dutoi, T. R. Furlani, S. R. Gwaltney, A. Heyden, S. Hirata, C.-P. Hsu, 
 G. Kedziora, R. Z. Khaliullin, P. Klunzinger, A. M. Lee, M. S. Lee, W. Liang, 
 I. Lotan, N. Nair, B. Peters, E. I. Proynov, P. A. Pieniazek, Y. M. Rhee, 
 J. Ritchie, E. Rosta, C. D. Sherrill, A. C. Simmonett, J. E. Subotnik, 
 H. L. Woodcock III, W. Zhang, A. T. Bell, A. K. Chakraborty, D. M. Chipman, 
 F. J. Keil, A. Warshel, W. J. Hehre, H. F. Schaefer III, J. Kong, 
 A. I. Krylov, P. M. W. Gill, M. Head-Gordon

 Additional authors for Version 3.1: 
 Z. Gan, Y. Zhao, N. E. SchultzD. Truhlar, E. Epifanovsky, M. Oana

 Additional authors for Version 3.2: 
 R. Baer, B. R. Brooks, D. Casanova, J.-D. Chai, C.-L. Cheng, C. Cramer, 
 D. Crittenden, A. Ghysels, G. Hawkins, E. G. Hohenstein, C. Kelley, 
 W. Kurlancheek, D. Liotard, E. Livshits, P. Manohar, A. Marenich, 
 D. Neuhauser, R. Olson, M. A. Rohrdanz, K. S. Thanthiriwatte, A. J. W. Thom, 
 V. Vanovschi, C. F. Williams, Q. Wu, Z.-Q. You

 Additional authors for Version 4.0: 
 A. Aspuru-Guzik, Y. Bernard, C. Chang, J. Deng, A. Dreuw, M. Diedenhofen, 
 R. G. Edgar, D. Ghosh, W. A. Goddard III, M. Goldey, L. D. Jacobson, 
 M. Gordon, B. Kaduk, I. Kaliman, K. Khistyaev, R. King, A. Klamt, 
 D. Kosenkov, T. Kus, D. Lambrecht, A. Landau, A. W. Lange, K. Lawler, F. Liu, 
 J. Liu, R. Olivares-Amaya, S. P. Mao, J. Parkhill, N. Russ, M. Schmidt, 
 N. Shenvi, D. Small, Y. C. Su, E. Sundstrom, L. Vogt, O. Vydrov, M. Watson, 
 M. Wormit, X. Xu, S. Yeganeh, I. Y. Zhang, D. Zuev

 Additional authors for Version 4.1: 
 X. Feng, M. W. D. Hason-Heine, P. Horn, H. Ji, A. Laurent, R. Peverati, 
 N. Mardirossian, N. Sergueev, S. Sharada, P. Zimmerman


 Q-Chem, Version 4.1, Q-Chem, Inc., Pittsburgh, PA (2013).

 MAC (Intel) OSX Version 4.1.0.1 

 Q-chem begins on Thu Nov 21 16:00:19 2013  

Host: 
0

     Scratch files written to /Users/xiaohuiqu/scratch/qchem5783//
 Aug3013 17693_zgan 4696   
Processing $rem in /Users/xiaohuiqu/program/qchem/config/preferences.
 MEM_TOTAL  2000 
Finally everything over in PARseQInput

--------------------------------------------------------------
User input:
--------------------------------------------------------------
$molecule
0 1
H       0.000000     0.000000    -0.862674
F       0.000000     0.000000     0.043813
$end

$rem
job_type = sp
exchange = lxygjos
omega = 200
basis = 6-31+G(d)
aux_basis = rimp2-aug-cc-pvdz
$end

--------------------------------------------------------------
 ----------------------------------------------------
       Standard Nuclear Orientation (Angstroms)
    I     Atom         X            Y            Z
 ----------------------------------------------------
    1      H       0.000000     0.000000    -0.815838
    2      F       0.000000     0.000000     0.090649
 ----------------------------------------------------
 Molecular Point Group                 C*v   NOp =***
 Largest Abelian Subgroup              C2v   NOp =  1
 Nuclear Repulsion Energy =     5.2539031417 hartrees
 There are        5 alpha and        5 beta electrons
 Requested basis set is 6-31+G(d)
 There are 7 shells and 21 basis functions

Total QAlloc Memory Limit   2000 MB
Mega-Array Size        61 MB
MEM_STATIC part        62 MB

                       Distance Matrix (Angstroms)
             H (  1)
   F (  2)  0.906487
 
 Requested basis set is rimp2-aug-cc-pVDZ
 There are 31 shells and 102 basis functions
 A cutoff of  1.0D-08 yielded     28 shell pairs
 There are       264 function pairs
 Smallest overlap matrix eigenvalue = 7.26E-03

  Scale SEOQF with 1.000000e+00/1.000000e+00/1.000000e+00

 Standard Electronic Orientation quadrupole field applied
 Nucleus-field energy     =    -0.0000000008 hartrees
 Guess from superposition of atomic densities
 Warning:  Energy on first SCF cycle will be non-variational
 A restricted hybrid HF-DFT SCF calculation will be
 performed using Pulay DIIS extrapolation
 Exchange:     0.2000 Hartree-Fock + 0.0800 Slater + 0.7200 Becke88
 Correlation:  0.8100 LYP + 0.1900 VWN1RPA
 Using SG-1 standard quadrature grid
 SCF converges when DIIS error is below 1.0E-05
 using 2 threads for integral computing 
 reading int configure file ... done
 
 -------------------------------------------------------
 OpenMP Integral Computing Module                       
 Release: version 1.0, May 2013, Q-Chem Inc. Pittsburgh 
 -------------------------------------------------------
 Integral Job Info:
 Integral screening is                        1
 Integral computing path is                   2
 max size of driver memeory is           800000
 size of driver memeory is               593606
 size of scratch memory is               800000
 max col of scratch BK array               1296
 max len of scratch array in speh3          155
 max len of scratch index in speh4           18
 max int batch size is                       50
 min int batch size is                       15
 fixed nKL is                                18
 max L of basis functions is                  2
 order of int derivative is                   0
 number of shells is                          7
 number of basis is                          21
 number of cartesian basis is                21
 number of contracted shell pairs            28
 number of primitive shell pairs            151
 maxK2 (contraction) of shell pair           36
 max number of K2 of shell pair               1
 max number of CS2 of shell pair              3
 max number of PS2 of shell pair             36
 -------------------------------------------------------
         cpu   0.00 wall   0.00
 -------------------------------------------------------
 OpenMP BLAS3 based DFT computing Module                
 Release: version 1.0, May 2013, Q-Chem Inc. Pittsburgh 
 -------------------------------------------------------
in dftxc.C, eleTot sum is:10.000001, tauTot is:0.000000
 ---------------------------------------
  Cycle       Energy         DIIS Error
 ---------------------------------------
    1    -100.4008018363      1.10E-01
         cpu   0.01 wall   0.00
in dftxc.C, eleTot sum is:10.000000, tauTot is:0.000000
    2    -100.4176201975      2.50E-02
         cpu   0.01 wall   0.00
in dftxc.C, eleTot sum is:9.999999, tauTot is:0.000000
    3    -100.3975194287      3.65E-02
         cpu   0.00 wall   0.00
in dftxc.C, eleTot sum is:9.999999, tauTot is:0.000000
    4    -100.4422581631      1.27E-03
         cpu   0.00 wall   0.00
in dftxc.C, eleTot sum is:10.000000, tauTot is:0.000000
    5    -100.4423258599      1.94E-04
         cpu   0.01 wall   0.00
in dftxc.C, eleTot sum is:10.000000, tauTot is:0.000000
    6    -100.4423270682      1.62E-05
         cpu   0.01 wall   0.00
in dftxc.C, eleTot sum is:10.000000, tauTot is:0.000000
in dftxc.C, eleTot sum is:10.000000, tauTot is:0.000000
    7    -100.4423270773      3.51E-07 Convergence criterion met
 ---------------------------------------
 B3LYP orbitals are now ready for the XYGJ-OS calculation.
 XYGJ-OS energy = Exch (0.7731 HF  + 0.2269 Slater) + 
                  Corr (0.2754 LYP + 0.2309 VWN1RPA + 0.4364 OS-MP2)
 SCF time:  CPU 0.47 s  wall 0.26 s
 SCF   energy in the final basis set = -100.1079919861
 Total energy in the final basis set = -100.1079919861
 
 Compute (P|Q) with a full Coulomb operator
 Entering AOints
 
 ******* Local SOS-MP2 is performed ********
 omega =          200
 local cutoff used for (inu|K) =   1.000000000000000E-006
 local cutoff used for (ia|K)  =   5.000000000000000E-006
 local cutoff used for  CiaK   =   5.000000000000000E-006
 
 Compute (P|Q)**(-1) with an attenuated Coulomb metric
 Entering AOints
 Boys Localization complete after     7 iterations.
 Get virtual projection matrix
 Scale MO coefficients
 
 Perform step12 -- 1st transformation only
 
  2nd AO2MO transformation + Form CiaQ
 Make compact CiaQ array on disk...

 Laplace time from now on

 Laplace point 1: correlation energy      =        -0.0166845618
 Laplace point 2: correlation energy      =        -0.0479315847
 Laplace point 3: correlation energy      =        -0.0762742244
 Laplace point 4: correlation energy      =        -0.0432600885
 Laplace point 5: correlation energy      =        -0.0065781475
 Laplace point 6: correlation energy      =        -0.0002193862
 Laplace point 7: correlation energy      =        -0.0000001533
 
 Total (local) OS-MP2 correlation energy  =        -0.1909481465

 Total Local XYGJ-OS energy               =      -100.1913217572

 Analysis of SCF Wavefunction
 
 --------------------------------------------------------------
                    Orbital Energies (a.u.)
 --------------------------------------------------------------
 
 Alpha MOs
 -- Occupied --
-24.716  -1.219  -0.565  -0.424  -0.424
 -- Virtual --
  0.046   0.191   0.201   0.201   0.252   0.990   1.450   1.450
  1.492   1.603   1.766   1.766   1.834   1.834   2.693   4.214
 --------------------------------------------------------------
 
          Ground-State Mulliken Net Atomic Charges

     Atom                 Charge (a.u.)
  ----------------------------------------
      1 H                     0.541416
      2 F                    -0.541416
  ----------------------------------------
  Sum of atomic charges =     0.000000

 -----------------------------------------------------------------
                    Cartesian Multipole Moments
 -----------------------------------------------------------------
    Charge (ESU x 10^10)
                 0.0000
    Dipole Moment (Debye)
         X       0.0000      Y       0.0000      Z      -1.9855
       Tot       1.9855
    Quadrupole Moments (Debye-Ang)
        XX      -5.9248     XY       0.0000     YY      -5.9248
        XZ       0.0000     YZ       0.0000     ZZ      -3.7570
    Octapole Moments (Debye-Ang^2)
       XXX       0.0000    XXY       0.0000    XYY       0.0000
       YYY       0.0000    XXZ      -0.2537    XYZ       0.0000
       YYZ      -0.2537    XZZ       0.0000    YZZ       0.0000
       ZZZ      -1.9290
    Hexadecapole Moments (Debye-Ang^3)
      XXXX      -4.3784   XXXY       0.0000   XXYY      -1.4595
      XYYY       0.0000   YYYY      -4.3784   XXXZ       0.0000
      XXYZ       0.0000   XYYZ       0.0000   YYYZ       0.0000
      XXZZ      -1.5508   XYZZ       0.0000   YYZZ      -1.5508
      XZZZ       0.0000   YZZZ       0.0000   ZZZZ      -3.6736
 -----------------------------------------------------------------
Archival summary:
1\1\macqu.dhcp.lbl.gov\SP\ProcedureUnspecified\6-31+G*\11\ThuNov2116:00:192013ThuNov2116:00:192013\0\\#,ProcedureUnspecified,6-31+G*,\\0,1\H\F,1,0.906487\\\@

 Total job time:  0.35s(wall), 0.59s(cpu) 
 Thu Nov 21 16:00:19 2013

        *************************************************************
        *                                                           *
        *  Thank you very much for using Q-Chem.  Have a nice day.  *
        *                                                           *
        *************************************************************


