 Entering Gaussian System, Link 0=g16
 Initial command:
 /clusterfs/cloudcuckoo/software/gaussian/G16_AVX2-enabled/tar/g16/l1.exe "/global/scratch/alex_epstein/4968544/Gau-1675.inp" -scrdir="/global/scratch/alex_epstein/4968544/"
 Default is to use a total of  28 processors:
                               28 via shared-memory
                                1 via Linda
 Entering Link 1 = /clusterfs/cloudcuckoo/software/gaussian/G16_AVX2-enabled/tar/g16/l1.exe PID=      1676.
  
 Copyright (c) 1988,1990,1992,1993,1995,1998,2003,2009,2016,
            Gaussian, Inc.  All Rights Reserved.
  
 This is part of the Gaussian(R) 16 program.  It is based on
 the Gaussian(R) 09 system (copyright 2009, Gaussian, Inc.),
 the Gaussian(R) 03 system (copyright 2003, Gaussian, Inc.),
 the Gaussian(R) 98 system (copyright 1998, Gaussian, Inc.),
 the Gaussian(R) 94 system (copyright 1995, Gaussian, Inc.),
 the Gaussian 92(TM) system (copyright 1992, Gaussian, Inc.),
 the Gaussian 90(TM) system (copyright 1990, Gaussian, Inc.),
 the Gaussian 88(TM) system (copyright 1988, Gaussian, Inc.),
 the Gaussian 86(TM) system (copyright 1986, Carnegie Mellon
 University), and the Gaussian 82(TM) system (copyright 1983,
 Carnegie Mellon University). Gaussian is a federally registered
 trademark of Gaussian, Inc.
  
 This software contains proprietary and confidential information,
 including trade secrets, belonging to Gaussian, Inc.
  
 This software is provided under written license and may be
 used, copied, transmitted, or stored only in accord with that
 written license.
  
 The following legend is applicable only to US Government
 contracts under FAR:
  
                    RESTRICTED RIGHTS LEGEND
  
 Use, reproduction and disclosure by the US Government is
 subject to restrictions as set forth in subparagraphs (a)
 and (c) of the Commercial Computer Software - Restricted
 Rights clause in FAR 52.227-19.
  
 Gaussian, Inc.
 340 Quinnipiac St., Bldg. 40, Wallingford CT 06492
  
  
 ---------------------------------------------------------------
 Warning -- This program may not be used in any manner that
 competes with the business of Gaussian, Inc. or will provide
 assistance to any competitor of Gaussian, Inc.  The licensee
 of this program is prohibited from giving any competitor of
 Gaussian, Inc. access to this program.  By using this program,
 the user acknowledges that Gaussian, Inc. is engaged in the
 business of creating and licensing software in the field of
 computational chemistry and represents and warrants to the
 licensee that it is not a competitor of Gaussian, Inc. and that
 it will not use this program in any manner prohibited above.
 ---------------------------------------------------------------
  

 Cite this work as:
 Gaussian 16, Revision A.03,
 M. J. Frisch, G. W. Trucks, H. B. Schlegel, G. E. Scuseria, 
 M. A. Robb, J. R. Cheeseman, G. Scalmani, V. Barone, 
 G. A. Petersson, H. Nakatsuji, X. Li, M. Caricato, A. V. Marenich, 
 J. Bloino, B. G. Janesko, R. Gomperts, B. Mennucci, H. P. Hratchian, 
 J. V. Ortiz, A. F. Izmaylov, J. L. Sonnenberg, D. Williams-Young, 
 F. Ding, F. Lipparini, F. Egidi, J. Goings, B. Peng, A. Petrone, 
 T. Henderson, D. Ranasinghe, V. G. Zakrzewski, J. Gao, N. Rega, 
 G. Zheng, W. Liang, M. Hada, M. Ehara, K. Toyota, R. Fukuda, 
 J. Hasegawa, M. Ishida, T. Nakajima, Y. Honda, O. Kitao, H. Nakai, 
 T. Vreven, K. Throssell, J. A. Montgomery, Jr., J. E. Peralta, 
 F. Ogliaro, M. J. Bearpark, J. J. Heyd, E. N. Brothers, K. N. Kudin, 
 V. N. Staroverov, T. A. Keith, R. Kobayashi, J. Normand, 
 K. Raghavachari, A. P. Rendell, J. C. Burant, S. S. Iyengar, 
 J. Tomasi, M. Cossi, J. M. Millam, M. Klene, C. Adamo, R. Cammi, 
 J. W. Ochterski, R. L. Martin, K. Morokuma, O. Farkas, 
 J. B. Foresman, and D. J. Fox, Gaussian, Inc., Wallingford CT, 2016.
 
 ******************************************
 Gaussian 16:  ES64L-G16RevA.03 25-Dec-2016
                 3-Sep-2019 
 ******************************************
 ----------------------------------------------------------------------
 #m062x/6-311++g(2df,2p) opt(ts, noeigen, calcfc) scrf(smd,solvent=wate
 r) freq=noraman
 ----------------------------------------------------------------------
 1/5=1,10=4,11=1,18=20,26=3,38=1/1,3;
 2/9=110,12=2,17=6,18=5,40=1/2;
 3/5=4,6=6,7=1214,11=2,25=1,30=1,70=32201,71=2,72=1,74=-55,140=1/1,2,3;
 4//1;
 5/5=2,38=5,53=1/2;
 8/6=4,10=90,11=11/1;
 11/6=1,8=1,9=11,15=111,16=1/1,2,10;
 10/6=1,13=1/2;
 6/7=2,8=2,9=2,10=2,28=1/1;
 7/10=1,18=20,25=1/1,2,3,16;
 1/5=1,10=4,11=1,18=20,26=3/3(2);
 2/9=110/2;
 99//99;
 2/9=110/2;
 3/5=4,6=6,7=1214,11=2,25=1,30=1,70=32205,71=1,72=1,74=-55/1,2,3;
 4/5=5,16=3,69=1/1;
 5/5=2,38=5,53=1/2;
 7//1,2,3,16;
 1/5=1,11=1,18=20,26=3/3(-5);
 2/9=110/2;
 6/7=2,8=2,9=2,10=2,19=2,28=1/1;
 99/9=1/99;
 ---------------
 dkts_copyDL.com
 ---------------
 Symbolic Z-matrix:
 Charge =  2 Multiplicity = 1
 C                    -1.34152   0.97581  -0.69294 
 C                    -1.01356  -0.91738   0.76363 
 C                    -0.55682   0.36142   0.25913 
 C                     0.61485   1.1464    0.83123 
 C                     0.22665   2.10691   1.93065 
 C                     1.88582   1.0293   -1.31783 
 C                     3.24871   0.35177  -1.28437 
 C                     4.7365   -1.26439  -0.18583 
 C                     2.42092  -1.91125  -0.65892 
 H                    -0.42235   2.87193   1.49519 
 H                     1.11363   2.58644   2.35431 
 H                    -0.32325   1.58169   2.71349 
 H                     3.49138  -0.05257  -2.2704 
 H                     4.01977   1.06787  -0.99133 
 H                     1.10222   0.33782  -1.63061 
 H                     2.11822   2.37099   0.29514 
 H                     1.94635   1.81278  -2.0782 
 H                     5.05948  -1.63576  -1.15915 
 H                     4.76256  -2.06425   0.55354 
 H                     5.36247  -0.43149   0.13212 
 H                     2.70819  -2.29418  -1.63924 
 H                     2.53161  -2.68392   0.10159 
 H                     1.39055  -1.55823  -0.67684 
 N                     1.50823   1.63778  -0.05166 
 N                     3.33198  -0.78531  -0.31313 
 O                    -0.97632   2.16318  -1.15625 
 O                    -0.40619  -1.54679   1.66465 
 H                     3.02527  -0.43742   0.60746 
 O                     1.47353  -0.08227   1.7607 
 H                     1.72337   0.29328   2.62251 
 H                     0.7362   -0.83659   1.90425 
 C                    -2.22646  -1.57522   0.16845 
 C                    -2.58669   0.38128  -1.27307 
 C                    -3.28976  -0.59614  -0.32837 
 C                    -4.37186  -1.35367  -1.09504 
 H                    -4.87612  -2.06705  -0.43502 
 H                    -5.12256  -0.65704  -1.48299 
 H                    -3.94308  -1.90519  -1.9381 
 C                    -3.92531   0.15205   0.84858 
 H                    -4.68121   0.85528   0.48452 
 H                    -4.41331  -0.55792   1.52391 
 H                    -3.18647   0.71718   1.42793 
 H                    -1.62508   2.50944  -1.79131 
 H                    -2.28754  -0.1375   -2.1958 
 H                    -3.26212   1.19522  -1.56004 
 H                    -1.85697  -2.17848  -0.67465 
 H                    -2.62956  -2.26378   0.91669 
 
 Add virtual bond connecting atoms H31        and O27        Dist= 2.58D+00.

 GradGradGradGradGradGradGradGradGradGradGradGradGradGradGradGradGradGrad
 Berny optimization.
 Initialization pass.
                           ----------------------------
                           !    Initial Parameters    !
                           ! (Angstroms and Degrees)  !
 --------------------------                            --------------------------
 ! Name  Definition              Value          Derivative Info.                !
 --------------------------------------------------------------------------------
 ! R1    R(1,3)                  1.3783         calculate D2E/DX2 analytically  !
 ! R2    R(1,26)                 1.3258         calculate D2E/DX2 analytically  !
 ! R3    R(1,33)                 1.4968         calculate D2E/DX2 analytically  !
 ! R4    R(2,3)                  1.4486         calculate D2E/DX2 analytically  !
 ! R5    R(2,27)                 1.2557         calculate D2E/DX2 analytically  !
 ! R6    R(2,32)                 1.5027         calculate D2E/DX2 analytically  !
 ! R7    R(3,4)                  1.5219         calculate D2E/DX2 analytically  !
 ! R8    R(4,5)                  1.5106         calculate D2E/DX2 analytically  !
 ! R9    R(4,24)                 1.3487         calculate D2E/DX2 analytically  !
 ! R10   R(5,10)                 1.0937         calculate D2E/DX2 analytically  !
 ! R11   R(5,11)                 1.0937         calculate D2E/DX2 analytically  !
 ! R12   R(5,12)                 1.0914         calculate D2E/DX2 analytically  !
 ! R13   R(6,7)                  1.5224         calculate D2E/DX2 analytically  !
 ! R14   R(6,15)                 1.0909         calculate D2E/DX2 analytically  !
 ! R15   R(6,17)                 1.0935         calculate D2E/DX2 analytically  !
 ! R16   R(6,24)                 1.4546         calculate D2E/DX2 analytically  !
 ! R17   R(7,13)                 1.093          calculate D2E/DX2 analytically  !
 ! R18   R(7,14)                 1.0923         calculate D2E/DX2 analytically  !
 ! R19   R(7,25)                 1.4977         calculate D2E/DX2 analytically  !
 ! R20   R(8,18)                 1.0907         calculate D2E/DX2 analytically  !
 ! R21   R(8,19)                 1.0895         calculate D2E/DX2 analytically  !
 ! R22   R(8,20)                 1.0893         calculate D2E/DX2 analytically  !
 ! R23   R(8,25)                 1.4894         calculate D2E/DX2 analytically  !
 ! R24   R(9,21)                 1.091          calculate D2E/DX2 analytically  !
 ! R25   R(9,22)                 1.0898         calculate D2E/DX2 analytically  !
 ! R26   R(9,23)                 1.0893         calculate D2E/DX2 analytically  !
 ! R27   R(9,25)                 1.4891         calculate D2E/DX2 analytically  !
 ! R28   R(16,24)                1.0149         calculate D2E/DX2 analytically  !
 ! R29   R(25,28)                1.0308         calculate D2E/DX2 analytically  !
 ! R30   R(26,43)                0.9716         calculate D2E/DX2 analytically  !
 ! R31   R(27,31)                1.3663         calculate D2E/DX2 analytically  !
 ! R32   R(29,30)                0.9727         calculate D2E/DX2 analytically  !
 ! R33   R(29,31)                1.0645         calculate D2E/DX2 analytically  !
 ! R34   R(32,34)                1.5284         calculate D2E/DX2 analytically  !
 ! R35   R(32,46)                1.1006         calculate D2E/DX2 analytically  !
 ! R36   R(32,47)                1.0938         calculate D2E/DX2 analytically  !
 ! R37   R(33,34)                1.5304         calculate D2E/DX2 analytically  !
 ! R38   R(33,44)                1.1            calculate D2E/DX2 analytically  !
 ! R39   R(33,45)                1.0959         calculate D2E/DX2 analytically  !
 ! R40   R(34,35)                1.5273         calculate D2E/DX2 analytically  !
 ! R41   R(34,39)                1.5326         calculate D2E/DX2 analytically  !
 ! R42   R(35,36)                1.0949         calculate D2E/DX2 analytically  !
 ! R43   R(35,37)                1.0952         calculate D2E/DX2 analytically  !
 ! R44   R(35,38)                1.0949         calculate D2E/DX2 analytically  !
 ! R45   R(39,40)                1.0947         calculate D2E/DX2 analytically  !
 ! R46   R(39,41)                1.0947         calculate D2E/DX2 analytically  !
 ! R47   R(39,42)                1.0959         calculate D2E/DX2 analytically  !
 ! A1    A(3,1,26)             118.9323         calculate D2E/DX2 analytically  !
 ! A2    A(3,1,33)             124.3518         calculate D2E/DX2 analytically  !
 ! A3    A(26,1,33)            116.7062         calculate D2E/DX2 analytically  !
 ! A4    A(3,2,27)             122.6743         calculate D2E/DX2 analytically  !
 ! A5    A(3,2,32)             120.1992         calculate D2E/DX2 analytically  !
 ! A6    A(27,2,32)            117.075          calculate D2E/DX2 analytically  !
 ! A7    A(1,3,2)              117.038          calculate D2E/DX2 analytically  !
 ! A8    A(1,3,4)              117.907          calculate D2E/DX2 analytically  !
 ! A9    A(2,3,4)              124.5506         calculate D2E/DX2 analytically  !
 ! A10   A(3,4,5)              113.8088         calculate D2E/DX2 analytically  !
 ! A11   A(3,4,24)             116.8581         calculate D2E/DX2 analytically  !
 ! A12   A(5,4,24)             114.5187         calculate D2E/DX2 analytically  !
 ! A13   A(4,5,10)             107.9074         calculate D2E/DX2 analytically  !
 ! A14   A(4,5,11)             110.6274         calculate D2E/DX2 analytically  !
 ! A15   A(4,5,12)             110.2145         calculate D2E/DX2 analytically  !
 ! A16   A(10,5,11)            109.196          calculate D2E/DX2 analytically  !
 ! A17   A(10,5,12)            108.8595         calculate D2E/DX2 analytically  !
 ! A18   A(11,5,12)            109.9849         calculate D2E/DX2 analytically  !
 ! A19   A(7,6,15)             111.5472         calculate D2E/DX2 analytically  !
 ! A20   A(7,6,17)             106.5355         calculate D2E/DX2 analytically  !
 ! A21   A(7,6,24)             113.5419         calculate D2E/DX2 analytically  !
 ! A22   A(15,6,17)            107.131          calculate D2E/DX2 analytically  !
 ! A23   A(15,6,24)            109.1633         calculate D2E/DX2 analytically  !
 ! A24   A(17,6,24)            108.6585         calculate D2E/DX2 analytically  !
 ! A25   A(6,7,13)             110.0954         calculate D2E/DX2 analytically  !
 ! A26   A(6,7,14)             110.2471         calculate D2E/DX2 analytically  !
 ! A27   A(6,7,25)             113.697          calculate D2E/DX2 analytically  !
 ! A28   A(13,7,14)            109.1363         calculate D2E/DX2 analytically  !
 ! A29   A(13,7,25)            106.9663         calculate D2E/DX2 analytically  !
 ! A30   A(14,7,25)            106.5285         calculate D2E/DX2 analytically  !
 ! A31   A(18,8,19)            110.398          calculate D2E/DX2 analytically  !
 ! A32   A(18,8,20)            110.5266         calculate D2E/DX2 analytically  !
 ! A33   A(18,8,25)            108.2094         calculate D2E/DX2 analytically  !
 ! A34   A(19,8,20)            110.4569         calculate D2E/DX2 analytically  !
 ! A35   A(19,8,25)            108.462          calculate D2E/DX2 analytically  !
 ! A36   A(20,8,25)            108.7165         calculate D2E/DX2 analytically  !
 ! A37   A(21,9,22)            110.5775         calculate D2E/DX2 analytically  !
 ! A38   A(21,9,23)            110.367          calculate D2E/DX2 analytically  !
 ! A39   A(21,9,25)            108.2381         calculate D2E/DX2 analytically  !
 ! A40   A(22,9,23)            109.7143         calculate D2E/DX2 analytically  !
 ! A41   A(22,9,25)            108.1742         calculate D2E/DX2 analytically  !
 ! A42   A(23,9,25)            109.7245         calculate D2E/DX2 analytically  !
 ! A43   A(4,24,6)             126.1099         calculate D2E/DX2 analytically  !
 ! A44   A(4,24,16)            115.9541         calculate D2E/DX2 analytically  !
 ! A45   A(6,24,16)            116.3356         calculate D2E/DX2 analytically  !
 ! A46   A(7,25,8)             110.6126         calculate D2E/DX2 analytically  !
 ! A47   A(7,25,9)             112.9207         calculate D2E/DX2 analytically  !
 ! A48   A(7,25,28)            107.8401         calculate D2E/DX2 analytically  !
 ! A49   A(8,25,9)             110.7067         calculate D2E/DX2 analytically  !
 ! A50   A(8,25,28)            108.2285         calculate D2E/DX2 analytically  !
 ! A51   A(9,25,28)            106.2922         calculate D2E/DX2 analytically  !
 ! A52   A(1,26,43)            111.3233         calculate D2E/DX2 analytically  !
 ! A53   A(2,27,31)            105.6459         calculate D2E/DX2 analytically  !
 ! A54   A(30,29,31)           109.3909         calculate D2E/DX2 analytically  !
 ! A55   A(27,31,29)           157.4838         calculate D2E/DX2 analytically  !
 ! A56   A(2,32,34)            114.1945         calculate D2E/DX2 analytically  !
 ! A57   A(2,32,46)            105.8069         calculate D2E/DX2 analytically  !
 ! A58   A(2,32,47)            107.5826         calculate D2E/DX2 analytically  !
 ! A59   A(34,32,46)           109.6137         calculate D2E/DX2 analytically  !
 ! A60   A(34,32,47)           111.6679         calculate D2E/DX2 analytically  !
 ! A61   A(46,32,47)           107.6203         calculate D2E/DX2 analytically  !
 ! A62   A(1,33,34)            113.3661         calculate D2E/DX2 analytically  !
 ! A63   A(1,33,44)            106.631          calculate D2E/DX2 analytically  !
 ! A64   A(1,33,45)            108.6132         calculate D2E/DX2 analytically  !
 ! A65   A(34,33,44)           109.9701         calculate D2E/DX2 analytically  !
 ! A66   A(34,33,45)           110.6608         calculate D2E/DX2 analytically  !
 ! A67   A(44,33,45)           107.351          calculate D2E/DX2 analytically  !
 ! A68   A(32,34,33)           106.8682         calculate D2E/DX2 analytically  !
 ! A69   A(32,34,35)           109.7764         calculate D2E/DX2 analytically  !
 ! A70   A(32,34,39)           110.5845         calculate D2E/DX2 analytically  !
 ! A71   A(33,34,35)           109.4153         calculate D2E/DX2 analytically  !
 ! A72   A(33,34,39)           110.6559         calculate D2E/DX2 analytically  !
 ! A73   A(35,34,39)           109.5009         calculate D2E/DX2 analytically  !
 ! A74   A(34,35,36)           110.2964         calculate D2E/DX2 analytically  !
 ! A75   A(34,35,37)           110.3639         calculate D2E/DX2 analytically  !
 ! A76   A(34,35,38)           111.0326         calculate D2E/DX2 analytically  !
 ! A77   A(36,35,37)           108.1976         calculate D2E/DX2 analytically  !
 ! A78   A(36,35,38)           108.441          calculate D2E/DX2 analytically  !
 ! A79   A(37,35,38)           108.4277         calculate D2E/DX2 analytically  !
 ! A80   A(34,39,40)           110.1541         calculate D2E/DX2 analytically  !
 ! A81   A(34,39,41)           109.9992         calculate D2E/DX2 analytically  !
 ! A82   A(34,39,42)           112.2201         calculate D2E/DX2 analytically  !
 ! A83   A(40,39,41)           108.2984         calculate D2E/DX2 analytically  !
 ! A84   A(40,39,42)           108.0634         calculate D2E/DX2 analytically  !
 ! A85   A(41,39,42)           107.9917         calculate D2E/DX2 analytically  !
 ! D1    D(26,1,3,2)           178.3334         calculate D2E/DX2 analytically  !
 ! D2    D(26,1,3,4)             6.1042         calculate D2E/DX2 analytically  !
 ! D3    D(33,1,3,2)            -2.8379         calculate D2E/DX2 analytically  !
 ! D4    D(33,1,3,4)          -175.0671         calculate D2E/DX2 analytically  !
 ! D5    D(3,1,26,43)         -177.5925         calculate D2E/DX2 analytically  !
 ! D6    D(33,1,26,43)           3.49           calculate D2E/DX2 analytically  !
 ! D7    D(3,1,33,34)           27.321          calculate D2E/DX2 analytically  !
 ! D8    D(3,1,33,44)          -93.8326         calculate D2E/DX2 analytically  !
 ! D9    D(3,1,33,45)          150.7618         calculate D2E/DX2 analytically  !
 ! D10   D(26,1,33,34)        -153.8266         calculate D2E/DX2 analytically  !
 ! D11   D(26,1,33,44)          85.0199         calculate D2E/DX2 analytically  !
 ! D12   D(26,1,33,45)         -30.3857         calculate D2E/DX2 analytically  !
 ! D13   D(27,2,3,1)          -177.4724         calculate D2E/DX2 analytically  !
 ! D14   D(27,2,3,4)            -5.8139         calculate D2E/DX2 analytically  !
 ! D15   D(32,2,3,1)             5.2169         calculate D2E/DX2 analytically  !
 ! D16   D(32,2,3,4)           176.8753         calculate D2E/DX2 analytically  !
 ! D17   D(3,2,27,31)           -5.3734         calculate D2E/DX2 analytically  !
 ! D18   D(32,2,27,31)         172.0163         calculate D2E/DX2 analytically  !
 ! D19   D(3,2,32,34)          -32.418          calculate D2E/DX2 analytically  !
 ! D20   D(3,2,32,46)           88.2234         calculate D2E/DX2 analytically  !
 ! D21   D(3,2,32,47)         -156.959          calculate D2E/DX2 analytically  !
 ! D22   D(27,2,32,34)         150.1242         calculate D2E/DX2 analytically  !
 ! D23   D(27,2,32,46)         -89.2345         calculate D2E/DX2 analytically  !
 ! D24   D(27,2,32,47)          25.5832         calculate D2E/DX2 analytically  !
 ! D25   D(1,3,4,5)             81.7545         calculate D2E/DX2 analytically  !
 ! D26   D(1,3,4,24)           -55.2901         calculate D2E/DX2 analytically  !
 ! D27   D(2,3,4,5)            -89.8375         calculate D2E/DX2 analytically  !
 ! D28   D(2,3,4,24)           133.1179         calculate D2E/DX2 analytically  !
 ! D29   D(3,4,5,10)           -64.8597         calculate D2E/DX2 analytically  !
 ! D30   D(3,4,5,11)           175.7441         calculate D2E/DX2 analytically  !
 ! D31   D(3,4,5,12)            53.89           calculate D2E/DX2 analytically  !
 ! D32   D(24,4,5,10)           73.214          calculate D2E/DX2 analytically  !
 ! D33   D(24,4,5,11)          -46.1822         calculate D2E/DX2 analytically  !
 ! D34   D(24,4,5,12)         -168.0363         calculate D2E/DX2 analytically  !
 ! D35   D(3,4,24,6)           -32.2788         calculate D2E/DX2 analytically  !
 ! D36   D(3,4,24,16)          162.7533         calculate D2E/DX2 analytically  !
 ! D37   D(5,4,24,6)          -169.0253         calculate D2E/DX2 analytically  !
 ! D38   D(5,4,24,16)           26.0069         calculate D2E/DX2 analytically  !
 ! D39   D(15,6,7,13)           58.233          calculate D2E/DX2 analytically  !
 ! D40   D(15,6,7,14)          178.6977         calculate D2E/DX2 analytically  !
 ! D41   D(15,6,7,25)          -61.7613         calculate D2E/DX2 analytically  !
 ! D42   D(17,6,7,13)          -58.3556         calculate D2E/DX2 analytically  !
 ! D43   D(17,6,7,14)           62.109          calculate D2E/DX2 analytically  !
 ! D44   D(17,6,7,25)         -178.3499         calculate D2E/DX2 analytically  !
 ! D45   D(24,6,7,13)         -177.9183         calculate D2E/DX2 analytically  !
 ! D46   D(24,6,7,14)          -57.4537         calculate D2E/DX2 analytically  !
 ! D47   D(24,6,7,25)           62.0874         calculate D2E/DX2 analytically  !
 ! D48   D(7,6,24,4)          -104.1513         calculate D2E/DX2 analytically  !
 ! D49   D(7,6,24,16)           60.7662         calculate D2E/DX2 analytically  !
 ! D50   D(15,6,24,4)           20.9848         calculate D2E/DX2 analytically  !
 ! D51   D(15,6,24,16)        -174.0977         calculate D2E/DX2 analytically  !
 ! D52   D(17,6,24,4)          137.5031         calculate D2E/DX2 analytically  !
 ! D53   D(17,6,24,16)         -57.5794         calculate D2E/DX2 analytically  !
 ! D54   D(6,7,25,8)          -171.5425         calculate D2E/DX2 analytically  !
 ! D55   D(6,7,25,9)            63.7634         calculate D2E/DX2 analytically  !
 ! D56   D(6,7,25,28)          -53.3695         calculate D2E/DX2 analytically  !
 ! D57   D(13,7,25,8)           66.7084         calculate D2E/DX2 analytically  !
 ! D58   D(13,7,25,9)          -57.9856         calculate D2E/DX2 analytically  !
 ! D59   D(13,7,25,28)        -175.1186         calculate D2E/DX2 analytically  !
 ! D60   D(14,7,25,8)          -49.9097         calculate D2E/DX2 analytically  !
 ! D61   D(14,7,25,9)         -174.6037         calculate D2E/DX2 analytically  !
 ! D62   D(14,7,25,28)          68.2633         calculate D2E/DX2 analytically  !
 ! D63   D(18,8,25,7)          -62.2671         calculate D2E/DX2 analytically  !
 ! D64   D(18,8,25,9)           63.6777         calculate D2E/DX2 analytically  !
 ! D65   D(18,8,25,28)         179.7972         calculate D2E/DX2 analytically  !
 ! D66   D(19,8,25,7)          177.9543         calculate D2E/DX2 analytically  !
 ! D67   D(19,8,25,9)          -56.1009         calculate D2E/DX2 analytically  !
 ! D68   D(19,8,25,28)          60.0185         calculate D2E/DX2 analytically  !
 ! D69   D(20,8,25,7)           57.8118         calculate D2E/DX2 analytically  !
 ! D70   D(20,8,25,9)         -176.2434         calculate D2E/DX2 analytically  !
 ! D71   D(20,8,25,28)         -60.124          calculate D2E/DX2 analytically  !
 ! D72   D(21,9,25,7)           61.0462         calculate D2E/DX2 analytically  !
 ! D73   D(21,9,25,8)          -63.5965         calculate D2E/DX2 analytically  !
 ! D74   D(21,9,25,28)         179.0887         calculate D2E/DX2 analytically  !
 ! D75   D(22,9,25,7)         -179.1077         calculate D2E/DX2 analytically  !
 ! D76   D(22,9,25,8)           56.2496         calculate D2E/DX2 analytically  !
 ! D77   D(22,9,25,28)         -61.0652         calculate D2E/DX2 analytically  !
 ! D78   D(23,9,25,7)          -59.4463         calculate D2E/DX2 analytically  !
 ! D79   D(23,9,25,8)          175.9109         calculate D2E/DX2 analytically  !
 ! D80   D(23,9,25,28)          58.5962         calculate D2E/DX2 analytically  !
 ! D81   D(2,27,31,29)          -6.948          calculate D2E/DX2 analytically  !
 ! D82   D(30,29,31,27)        136.9815         calculate D2E/DX2 analytically  !
 ! D83   D(2,32,34,33)          53.0411         calculate D2E/DX2 analytically  !
 ! D84   D(2,32,34,35)         171.6059         calculate D2E/DX2 analytically  !
 ! D85   D(2,32,34,39)         -67.4651         calculate D2E/DX2 analytically  !
 ! D86   D(46,32,34,33)        -65.4571         calculate D2E/DX2 analytically  !
 ! D87   D(46,32,34,35)         53.1076         calculate D2E/DX2 analytically  !
 ! D88   D(46,32,34,39)        174.0366         calculate D2E/DX2 analytically  !
 ! D89   D(47,32,34,33)        175.3754         calculate D2E/DX2 analytically  !
 ! D90   D(47,32,34,35)        -66.0599         calculate D2E/DX2 analytically  !
 ! D91   D(47,32,34,39)         54.8691         calculate D2E/DX2 analytically  !
 ! D92   D(1,33,34,32)         -49.943          calculate D2E/DX2 analytically  !
 ! D93   D(1,33,34,35)        -168.7427         calculate D2E/DX2 analytically  !
 ! D94   D(1,33,34,39)          70.5176         calculate D2E/DX2 analytically  !
 ! D95   D(44,33,34,32)         69.3131         calculate D2E/DX2 analytically  !
 ! D96   D(44,33,34,35)        -49.4866         calculate D2E/DX2 analytically  !
 ! D97   D(44,33,34,39)       -170.2263         calculate D2E/DX2 analytically  !
 ! D98   D(45,33,34,32)       -172.2533         calculate D2E/DX2 analytically  !
 ! D99   D(45,33,34,35)         68.9469         calculate D2E/DX2 analytically  !
 ! D100  D(45,33,34,39)        -51.7927         calculate D2E/DX2 analytically  !
 ! D101  D(32,34,35,36)         62.299          calculate D2E/DX2 analytically  !
 ! D102  D(32,34,35,37)       -178.1996         calculate D2E/DX2 analytically  !
 ! D103  D(32,34,35,38)        -57.9363         calculate D2E/DX2 analytically  !
 ! D104  D(33,34,35,36)        179.2789         calculate D2E/DX2 analytically  !
 ! D105  D(33,34,35,37)        -61.2197         calculate D2E/DX2 analytically  !
 ! D106  D(33,34,35,38)         59.0435         calculate D2E/DX2 analytically  !
 ! D107  D(39,34,35,36)        -59.2813         calculate D2E/DX2 analytically  !
 ! D108  D(39,34,35,37)         60.22           calculate D2E/DX2 analytically  !
 ! D109  D(39,34,35,38)       -179.5167         calculate D2E/DX2 analytically  !
 ! D110  D(32,34,39,40)        179.6652         calculate D2E/DX2 analytically  !
 ! D111  D(32,34,39,41)        -61.0282         calculate D2E/DX2 analytically  !
 ! D112  D(32,34,39,42)         59.2197         calculate D2E/DX2 analytically  !
 ! D113  D(33,34,39,40)         61.4464         calculate D2E/DX2 analytically  !
 ! D114  D(33,34,39,41)       -179.247          calculate D2E/DX2 analytically  !
 ! D115  D(33,34,39,42)        -58.999          calculate D2E/DX2 analytically  !
 ! D116  D(35,34,39,40)        -59.2423         calculate D2E/DX2 analytically  !
 ! D117  D(35,34,39,41)         60.0643         calculate D2E/DX2 analytically  !
 ! D118  D(35,34,39,42)       -179.6877         calculate D2E/DX2 analytically  !
 --------------------------------------------------------------------------------
 Trust Radius=3.00D-01 FncErr=1.00D-07 GrdErr=1.00D-06 EigMax=2.50D+02 EigMin=1.00D-04
 Number of steps in this run=    260 maximum allowed number of steps=    282.
 Search for a saddle point of order  1.
 GradGradGradGradGradGradGradGradGradGradGradGradGradGradGradGradGradGrad

                          Input orientation:                          
 ---------------------------------------------------------------------
 Center     Atomic      Atomic             Coordinates (Angstroms)
 Number     Number       Type             X           Y           Z
 ---------------------------------------------------------------------
      1          6           0       -1.341519    0.975814   -0.692940
      2          6           0       -1.013561   -0.917376    0.763627
      3          6           0       -0.556824    0.361416    0.259126
      4          6           0        0.614851    1.146402    0.831226
      5          6           0        0.226645    2.106909    1.930650
      6          6           0        1.885822    1.029300   -1.317827
      7          6           0        3.248710    0.351774   -1.284374
      8          6           0        4.736504   -1.264392   -0.185827
      9          6           0        2.420918   -1.911254   -0.658915
     10          1           0       -0.422347    2.871929    1.495186
     11          1           0        1.113626    2.586435    2.354313
     12          1           0       -0.323254    1.581690    2.713486
     13          1           0        3.491383   -0.052571   -2.270401
     14          1           0        4.019766    1.067868   -0.991330
     15          1           0        1.102221    0.337820   -1.630609
     16          1           0        2.118218    2.370988    0.295140
     17          1           0        1.946345    1.812783   -2.078196
     18          1           0        5.059480   -1.635759   -1.159149
     19          1           0        4.762555   -2.064250    0.553539
     20          1           0        5.362472   -0.431489    0.132118
     21          1           0        2.708186   -2.294180   -1.639235
     22          1           0        2.531608   -2.683920    0.101594
     23          1           0        1.390551   -1.558234   -0.676841
     24          7           0        1.508226    1.637775   -0.051660
     25          7           0        3.331976   -0.785312   -0.313125
     26          8           0       -0.976320    2.163177   -1.156249
     27          8           0       -0.406190   -1.546794    1.664646
     28          1           0        3.025268   -0.437416    0.607458
     29          8           0        1.473529   -0.082269    1.760704
     30          1           0        1.723373    0.293280    2.622509
     31          1           0        0.736203   -0.836594    1.904246
     32          6           0       -2.226460   -1.575224    0.168445
     33          6           0       -2.586686    0.381276   -1.273071
     34          6           0       -3.289763   -0.596144   -0.328374
     35          6           0       -4.371862   -1.353673   -1.095037
     36          1           0       -4.876121   -2.067045   -0.435022
     37          1           0       -5.122562   -0.657035   -1.482985
     38          1           0       -3.943079   -1.905193   -1.938096
     39          6           0       -3.925305    0.152053    0.848576
     40          1           0       -4.681207    0.855283    0.484520
     41          1           0       -4.413315   -0.557923    1.523914
     42          1           0       -3.186474    0.717184    1.427926
     43          1           0       -1.625080    2.509443   -1.791308
     44          1           0       -2.287539   -0.137503   -2.195797
     45          1           0       -3.262120    1.195223   -1.560035
     46          1           0       -1.856973   -2.178481   -0.674650
     47          1           0       -2.629555   -2.263776    0.916693
 ---------------------------------------------------------------------
                    Distance matrix (angstroms):
                    1          2          3          4          5
     1  C    0.000000
     2  C    2.411081   0.000000
     3  C    1.378282   1.448599   0.000000
     4  C    2.485873   2.629729   1.521947   0.000000
     5  C    3.259101   3.470786   2.540583   1.510633   0.000000
     6  C    3.287716   4.065516   2.983181   2.499502   3.803513
     7  C    4.670056   4.896121   4.106650   3.470506   4.748658
     8  C    6.497542   5.838247   5.555228   4.882043   6.015312
     9  C    4.742600   3.847995   3.856783   3.851189   5.259878
    10  H    3.037766   3.904298   2.801536   2.119921   1.093652
    11  H    4.231736   4.396805   3.482947   2.154592   1.093696
    12  H    3.606617   3.244041   2.750910   2.147654   1.091364
    13  H    5.186801   5.499794   4.791437   4.396824   5.742012
    14  H    5.370371   5.688185   4.796654   3.862813   4.899524
    15  H    2.694091   3.432844   2.514773   2.636658   4.071716
    16  H    3.859092   4.565179   3.345972   2.011743   2.514494
    17  H    3.664628   4.928567   3.719596   3.268283   4.372039
    18  H    6.928958   6.410536   6.127241   5.608631   6.849140
    19  H    6.932202   5.892620   5.853745   5.252508   6.314229
    20  H    6.899617   6.425627   5.973516   5.051574   6.004573
    21  H    5.290411   4.639045   4.616953   4.724705   6.186413
    22  H    5.387583   4.015867   4.340196   4.344846   5.622308
    23  H    3.726374   2.874961   2.890218   3.192340   4.646177
    24  N    2.995076   3.681426   2.447470   1.348723   2.406676
    25  N    5.008730   4.478898   4.094536   3.524745   4.800266
    26  O    1.325842   3.630030   2.329293   2.741480   3.313493
    27  O    3.577234   1.255748   2.374751   2.998403   3.717631
    28  H    4.770438   4.070244   3.686577   2.892864   4.007083
    29  O    3.881289   2.806632   2.563967   1.763771   2.525094
    30  H    4.566357   3.523058   3.284740   2.272737   2.451145
    31  H    3.787760   2.090266   2.411134   2.257957   2.987400
    32  C    2.834237   1.502707   2.558609   3.989934   4.762478
    33  C    1.496819   2.882596   2.543297   3.906830   4.599616
    34  C    2.529746   2.544946   2.954832   4.430254   4.977430
    35  C    3.843328   3.863052   4.396567   5.901540   6.502052
    36  H    4.671073   4.204506   5.003558   6.486941   7.004036
    37  H    4.193644   4.690302   4.991809   6.444057   6.921438
    38  H    4.076608   4.105748   4.629473   6.144599   6.960658
    39  C    3.119424   3.103087   3.426069   4.647800   4.714980
    40  H    3.543227   4.083117   4.159957   5.315373   5.267340
    41  H    4.086896   3.502224   4.161418   5.354157   5.366190
    42  H    2.822910   2.799041   2.899607   3.871737   3.719334
    43  H    1.907574   4.317955   3.155863   3.708484   4.176588
    44  H    2.095950   3.315028   3.044822   4.385789   5.327858
    45  H    2.118656   3.862447   3.364997   4.555372   5.018718
    46  H    3.196186   2.090543   3.002233   4.408222   5.430803
    47  H    3.839909   2.108947   3.408847   4.707737   5.318729
                    6          7          8          9         10
     6  C    0.000000
     7  C    1.522375   0.000000
     8  C    3.829991   2.456080   0.000000
     9  C    3.060613   2.489525   2.450343   0.000000
    10  H    4.078721   5.249171   6.822661   5.966837   0.000000
    11  H    4.062705   4.774132   5.865699   5.569359   1.782924
    12  H    4.629971   5.500410   6.489018   5.577116   1.777299
    13  H    2.157700   1.092993   2.713722   2.682813   6.168438
    14  H    2.159121   1.092334   2.569433   3.397349   5.400904
    15  H    1.090875   2.174279   4.226404   2.782352   4.303093
    16  H    2.110876   2.801803   4.505856   4.397664   2.854036
    17  H    1.093467   2.112074   4.564543   4.013481   4.416056
    18  H    4.147267   2.691627   1.090680   2.699656   7.577280
    19  H    4.620352   3.392171   1.089547   2.641347   7.220510
    20  H    4.040215   2.662319   1.089336   3.386470   6.799607
    21  H    3.438765   2.723814   2.699432   1.090955   6.805403
    22  H    4.027381   3.413295   2.638037   1.089788   6.444797
    23  H    2.711363   2.733127   3.394531   1.089312   5.256486
    24  N    1.454648   2.490515   4.343081   3.714481   2.764594
    25  N    2.528558   1.497739   1.489437   1.489074   5.544397
    26  O    3.082798   4.598747   6.732481   5.328185   2.799879
    27  O    4.559027   5.065528   5.472778   3.677541   4.422001
    28  H    2.675129   2.061983   2.059495   2.034979   4.860645
    29  O    3.298928   3.551360   3.979121   3.177623   3.520246
    30  H    4.011778   4.194498   4.403641   4.014260   3.538983
    31  H    3.896786   4.229918   4.533633   3.250070   3.906752
    32  C    5.089540   5.983435   6.978896   4.732395   4.979180
    33  C    4.519432   5.835482   7.584157   5.541568   4.307083
    34  C    5.514324   6.675636   8.055299   5.869468   4.855407
    35  C    6.699762   7.811371   9.154068   6.829565   6.337479
    36  H    7.489364   8.519681   9.649296   7.302135   6.924974
    37  H    7.210302   8.434177   9.962564   7.691310   6.589014
    38  H    6.555309   7.565916   8.877851   6.491286   6.855937
    39  C    6.263550   7.487046   8.837604   6.841368   4.481802
    40  H    6.812093   8.140399   9.676552   7.707227   4.819356
    41  H    7.090409   8.211008   9.334961   7.300890   5.262370
    42  H    5.776224   6.992974   8.324928   6.535016   3.505403
    43  H    3.839458   5.354096   7.568960   6.098768   3.518381
    44  H    4.421448   5.632063   7.392364   5.260966   5.114585
    45  H    5.156307   6.571020   8.480338   6.539047   4.495557
    46  H    4.971122   5.730790   6.674462   4.286258   5.680931
    47  H    6.018809   6.799985   7.514862   5.302272   5.619776
                   11         12         13         14         15
    11  H    0.000000
    12  H    1.789732   0.000000
    13  H    5.831472   6.485476   0.000000
    14  H    4.684551   5.731623   1.780616   0.000000
    15  H    4.575588   4.738180   2.503964   3.074690   0.000000
    16  H    2.301264   3.525929   3.786980   2.639889   2.979015
    17  H    4.575926   5.307042   2.429739   2.456675   1.757383
    18  H    6.763217   7.370421   2.490039   2.901511   4.447155
    19  H    6.179510   6.619947   3.692881   3.570507   4.892697
    20  H    5.665572   6.560780   3.068656   2.305009   4.674268
    21  H    6.504725   6.569488   2.456945   3.666523   3.083281
    22  H    5.904410   5.759136   3.670358   4.181508   3.764915
    23  H    5.142262   4.928546   3.036437   3.729355   2.141922
    24  N    2.616175   3.317152   3.422425   2.741461   2.085139
    25  N    4.837869   5.303186   2.096008   2.089807   2.822941
    26  O    4.107440   3.967300   5.109916   5.117399   2.806649
    27  O    4.457473   3.300660   5.736582   5.786169   4.084823
    28  H    3.981150   4.441255   2.940653   2.410608   3.050909
    29  O    2.757514   2.627733   4.508040   3.921713   3.437346
    30  H    2.387945   2.420116   5.214023   4.351234   4.298468
    31  H    3.473059   2.761416   5.062942   4.774214   3.742782
    32  C    5.766593   4.479457   6.400013   6.880869   4.239864
    33  C    5.631425   4.738856   6.174610   6.648007   3.706448
    34  C    6.059328   4.774521   7.074665   7.525800   4.675214
    35  C    7.583736   6.285891   8.056362   8.734646   5.754439
    36  H    8.081605   6.629854   8.800105   9.448490   6.553883
    37  H    8.008433   6.756894   8.670954   9.316608   6.305510
    38  H    8.010603   6.848263   7.669020   8.552331   5.529983
    39  C    5.795195   4.300758   8.048425   8.206590   5.608644
    40  H    6.330332   4.948506   8.672083   8.827812   6.179772
    41  H    6.412771   4.766720   8.782736   8.949106   6.416737
    42  H    4.779451   3.255467   7.672283   7.609578   5.281236
    43  H    4.969166   4.780026   5.742094   5.880679   3.489977
    44  H    6.300100   5.560135   5.780028   6.533434   3.469271
    45  H    6.033634   5.200891   6.904449   7.305170   4.448325
    46  H    6.379929   5.288728   5.972506   6.721245   4.000307
    47  H    6.293068   4.830642   7.246577   7.678143   5.213751
                   16         17         18         19         20
    16  H    0.000000
    17  H    2.444147   0.000000
    18  H    5.178803   4.735895   0.000000
    19  H    5.170167   5.467033   1.790271   0.000000
    20  H    4.290179   4.646737   1.791491   1.789806   0.000000
    21  H    5.084650   4.200028   2.488490   3.013562   3.694935
    22  H    5.075475   5.031337   3.013014   2.359104   3.617757
    23  H    4.112546   3.692758   3.701307   3.624955   4.207152
    24  N    1.014870   2.080727   4.955195   4.966076   4.378452
    25  N    3.435902   3.433008   2.103161   2.105551   2.108636
    26  O    3.424307   3.084596   7.131816   7.330020   6.969395
    27  O    4.857695   5.552481   6.152665   5.312085   6.072068
    28  H    2.967729   3.666089   2.948719   2.380685   2.385059
    29  O    2.929500   4.307195   4.878311   4.025318   4.230618
    30  H    3.144745   4.945223   5.399235   4.367518   4.468823
    31  H    3.845487   4.933912   5.358524   4.420753   4.970605
    32  C    5.870679   5.825658   7.406152   7.016678   7.674721
    33  C    5.343628   4.821391   7.908556   7.957917   8.113215
    34  C    6.199911   6.023424   8.454635   8.232432   8.666045
    35  C    7.610968   7.135320   9.435777   9.309151   9.854623
    36  H    8.315651   8.018674   9.971286   9.689238  10.383905
    37  H    8.047332   7.511573  10.234097  10.190349  10.611096
    38  H    7.746766   6.966225   9.040211   9.056578   9.646288
    39  C    6.461744   6.767591   9.378358   8.970951   9.333629
    40  H    6.968888   7.169991  10.187636   9.884993  10.131903
    41  H    7.262873   7.683796   9.904262   9.349184   9.875176
    42  H    5.670805   6.311819   8.956844   8.466876   8.722560
    43  H    4.287740   3.650030   7.890860   8.198711   7.821415
    44  H    5.648716   4.662962   7.569551   7.808651   8.001768
    45  H    5.811380   5.270482   8.799102   8.915535   8.938297
    46  H    6.118848   5.689056   6.954611   6.733472   7.471495
    47  H    6.663986   6.821038   7.989042   7.403714   8.236828
                   21         22         23         24         25
    21  H    0.000000
    22  H    1.792641   0.000000
    23  H    1.789967   1.781893   0.000000
    24  N    4.406877   4.443855   3.258707   0.000000
    25  N    2.103417   2.101736   2.121044   3.043974   0.000000
    26  O    5.803179   6.114088   4.436306   2.769320   5.288276
    27  O    4.601473   3.516652   2.951435   4.092942   4.297129
    28  H    2.931850   2.355075   2.361770   2.653728   1.030813
    29  O    4.239872   3.262019   2.850786   2.498883   2.872083
    30  H    5.082054   3.983965   3.797971   3.000856   3.516946
    31  H    4.309238   3.144145   2.758794   3.247166   3.414294
    32  C    5.304275   4.885989   3.714507   4.931500   5.634899
    33  C    5.943720   6.122260   4.464930   4.454092   6.108435
    34  C    6.370014   6.199358   4.790865   5.299780   6.624458
    35  C    7.162945   7.131576   5.781188   6.679284   7.764248
    36  H    7.682671   7.452714   6.291943   7.391383   8.308463
    37  H    8.001579   8.074991   6.624400   7.161159   8.536055
    38  H    6.669329   6.832885   5.491699   6.769637   7.537976
    39  C    7.495096   7.091717   5.788808   5.704477   7.409206
    40  H    8.308585   8.043463   6.636269   6.261698   8.218205
    41  H    7.983475   7.401001   6.287194   6.509084   7.963413
    42  H    7.295396   6.784035   5.527814   5.007681   6.912231
    43  H    6.471098   6.916079   5.184792   3.688331   6.132931
    44  H    5.469761   5.914932   4.225405   4.707098   5.961800
    45  H    6.915689   7.167709   5.478038   5.022673   6.997100
    46  H    4.667385   4.485272   3.306225   5.126060   5.384869
    47  H    5.918207   5.241995   4.381597   5.768972   6.264037
                   26         27         28         29         30
    26  O    0.000000
    27  O    4.695357   0.000000
    28  H    5.087873   3.758094   0.000000
    29  O    4.421810   2.384828   1.965706   0.000000
    30  H    5.006383   2.972947   2.507843   0.972711   0.000000
    31  H    4.614975   1.366329   2.660981   1.064547   1.663437
    32  C    4.158522   2.356440   5.391473   4.295826   5.011479
    33  C    2.404599   4.135480   5.975004   5.089598   5.810327
    34  C    3.694760   3.631922   6.385968   5.226592   5.884753
    35  C    4.888935   4.835256   7.645623   6.628750   7.326970
    36  H    5.798568   4.965838   8.134765   7.005612   7.646761
    37  H    5.025104   5.739636   8.414590   7.372943   8.038968
    38  H    5.095545   5.061401   7.562544   6.807629   7.598755
    39  C    4.093954   3.992020   6.979690   5.480355   5.922360
    40  H    4.257804   5.043654   7.815110   6.355189   6.775359
    41  H    5.138151   4.129736   7.495794   5.910774   6.292090
    42  H    3.695083   3.593273   6.371186   4.739778   5.070830
    43  H    0.971643   5.466477   6.005314   5.379139   5.967017
    44  H    2.844835   4.519800   6.014491   5.459174   6.284032
    45  H    2.514927   5.106228   6.847977   5.923315   6.569803
    46  H    4.456173   2.824200   5.339605   4.627883   5.458914
    47  H    5.160251   2.452927   5.950482   4.722989   5.328820
                   31         32         33         34         35
    31  H    0.000000
    32  C    3.512257   0.000000
    33  C    4.756064   2.456751   0.000000
    34  C    4.609860   1.528411   1.530398   0.000000
    35  C    5.946040   2.499644   2.495716   1.527272   0.000000
    36  H    6.203577   2.761660   3.455158   2.165977   1.094896
    37  H    6.769838   3.457991   2.748240   2.167022   1.095152
    38  H    6.148266   2.737366   2.740438   2.175232   1.094887
    39  C    4.880729   2.516374   2.519093   1.532620   2.498851
    40  H    5.850333   3.468869   2.775036   2.168768   2.733163
    41  H    5.171058   2.766683   3.470129   2.166749   2.737488
    42  H    4.245998   2.786226   2.787107   2.195470   3.472598
    43  H    5.516225   4.570207   2.392143   3.815235   4.790957
    44  H    5.142188   2.767745   1.100020   2.168426   2.652385
    45  H    5.667108   3.425728   1.095933   2.174109   2.818620
    46  H    3.895629   1.100568   2.728176   2.162541   2.679869
    47  H    3.786877   1.093830   3.434123   2.183360   2.812646
                   36         37         38         39         40
    36  H    0.000000
    37  H    1.774003   0.000000
    38  H    1.776512   1.776571   0.000000
    39  C    2.734240   2.743032   3.463830   0.000000
    40  H    3.069780   2.520511   3.746215   1.094741   0.000000
    41  H    2.515764   3.091002   3.744566   1.094669   1.774615
    42  H    3.751988   3.756370   4.333522   1.095852   1.772939
    43  H    5.775208   4.728004   4.988354   4.221056   4.153980
    44  H    3.677529   2.969069   2.435560   3.469053   3.728186
    45  H    3.809599   2.626412   3.196751   2.707291   2.511886
    46  H    3.030692   3.692191   2.454144   3.468372   4.303916
    47  H    2.629239   3.815122   3.162870   2.742232   3.758268
                   41         42         43         44         45
    41  H    0.000000
    42  H    1.772075   0.000000
    43  H    5.307889   4.001701   0.000000
    44  H    4.304872   3.830136   2.758403   0.000000
    45  H    3.729546   3.026905   2.112004   1.769226   0.000000
    46  H    3.740959   3.817496   4.824659   2.581640   3.760349
    47  H    2.541742   3.075328   5.579055   3.784918   4.301046
                   46         47
    46  H    0.000000
    47  H    1.771025   0.000000
 Stoichiometry    C14H28N2O3(2+)
 Framework group  C1[X(C14H28N2O3)]
 Deg. of freedom   135
 Full point group                 C1      NOp   1
 Largest Abelian subgroup         C1      NOp   1
 Largest concise Abelian subgroup C1      NOp   1
                         Standard orientation:                         
 ---------------------------------------------------------------------
 Center     Atomic      Atomic             Coordinates (Angstroms)
 Number     Number       Type             X           Y           Z
 ---------------------------------------------------------------------
      1          6           0       -1.341519    0.975814   -0.692940
      2          6           0       -1.013561   -0.917376    0.763627
      3          6           0       -0.556824    0.361416    0.259126
      4          6           0        0.614851    1.146402    0.831226
      5          6           0        0.226645    2.106909    1.930650
      6          6           0        1.885822    1.029300   -1.317827
      7          6           0        3.248710    0.351774   -1.284374
      8          6           0        4.736504   -1.264392   -0.185827
      9          6           0        2.420918   -1.911254   -0.658915
     10          1           0       -0.422347    2.871929    1.495186
     11          1           0        1.113626    2.586435    2.354313
     12          1           0       -0.323254    1.581690    2.713486
     13          1           0        3.491383   -0.052571   -2.270401
     14          1           0        4.019766    1.067868   -0.991330
     15          1           0        1.102221    0.337820   -1.630609
     16          1           0        2.118218    2.370988    0.295140
     17          1           0        1.946345    1.812783   -2.078196
     18          1           0        5.059480   -1.635759   -1.159149
     19          1           0        4.762555   -2.064250    0.553539
     20          1           0        5.362472   -0.431489    0.132118
     21          1           0        2.708186   -2.294180   -1.639235
     22          1           0        2.531608   -2.683920    0.101594
     23          1           0        1.390551   -1.558234   -0.676841
     24          7           0        1.508226    1.637775   -0.051660
     25          7           0        3.331976   -0.785312   -0.313125
     26          8           0       -0.976320    2.163177   -1.156249
     27          8           0       -0.406190   -1.546794    1.664646
     28          1           0        3.025268   -0.437416    0.607458
     29          8           0        1.473529   -0.082269    1.760704
     30          1           0        1.723373    0.293280    2.622509
     31          1           0        0.736203   -0.836594    1.904246
     32          6           0       -2.226460   -1.575224    0.168445
     33          6           0       -2.586686    0.381276   -1.273071
     34          6           0       -3.289763   -0.596144   -0.328374
     35          6           0       -4.371862   -1.353673   -1.095037
     36          1           0       -4.876121   -2.067045   -0.435022
     37          1           0       -5.122562   -0.657035   -1.482985
     38          1           0       -3.943079   -1.905193   -1.938096
     39          6           0       -3.925305    0.152053    0.848576
     40          1           0       -4.681207    0.855283    0.484520
     41          1           0       -4.413315   -0.557923    1.523914
     42          1           0       -3.186474    0.717184    1.427926
     43          1           0       -1.625080    2.509443   -1.791308
     44          1           0       -2.287539   -0.137503   -2.195797
     45          1           0       -3.262120    1.195223   -1.560035
     46          1           0       -1.856973   -2.178481   -0.674650
     47          1           0       -2.629555   -2.263776    0.916693
 ---------------------------------------------------------------------
 Rotational constants (GHZ):           0.6268943           0.2397788           0.2260748
 Standard basis: 6-311++G(2df,2p) (5D, 7F)
 There are  1021 symmetry adapted cartesian basis functions of A   symmetry.
 There are   926 symmetry adapted basis functions of A   symmetry.
   926 basis functions,  1324 primitive gaussians,  1021 cartesian basis functions
    74 alpha electrons       74 beta electrons
       nuclear repulsion energy      1707.3319490868 Hartrees.
 NAtoms=   47 NActive=   47 NUniq=   47 SFac= 1.00D+00 NAtFMM=   60 NAOKFM=F Big=F
 Integral buffers will be    131072 words long.
 Raffenetti 2 integral format.
 Two-electron integral symmetry is turned on.
 Force inversion solution in PCM.
 ------------------------------------------------------------------------------
 Polarizable Continuum Model (PCM)
 =================================
 Model                : PCM.
 Atomic radii         : SMD-Coulomb.
 Polarization charges : Total charges.
 Charge compensation  : None.
 Solution method      : Matrix inversion.
 Cavity type          : VdW (van der Waals Surface) (Alpha=1.000).
 Cavity algorithm     : GePol (No added spheres)
                        Default sphere list used, NSphG=   47.
                        Lebedev-Laikov grids with approx.  5.0 points / Ang**2.
                        Smoothing algorithm: York/Karplus (Gamma=1.0000).
                        Polarization charges: spherical gaussians, with
                                              point-specific exponents (IZeta= 3).
                        Self-potential: point-specific (ISelfS= 7).
                        Self-field    : sphere-specific E.n sum rule (ISelfD= 2).
 1st derivatives      : Analytical E(r).r(x)/FMM algorithm (CHGder, D1EAlg=3).
                        Cavity 1st derivative terms included.
 2nd derivatives      : Analytical E(r).r(xy)/FMM algorithm (CHGder, D2EAlg=3).
                        Cavity 2nd derivative terms included.
 Solvent              : Water, Eps=  78.355300 Eps(inf)=   1.777849
 ------------------------------------------------------------------------------
 ------------------------------------------------------------------------------
 Atomic radii for non-electrostatic terms: SMD-CDS.
 ------------------------------------------------------------------------------
 Nuclear repulsion after PCM non-electrostatic terms =     1707.3458529810 Hartrees.
 One-electron integrals computed using PRISM.
 NBasis=   926 RedAO= T EigKep=  1.29D-06  NBF=   926
 NBsUse=   923 1.00D-06 EigRej=  7.23D-07 NBFU=   923
 ExpMin= 3.60D-02 ExpMax= 8.59D+03 ExpMxC= 1.30D+03 IAcc=3 IRadAn=         5 AccDes= 0.00D+00
 Harris functional with IExCor= 1009 and IRadAn=       5 diagonalized for initial guess.
 HarFok:  IExCor= 1009 AccDes= 0.00D+00 IRadAn=         5 IDoV= 1 UseB2=F ITyADJ=14
 ICtDFT=  3500011 ScaDFX=  1.000000  1.000000  1.000000  1.000000
 FoFCou: FMM=F IPFlag=           0 FMFlag=      100000 FMFlg1=           0
         NFxFlg=           0 DoJE=T BraDBF=F KetDBF=T FulRan=T
         wScrn=  0.000000 ICntrl=       500 IOpCl=  0 I1Cent=   200000004 NGrid=           0
         NMat0=    1 NMatS0=      1 NMatT0=    0 NMatD0=    1 NMtDS0=    0 NMtDT0=    0
 Petite list used in FoFCou.
 Requested convergence on RMS density matrix=1.00D-08 within 128 cycles.
 Requested convergence on MAX density matrix=1.00D-06.
 Requested convergence on             energy=1.00D-06.
 No special actions if energy rises.
 Inv3:  Mode=1 IEnd=    25264812.
 Iteration    1 A*A^-1 deviation from unit magnitude is 3.11D-15 for   1123.
 Iteration    1 A*A^-1 deviation from orthogonality  is 2.30D-15 for   1572   1136.
 Iteration    1 A^-1*A deviation from unit magnitude is 3.00D-15 for   1839.
 Iteration    1 A^-1*A deviation from orthogonality  is 6.18D-13 for   1327   1300.
 Error on total polarization charges =  0.05952
 SCF Done:  E(RM062X) =  -885.154612644     A.U. after   14 cycles
            NFock= 14  Conv=0.38D-08     -V/T= 2.0045
 SMD-CDS (non-electrostatic) energy       (kcal/mol) =       8.72
 (included in total energy above)
 DoSCS=F DFT=T ScalE2(SS,OS)=  1.000000  1.000000
 Range of M.O.s used for correlation:     1   923
 NBasis=   926 NAE=    74 NBE=    74 NFC=     0 NFV=     0
 NROrb=    923 NOA=    74 NOB=    74 NVA=   849 NVB=   849

 **** Warning!!: The largest alpha MO coefficient is  0.13901295D+03

 Symmetrizing basis deriv contribution to polar:
 IMax=3 JMax=2 DiffMx= 0.00D+00
 G2DrvN: will do    48 centers at a time, making    1 passes.
 Calling FoFCou, ICntrl=  3107 FMM=F I1Cent=   0 AccDes= 0.00D+00.
 NEqPCM:  Using equilibrium solvation (IEInf=0, Eps=  78.3553, EpsInf=   1.7778)
 G2PCM: DoFxE=T DoFxN=T DoGrad=T DoDP/DQ/DG/TGxP=FFFF NFrqRd=   0 IEInf=0 SqF1=F DoCFld=F IF1Alg=4.
 End of G2Drv F.D. properties file   721 does not exist.
 End of G2Drv F.D. properties file   722 does not exist.
 End of G2Drv F.D. properties file   788 does not exist.
          IDoAtm=11111111111111111111111111111111111111111111111
 NEqPCM:  Using equilibrium solvation (IEInf=0, Eps=  78.3553, EpsInf=   1.7778)
          Differentiating once with respect to nuclear coordinates.
 CalDSu exits because no D1Ps are significant.
          There are   144 degrees of freedom in the 1st order CPHF.  IDoFFX=6 NUNeed=     0.
    139 vectors produced by pass  0 Test12= 6.28D-14 1.00D-09 XBig12= 1.64D-01 1.31D-01.
 AX will form    84 AO Fock derivatives at one time.
    138 vectors produced by pass  1 Test12= 6.28D-14 1.00D-09 XBig12= 1.73D-02 2.67D-02.
    138 vectors produced by pass  2 Test12= 6.28D-14 1.00D-09 XBig12= 6.19D-04 5.08D-03.
    138 vectors produced by pass  3 Test12= 6.28D-14 1.00D-09 XBig12= 4.66D-06 1.84D-04.
    138 vectors produced by pass  4 Test12= 6.28D-14 1.00D-09 XBig12= 3.01D-08 1.15D-05.
    138 vectors produced by pass  5 Test12= 6.28D-14 1.00D-09 XBig12= 1.59D-10 6.46D-07.
     95 vectors produced by pass  6 Test12= 6.28D-14 1.00D-09 XBig12= 6.63D-13 3.76D-08.
     13 vectors produced by pass  7 Test12= 6.28D-14 1.00D-09 XBig12= 4.14D-15 3.42D-09.
      6 vectors produced by pass  8 Test12= 6.28D-14 1.00D-09 XBig12= 1.04D-15 1.83D-09.
      4 vectors produced by pass  9 Test12= 6.28D-14 1.00D-09 XBig12= 1.79D-15 3.21D-09.
      4 vectors produced by pass 10 Test12= 6.28D-14 1.00D-09 XBig12= 8.80D-15 8.21D-09.
      4 vectors produced by pass 11 Test12= 6.28D-14 1.00D-09 XBig12= 6.06D-15 5.26D-09.
      4 vectors produced by pass 12 Test12= 6.28D-14 1.00D-09 XBig12= 6.36D-15 4.91D-09.
      3 vectors produced by pass 13 Test12= 6.28D-14 1.00D-09 XBig12= 5.72D-16 1.40D-09.
      3 vectors produced by pass 14 Test12= 6.28D-14 1.00D-09 XBig12= 2.17D-15 4.31D-09.
      3 vectors produced by pass 15 Test12= 6.28D-14 1.00D-09 XBig12= 1.09D-14 5.64D-09.
      3 vectors produced by pass 16 Test12= 6.28D-14 1.00D-09 XBig12= 1.71D-15 2.57D-09.
      3 vectors produced by pass 17 Test12= 6.28D-14 1.00D-09 XBig12= 1.99D-15 2.62D-09.
      3 vectors produced by pass 18 Test12= 6.28D-14 1.00D-09 XBig12= 1.90D-15 2.53D-09.
      1 vectors produced by pass 19 Test12= 6.28D-14 1.00D-09 XBig12= 1.61D-15 2.23D-09.
 InvSVY:  IOpt=1 It=  1 EMax= 4.44D-16
 Solved reduced A of dimension   978 with   144 vectors.
 End of Minotr F.D. properties file   721 does not exist.
 End of Minotr F.D. properties file   722 does not exist.
 End of Minotr F.D. properties file   788 does not exist.

 **********************************************************************

            Population analysis using the SCF density.

 **********************************************************************

 Orbital symmetries:
       Occupied  (A) (A) (A) (A) (A) (A) (A) (A) (A) (A) (A) (A)
                 (A) (A) (A) (A) (A) (A) (A) (A) (A) (A) (A) (A)
                 (A) (A) (A) (A) (A) (A) (A) (A) (A) (A) (A) (A)
                 (A) (A) (A) (A) (A) (A) (A) (A) (A) (A) (A) (A)
                 (A) (A) (A) (A) (A) (A) (A) (A) (A) (A) (A) (A)
                 (A) (A) (A) (A) (A) (A) (A) (A) (A) (A) (A) (A)
                 (A) (A)
       Virtual   (A) (A) (A) (A) (A) (A) (A) (A) (A) (A) (A) (A)
                 (A) (A) (A) (A) (A) (A) (A) (A) (A) (A) (A) (A)
                 (A) (A) (A) (A) (A) (A) (A) (A) (A) (A) (A) (A)
                 (A) (A) (A) (A) (A) (A) (A) (A) (A) (A) (A) (A)
                 (A) (A) (A) (A) (A) (A) (A) (A) (A) (A) (A) (A)
                 (A) (A) (A) (A) (A) (A) (A) (A) (A) (A) (A) (A)
                 (A) (A) (A) (A) (A) (A) (A) (A) (A) (A) (A) (A)
                 (A) (A) (A) (A) (A) (A) (A) (A) (A) (A) (A) (A)
                 (A) (A) (A) (A) (A) (A) (A) (A) (A) (A) (A) (A)
                 (A) (A) (A) (A) (A) (A) (A) (A) (A) (A) (A) (A)
                 (A) (A) (A) (A) (A) (A) (A) (A) (A) (A) (A) (A)
                 (A) (A) (A) (A) (A) (A) (A) (A) (A) (A) (A) (A)
                 (A) (A) (A) (A) (A) (A) (A) (A) (A) (A) (A) (A)
                 (A) (A) (A) (A) (A) (A) (A) (A) (A) (A) (A) (A)
                 (A) (A) (A) (A) (A) (A) (A) (A) (A) (A) (A) (A)
                 (A) (A) (A) (A) (A) (A) (A) (A) (A) (A) (A) (A)
                 (A) (A) (A) (A) (A) (A) (A) (A) (A) (A) (A) (A)
                 (A) (A) (A) (A) (A) (A) (A) (A) (A) (A) (A) (A)
                 (A) (A) (A) (A) (A) (A) (A) (A) (A) (A) (A) (A)
                 (A) (A) (A) (A) (A) (A) (A) (A) (A) (A) (A) (A)
                 (A) (A) (A) (A) (A) (A) (A) (A) (A) (A) (A) (A)
                 (A) (A) (A) (A) (A) (A) (A) (A) (A) (A) (A) (A)
                 (A) (A) (A) (A) (A) (A) (A) (A) (A) (A) (A) (A)
                 (A) (A) (A) (A) (A) (A) (A) (A) (A) (A) (A) (A)
                 (A) (A) (A) (A) (A) (A) (A) (A) (A) (A) (A) (A)
                 (A) (A) (A) (A) (A) (A) (A) (A) (A) (A) (A) (A)
                 (A) (A) (A) (A) (A) (A) (A) (A) (A) (A) (A) (A)
                 (A) (A) (A) (A) (A) (A) (A) (A) (A) (A) (A) (A)
                 (A) (A) (A) (A) (A) (A) (A) (A) (A) (A) (A) (A)
                 (A) (A) (A) (A) (A) (A) (A) (A) (A) (A) (A) (A)
                 (A) (A) (A) (A) (A) (A) (A) (A) (A) (A) (A) (A)
                 (A) (A) (A) (A) (A) (A) (A) (A) (A) (A) (A) (A)
                 (A) (A) (A) (A) (A) (A) (A) (A) (A) (A) (A) (A)
                 (A) (A) (A) (A) (A) (A) (A) (A) (A) (A) (A) (A)
                 (A) (A) (A) (A) (A) (A) (A) (A) (A) (A) (A) (A)
                 (A) (A) (A) (A) (A) (A) (A) (A) (A) (A) (A) (A)
                 (A) (A) (A) (A) (A) (A) (A) (A) (A) (A) (A) (A)
                 (A) (A) (A) (A) (A) (A) (A) (A) (A) (A) (A) (A)
                 (A) (A) (A) (A) (A) (A) (A) (A) (A) (A) (A) (A)
                 (A) (A) (A) (A) (A) (A) (A) (A) (A) (A) (A) (A)
                 (A) (A) (A) (A) (A) (A) (A) (A) (A) (A) (A) (A)
                 (A) (A) (A) (A) (A) (A) (A) (A) (A) (A) (A) (A)
                 (A) (A) (A) (A) (A) (A) (A) (A) (A) (A) (A) (A)
                 (A) (A) (A) (A) (A) (A) (A) (A) (A) (A) (A) (A)
                 (A) (A) (A) (A) (A) (A) (A) (A) (A) (A) (A) (A)
                 (A) (A) (A) (A) (A) (A) (A) (A) (A) (A) (A) (A)
                 (A) (A) (A) (A) (A) (A) (A) (A) (A) (A) (A) (A)
                 (A) (A) (A) (A) (A) (A) (A) (A) (A) (A) (A) (A)
                 (A) (A) (A) (A) (A) (A) (A) (A) (A) (A) (A) (A)
                 (A) (A) (A) (A) (A) (A) (A) (A) (A) (A) (A) (A)
                 (A) (A) (A) (A) (A) (A) (A) (A) (A) (A) (A) (A)
                 (A) (A) (A) (A) (A) (A) (A) (A) (A) (A) (A) (A)
                 (A) (A) (A) (A) (A) (A) (A) (A) (A) (A) (A) (A)
                 (A) (A) (A) (A) (A) (A) (A) (A) (A) (A) (A) (A)
                 (A) (A) (A) (A) (A) (A) (A) (A) (A) (A) (A) (A)
                 (A) (A) (A) (A) (A) (A) (A) (A) (A) (A) (A) (A)
                 (A) (A) (A) (A) (A) (A) (A) (A) (A) (A) (A) (A)
                 (A) (A) (A) (A) (A) (A) (A) (A) (A) (A) (A) (A)
                 (A) (A) (A) (A) (A) (A) (A) (A) (A) (A) (A) (A)
                 (A) (A) (A) (A) (A) (A) (A) (A) (A) (A) (A) (A)
                 (A) (A) (A) (A) (A) (A) (A) (A) (A) (A) (A) (A)
                 (A) (A) (A) (A) (A) (A) (A) (A) (A) (A) (A) (A)
                 (A) (A) (A) (A) (A) (A) (A) (A) (A) (A) (A) (A)
                 (A) (A) (A) (A) (A) (A) (A) (A) (A) (A) (A) (A)
                 (A) (A) (A) (A) (A) (A) (A) (A) (A) (A) (A) (A)
                 (A) (A) (A) (A) (A) (A) (A) (A) (A) (A) (A) (A)
                 (A) (A) (A) (A) (A) (A) (A) (A) (A) (A) (A) (A)
                 (A) (A) (A) (A) (A) (A) (A) (A) (A) (A) (A) (A)
                 (A) (A) (A) (A) (A) (A) (A) (A) (A) (A) (A) (A)
                 (A) (A) (A) (A) (A) (A) (A) (A) (A) (A) (A) (A)
                 (A) (A) (A) (A) (A) (A) (A) (A) (A)
 The electronic state is 1-A.
 Alpha  occ. eigenvalues --  -19.69142 -19.67042 -19.64617 -14.85899 -14.78078
 Alpha  occ. eigenvalues --  -10.67823 -10.66291 -10.66222 -10.59280 -10.58732
 Alpha  occ. eigenvalues --  -10.58022 -10.57949 -10.57170 -10.56135 -10.55551
 Alpha  occ. eigenvalues --  -10.54694 -10.54405 -10.52196 -10.52160  -1.23231
 Alpha  occ. eigenvalues --   -1.20752  -1.16736  -1.12038  -1.07441  -0.97227
 Alpha  occ. eigenvalues --   -0.92122  -0.88680  -0.84589  -0.84075  -0.83502
 Alpha  occ. eigenvalues --   -0.80501  -0.77868  -0.77851  -0.74507  -0.73638
 Alpha  occ. eigenvalues --   -0.71523  -0.68065  -0.64726  -0.63517  -0.62800
 Alpha  occ. eigenvalues --   -0.60601  -0.60079  -0.59410  -0.57406  -0.56890
 Alpha  occ. eigenvalues --   -0.56657  -0.55394  -0.54682  -0.53392  -0.52542
 Alpha  occ. eigenvalues --   -0.51890  -0.50888  -0.49955  -0.49815  -0.48797
 Alpha  occ. eigenvalues --   -0.48162  -0.48036  -0.47488  -0.46538  -0.46391
 Alpha  occ. eigenvalues --   -0.45968  -0.45187  -0.44867  -0.44783  -0.43643
 Alpha  occ. eigenvalues --   -0.43389  -0.43248  -0.42839  -0.40645  -0.39135
 Alpha  occ. eigenvalues --   -0.38701  -0.35927  -0.34004  -0.32117
 Alpha virt. eigenvalues --   -0.03752  -0.00415   0.00485   0.00742   0.00900
 Alpha virt. eigenvalues --    0.01888   0.02074   0.02176   0.02747   0.03027
 Alpha virt. eigenvalues --    0.03307   0.03701   0.03831   0.04312   0.04470
 Alpha virt. eigenvalues --    0.04981   0.05432   0.05691   0.06020   0.06284
 Alpha virt. eigenvalues --    0.06746   0.06838   0.07189   0.07503   0.08063
 Alpha virt. eigenvalues --    0.08126   0.08409   0.08856   0.09378   0.09593
 Alpha virt. eigenvalues --    0.09876   0.10362   0.10652   0.10966   0.11181
 Alpha virt. eigenvalues --    0.11827   0.12333   0.12679   0.12879   0.13140
 Alpha virt. eigenvalues --    0.13325   0.13506   0.13637   0.13950   0.14314
 Alpha virt. eigenvalues --    0.14617   0.14684   0.15000   0.15208   0.15289
 Alpha virt. eigenvalues --    0.15473   0.15919   0.16087   0.16192   0.16395
 Alpha virt. eigenvalues --    0.16585   0.16958   0.17061   0.17357   0.17550
 Alpha virt. eigenvalues --    0.17937   0.18090   0.18229   0.18392   0.18742
 Alpha virt. eigenvalues --    0.19155   0.19290   0.19522   0.19705   0.19806
 Alpha virt. eigenvalues --    0.19992   0.20311   0.20587   0.20790   0.20896
 Alpha virt. eigenvalues --    0.21295   0.21528   0.21632   0.22120   0.22479
 Alpha virt. eigenvalues --    0.22791   0.23161   0.23684   0.23840   0.23991
 Alpha virt. eigenvalues --    0.24366   0.24837   0.25075   0.25387   0.25738
 Alpha virt. eigenvalues --    0.25998   0.26071   0.26450   0.26933   0.27099
 Alpha virt. eigenvalues --    0.27315   0.27858   0.27892   0.28573   0.28678
 Alpha virt. eigenvalues --    0.28983   0.29365   0.29625   0.29904   0.30306
 Alpha virt. eigenvalues --    0.30677   0.31231   0.31465   0.31609   0.31904
 Alpha virt. eigenvalues --    0.32462   0.32702   0.33418   0.33614   0.33953
 Alpha virt. eigenvalues --    0.34270   0.34425   0.34867   0.35169   0.35285
 Alpha virt. eigenvalues --    0.35805   0.35947   0.36350   0.36522   0.37137
 Alpha virt. eigenvalues --    0.37306   0.37675   0.38203   0.38438   0.39100
 Alpha virt. eigenvalues --    0.40012   0.40145   0.40724   0.40801   0.41262
 Alpha virt. eigenvalues --    0.41643   0.42091   0.42896   0.42959   0.43302
 Alpha virt. eigenvalues --    0.44131   0.44886   0.45960   0.46147   0.46854
 Alpha virt. eigenvalues --    0.47681   0.47938   0.49061   0.49655   0.50392
 Alpha virt. eigenvalues --    0.50739   0.51256   0.51657   0.52012   0.52750
 Alpha virt. eigenvalues --    0.53285   0.54191   0.54308   0.54679   0.54843
 Alpha virt. eigenvalues --    0.55837   0.56342   0.56643   0.57361   0.57430
 Alpha virt. eigenvalues --    0.57886   0.58194   0.58701   0.58792   0.59475
 Alpha virt. eigenvalues --    0.59825   0.60177   0.60497   0.60764   0.61131
 Alpha virt. eigenvalues --    0.61559   0.61897   0.62011   0.62699   0.63092
 Alpha virt. eigenvalues --    0.63340   0.63984   0.64067   0.64643   0.65071
 Alpha virt. eigenvalues --    0.65403   0.65870   0.65923   0.66232   0.67306
 Alpha virt. eigenvalues --    0.67660   0.67965   0.68312   0.68504   0.69562
 Alpha virt. eigenvalues --    0.69613   0.70179   0.70344   0.70783   0.70810
 Alpha virt. eigenvalues --    0.71758   0.72548   0.73158   0.73299   0.73548
 Alpha virt. eigenvalues --    0.74030   0.74552   0.74943   0.75028   0.75475
 Alpha virt. eigenvalues --    0.75884   0.76162   0.76376   0.77091   0.77559
 Alpha virt. eigenvalues --    0.77855   0.78067   0.78814   0.79074   0.79845
 Alpha virt. eigenvalues --    0.80369   0.80492   0.81561   0.81815   0.82746
 Alpha virt. eigenvalues --    0.82999   0.84692   0.85026   0.85171   0.86148
 Alpha virt. eigenvalues --    0.86254   0.87050   0.88029   0.89227   0.89607
 Alpha virt. eigenvalues --    0.90690   0.90745   0.91327   0.92347   0.92524
 Alpha virt. eigenvalues --    0.92833   0.93472   0.93897   0.95108   0.95232
 Alpha virt. eigenvalues --    0.95808   0.97244   0.98190   0.98481   0.99702
 Alpha virt. eigenvalues --    1.00341   1.00933   1.01365   1.02515   1.02868
 Alpha virt. eigenvalues --    1.03196   1.03780   1.04016   1.04682   1.05693
 Alpha virt. eigenvalues --    1.06146   1.07332   1.07894   1.08488   1.09035
 Alpha virt. eigenvalues --    1.09427   1.10792   1.11403   1.11972   1.12417
 Alpha virt. eigenvalues --    1.12812   1.13267   1.13661   1.14666   1.14977
 Alpha virt. eigenvalues --    1.15322   1.16627   1.17023   1.17748   1.17847
 Alpha virt. eigenvalues --    1.17904   1.18576   1.18713   1.19970   1.20603
 Alpha virt. eigenvalues --    1.21340   1.21636   1.21874   1.22506   1.23051
 Alpha virt. eigenvalues --    1.24086   1.24378   1.24557   1.25499   1.25508
 Alpha virt. eigenvalues --    1.26294   1.26625   1.27542   1.28006   1.28241
 Alpha virt. eigenvalues --    1.29268   1.29739   1.30124   1.30641   1.31209
 Alpha virt. eigenvalues --    1.31365   1.31583   1.32470   1.32721   1.33411
 Alpha virt. eigenvalues --    1.33909   1.34364   1.35144   1.35819   1.36231
 Alpha virt. eigenvalues --    1.36405   1.37084   1.37514   1.37750   1.37902
 Alpha virt. eigenvalues --    1.39540   1.39933   1.40058   1.40672   1.40938
 Alpha virt. eigenvalues --    1.41438   1.41905   1.42480   1.42811   1.43128
 Alpha virt. eigenvalues --    1.43638   1.44008   1.44200   1.44362   1.45204
 Alpha virt. eigenvalues --    1.45414   1.46156   1.46312   1.46919   1.47069
 Alpha virt. eigenvalues --    1.47878   1.48531   1.48715   1.49341   1.49517
 Alpha virt. eigenvalues --    1.49716   1.50355   1.50619   1.51237   1.51868
 Alpha virt. eigenvalues --    1.52742   1.52981   1.53452   1.54048   1.54327
 Alpha virt. eigenvalues --    1.54871   1.55414   1.56408   1.56965   1.57749
 Alpha virt. eigenvalues --    1.58291   1.58840   1.59262   1.59806   1.60220
 Alpha virt. eigenvalues --    1.60871   1.61143   1.62230   1.62799   1.63069
 Alpha virt. eigenvalues --    1.64031   1.64254   1.64466   1.65466   1.66091
 Alpha virt. eigenvalues --    1.66825   1.67155   1.67375   1.67768   1.68994
 Alpha virt. eigenvalues --    1.69273   1.69645   1.70496   1.70876   1.72018
 Alpha virt. eigenvalues --    1.72513   1.73671   1.75042   1.76195   1.77109
 Alpha virt. eigenvalues --    1.77290   1.78338   1.79073   1.79150   1.80479
 Alpha virt. eigenvalues --    1.81592   1.81854   1.83414   1.84701   1.85096
 Alpha virt. eigenvalues --    1.85698   1.86932   1.87561   1.89096   1.90397
 Alpha virt. eigenvalues --    1.91042   1.92715   1.95534   1.96966   1.97332
 Alpha virt. eigenvalues --    1.98808   2.01901   2.02951   2.04956   2.06358
 Alpha virt. eigenvalues --    2.08016   2.09330   2.10897   2.13741   2.15933
 Alpha virt. eigenvalues --    2.20193   2.21072   2.23045   2.26395   2.29502
 Alpha virt. eigenvalues --    2.38952   2.41096   2.41791   2.45084   2.49323
 Alpha virt. eigenvalues --    2.49872   2.51420   2.52343   2.54080   2.55558
 Alpha virt. eigenvalues --    2.57848   2.58321   2.59979   2.60322   2.62039
 Alpha virt. eigenvalues --    2.62546   2.64134   2.64458   2.65447   2.67871
 Alpha virt. eigenvalues --    2.68370   2.69696   2.70521   2.71417   2.74189
 Alpha virt. eigenvalues --    2.75100   2.75563   2.77229   2.77793   2.77913
 Alpha virt. eigenvalues --    2.78650   2.79367   2.81143   2.81970   2.82866
 Alpha virt. eigenvalues --    2.83343   2.84772   2.84823   2.86700   2.86791
 Alpha virt. eigenvalues --    2.88303   2.89314   2.90033   2.90505   2.90690
 Alpha virt. eigenvalues --    2.91137   2.92622   2.92660   2.94779   2.95264
 Alpha virt. eigenvalues --    2.95730   2.96235   2.96634   2.97383   2.97857
 Alpha virt. eigenvalues --    2.98927   2.99246   2.99738   2.99926   3.00210
 Alpha virt. eigenvalues --    3.01181   3.02360   3.02741   3.03085   3.04246
 Alpha virt. eigenvalues --    3.04470   3.05623   3.05832   3.06615   3.07342
 Alpha virt. eigenvalues --    3.08226   3.09076   3.09722   3.10179   3.12088
 Alpha virt. eigenvalues --    3.12870   3.13091   3.13610   3.14776   3.15127
 Alpha virt. eigenvalues --    3.16258   3.16936   3.17565   3.18862   3.18926
 Alpha virt. eigenvalues --    3.20736   3.21958   3.22610   3.23033   3.23796
 Alpha virt. eigenvalues --    3.24730   3.25523   3.25793   3.25972   3.27556
 Alpha virt. eigenvalues --    3.27751   3.28467   3.28943   3.29634   3.30766
 Alpha virt. eigenvalues --    3.31828   3.32731   3.33033   3.33863   3.34200
 Alpha virt. eigenvalues --    3.35113   3.35825   3.35967   3.36622   3.37234
 Alpha virt. eigenvalues --    3.37757   3.38679   3.39409   3.39679   3.40341
 Alpha virt. eigenvalues --    3.40999   3.41951   3.42560   3.43202   3.43849
 Alpha virt. eigenvalues --    3.44797   3.45771   3.46230   3.47643   3.48160
 Alpha virt. eigenvalues --    3.48716   3.49426   3.50172   3.51094   3.52102
 Alpha virt. eigenvalues --    3.52213   3.52906   3.53607   3.54371   3.55464
 Alpha virt. eigenvalues --    3.56058   3.56745   3.57665   3.58537   3.59129
 Alpha virt. eigenvalues --    3.59409   3.60522   3.61357   3.61949   3.62730
 Alpha virt. eigenvalues --    3.63624   3.64094   3.65049   3.65610   3.66132
 Alpha virt. eigenvalues --    3.66534   3.67207   3.68167   3.69062   3.69387
 Alpha virt. eigenvalues --    3.69512   3.69888   3.71420   3.71758   3.72588
 Alpha virt. eigenvalues --    3.72827   3.73536   3.73870   3.74782   3.75259
 Alpha virt. eigenvalues --    3.75930   3.76625   3.77806   3.78053   3.78332
 Alpha virt. eigenvalues --    3.79668   3.80307   3.80484   3.81232   3.81976
 Alpha virt. eigenvalues --    3.83024   3.84055   3.84198   3.85299   3.85934
 Alpha virt. eigenvalues --    3.87105   3.87927   3.88317   3.88823   3.89341
 Alpha virt. eigenvalues --    3.90397   3.90573   3.91056   3.92581   3.92691
 Alpha virt. eigenvalues --    3.94000   3.94981   3.95504   3.96797   3.97237
 Alpha virt. eigenvalues --    3.97719   3.98331   3.99666   4.00840   4.01357
 Alpha virt. eigenvalues --    4.02050   4.02537   4.03806   4.04150   4.05309
 Alpha virt. eigenvalues --    4.05692   4.06188   4.06665   4.07479   4.07773
 Alpha virt. eigenvalues --    4.08706   4.10006   4.10224   4.11392   4.12308
 Alpha virt. eigenvalues --    4.12441   4.13381   4.13506   4.14033   4.15463
 Alpha virt. eigenvalues --    4.15641   4.16105   4.17044   4.18105   4.18790
 Alpha virt. eigenvalues --    4.19281   4.19703   4.19959   4.21255   4.21915
 Alpha virt. eigenvalues --    4.22871   4.24129   4.24247   4.24790   4.25015
 Alpha virt. eigenvalues --    4.26155   4.26583   4.26798   4.27923   4.28441
 Alpha virt. eigenvalues --    4.28988   4.30001   4.30441   4.30907   4.31693
 Alpha virt. eigenvalues --    4.32177   4.32599   4.33021   4.34200   4.34705
 Alpha virt. eigenvalues --    4.35566   4.35919   4.36969   4.38461   4.38674
 Alpha virt. eigenvalues --    4.39815   4.40743   4.41192   4.41488   4.42224
 Alpha virt. eigenvalues --    4.42780   4.43510   4.44420   4.45280   4.46720
 Alpha virt. eigenvalues --    4.47199   4.47544   4.48169   4.50039   4.50958
 Alpha virt. eigenvalues --    4.51272   4.52311   4.53038   4.53509   4.53970
 Alpha virt. eigenvalues --    4.54631   4.57271   4.57634   4.58133   4.58489
 Alpha virt. eigenvalues --    4.59662   4.60447   4.61167   4.61876   4.62894
 Alpha virt. eigenvalues --    4.64204   4.64844   4.65920   4.66970   4.67640
 Alpha virt. eigenvalues --    4.68956   4.69805   4.70911   4.72088   4.73159
 Alpha virt. eigenvalues --    4.75640   4.76684   4.77283   4.80020   4.81340
 Alpha virt. eigenvalues --    4.81546   4.83077   4.84656   4.86638   4.88440
 Alpha virt. eigenvalues --    4.90434   4.92384   4.95659   4.97307   4.98348
 Alpha virt. eigenvalues --    4.99253   5.03460   5.05026   5.05955   5.09132
 Alpha virt. eigenvalues --    5.11075   5.12287   5.14283   5.16200   5.16244
 Alpha virt. eigenvalues --    5.21197   5.21350   5.24182   5.26306   5.26579
 Alpha virt. eigenvalues --    5.27101   5.30582   5.32661   5.34288   5.35587
 Alpha virt. eigenvalues --    5.36882   5.39032   5.40987   5.43334   5.43916
 Alpha virt. eigenvalues --    5.45329   5.46137   5.47083   5.47488   5.48847
 Alpha virt. eigenvalues --    5.49272   5.51847   5.53805   5.54797   5.55420
 Alpha virt. eigenvalues --    5.57726   5.58678   5.59222   5.61240   5.63289
 Alpha virt. eigenvalues --    5.64153   5.65377   5.66276   5.66855   5.67510
 Alpha virt. eigenvalues --    5.67606   5.68128   5.68757   5.69082   5.69846
 Alpha virt. eigenvalues --    5.70543   5.71072   5.71915   5.73670   5.74815
 Alpha virt. eigenvalues --    5.76413   5.77127   5.77889   5.79226   5.79758
 Alpha virt. eigenvalues --    5.80676   5.85102   5.87909   5.90619   5.92763
 Alpha virt. eigenvalues --    5.96026   5.97316   6.00610   6.05687   6.15095
 Alpha virt. eigenvalues --    6.25323   6.30993   6.36829   6.45637   6.58326
 Alpha virt. eigenvalues --    6.79879   6.85609   6.94739   6.97381   7.07432
 Alpha virt. eigenvalues --    7.15132   7.18147   7.19545   7.19777   7.22753
 Alpha virt. eigenvalues --    7.24618   7.31765   7.34709   7.47187   7.56099
 Alpha virt. eigenvalues --    7.61421   7.68952   7.71623   7.76640   7.90936
 Alpha virt. eigenvalues --   24.23774  24.34138  24.38338  24.39102  24.40143
 Alpha virt. eigenvalues --   24.43888  24.44137  24.48404  24.49632  24.53180
 Alpha virt. eigenvalues --   24.54160  24.62934  24.77679  24.93454  35.77840
 Alpha virt. eigenvalues --   35.97901  50.21472  50.24429  50.36096
          Condensed to atoms (all electrons):
               1          2          3          4          5          6
     1  C    9.630255   0.272604   0.057292  -0.339457   0.270865   0.201300
     2  C    0.272604   6.931605   0.132928  -0.387258  -0.149852  -0.012243
     3  C    0.057292   0.132928  11.681387   1.286018  -1.403314  -0.408245
[...]
 940,-0.00007785,-0.00008032,-0.00028602,-0.00009515,-0.00124950,-0.003
 38881,0.00227090,0.00018751,-0.00020606,-0.00022464,-0.00033585,0.0004
 8918,0.00109811,0.00008784,0.00008017,0.00001332,0.00037885,-0.0002969
 2,-0.00009050,0.07045596,0.00278797,-0.00902541,-0.01161375,-0.0002120
 0,-0.00025423,-0.00003722,-0.00025241,-0.00022979,0.00082584,-0.000142
 29,0.00020612,0.00032438,0.00000333,0.00005349,0.00004038,-0.00001487,
 0.00001366,-0.00000714,-0.00000620,-0.00002212,-0.00000324,0.00000471,
 -0.00000160,-0.00000134,0.00001225,-0.00000536,-0.00000644,-0.00000024
 ,0.00000039,0.00000240,0.00000460,-0.00000207,-0.00000513,0.00000263,-
 0.00000243,-0.00000505,-0.00000324,0.00000346,0.00000028,-0.00000751,0
 .00000574,-0.00000033,-0.00007148,-0.00004676,-0.00002524,-0.00001360,
 0.00000406,0.00001463,-0.00000452,-0.00000341,0.00000641,-0.00000090,0
 .00000039,-0.00000037,-0.00000119,0.00000052,0.00000024,-0.00000079,0.
 00000076,-0.00000001,-0.00000106,0.00000124,0.00000123,-0.00000333,0.0
 0000131,0.00000108,-0.00000937,-0.00000033,-0.00000170,-0.00005929,-0.
 00005265,-0.00002601,-0.00000551,0.00000219,0.00000343,-0.00206516,0.0
 0090279,0.00146576,0.00028734,-0.00008022,0.00019263,0.00001043,-0.000
 00376,-0.00000194,-0.00008131,0.00006166,-0.00012484,-0.00000536,0.000
 02642,0.00000549,-0.00005852,-0.00007787,0.00000215,-0.00000498,0.0016
 3683,0.00034651,0.03885885,-0.11239136,-0.11084009,-0.00591312,0.00911
 928,0.01624920,-0.00012663,0.00099157,0.00097797,0.00012494,0.00023219
 ,0.00012282,0.00000269,-0.00000270,-0.00014346,0.00025387,-0.00005212,
 -0.00012458,-0.00176170,-0.00206705,0.00238357,-0.00008964,0.00004416,
 -0.00008120,-0.00052664,0.00062508,0.00074295,0.00009475,-0.00011655,-
 0.00001897,0.00026590,-0.00020232,-0.00050569,-0.03647783,0.12205963,-
 0.00125332,-0.00888569,-0.01507245,0.00008641,-0.00049297,-0.00041917,
 -0.00082254,-0.00048744,0.00110828,-0.00017047,0.00041987,0.00044138,0
 .00000654,0.00007387,0.00004512,-0.00002772,0.00001996,-0.00001636,-0.
 00000314,-0.00002666,-0.00000010,0.00000421,0.00000067,-0.00000093,0.0
 0000051,-0.00000459,-0.00000446,-0.00000254,0.00000192,0.00000010,0.00
 000024,0.00000283,-0.00000442,0.00000558,-0.00000216,-0.00000375,-0.00
 000480,0.00000306,0.00000120,-0.00000775,0.00000694,-0.00000061,-0.000
 11692,-0.00006422,-0.00003696,-0.00000436,-0.00000211,0.00002666,-0.00
 000299,-0.00000180,0.00001046,-0.00000107,0.00000053,0.00000015,-0.000
 00129,0.00000074,-0.00000007,-0.00000012,0.00000043,0.00000029,-0.0000
 0238,0.00000174,0.00000164,-0.00000184,0.00000201,0.00000100,-0.000001
 73,-0.00001391,-0.00000883,-0.00008393,-0.00009023,0.00001297,-0.00000
 123,0.00000185,0.00000464,0.00056081,0.00138551,-0.00001141,0.00007490
 ,0.00006964,0.00004767,0.00001601,-0.00000571,-0.00000617,-0.00019410,
 0.00004018,-0.00018707,-0.00001101,0.00004159,0.00000990,-0.00001089,-
 0.00005635,0.00001877,-0.00017166,-0.00051488,0.00046963,0.05909375,-0
 .10846262,-0.21282396,0.00748501,-0.00942277,-0.01771663,-0.00119006,-
 0.00135030,0.00116838,-0.00043410,0.00007955,0.00007807,0.00010987,0.0
 0011688,-0.00007377,0.00026318,0.00038378,0.00041886,0.00110334,0.0035
 1569,-0.00120752,0.00003910,-0.00007757,0.00015913,0.00058068,-0.00056
 547,-0.00081799,-0.00020758,0.00000513,0.00011279,0.00006402,-0.000157
 65,-0.00010095,-0.06282454,0.11915622,0.23615588,-0.02020317,0.0208219
 3,-0.00760745,-0.00076349,-0.00178916,0.00127222,-0.00254129,-0.002086
 14,-0.00148040,0.00101947,0.00049702,-0.00116634,-0.00039894,-0.000122
 08,-0.00001865,0.00002083,-0.00001778,-0.00007168,0.00000913,-0.000009
 52,0.00003389,0.00001396,-0.00000172,0.00000007,0.00000837,-0.00000761
 ,-0.00000105,0.00000360,-0.00000812,-0.00000680,0.00002483,-0.00012251
 ,-0.00009461,-0.00000654,0.00000632,0.00002082,-0.00001477,0.00001005,
 -0.00000057,-0.00000634,0.00000489,-0.00000465,0.00002662,-0.00000363,
 -0.00003318,-0.00001511,0.00002058,0.00004082,-0.00002521,-0.00000078,
 0.00002336,-0.00000285,0.00000099,-0.00000030,-0.00000294,0.00000145,-
 0.00000054,-0.00000167,0.00000054,-0.00000001,-0.00000442,0.00000240,0
 .00000059,-0.00000399,0.00000292,0.00000103,0.00003443,-0.00003050,-0.
 00001550,-0.00011031,-0.00010413,0.00010704,-0.00001175,0.00000575,0.0
 0000458,0.00299322,0.00146825,-0.00055074,-0.00020440,0.00076799,-0.00
 064091,0.00003829,-0.00001520,-0.00001122,-0.00030693,-0.00006302,-0.0
 0025342,-0.00001982,0.00005124,0.00004268,0.00013530,-0.00001729,0.000
 08577,-0.00139324,-0.00241923,0.00252544,-0.14610893,0.11639126,-0.046
 66913,0.01010277,-0.01135350,0.00410672,0.00128143,0.00017979,0.000346
 34,0.00002245,0.00010811,-0.00003562,-0.00008193,0.00039530,-0.0000251
 6,-0.00003585,-0.00003584,-0.00005434,0.00085046,-0.00065786,-0.000290
 81,-0.00008856,0.00001231,-0.00023370,0.00013186,-0.00004829,-0.000038
 67,-0.00001028,0.00015639,0.00003107,-0.00333742,-0.00342657,0.0011412
 9,-0.00462185,0.00512672,-0.00186563,0.16277285,-0.01114762,0.00869936
 ,-0.00368807,-0.00112117,-0.00048566,0.00003105,-0.00128638,-0.0010595
 6,-0.00119456,0.00014736,0.00007333,-0.00070622,-0.00007952,-0.0000435
 3,0.00000938,0.00001431,0.00000758,-0.00003912,0.00000136,-0.00000869,
 0.00001183,0.00000335,0.00000126,-0.00000062,-0.00000076,-0.00000473,-
 0.00000205,0.00000238,-0.00001117,-0.00000622,0.00001137,-0.00004359,-
 0.00001836,-0.00000614,0.00000082,-0.00000003,-0.00000516,0.00000379,-
 0.00000069,-0.00000300,0.00000345,-0.00000131,-0.00001461,-0.00001145,
 -0.00000549,0.00001506,0.00000838,0.00000811,-0.00000163,-0.00000020,0
 .00000857,-0.00000066,0.00000012,-0.00000020,-0.00000115,0.00000056,-0
 .00000033,0.00000017,0.00000024,0.00000027,-0.00000028,0.00000061,0.00
 000028,-0.00000114,0.00000115,0.00000056,0.00000491,-0.00000849,-0.000
 00158,-0.00006548,0.00006041,-0.00003838,-0.00000275,0.00000100,-0.000
 00003,-0.00166376,0.00223084,-0.00158437,0.00046866,0.00023034,0.00011
 919,0.00000687,-0.00000429,-0.00000043,-0.00000385,0.00010034,-0.00011
 230,-0.00000919,0.00002147,0.00000632,-0.00015984,-0.00014553,0.000006
 81,-0.00349373,-0.00160301,0.00276560,0.12053650,-0.19419109,0.0585240
 9,0.01222196,-0.01467383,0.00517417,0.00082299,0.00042112,0.00007680,-
 0.00019914,0.00012618,-0.00003343,-0.00032701,-0.00004419,-0.00020291,
 -0.00005915,-0.00004644,0.00001306,0.00065384,0.00082479,-0.00120436,-
 0.00027671,0.00043238,0.00021432,-0.00016904,0.00004156,-0.00022143,-0
 .00010525,-0.00001032,0.00014068,-0.00193181,0.00018386,0.00100460,0.0
 0942127,-0.01145876,0.00500082,-0.12308063,0.21086092,-0.01310461,0.01
 028151,-0.00895964,0.00087496,0.00089326,0.00014918,-0.00118714,-0.002
 59107,0.00136077,0.00008068,0.00043210,-0.00029979,-0.00000517,0.00000
 242,0.00004607,0.00000208,0.00000292,-0.00002898,0.00000286,-0.0000074
 5,0.00001276,0.00000457,0.00000078,0.00000021,-0.00000339,-0.00000681,
 -0.00000400,-0.00000498,-0.00000666,-0.00000982,0.00000410,-0.00000826
 ,-0.00000830,0.00000511,-0.00000443,-0.00000598,-0.00000529,0.00000336
 ,0.00000017,-0.00000287,0.00000296,-0.00000187,-0.00002413,-0.00002192
 ,-0.00001767,0.00000501,-0.00000040,0.00002202,-0.00000999,-0.00000020
 ,0.00000888,-0.00000111,0.00000024,0.00000012,-0.00000098,0.00000067,-
 0.00000044,-0.00000010,0.00000017,0.00000020,0.00000058,0.00000018,0.0
 0000109,0.00000146,0.00000081,0.00000010,-0.00000681,0.00000319,0.0000
 0278,-0.00004891,-0.00005593,0.00005310,-0.00000473,0.00000189,0.00000
 218,0.00291012,0.00081916,0.00008768,-0.00008215,-0.00030922,0.0000531
 4,0.00001471,-0.00000553,-0.00000655,-0.00021572,-0.00001795,-0.000187
 92,-0.00002583,0.00004036,0.00001263,0.00000586,-0.00004767,0.00000748
 ,0.00263488,0.00228677,-0.00220997,-0.04534276,0.05614632,-0.06421881,
 -0.01190281,0.01473837,-0.00737089,-0.00043426,-0.00071115,0.00026083,
 0.00009956,-0.00012967,-0.00006415,0.00020404,-0.00005966,0.00029002,0
 .00005896,-0.00001777,-0.00000025,-0.00101269,0.00039080,0.00063452,0.
 00032271,-0.00018713,-0.00004104,-0.00004817,-0.00009064,0.00022530,-0
 .00001529,-0.00009944,-0.00005795,0.00058743,0.00037580,0.00130686,0.0
 1561067,-0.01841082,0.00819876,0.05099927,-0.06453642,0.07096049,-0.00
 068849,0.00117583,-0.00224877,0.01145316,-0.01389490,-0.02127221,-0.00
 103194,-0.00145825,0.00285106,-0.00026898,0.00053579,0.00070960,-0.000
 02482,0.00002723,0.00004495,0.00001696,-0.00006788,-0.00009705,0.00000
 604,-0.00002004,0.00002650,0.00000837,0.00001583,0.00000402,-0.0000536
 0,0.00003806,0.00000271,0.00000085,0.00000117,-0.00000403,0.00000598,-
 0.00002343,-0.00000808,-0.00000660,-0.00000161,0.00000806,-0.00001156,
 0.00000693,-0.00000036,-0.00000482,0.00000852,-0.00000257,0.00002998,-
 0.00001272,-0.00003105,-0.00004042,0.00000075,0.00006354,-0.00001757,0
 .00000081,0.00001429,-0.00000287,0.00000026,-0.00000034,-0.00000298,0.
 00000094,-0.00000093,0.00000402,-0.00000138,0.00000027,0.00000479,0.00
 000117,0.00000014,0.00000879,0.00000058,0.00000004,0.00014081,-0.00003
 708,-0.00001146,-0.00030545,-0.00025845,-0.00000271,0.00002004,-0.0000
 0140,0.00000364,-0.00009533,-0.00135593,0.00078878,-0.00376624,0.00115
 802,0.00041403,0.00003647,-0.00001517,-0.00001962,-0.00038401,-0.00051
 576,-0.00016420,-0.00002500,-0.00003475,0.00004707,0.00065026,0.001102
 66,0.00052514,-0.06969966,0.04325173,0.05979848,0.00049810,-0.00077844
 ,0.00028720,-0.00961431,0.01319065,0.01713051,0.00069529,0.00041998,0.
 00130581,-0.00004888,-0.00009437,0.00003114,0.00022408,-0.00006673,0.0
 0006115,-0.00009582,-0.00016297,-0.00035176,-0.00306023,0.00330239,-0.
 00313071,-0.00058113,0.00105437,0.00107184,0.00017105,-0.00018310,-0.0
 0026985,0.00013549,0.00001004,0.00004356,-0.00009502,0.00004113,-0.000
 13557,0.00016824,0.00014166,-0.00012788,-0.00003929,-0.00013264,-0.000
 01997,0.07966264,-0.00022252,0.00022217,-0.00115186,0.00370450,-0.0116
 7526,-0.01375783,-0.00124985,-0.00008303,0.00108041,-0.00022784,0.0001
 0904,0.00057412,0.00000225,0.00004030,0.00003702,0.00000887,-0.0000351
 4,-0.00004831,0.00000049,-0.00000567,0.00000903,0.00000299,-0.00000158
 ,-0.00000081,0.00000133,-0.00002562,0.00000170,0.00000276,0.00000145,-
 0.00000105,0.00000145,-0.00000879,0.00000089,-0.00000207,-0.00000338,0
 .00000319,-0.00000573,0.00000426,-0.00000031,-0.00000152,0.00000366,-0
 .00000012,0.00000028,-0.00001389,-0.00001793,-0.00003606,0.00000116,0.
 00003855,-0.00001040,-0.00000201,0.00000515,-0.00000064,0.00000028,0.0
 0000019,-0.00000103,0.00000093,-0.00000027,-0.00000086,0.00000046,-0.0
 0000011,-0.00000506,0.00000270,0.00000133,0.00000129,0.00000111,0.0000
 0037,-0.00006472,-0.00001056,0.00000031,-0.00018484,-0.00014033,-0.000
 05732,-0.00000676,0.00000200,0.00000413,-0.00002136,-0.00047343,0.0002
 8869,0.00053204,0.00020063,0.00147780,0.00000624,-0.00000335,0.0000001
 3,0.00003789,0.00003760,-0.00007171,-0.00000343,0.00000547,0.00000586,
 -0.00018326,0.00003747,0.00007648,0.04805661,-0.12803716,-0.11239985,-
 0.00034905,0.00029050,-0.00059559,0.00856290,-0.01363418,-0.01479155,-
 0.00150552,0.00099360,-0.00070529,0.00008556,-0.00006726,0.00009104,-0
 .00037743,-0.00008373,0.00013742,0.00011022,0.00040499,0.00035784,0.00
 218194,-0.00162843,0.00256784,0.00066005,-0.00045630,-0.00086200,0.000
 04619,0.00016802,-0.00010974,-0.00022204,0.00010108,0.00015044,-0.0000
 3287,0.00000511,-0.00006749,-0.00004610,0.00003893,0.00030728,0.000047
 13,0.00021442,0.00006270,-0.05397488,0.14175994,-0.00013611,-0.0002440
 4,0.00028557,0.00284465,-0.00877309,-0.01332541,-0.00086160,0.00100169
 ,-0.00029685,-0.00024699,0.00006762,0.00023143,0.00004198,0.00002879,0
 .00003311,0.00000767,-0.00000610,-0.00002047,-0.00000172,0.00000024,0.
 00000206,0.00000266,-0.00000497,-0.00000065,0.00001708,-0.00002722,-0.
 00000278,0.00000250,-0.00000666,-0.00000573,0.00000386,0.00000436,0.00
 000856,0.00000205,0.00000005,-0.00000108,-0.00000162,0.00000166,0.0000
 0035,-0.00000101,0.00000160,-0.00000005,-0.00002176,-0.00001306,-0.000
 00531,-0.00001674,0.00000373,0.00001540,-0.00000390,-0.00000029,0.0000
 0425,-0.00000099,0.00000026,0.00000018,-0.00000063,0.00000018,-0.00000
 021,-0.00000170,0.00000097,-0.00000021,-0.00000621,0.00000178,0.000001
 77,-0.00000615,0.00000268,-0.00000373,-0.00011123,-0.00000542,0.000000
 42,-0.00008700,-0.00008720,-0.00000440,-0.00001394,0.00000434,0.000004
 07,0.00017989,0.00041688,-0.00033532,-0.00217278,0.00012753,0.00151348
 ,0.00000937,-0.00000358,-0.00000282,-0.00012136,-0.00027203,-0.0000444
 7,-0.00001775,-0.00002635,0.00001822,0.00021707,0.00049590,0.00023594,
 0.06637045,-0.11257462,-0.18921261,0.00013782,0.00039109,0.00149459,-0
 .00371947,0.00700771,0.00765984,-0.00052313,0.00072003,0.00080441,0.00
 003783,-0.00011672,-0.00003012,0.00005701,0.00010519,0.00027051,0.0003
 0573,0.00006094,0.00006582,-0.00165079,0.00149429,0.00008955,-0.000287
 06,0.00018784,0.00049993,-0.00008637,-0.00002363,0.00004919,-0.0000062
 7,0.00002905,-0.00012495,0.00005220,0.00000177,0.00004196,0.00016300,-
 0.00071520,-0.00013445,-0.00001878,-0.00015756,0.00006052,-0.06628385,
 0.12341985,0.20522904,-0.00125654,0.00119179,-0.00146385,-0.01261802,-
 0.01508038,0.01975800,-0.00246232,-0.00224916,-0.00216478,0.00112474,-
 0.00071044,0.00041122,-0.00030228,-0.00004864,-0.00005872,0.00006369,-
 0.00004507,-0.00006641,0.00001418,-0.00001773,0.00002716,0.00001330,0.
 00000018,-0.00000048,-0.00000004,-0.00000487,0.00000255,-0.00000650,0.
 00001752,0.00000649,0.00001351,-0.00006944,-0.00009295,0.00000523,-0.0
 0000551,-0.00000721,-0.00001357,0.00001003,0.00000008,-0.00000554,0.00
 000364,-0.00000476,0.00000175,-0.00000896,-0.00001327,-0.00009524,0.00
 007209,0.00003558,-0.00001565,0.00000478,0.00002566,-0.00000253,0.0000
 0067,-0.00000038,-0.00000351,0.00000159,-0.00000055,-0.00000095,0.0000
 0033,0.00000014,-0.00000214,0.00000185,-0.00000009,-0.00000283,0.00000
 295,-0.00000045,0.00005011,-0.00002683,-0.00001853,-0.00038143,-0.0002
 3251,-0.00004656,-0.00000941,0.00000572,0.00000075,0.00016338,-0.00075
 739,0.00079061,0.00241615,0.00048075,0.00028684,0.00002868,-0.00001431
 ,-0.00000357,0.00008191,0.00020003,-0.00015848,0.00000861,0.00003895,0
 .00004125,-0.00012524,-0.00033196,0.00007911,-0.09020069,-0.06237502,0
 .07290489,-0.00332583,0.00341494,-0.00168370,0.00940567,0.01263386,-0.
 01550337,0.00150638,0.00043538,0.00024088,-0.00011922,-0.00020637,0.00
 031293,0.00004823,-0.00005923,0.00014519,-0.00003892,-0.00007650,-0.00
 004687,0.00117948,-0.00041439,-0.00075439,0.00012309,-0.00011961,-0.00
 009080,-0.00010989,-0.00022609,0.00010018,0.00000006,0.00003591,0.0001
 7478,-0.00018789,-0.00011541,-0.00004853,0.00000831,-0.00006195,0.0000
 5348,0.00087141,0.00101687,-0.00091975,-0.00397638,-0.00531715,0.00595
 409,0.09813472,0.00083908,0.00050158,0.00027654,-0.01026267,-0.0140474
 9,0.01042369,-0.00241404,0.00061903,-0.00202955,0.00058184,-0.00042120
 ,0.00061864,-0.00012579,0.00001651,0.00000668,0.00004003,-0.00003594,-
 0.00005589,0.00000870,-0.00000580,0.00001715,0.00000599,-0.00000139,-0
 .00000204,0.00000625,-0.00000482,0.00000153,-0.00000197,0.00000649,-0.
 00000085,0.00000257,-0.00003006,-0.00003958,0.00000125,-0.00000665,-0.
 00000667,-0.00000862,0.00000632,-0.00000017,-0.00000165,0.00000151,-0.
 00000197,-0.00000318,-0.00000457,-0.00000357,-0.00007715,0.00004276,0.
 00003021,-0.00000842,0.00000357,0.00001549,-0.00000088,0.00000015,-0.0
 0000026,-0.00000183,0.00000096,-0.00000010,-0.00000098,0.00000050,0.00
 000028,-0.00000360,0.00000184,0.00000058,-0.00000342,0.00000250,0.0000
 0051,-0.00000470,-0.00001611,-0.00000805,-0.00031537,-0.00017505,-0.00
 011436,-0.00000525,0.00000145,-0.00000045,-0.00015802,-0.00010355,-0.0
 0013385,0.00432147,0.00152358,0.00077575,0.00000657,-0.00000555,0.0000
 0477,0.00030242,0.00048031,-0.00006220,0.00002564,0.00006025,-0.000005
 72,-0.00052701,-0.00063775,-0.00016781,-0.06293348,-0.13878574,0.11364
 369,0.00334453,-0.00196924,0.00096400,-0.00775517,-0.01230475,0.013081
 83,-0.00054152,0.00042298,-0.00055677,0.00020451,0.00034582,0.00005841
 ,0.00012816,0.00000624,-0.00016291,0.00007945,-0.00000796,-0.00001524,
 -0.00109657,0.00063510,0.00038791,-0.00003473,0.00025227,-0.00003933,0
 .00032215,-0.00007125,-0.00032584,0.00000166,-0.00006091,-0.00007724,0
 .00010477,0.00015380,-0.00000546,0.00000678,0.00006702,0.00004641,-0.0
 0065821,-0.00069578,0.00083945,0.00760534,0.01174185,-0.01252028,0.069
 00509,0.15249714,-0.00043463,-0.00014102,-0.00007418,-0.00865256,-0.00
 947794,0.00803231,-0.00160494,-0.00054260,-0.00129838,0.00012227,-0.00
 040132,0.00012915,-0.00003526,0.00000438,0.00000277,0.00001816,-0.0000
 2269,-0.00002910,0.00000387,0.00000381,0.00000969,0.00000289,-0.000000
 16,0.00000010,0.00000007,-0.00000398,0.00000377,-0.00000035,-0.0000030
 8,-0.00000217,0.00000655,-0.00001275,-0.00002201,0.00000344,-0.0000029
 1,-0.00000783,-0.00000476,0.00000300,0.00000018,0.00000134,-0.00000082
 ,-0.00000066,-0.00000597,0.00000402,0.00000650,-0.00005225,0.00003326,
 0.00001472,-0.00000404,0.00000352,0.00001080,-0.00000088,0.00000012,-0
 .00000027,-0.00000067,0.00000013,0.00000016,-0.00000036,0.00000022,0.0
 0000007,-0.00000312,0.00000086,0.00000050,0.00000164,-0.00000044,-0.00
 000008,-0.00000070,-0.00000453,-0.00001110,-0.00016972,-0.00012529,-0.
 00000197,-0.00000366,0.00000027,0.00000307,0.00026998,0.00010736,0.000
 02197,0.00023483,-0.00121859,0.00118354,0.00001174,-0.00000431,-0.0000
 0461,-0.00006511,-0.00010750,-0.00007426,-0.00001281,-0.00000798,0.000
 03395,0.00010001,-0.00006913,0.00019753,0.07724297,0.11702122,-0.18090
 771,-0.00259315,0.00119782,0.00042153,0.00443189,0.00540059,-0.0080666
 3,0.00048420,0.00006864,0.00015916,-0.00025701,-0.00012747,-0.00010473
 ,-0.00010243,-0.00009553,0.00008970,-0.00003687,0.00000891,-0.00003722
 ,0.00044424,-0.00094402,0.00065012,-0.00015064,-0.00017433,0.00002454,
 -0.00015687,0.00010599,0.00039588,-0.00009585,0.00007668,-0.00003089,-
 0.00006861,-0.00010859,0.00003220,-0.00001974,-0.00016578,0.00015630,0
 .00040686,0.00063993,-0.00026381,0.00894942,0.01393938,-0.01506855,-0.
 07820340,-0.12485738,0.19442595\\0.00000119,-0.00000152,-0.00000331,-0
 .00000471,0.00000307,0.00000213,-0.00000134,0.00000440,0.00000094,0.00
 000168,-0.00000071,-0.00000338,-0.00000310,0.00000219,-0.00000256,0.00
 000393,-0.00000153,0.00000048,0.00000067,-0.00000178,0.00000366,-0.000
 00089,-0.00000178,0.00000938,-0.00000134,-0.00000180,0.00000870,-0.000
 00072,0.00000283,-0.00000509,-0.00000228,0.00000286,-0.00000159,-0.000
 00352,0.00000409,-0.00000284,0.00000243,-0.00000682,0.00000478,0.00000
 244,-0.00000306,0.00000353,0.00000320,-0.00000304,0.00000107,0.0000023
 5,-0.00000206,0.00000121,0.00000246,-0.00000359,-0.00000008,0.00000128
 ,-0.00000358,0.00000930,-0.00000169,-0.00000205,0.00000926,-0.00000018
 ,-0.00000236,0.00000911,0.00000153,-0.00000368,0.00000658,-0.00000221,
 -0.00000070,0.00000774,0.00000146,-0.00000216,0.00000253,-0.00000272,0
 .00000039,0.00000020,0.00000408,-0.00000357,0.00000353,0.00000452,-0.0
 0000258,-0.00000720,0.00000042,0.00000382,0.00000236,-0.00000254,0.000
 00003,0.00000559,-0.00000245,0.00000647,0.00000266,-0.00000295,0.00000
 259,0.00000197,-0.00000641,-0.00000202,0.00000057,-0.00000153,0.000001
 67,-0.00000081,0.00000178,-0.00000309,-0.00000480,0.00000128,0.0000012
 5,-0.00000451,0.00000071,0.00000004,-0.00000428,-0.00000082,0.00000205
 ,-0.00000400,0.00000176,0.00000059,-0.00000698,0.00000206,-0.00000121,
 -0.00000293,-0.00000069,0.00000385,-0.00000603,-0.00000071,0.00000291,
 -0.00000819,-0.00000256,0.00000409,-0.00000574,-0.00000175,0.00000428,
 -0.00000645,0.00000350,0.00000005,-0.00000437,0.00000213,-0.00000025,-
 0.00000450,0.00000225,-0.00000107,-0.00000545,0.00000043,0.00000101,-0
 .00000067,-0.00000243,0.00000151,-0.00000151\\\@


 Happiness is a conscious choice, not an automatic response.
 -- Mildred Barthel
 Job cpu time:       3 days  0 hours 23 minutes 24.8 seconds.
 Elapsed time:       0 days  2 hours 35 minutes 34.6 seconds.
 File lengths (MBytes):  RWF=   2743 Int=      0 D2E=      0 Chk=     85 Scr=      1
 Normal termination of Gaussian 16 at Wed Sep  4 01:59:55 2019.
