  COHP#    atomMU    atomNU   distance   translation   ICOHP (at) eF    ICOHP (at) eF 
                                                          for spin 1       for spin 2 
      1       Al1       Al1    3.12859    -1  -1   0        -0.21490         -0.21497 
      1    Al1_3s    Al1_3s    3.12859    -1  -1   0        -0.00181         -0.00181 
      1    Al1_3s  Al1_3p_y    3.12859    -1  -1   0         0.00102          0.00104 
      1    Al1_3s  Al1_3p_z    3.12859    -1  -1   0         0.00040          0.00040 
      1    Al1_3s  Al1_3p_x    3.12859    -1  -1   0        -0.04804         -0.04798 
      1  Al1_3p_y    Al1_3s    3.12859    -1  -1   0         0.00106          0.00106 
      1  Al1_3p_y  Al1_3p_y    3.12859    -1  -1   0        -0.00474         -0.00473 
      1  Al1_3p_y  Al1_3p_z    3.12859    -1  -1   0         0.00246          0.00245 
      1  Al1_3p_y  Al1_3p_x    3.12859    -1  -1   0        -0.00140         -0.00139 
      1  Al1_3p_z    Al1_3s    3.12859    -1  -1   0         0.00040          0.00039 
      1  Al1_3p_z  Al1_3p_y    3.12859    -1  -1   0         0.00239          0.00239 
      1  Al1_3p_z  Al1_3p_z    3.12859    -1  -1   0        -0.00561         -0.00564 
      1  Al1_3p_z  Al1_3p_x    3.12859    -1  -1   0        -0.00034         -0.00033 
      1  Al1_3p_x    Al1_3s    3.12859    -1  -1   0        -0.04791         -0.04796 
      1  Al1_3p_x  Al1_3p_y    3.12859    -1  -1   0        -0.00142         -0.00140 
      1  Al1_3p_x  Al1_3p_z    3.12859    -1  -1   0        -0.00033         -0.00034 
      1  Al1_3p_x  Al1_3p_x    3.12859    -1  -1   0        -0.11105         -0.11113 
      2       Al1       Al1    3.12859     0  -1   0        -0.21482         -0.21493 
      2    Al1_3s    Al1_3s    3.12859     0  -1   0        -0.00181         -0.00181 
      2    Al1_3s  Al1_3p_y    3.12859     0  -1   0        -0.03216         -0.03207 
      2    Al1_3s  Al1_3p_z    3.12859     0  -1   0         0.00042          0.00040 
      2    Al1_3s  Al1_3p_x    3.12859     0  -1   0        -0.01471         -0.01479 
      2  Al1_3p_y    Al1_3s    3.12859     0  -1   0        -0.03920         -0.03931 
      2  Al1_3p_y  Al1_3p_y    3.12859     0  -1   0        -0.05257         -0.05269 
      2  Al1_3p_y  Al1_3p_z    3.12859     0  -1   0         0.00053          0.00050 
      2  Al1_3p_y  Al1_3p_x    3.12859     0  -1   0        -0.04678         -0.04658 
      2  Al1_3p_z    Al1_3s    3.12859     0  -1   0         0.00040          0.00039 
      2  Al1_3p_z  Al1_3p_y    3.12859     0  -1   0         0.00020          0.00018 
      2  Al1_3p_z  Al1_3p_z    3.12859     0  -1   0        -0.00558         -0.00564 
      2  Al1_3p_z  Al1_3p_x    3.12859     0  -1   0         0.00188          0.00188 
      2  Al1_3p_x    Al1_3s    3.12859     0  -1   0        -0.00761         -0.00759 
      2  Al1_3p_x  Al1_3p_y    3.12859     0  -1   0        -0.01996         -0.01987 
      2  Al1_3p_x  Al1_3p_z    3.12859     0  -1   0         0.00157          0.00154 
      2  Al1_3p_x  Al1_3p_x    3.12859     0  -1   0         0.00058          0.00052 
      3       Al1       Al1    3.12859    -1   0   0        -0.21480         -0.21496 
      3    Al1_3s    Al1_3s    3.12859    -1   0   0        -0.00181         -0.00181 
      3    Al1_3s  Al1_3p_y    3.12859    -1   0   0        -0.03934         -0.03936 
      3    Al1_3s  Al1_3p_z    3.12859    -1   0   0         0.00040          0.00040 
      3    Al1_3s  Al1_3p_x    3.12859    -1   0   0        -0.00761         -0.00762 
      3  Al1_3p_y    Al1_3s    3.12859    -1   0   0        -0.03209         -0.03209 
      3  Al1_3p_y  Al1_3p_y    3.12859    -1   0   0        -0.05264         -0.05265 
      3  Al1_3p_y  Al1_3p_z    3.12859    -1   0   0         0.00021          0.00023 
      3  Al1_3p_y  Al1_3p_x    3.12859    -1   0   0        -0.01983         -0.01988 
      3  Al1_3p_z    Al1_3s    3.12859    -1   0   0         0.00040          0.00040 
      3  Al1_3p_z  Al1_3p_y    3.12859    -1   0   0         0.00049          0.00048 
      3  Al1_3p_z  Al1_3p_z    3.12859    -1   0   0        -0.00563         -0.00564 
      3  Al1_3p_z  Al1_3p_x    3.12859    -1   0   0         0.00162          0.00157 
      3  Al1_3p_x    Al1_3s    3.12859    -1   0   0        -0.01480         -0.01478 
      3  Al1_3p_x  Al1_3p_y    3.12859    -1   0   0        -0.04661         -0.04662 
      3  Al1_3p_x  Al1_3p_z    3.12859    -1   0   0         0.00189          0.00191 
      3  Al1_3p_x  Al1_3p_x    3.12859    -1   0   0         0.00055          0.00052 
      4       Al1       Al1    3.12859     1   0   0        -0.21480         -0.21496 
      4    Al1_3s    Al1_3s    3.12859     1   0   0        -0.00181         -0.00181 
      4    Al1_3s  Al1_3p_y    3.12859     1   0   0        -0.03209         -0.03209 
      4    Al1_3s  Al1_3p_z    3.12859     1   0   0         0.00040          0.00040 
      4    Al1_3s  Al1_3p_x    3.12859     1   0   0        -0.01480         -0.01478 
      4  Al1_3p_y    Al1_3s    3.12859     1   0   0        -0.03934         -0.03936 
      4  Al1_3p_y  Al1_3p_y    3.12859     1   0   0        -0.05264         -0.05265 
      4  Al1_3p_y  Al1_3p_z    3.12859     1   0   0         0.00049          0.00048 
      4  Al1_3p_y  Al1_3p_x    3.12859     1   0   0        -0.04661         -0.04662 
      4  Al1_3p_z    Al1_3s    3.12859     1   0   0         0.00040          0.00040 
      4  Al1_3p_z  Al1_3p_y    3.12859     1   0   0         0.00021          0.00023 
      4  Al1_3p_z  Al1_3p_z    3.12859     1   0   0        -0.00563         -0.00564 
      4  Al1_3p_z  Al1_3p_x    3.12859     1   0   0         0.00189          0.00191 
      4  Al1_3p_x    Al1_3s    3.12859     1   0   0        -0.00761         -0.00762 
      4  Al1_3p_x  Al1_3p_y    3.12859     1   0   0        -0.01983         -0.01988 
      4  Al1_3p_x  Al1_3p_z    3.12859     1   0   0         0.00162          0.00157 
      4  Al1_3p_x  Al1_3p_x    3.12859     1   0   0         0.00055          0.00052 
      5       Al1       Al1    3.12859     0   1   0        -0.21482         -0.21493 
      5    Al1_3s    Al1_3s    3.12859     0   1   0        -0.00181         -0.00181 
      5    Al1_3s  Al1_3p_y    3.12859     0   1   0        -0.03920         -0.03931 
      5    Al1_3s  Al1_3p_z    3.12859     0   1   0         0.00040          0.00039 
      5    Al1_3s  Al1_3p_x    3.12859     0   1   0        -0.00761         -0.00759 
      5  Al1_3p_y    Al1_3s    3.12859     0   1   0        -0.03216         -0.03207 
      5  Al1_3p_y  Al1_3p_y    3.12859     0   1   0        -0.05257         -0.05269 
      5  Al1_3p_y  Al1_3p_z    3.12859     0   1   0         0.00020          0.00018 
      5  Al1_3p_y  Al1_3p_x    3.12859     0   1   0        -0.01996         -0.01987 
      5  Al1_3p_z    Al1_3s    3.12859     0   1   0         0.00042          0.00040 
      5  Al1_3p_z  Al1_3p_y    3.12859     0   1   0         0.00053          0.00050 
      5  Al1_3p_z  Al1_3p_z    3.12859     0   1   0        -0.00558         -0.00564 
      5  Al1_3p_z  Al1_3p_x    3.12859     0   1   0         0.00157          0.00154 
      5  Al1_3p_x    Al1_3s    3.12859     0   1   0        -0.01471         -0.01479 
      5  Al1_3p_x  Al1_3p_y    3.12859     0   1   0        -0.04678         -0.04658 
      5  Al1_3p_x  Al1_3p_z    3.12859     0   1   0         0.00188          0.00188 
      5  Al1_3p_x  Al1_3p_x    3.12859     0   1   0         0.00058          0.00052 
      6       Al1       Al1    3.12859     1   1   0        -0.21490         -0.21497 
      6    Al1_3s    Al1_3s    3.12859     1   1   0        -0.00181         -0.00181 
      6    Al1_3s  Al1_3p_y    3.12859     1   1   0         0.00106          0.00106 
      6    Al1_3s  Al1_3p_z    3.12859     1   1   0         0.00040          0.00039 
      6    Al1_3s  Al1_3p_x    3.12859     1   1   0        -0.04791         -0.04796 
      6  Al1_3p_y    Al1_3s    3.12859     1   1   0         0.00102          0.00104 
      6  Al1_3p_y  Al1_3p_y    3.12859     1   1   0        -0.00474         -0.00473 
      6  Al1_3p_y  Al1_3p_z    3.12859     1   1   0         0.00239          0.00239 
      6  Al1_3p_y  Al1_3p_x    3.12859     1   1   0        -0.00142         -0.00140 
      6  Al1_3p_z    Al1_3s    3.12859     1   1   0         0.00040          0.00040 
      6  Al1_3p_z  Al1_3p_y    3.12859     1   1   0         0.00246          0.00245 
      6  Al1_3p_z  Al1_3p_z    3.12859     1   1   0        -0.00561         -0.00564 
      6  Al1_3p_z  Al1_3p_x    3.12859     1   1   0        -0.00033         -0.00034 
      6  Al1_3p_x    Al1_3s    3.12859     1   1   0        -0.04804         -0.04798 
      6  Al1_3p_x  Al1_3p_y    3.12859     1   1   0        -0.00140         -0.00139 
      6  Al1_3p_x  Al1_3p_z    3.12859     1   1   0        -0.00034         -0.00033 
      6  Al1_3p_x  Al1_3p_x    3.12859     1   1   0        -0.11105         -0.11113 
      7       Al1       Al2    3.09114     0  -1  -1        -0.20710         -0.20742 
      7    Al1_3s    Al2_3s    3.09114     0  -1  -1        -0.00255         -0.00255 
      7    Al1_3s  Al2_3p_y    3.09114     0  -1  -1        -0.00345         -0.00345 
      7    Al1_3s  Al2_3p_z    3.09114     0  -1  -1        -0.02910         -0.02912 
      7    Al1_3s  Al2_3p_x    3.09114     0  -1  -1        -0.01033         -0.01043 
      7  Al1_3p_y    Al2_3s    3.09114     0  -1  -1        -0.00411         -0.00411 
      7  Al1_3p_y  Al2_3p_y    3.09114     0  -1  -1        -0.00348         -0.00350 
      7  Al1_3p_y  Al2_3p_z    3.09114     0  -1  -1        -0.00760         -0.00757 
      7  Al1_3p_y  Al2_3p_x    3.09114     0  -1  -1        -0.00235         -0.00241 
      7  Al1_3p_z    Al2_3s    3.09114     0  -1  -1        -0.03269         -0.03270 
      7  Al1_3p_z  Al2_3p_y    3.09114     0  -1  -1        -0.01085         -0.01085 
      7  Al1_3p_z  Al2_3p_z    3.09114     0  -1  -1        -0.03225         -0.03224 
      7  Al1_3p_z  Al2_3p_x    3.09114     0  -1  -1        -0.03252         -0.03252 
      7  Al1_3p_x    Al2_3s    3.09114     0  -1  -1        -0.01230         -0.01235 
      7  Al1_3p_x  Al2_3p_y    3.09114     0  -1  -1        -0.00241         -0.00233 
      7  Al1_3p_x  Al2_3p_z    3.09114     0  -1  -1        -0.02287         -0.02301 
      7  Al1_3p_x  Al2_3p_x    3.09114     0  -1  -1         0.00177          0.00173 
      8       Al1       Al2    3.09114     0   0  -1        -0.20727         -0.20722 
      8    Al1_3s    Al2_3s    3.09114     0   0  -1        -0.00255         -0.00255 
      8    Al1_3s  Al2_3p_y    3.09114     0   0  -1        -0.01387         -0.01378 
      8    Al1_3s  Al2_3p_z    3.09114     0   0  -1        -0.02912         -0.02912 
      8    Al1_3s  Al2_3p_x    3.09114     0   0  -1         0.00000          0.00000 
      8  Al1_3p_y    Al2_3s    3.09114     0   0  -1        -0.01644         -0.01645 
      8  Al1_3p_y  Al2_3p_y    3.09114     0   0  -1         0.00201          0.00202 
      8  Al1_3p_y  Al2_3p_z    3.09114     0   0  -1        -0.03050         -0.03054 
      8  Al1_3p_y  Al2_3p_x    3.09114     0   0  -1         0.00000          0.00000 
      8  Al1_3p_z    Al2_3s    3.09114     0   0  -1        -0.03265         -0.03268 
      8  Al1_3p_z  Al2_3p_y    3.09114     0   0  -1        -0.04340         -0.04337 
      8  Al1_3p_z  Al2_3p_z    3.09114     0   0  -1        -0.03220         -0.03221 
      8  Al1_3p_z  Al2_3p_x    3.09114     0   0  -1         0.00000         -0.00000 
      8  Al1_3p_x    Al2_3s    3.09114     0   0  -1         0.00000          0.00000 
      8  Al1_3p_x  Al2_3p_y    3.09114     0   0  -1        -0.00000          0.00000 
      8  Al1_3p_x  Al2_3p_z    3.09114     0   0  -1         0.00000         -0.00000 
      8  Al1_3p_x  Al2_3p_x    3.09114     0   0  -1        -0.00856         -0.00853 
      9       Al1       Al2    3.09114     1   0  -1        -0.20730         -0.20749 
      9    Al1_3s    Al2_3s    3.09114     1   0  -1        -0.00255         -0.00255 
      9    Al1_3s  Al2_3p_y    3.09114     1   0  -1        -0.00346         -0.00346 
      9    Al1_3s  Al2_3p_z    3.09114     1   0  -1        -0.02914         -0.02911 
      9    Al1_3s  Al2_3p_x    3.09114     1   0  -1        -0.01047         -0.01042 
      9  Al1_3p_y    Al2_3s    3.09114     1   0  -1        -0.00411         -0.00411 
      9  Al1_3p_y  Al2_3p_y    3.09114     1   0  -1        -0.00348         -0.00346 
      9  Al1_3p_y  Al2_3p_z    3.09114     1   0  -1        -0.00767         -0.00768 
      9  Al1_3p_y  Al2_3p_x    3.09114     1   0  -1        -0.00232         -0.00238 
      9  Al1_3p_z    Al2_3s    3.09114     1   0  -1        -0.03269         -0.03265 
      9  Al1_3p_z  Al2_3p_y    3.09114     1   0  -1        -0.01078         -0.01079 
      9  Al1_3p_z  Al2_3p_z    3.09114     1   0  -1        -0.03226         -0.03225 
      9  Al1_3p_z  Al2_3p_x    3.09114     1   0  -1        -0.03235         -0.03269 
      9  Al1_3p_x    Al2_3s    3.09114     1   0  -1        -0.01234         -0.01230 
      9  Al1_3p_x  Al2_3p_y    3.09114     1   0  -1        -0.00238         -0.00240 
      9  Al1_3p_x  Al2_3p_z    3.09114     1   0  -1        -0.02300         -0.02296 
      9  Al1_3p_x  Al2_3p_x    3.09114     1   0  -1         0.00171          0.00171 
     10       Al1       Al2    3.09114     0  -1   0        -0.20736         -0.20742 
     10    Al1_3s    Al2_3s    3.09114     0  -1   0        -0.00255         -0.00255 
     10    Al1_3s  Al2_3p_y    3.09114     0  -1   0        -0.00411         -0.00410 
     10    Al1_3s  Al2_3p_z    3.09114     0  -1   0        -0.03267         -0.03268 
     10    Al1_3s  Al2_3p_x    3.09114     0  -1   0        -0.01232         -0.01235 
     10  Al1_3p_y    Al2_3s    3.09114     0  -1   0        -0.00345         -0.00345 
     10  Al1_3p_y  Al2_3p_y    3.09114     0  -1   0        -0.00349         -0.00349 
     10  Al1_3p_y  Al2_3p_z    3.09114     0  -1   0        -0.01087         -0.01091 
     10  Al1_3p_y  Al2_3p_x    3.09114     0  -1   0        -0.00236         -0.00242 
     10  Al1_3p_z    Al2_3s    3.09114     0  -1   0        -0.02907         -0.02910 
     10  Al1_3p_z  Al2_3p_y    3.09114     0  -1   0        -0.00763         -0.00761 
     10  Al1_3p_z  Al2_3p_z    3.09114     0  -1   0        -0.03221         -0.03225 
     10  Al1_3p_z  Al2_3p_x    3.09114     0  -1   0        -0.02299         -0.02303 
     10  Al1_3p_x    Al2_3s    3.09114     0  -1   0        -0.01037         -0.01038 
     10  Al1_3p_x  Al2_3p_y    3.09114     0  -1   0        -0.00241         -0.00233 
     10  Al1_3p_x  Al2_3p_z    3.09114     0  -1   0        -0.03265         -0.03249 
     10  Al1_3p_x  Al2_3p_x    3.09114     0  -1   0         0.00178          0.00172 
     11       Al1       Al2    3.09114     0   0   0        -0.20731         -0.20714 
     11    Al1_3s    Al2_3s    3.09114     0   0   0        -0.00255         -0.00255 
     11    Al1_3s  Al2_3p_y    3.09114     0   0   0        -0.01646         -0.01646 
     11    Al1_3s  Al2_3p_z    3.09114     0   0   0        -0.03266         -0.03262 
     11    Al1_3s  Al2_3p_x    3.09114     0   0   0         0.00000          0.00000 
     11  Al1_3p_y    Al2_3s    3.09114     0   0   0        -0.01378         -0.01388 
     11  Al1_3p_y  Al2_3p_y    3.09114     0   0   0         0.00204          0.00207 
     11  Al1_3p_y  Al2_3p_z    3.09114     0   0   0        -0.04350         -0.04339 
     11  Al1_3p_y  Al2_3p_x    3.09114     0   0   0        -0.00000         -0.00000 
     11  Al1_3p_z    Al2_3s    3.09114     0   0   0        -0.02914         -0.02911 
     11  Al1_3p_z  Al2_3p_y    3.09114     0   0   0        -0.03053         -0.03048 
     11  Al1_3p_z  Al2_3p_z    3.09114     0   0   0        -0.03216         -0.03217 
     11  Al1_3p_z  Al2_3p_x    3.09114     0   0   0        -0.00000          0.00000 
     11  Al1_3p_x    Al2_3s    3.09114     0   0   0        -0.00000          0.00000 
     11  Al1_3p_x  Al2_3p_y    3.09114     0   0   0         0.00000         -0.00000 
     11  Al1_3p_x  Al2_3p_z    3.09114     0   0   0         0.00000         -0.00000 
     11  Al1_3p_x  Al2_3p_x    3.09114     0   0   0        -0.00856         -0.00856 
     12       Al1       Al2    3.09114     1   0   0        -0.20756         -0.20729 
     12    Al1_3s    Al2_3s    3.09114     1   0   0        -0.00255         -0.00255 
     12    Al1_3s  Al2_3p_y    3.09114     1   0   0        -0.00411         -0.00413 
     12    Al1_3s  Al2_3p_z    3.09114     1   0   0        -0.03261         -0.03265 
     12    Al1_3s  Al2_3p_x    3.09114     1   0   0        -0.01237         -0.01233 
     12  Al1_3p_y    Al2_3s    3.09114     1   0   0        -0.00346         -0.00345 
     12  Al1_3p_y  Al2_3p_y    3.09114     1   0   0        -0.00349         -0.00347 
     12  Al1_3p_y  Al2_3p_z    3.09114     1   0   0        -0.01087         -0.01082 
     12  Al1_3p_y  Al2_3p_x    3.09114     1   0   0        -0.00236         -0.00242 
     12  Al1_3p_z    Al2_3s    3.09114     1   0   0        -0.02909         -0.02911 
     12  Al1_3p_z  Al2_3p_y    3.09114     1   0   0        -0.00771         -0.00769 
     12  Al1_3p_z  Al2_3p_z    3.09114     1   0   0        -0.03224         -0.03222 
     12  Al1_3p_z  Al2_3p_x    3.09114     1   0   0        -0.02305         -0.02296 
     12  Al1_3p_x    Al2_3s    3.09114     1   0   0        -0.01044         -0.01036 
     12  Al1_3p_x  Al2_3p_y    3.09114     1   0   0        -0.00235         -0.00235 
     12  Al1_3p_x  Al2_3p_z    3.09114     1   0   0        -0.03257         -0.03254 
     12  Al1_3p_x  Al2_3p_x    3.09114     1   0   0         0.00170          0.00175 
     13       Al1        N3    3.10336     0   0  -1        -0.09096         -0.09089 
     13    Al1_3s     N3_2s    3.10336     0   0  -1        -0.00284         -0.00284 
     13    Al1_3s   N3_2p_y    3.10336     0   0  -1         0.00000         -0.00000 
     13    Al1_3s   N3_2p_z    3.10336     0   0  -1         0.00052          0.00052 
     13    Al1_3s   N3_2p_x    3.10336     0   0  -1        -0.00000         -0.00000 
     13  Al1_3p_y     N3_2s    3.10336     0   0  -1        -0.00000          0.00000 
     13  Al1_3p_y   N3_2p_y    3.10336     0   0  -1        -0.00279         -0.00277 
     13  Al1_3p_y   N3_2p_z    3.10336     0   0  -1         0.00000         -0.00000 
     13  Al1_3p_y   N3_2p_x    3.10336     0   0  -1         0.00000         -0.00000 
     13  Al1_3p_z     N3_2s    3.10336     0   0  -1        -0.00190         -0.00187 
     13  Al1_3p_z   N3_2p_y    3.10336     0   0  -1        -0.00000         -0.00000 
     13  Al1_3p_z   N3_2p_z    3.10336     0   0  -1        -0.08125         -0.08118 
     13  Al1_3p_z   N3_2p_x    3.10336     0   0  -1        -0.00000         -0.00000 
     13  Al1_3p_x     N3_2s    3.10336     0   0  -1        -0.00000          0.00000 
     13  Al1_3p_x   N3_2p_y    3.10336     0   0  -1        -0.00000         -0.00000 
     13  Al1_3p_x   N3_2p_z    3.10336     0   0  -1        -0.00000          0.00000 
     13  Al1_3p_x   N3_2p_x    3.10336     0   0  -1        -0.00270         -0.00276 
     14       Al1        N3    3.66741    -1  -1   0        -0.00839         -0.00827 
     14    Al1_3s     N3_2s    3.66741    -1  -1   0        -0.00129         -0.00128 
     14    Al1_3s   N3_2p_y    3.66741    -1  -1   0        -0.00001         -0.00001 
     14    Al1_3s   N3_2p_z    3.66741    -1  -1   0        -0.00110         -0.00110 
     14    Al1_3s   N3_2p_x    3.66741    -1  -1   0        -0.00239         -0.00234 
     14  Al1_3p_y     N3_2s    3.66741    -1  -1   0        -0.00023         -0.00023 
     14  Al1_3p_y   N3_2p_y    3.66741    -1  -1   0        -0.00022         -0.00020 
     14  Al1_3p_y   N3_2p_z    3.66741    -1  -1   0        -0.00008         -0.00007 
     14  Al1_3p_y   N3_2p_x    3.66741    -1  -1   0         0.00004          0.00004 
     14  Al1_3p_z     N3_2s    3.66741    -1  -1   0         0.00009          0.00009 
     14  Al1_3p_z   N3_2p_y    3.66741    -1  -1   0         0.00016          0.00016 
     14  Al1_3p_z   N3_2p_z    3.66741    -1  -1   0        -0.00031         -0.00031 
     14  Al1_3p_z   N3_2p_x    3.66741    -1  -1   0        -0.00189         -0.00184 
     14  Al1_3p_x     N3_2s    3.66741    -1  -1   0        -0.00004         -0.00003 
     14  Al1_3p_x   N3_2p_y    3.66741    -1  -1   0        -0.00010         -0.00011 
     14  Al1_3p_x   N3_2p_z    3.66741    -1  -1   0        -0.00083         -0.00081 
     14  Al1_3p_x   N3_2p_x    3.66741    -1  -1   0        -0.00019         -0.00022 
     15       Al1        N3    3.66741     0  -1   0        -0.00841         -0.00841 
     15    Al1_3s     N3_2s    3.66741     0  -1   0        -0.00129         -0.00129 
     15    Al1_3s   N3_2p_y    3.66741     0  -1   0        -0.00163         -0.00164 
     15    Al1_3s   N3_2p_z    3.66741     0  -1   0        -0.00110         -0.00110 
     15    Al1_3s   N3_2p_x    3.66741     0  -1   0        -0.00080         -0.00081 
     15  Al1_3p_y     N3_2s    3.66741     0  -1   0        -0.00022         -0.00021 
     15  Al1_3p_y   N3_2p_y    3.66741     0  -1   0        -0.00010         -0.00010 
     15  Al1_3p_y   N3_2p_z    3.66741     0  -1   0        -0.00084         -0.00082 
     15  Al1_3p_y   N3_2p_x    3.66741     0  -1   0        -0.00004         -0.00002 
     15  Al1_3p_z     N3_2s    3.66741     0  -1   0         0.00009          0.00009 
     15  Al1_3p_z   N3_2p_y    3.66741     0  -1   0        -0.00157         -0.00160 
     15  Al1_3p_z   N3_2p_z    3.66741     0  -1   0        -0.00030         -0.00031 
     15  Al1_3p_z   N3_2p_x    3.66741     0  -1   0        -0.00017         -0.00015 
     15  Al1_3p_x     N3_2s    3.66741     0  -1   0        -0.00004         -0.00005 
     15  Al1_3p_x   N3_2p_y    3.66741     0  -1   0        -0.00001         -0.00001 
     15  Al1_3p_x   N3_2p_z    3.66741     0  -1   0        -0.00005         -0.00005 
     15  Al1_3p_x   N3_2p_x    3.66741     0  -1   0        -0.00035         -0.00035 
     16       Al1        N3    3.66741    -1   0   0        -0.00830         -0.00831 
     16    Al1_3s     N3_2s    3.66741    -1   0   0        -0.00128         -0.00129 
     16    Al1_3s   N3_2p_y    3.66741    -1   0   0        -0.00199         -0.00197 
     16    Al1_3s   N3_2p_z    3.66741    -1   0   0        -0.00110         -0.00110 
     16    Al1_3s   N3_2p_x    3.66741    -1   0   0        -0.00039         -0.00043 
     16  Al1_3p_y     N3_2s    3.66741    -1   0   0         0.00005          0.00005 
     16  Al1_3p_y   N3_2p_y    3.66741    -1   0   0        -0.00036         -0.00037 
     16  Al1_3p_y   N3_2p_z    3.66741    -1   0   0        -0.00040         -0.00041 
     16  Al1_3p_y   N3_2p_x    3.66741    -1   0   0        -0.00007         -0.00007 
     16  Al1_3p_z     N3_2s    3.66741    -1   0   0         0.00009          0.00009 
     16  Al1_3p_z   N3_2p_y    3.66741    -1   0   0        -0.00122         -0.00113 
     16  Al1_3p_z   N3_2p_z    3.66741    -1   0   0        -0.00030         -0.00030 
     16  Al1_3p_z   N3_2p_x    3.66741    -1   0   0        -0.00050         -0.00053 
     16  Al1_3p_x     N3_2s    3.66741    -1   0   0        -0.00030         -0.00031 
     16  Al1_3p_x   N3_2p_y    3.66741    -1   0   0         0.00007          0.00006 
     16  Al1_3p_x   N3_2p_z    3.66741    -1   0   0        -0.00047         -0.00048 
     16  Al1_3p_x   N3_2p_x    3.66741    -1   0   0        -0.00012         -0.00011 
     17       Al1        N3    1.91360     0   0   0        -2.39152         -2.39225 
     17    Al1_3s     N3_2s    1.91360     0   0   0        -0.14958         -0.14957 
     17    Al1_3s   N3_2p_y    1.91360     0   0   0         0.00000         -0.00000 
     17    Al1_3s   N3_2p_z    1.91360     0   0   0        -0.56112         -0.56112 
     17    Al1_3s   N3_2p_x    1.91360     0   0   0        -0.00000         -0.00000 
     17  Al1_3p_y     N3_2s    1.91360     0   0   0        -0.00000          0.00000 
     17  Al1_3p_y   N3_2p_y    1.91360     0   0   0        -0.17033         -0.17015 
     17  Al1_3p_y   N3_2p_z    1.91360     0   0   0         0.00000         -0.00000 
     17  Al1_3p_y   N3_2p_x    1.91360     0   0   0        -0.00000          0.00000 
     17  Al1_3p_z     N3_2s    1.91360     0   0   0        -0.76874         -0.76921 
     17  Al1_3p_z   N3_2p_y    1.91360     0   0   0        -0.00000         -0.00000 
     17  Al1_3p_z   N3_2p_z    1.91360     0   0   0        -0.57208         -0.57200 
     17  Al1_3p_z   N3_2p_x    1.91360     0   0   0        -0.00000         -0.00000 
     17  Al1_3p_x     N3_2s    1.91360     0   0   0         0.00000         -0.00000 
     17  Al1_3p_x   N3_2p_y    1.91360     0   0   0        -0.00000         -0.00000 
     17  Al1_3p_x   N3_2p_z    1.91360     0   0   0         0.00000          0.00000 
     17  Al1_3p_x   N3_2p_x    1.91360     0   0   0        -0.16968         -0.17020 
     18       Al1        N3    3.66741     1   0   0        -0.00837         -0.00837 
     18    Al1_3s     N3_2s    3.66741     1   0   0        -0.00129         -0.00128 
     18    Al1_3s   N3_2p_y    3.66741     1   0   0        -0.00161         -0.00160 
     18    Al1_3s   N3_2p_z    3.66741     1   0   0        -0.00110         -0.00110 
     18    Al1_3s   N3_2p_x    3.66741     1   0   0        -0.00082         -0.00083 
     18  Al1_3p_y     N3_2s    3.66741     1   0   0        -0.00021         -0.00021 
     18  Al1_3p_y   N3_2p_y    3.66741     1   0   0        -0.00011         -0.00010 
     18  Al1_3p_y   N3_2p_z    3.66741     1   0   0        -0.00082         -0.00084 
     18  Al1_3p_y   N3_2p_x    3.66741     1   0   0        -0.00002         -0.00002 
     18  Al1_3p_z     N3_2s    3.66741     1   0   0         0.00009          0.00009 
     18  Al1_3p_z   N3_2p_y    3.66741     1   0   0        -0.00159         -0.00154 
     18  Al1_3p_z   N3_2p_z    3.66741     1   0   0        -0.00030         -0.00030 
     18  Al1_3p_z   N3_2p_x    3.66741     1   0   0        -0.00017         -0.00017 
     18  Al1_3p_x     N3_2s    3.66741     1   0   0        -0.00004         -0.00005 
     18  Al1_3p_x   N3_2p_y    3.66741     1   0   0        -0.00001         -0.00001 
     18  Al1_3p_x   N3_2p_z    3.66741     1   0   0        -0.00004         -0.00004 
     18  Al1_3p_x   N3_2p_x    3.66741     1   0   0        -0.00032         -0.00037 
     19       Al1        N3    3.66741     0   1   0        -0.00844         -0.00847 
     19    Al1_3s     N3_2s    3.66741     0   1   0        -0.00128         -0.00128 
     19    Al1_3s   N3_2p_y    3.66741     0   1   0        -0.00204         -0.00198 
     19    Al1_3s   N3_2p_z    3.66741     0   1   0        -0.00111         -0.00111 
     19    Al1_3s   N3_2p_x    3.66741     0   1   0        -0.00042         -0.00043 
     19  Al1_3p_y     N3_2s    3.66741     0   1   0         0.00004          0.00004 
     19  Al1_3p_y   N3_2p_y    3.66741     0   1   0        -0.00037         -0.00037 
     19  Al1_3p_y   N3_2p_z    3.66741     0   1   0        -0.00042         -0.00042 
     19  Al1_3p_y   N3_2p_x    3.66741     0   1   0        -0.00006         -0.00007 
     19  Al1_3p_z     N3_2s    3.66741     0   1   0         0.00009          0.00009 
     19  Al1_3p_z   N3_2p_y    3.66741     0   1   0        -0.00123         -0.00124 
     19  Al1_3p_z   N3_2p_z    3.66741     0   1   0        -0.00028         -0.00030 
     19  Al1_3p_z   N3_2p_x    3.66741     0   1   0        -0.00052         -0.00056 
     19  Al1_3p_x     N3_2s    3.66741     0   1   0        -0.00031         -0.00031 
     19  Al1_3p_x   N3_2p_y    3.66741     0   1   0         0.00006          0.00006 
     19  Al1_3p_x   N3_2p_z    3.66741     0   1   0        -0.00048         -0.00049 
     19  Al1_3p_x   N3_2p_x    3.66741     0   1   0        -0.00010         -0.00012 
     20       Al1        N3    3.66741     1   1   0        -0.00834         -0.00832 
     20    Al1_3s     N3_2s    3.66741     1   1   0        -0.00128         -0.00129 
     20    Al1_3s   N3_2p_y    3.66741     1   1   0        -0.00001         -0.00001 
     20    Al1_3s   N3_2p_z    3.66741     1   1   0        -0.00110         -0.00110 
     20    Al1_3s   N3_2p_x    3.66741     1   1   0        -0.00240         -0.00238 
     20  Al1_3p_y     N3_2s    3.66741     1   1   0        -0.00022         -0.00022 
     20  Al1_3p_y   N3_2p_y    3.66741     1   1   0        -0.00019         -0.00021 
     20  Al1_3p_y   N3_2p_z    3.66741     1   1   0        -0.00008         -0.00008 
     20  Al1_3p_y   N3_2p_x    3.66741     1   1   0         0.00004          0.00004 
     20  Al1_3p_z     N3_2s    3.66741     1   1   0         0.00009          0.00009 
     20  Al1_3p_z   N3_2p_y    3.66741     1   1   0         0.00017          0.00016 
     20  Al1_3p_z   N3_2p_z    3.66741     1   1   0        -0.00029         -0.00030 
     20  Al1_3p_z   N3_2p_x    3.66741     1   1   0        -0.00190         -0.00188 
     20  Al1_3p_x     N3_2s    3.66741     1   1   0        -0.00003         -0.00003 
     20  Al1_3p_x   N3_2p_y    3.66741     1   1   0        -0.00010         -0.00011 
     20  Al1_3p_x   N3_2p_z    3.66741     1   1   0        -0.00080         -0.00080 
     20  Al1_3p_x   N3_2p_x    3.66741     1   1   0        -0.00022         -0.00020 
     21       Al1        N4    3.66124    -1  -1   0        -0.00777         -0.00765 
     21    Al1_3s     N4_2s    3.66124    -1  -1   0        -0.00173         -0.00173 