  COHP#       atomMU       atomNU     distance     translation      ICOHP (at) eF   for spin  1
      1          Na1          Na1      5.69463       0   0  -1           -0.00048 
      1       Na1_3s       Na1_3s      5.69463       0   0  -1            0.00044 
      1     Na1_2p_y       Na1_3s      5.69463       0   0  -1           -0.00000 
      1     Na1_2p_z       Na1_3s      5.69463       0   0  -1           -0.00046 
      1     Na1_2p_x       Na1_3s      5.69463       0   0  -1           -0.00000 
      1       Na1_3s     Na1_2p_y      5.69463       0   0  -1           -0.00000 
      1     Na1_2p_y     Na1_2p_y      5.69463       0   0  -1           -0.00000 
      1     Na1_2p_z     Na1_2p_y      5.69463       0   0  -1           -0.00000 
      1     Na1_2p_x     Na1_2p_y      5.69463       0   0  -1           -0.00000 
      1       Na1_3s     Na1_2p_z      5.69463       0   0  -1           -0.00046 
      1     Na1_2p_y     Na1_2p_z      5.69463       0   0  -1           -0.00000 
      1     Na1_2p_z     Na1_2p_z      5.69463       0   0  -1            0.00000 
      1     Na1_2p_x     Na1_2p_z      5.69463       0   0  -1           -0.00000 
      1       Na1_3s     Na1_2p_x      5.69463       0   0  -1           -0.00000 
      1     Na1_2p_y     Na1_2p_x      5.69463       0   0  -1           -0.00000 
      1     Na1_2p_z     Na1_2p_x      5.69463       0   0  -1           -0.00000 
      1     Na1_2p_x     Na1_2p_x      5.69463       0   0  -1           -0.00000 
      2          Na1          Na1      5.69463       0  -1   0           -0.00048 
      2       Na1_3s       Na1_3s      5.69463       0  -1   0            0.00044 
      2     Na1_2p_y       Na1_3s      5.69463       0  -1   0           -0.00046 
      2     Na1_2p_z       Na1_3s      5.69463       0  -1   0           -0.00000 
      2     Na1_2p_x       Na1_3s      5.69463       0  -1   0           -0.00000 
      2       Na1_3s     Na1_2p_y      5.69463       0  -1   0           -0.00046 
      2     Na1_2p_y     Na1_2p_y      5.69463       0  -1   0            0.00000 
      2     Na1_2p_z     Na1_2p_y      5.69463       0  -1   0           -0.00000 
      2     Na1_2p_x     Na1_2p_y      5.69463       0  -1   0           -0.00000 
      2       Na1_3s     Na1_2p_z      5.69463       0  -1   0           -0.00000 
      2     Na1_2p_y     Na1_2p_z      5.69463       0  -1   0           -0.00000 
      2     Na1_2p_z     Na1_2p_z      5.69463       0  -1   0           -0.00000 
      2     Na1_2p_x     Na1_2p_z      5.69463       0  -1   0           -0.00000 
      2       Na1_3s     Na1_2p_x      5.69463       0  -1   0           -0.00000 
      2     Na1_2p_y     Na1_2p_x      5.69463       0  -1   0           -0.00000 
      2     Na1_2p_z     Na1_2p_x      5.69463       0  -1   0           -0.00000 
      2     Na1_2p_x     Na1_2p_x      5.69463       0  -1   0           -0.00000 
      3          Na1          Na1      5.69463      -1   0   0           -0.00048 
      3       Na1_3s       Na1_3s      5.69463      -1   0   0            0.00044 
      3     Na1_2p_y       Na1_3s      5.69463      -1   0   0           -0.00000 
      3     Na1_2p_z       Na1_3s      5.69463      -1   0   0           -0.00000 
      3     Na1_2p_x       Na1_3s      5.69463      -1   0   0           -0.00046 
      3       Na1_3s     Na1_2p_y      5.69463      -1   0   0           -0.00000 
      3     Na1_2p_y     Na1_2p_y      5.69463      -1   0   0           -0.00000 
      3     Na1_2p_z     Na1_2p_y      5.69463      -1   0   0            0.00000 
      3     Na1_2p_x     Na1_2p_y      5.69463      -1   0   0           -0.00000 
      3       Na1_3s     Na1_2p_z      5.69463      -1   0   0           -0.00000 
      3     Na1_2p_y     Na1_2p_z      5.69463      -1   0   0           -0.00000 
      3     Na1_2p_z     Na1_2p_z      5.69463      -1   0   0           -0.00000 
      3     Na1_2p_x     Na1_2p_z      5.69463      -1   0   0           -0.00000 
      3       Na1_3s     Na1_2p_x      5.69463      -1   0   0           -0.00046 
      3     Na1_2p_y     Na1_2p_x      5.69463      -1   0   0           -0.00000 
      3     Na1_2p_z     Na1_2p_x      5.69463      -1   0   0           -0.00000 
      3     Na1_2p_x     Na1_2p_x      5.69463      -1   0   0            0.00000 
      4          Na1          Na1      5.69463       1   0   0           -0.00048 
      4       Na1_3s       Na1_3s      5.69463       1   0   0            0.00044 
      4     Na1_2p_y       Na1_3s      5.69463       1   0   0           -0.00000 
      4     Na1_2p_z       Na1_3s      5.69463       1   0   0           -0.00000 
      4     Na1_2p_x       Na1_3s      5.69463       1   0   0           -0.00046 
      4       Na1_3s     Na1_2p_y      5.69463       1   0   0           -0.00000 
      4     Na1_2p_y     Na1_2p_y      5.69463       1   0   0           -0.00000 
      4     Na1_2p_z     Na1_2p_y      5.69463       1   0   0           -0.00000 
      4     Na1_2p_x     Na1_2p_y      5.69463       1   0   0           -0.00000 
      4       Na1_3s     Na1_2p_z      5.69463       1   0   0           -0.00000 
      4     Na1_2p_y     Na1_2p_z      5.69463       1   0   0            0.00000 
      4     Na1_2p_z     Na1_2p_z      5.69463       1   0   0           -0.00000 
      4     Na1_2p_x     Na1_2p_z      5.69463       1   0   0           -0.00000 
      4       Na1_3s     Na1_2p_x      5.69463       1   0   0           -0.00046 
      4     Na1_2p_y     Na1_2p_x      5.69463       1   0   0           -0.00000 
      4     Na1_2p_z     Na1_2p_x      5.69463       1   0   0           -0.00000 
      4     Na1_2p_x     Na1_2p_x      5.69463       1   0   0            0.00000 
      5          Na1          Na1      5.69463       0   1   0           -0.00048 
      5       Na1_3s       Na1_3s      5.69463       0   1   0            0.00044 
      5     Na1_2p_y       Na1_3s      5.69463       0   1   0           -0.00046 
      5     Na1_2p_z       Na1_3s      5.69463       0   1   0           -0.00000 
      5     Na1_2p_x       Na1_3s      5.69463       0   1   0           -0.00000 
      5       Na1_3s     Na1_2p_y      5.69463       0   1   0           -0.00046 
      5     Na1_2p_y     Na1_2p_y      5.69463       0   1   0            0.00000 
      5     Na1_2p_z     Na1_2p_y      5.69463       0   1   0           -0.00000 
      5     Na1_2p_x     Na1_2p_y      5.69463       0   1   0           -0.00000 
      5       Na1_3s     Na1_2p_z      5.69463       0   1   0           -0.00000 
      5     Na1_2p_y     Na1_2p_z      5.69463       0   1   0           -0.00000 
      5     Na1_2p_z     Na1_2p_z      5.69463       0   1   0           -0.00000 
      5     Na1_2p_x     Na1_2p_z      5.69463       0   1   0           -0.00000 
      5       Na1_3s     Na1_2p_x      5.69463       0   1   0           -0.00000 
      5     Na1_2p_y     Na1_2p_x      5.69463       0   1   0           -0.00000 
      5     Na1_2p_z     Na1_2p_x      5.69463       0   1   0           -0.00000 
      5     Na1_2p_x     Na1_2p_x      5.69463       0   1   0           -0.00000 
      6          Na1          Na1      5.69463       0   0   1           -0.00048 
      6       Na1_3s       Na1_3s      5.69463       0   0   1            0.00044 
      6     Na1_2p_y       Na1_3s      5.69463       0   0   1           -0.00000 
      6     Na1_2p_z       Na1_3s      5.69463       0   0   1           -0.00046 
      6     Na1_2p_x       Na1_3s      5.69463       0   0   1           -0.00000 
      6       Na1_3s     Na1_2p_y      5.69463       0   0   1           -0.00000 
      6     Na1_2p_y     Na1_2p_y      5.69463       0   0   1           -0.00000 
      6     Na1_2p_z     Na1_2p_y      5.69463       0   0   1           -0.00000 
      6     Na1_2p_x     Na1_2p_y      5.69463       0   0   1           -0.00000 
      6       Na1_3s     Na1_2p_z      5.69463       0   0   1           -0.00046 
      6     Na1_2p_y     Na1_2p_z      5.69463       0   0   1           -0.00000 
      6     Na1_2p_z     Na1_2p_z      5.69463       0   0   1            0.00000 
      6     Na1_2p_x     Na1_2p_z      5.69463       0   0   1           -0.00000 
      6       Na1_3s     Na1_2p_x      5.69463       0   0   1           -0.00000 
      6     Na1_2p_y     Na1_2p_x      5.69463       0   0   1           -0.00000 
      6     Na1_2p_z     Na1_2p_x      5.69463       0   0   1           -0.00000 
      6     Na1_2p_x     Na1_2p_x      5.69463       0   0   1           -0.00000 
      7          Na2          Na1      4.02671      -1   0   0           -0.03021 
      7       Na2_3s       Na1_3s      4.02671      -1   0   0           -0.02570 
      7     Na2_2p_y       Na1_3s      4.02671      -1   0   0           -0.00113 
      7     Na2_2p_z       Na1_3s      4.02671      -1   0   0           -0.00000 
      7     Na2_2p_x       Na1_3s      4.02671      -1   0   0           -0.00113 
      7       Na2_3s     Na1_2p_y      4.02671      -1   0   0           -0.00113 
      7     Na2_2p_y     Na1_2p_y      4.02671      -1   0   0            0.00000 
      7     Na2_2p_z     Na1_2p_y      4.02671      -1   0   0           -0.00000 
      7     Na2_2p_x     Na1_2p_y      4.02671      -1   0   0           -0.00000 
      7       Na2_3s     Na1_2p_z      4.02671      -1   0   0           -0.00000 
      7     Na2_2p_y     Na1_2p_z      4.02671      -1   0   0           -0.00000 
      7     Na2_2p_z     Na1_2p_z      4.02671      -1   0   0           -0.00000 
      7     Na2_2p_x     Na1_2p_z      4.02671      -1   0   0           -0.00000 
      7       Na2_3s     Na1_2p_x      4.02671      -1   0   0           -0.00113 
      7     Na2_2p_y     Na1_2p_x      4.02671      -1   0   0           -0.00000 
      7     Na2_2p_z     Na1_2p_x      4.02671      -1   0   0           -0.00000 
      7     Na2_2p_x     Na1_2p_x      4.02671      -1   0   0            0.00000 
      8          Na2          Na1      4.02671       0   0   0           -0.03021 
      8       Na2_3s       Na1_3s      4.02671       0   0   0           -0.02570 
      8     Na2_2p_y       Na1_3s      4.02671       0   0   0           -0.00113 
      8     Na2_2p_z       Na1_3s      4.02671       0   0   0           -0.00000 
      8     Na2_2p_x       Na1_3s      4.02671       0   0   0           -0.00113 
      8       Na2_3s     Na1_2p_y      4.02671       0   0   0           -0.00113 
      8     Na2_2p_y     Na1_2p_y      4.02671       0   0   0            0.00000 
      8     Na2_2p_z     Na1_2p_y      4.02671       0   0   0           -0.00000 
      8     Na2_2p_x     Na1_2p_y      4.02671       0   0   0           -0.00000 
      8       Na2_3s     Na1_2p_z      4.02671       0   0   0            0.00000 
      8     Na2_2p_y     Na1_2p_z      4.02671       0   0   0            0.00000 
      8     Na2_2p_z     Na1_2p_z      4.02671       0   0   0           -0.00000 
      8     Na2_2p_x     Na1_2p_z      4.02671       0   0   0           -0.00000 
      8       Na2_3s     Na1_2p_x      4.02671       0   0   0           -0.00113 
      8     Na2_2p_y     Na1_2p_x      4.02671       0   0   0           -0.00000 
      8     Na2_2p_z     Na1_2p_x      4.02671       0   0   0           -0.00000 
      8     Na2_2p_x     Na1_2p_x      4.02671       0   0   0            0.00000 
      9          Na2          Na1      4.02671      -1   1   0           -0.03021 
      9       Na2_3s       Na1_3s      4.02671      -1   1   0           -0.02570 
      9     Na2_2p_y       Na1_3s      4.02671      -1   1   0           -0.00113 
      9     Na2_2p_z       Na1_3s      4.02671      -1   1   0           -0.00000 
      9     Na2_2p_x       Na1_3s      4.02671      -1   1   0           -0.00113 
      9       Na2_3s     Na1_2p_y      4.02671      -1   1   0           -0.00113 
      9     Na2_2p_y     Na1_2p_y      4.02671      -1   1   0            0.00000 
      9     Na2_2p_z     Na1_2p_y      4.02671      -1   1   0           -0.00000 
      9     Na2_2p_x     Na1_2p_y      4.02671      -1   1   0           -0.00000 
      9       Na2_3s     Na1_2p_z      4.02671      -1   1   0           -0.00000 
      9     Na2_2p_y     Na1_2p_z      4.02671      -1   1   0           -0.00000 
      9     Na2_2p_z     Na1_2p_z      4.02671      -1   1   0           -0.00000 
      9     Na2_2p_x     Na1_2p_z      4.02671      -1   1   0           -0.00000 
      9       Na2_3s     Na1_2p_x      4.02671      -1   1   0           -0.00113 
      9     Na2_2p_y     Na1_2p_x      4.02671      -1   1   0           -0.00000 
      9     Na2_2p_z     Na1_2p_x      4.02671      -1   1   0           -0.00000 
      9     Na2_2p_x     Na1_2p_x      4.02671      -1   1   0            0.00000 
     10          Na2          Na1      4.02671       0   1   0           -0.03021 
     10       Na2_3s       Na1_3s      4.02671       0   1   0           -0.02570 
     10     Na2_2p_y       Na1_3s      4.02671       0   1   0           -0.00113 
     10     Na2_2p_z       Na1_3s      4.02671       0   1   0           -0.00000 
     10     Na2_2p_x       Na1_3s      4.02671       0   1   0           -0.00113 
     10       Na2_3s     Na1_2p_y      4.02671       0   1   0           -0.00113 
     10     Na2_2p_y     Na1_2p_y      4.02671       0   1   0            0.00000 
     10     Na2_2p_z     Na1_2p_y      4.02671       0   1   0           -0.00000 
     10     Na2_2p_x     Na1_2p_y      4.02671       0   1   0           -0.00000 
     10       Na2_3s     Na1_2p_z      4.02671       0   1   0           -0.00000 
     10     Na2_2p_y     Na1_2p_z      4.02671       0   1   0           -0.00000 
     10     Na2_2p_z     Na1_2p_z      4.02671       0   1   0           -0.00000 
     10     Na2_2p_x     Na1_2p_z      4.02671       0   1   0           -0.00000 
     10       Na2_3s     Na1_2p_x      4.02671       0   1   0           -0.00113 
     10     Na2_2p_y     Na1_2p_x      4.02671       0   1   0           -0.00000 
     10     Na2_2p_z     Na1_2p_x      4.02671       0   1   0           -0.00000 
     10     Na2_2p_x     Na1_2p_x      4.02671       0   1   0            0.00000 
     11          Na3          Na1      4.02671       0   0  -1           -0.03021 
     11       Na3_3s       Na1_3s      4.02671       0   0  -1           -0.02570 
     11     Na3_2p_y       Na1_3s      4.02671       0   0  -1           -0.00113 
     11     Na3_2p_z       Na1_3s      4.02671       0   0  -1           -0.00113 
     11     Na3_2p_x       Na1_3s      4.02671       0   0  -1           -0.00000 
     11       Na3_3s     Na1_2p_y      4.02671       0   0  -1           -0.00113 
     11     Na3_2p_y     Na1_2p_y      4.02671       0   0  -1            0.00000 
     11     Na3_2p_z     Na1_2p_y      4.02671       0   0  -1           -0.00000 
     11     Na3_2p_x     Na1_2p_y      4.02671       0   0  -1           -0.00000 
     11       Na3_3s     Na1_2p_z      4.02671       0   0  -1           -0.00113 
     11     Na3_2p_y     Na1_2p_z      4.02671       0   0  -1           -0.00000 
     11     Na3_2p_z     Na1_2p_z      4.02671       0   0  -1            0.00000 
     11     Na3_2p_x     Na1_2p_z      4.02671       0   0  -1           -0.00000 
     11       Na3_3s     Na1_2p_x      4.02671       0   0  -1           -0.00000 
     11     Na3_2p_y     Na1_2p_x      4.02671       0   0  -1           -0.00000 
     11     Na3_2p_z     Na1_2p_x      4.02671       0   0  -1           -0.00000 
     11     Na3_2p_x     Na1_2p_x      4.02671       0   0  -1           -0.00000 
     12          Na3          Na1      4.02671       0   1  -1           -0.03021 
     12       Na3_3s       Na1_3s      4.02671       0   1  -1           -0.02570 
     12     Na3_2p_y       Na1_3s      4.02671       0   1  -1           -0.00113 
     12     Na3_2p_z       Na1_3s      4.02671       0   1  -1           -0.00113 
     12     Na3_2p_x       Na1_3s      4.02671       0   1  -1           -0.00000 
     12       Na3_3s     Na1_2p_y      4.02671       0   1  -1           -0.00113 
     12     Na3_2p_y     Na1_2p_y      4.02671       0   1  -1            0.00000 
     12     Na3_2p_z     Na1_2p_y      4.02671       0   1  -1           -0.00000 
     12     Na3_2p_x     Na1_2p_y      4.02671       0   1  -1           -0.00000 
     12       Na3_3s     Na1_2p_z      4.02671       0   1  -1           -0.00113 
     12     Na3_2p_y     Na1_2p_z      4.02671       0   1  -1           -0.00000 
     12     Na3_2p_z     Na1_2p_z      4.02671       0   1  -1            0.00000 
     12     Na3_2p_x     Na1_2p_z      4.02671       0   1  -1           -0.00000 
     12       Na3_3s     Na1_2p_x      4.02671       0   1  -1           -0.00000 
     12     Na3_2p_y     Na1_2p_x      4.02671       0   1  -1           -0.00000 
     12     Na3_2p_z     Na1_2p_x      4.02671       0   1  -1           -0.00000 
     12     Na3_2p_x     Na1_2p_x      4.02671       0   1  -1           -0.00000 
     13          Na3          Na1      4.02671       0   0   0           -0.03021 
     13       Na3_3s       Na1_3s      4.02671       0   0   0           -0.02570 
     13     Na3_2p_y       Na1_3s      4.02671       0   0   0           -0.00113 
     13     Na3_2p_z       Na1_3s      4.02671       0   0   0           -0.00113 
     13     Na3_2p_x       Na1_3s      4.02671       0   0   0           -0.00000 
     13       Na3_3s     Na1_2p_y      4.02671       0   0   0           -0.00113 
     13     Na3_2p_y     Na1_2p_y      4.02671       0   0   0            0.00000 
     13     Na3_2p_z     Na1_2p_y      4.02671       0   0   0           -0.00000 
     13     Na3_2p_x     Na1_2p_y      4.02671       0   0   0           -0.00000 
     13       Na3_3s     Na1_2p_z      4.02671       0   0   0           -0.00113 
     13     Na3_2p_y     Na1_2p_z      4.02671       0   0   0           -0.00000 
     13     Na3_2p_z     Na1_2p_z      4.02671       0   0   0            0.00000 
     13     Na3_2p_x     Na1_2p_z      4.02671       0   0   0           -0.00000 
     13       Na3_3s     Na1_2p_x      4.02671       0   0   0           -0.00000 
     13     Na3_2p_y     Na1_2p_x      4.02671       0   0   0           -0.00000 
     13     Na3_2p_z     Na1_2p_x      4.02671       0   0   0           -0.00000 
     13     Na3_2p_x     Na1_2p_x      4.02671       0   0   0           -0.00000 
     14          Na3          Na1      4.02671       0   1   0           -0.03021 
     14       Na3_3s       Na1_3s      4.02671       0   1   0           -0.02570 
     14     Na3_2p_y       Na1_3s      4.02671       0   1   0           -0.00113 
     14     Na3_2p_z       Na1_3s      4.02671       0   1   0           -0.00113 
     14     Na3_2p_x       Na1_3s      4.02671       0   1   0           -0.00000 
     14       Na3_3s     Na1_2p_y      4.02671       0   1   0           -0.00113 
     14     Na3_2p_y     Na1_2p_y      4.02671       0   1   0            0.00000 
     14     Na3_2p_z     Na1_2p_y      4.02671       0   1   0           -0.00000 
     14     Na3_2p_x     Na1_2p_y      4.02671       0   1   0           -0.00000 
     14       Na3_3s     Na1_2p_z      4.02671       0   1   0           -0.00113 
     14     Na3_2p_y     Na1_2p_z      4.02671       0   1   0           -0.00000 
     14     Na3_2p_z     Na1_2p_z      4.02671       0   1   0            0.00000 
     14     Na3_2p_x     Na1_2p_z      4.02671       0   1   0           -0.00000 
     14       Na3_3s     Na1_2p_x      4.02671       0   1   0           -0.00000 
     14     Na3_2p_y     Na1_2p_x      4.02671       0   1   0           -0.00000 
     14     Na3_2p_z     Na1_2p_x      4.02671       0   1   0           -0.00000 
     14     Na3_2p_x     Na1_2p_x      4.02671       0   1   0           -0.00000 
     15          Na4          Na1      4.02671      -1   0  -1           -0.03021 
     15       Na4_3s       Na1_3s      4.02671      -1   0  -1           -0.02570 
     15     Na4_2p_y       Na1_3s      4.02671      -1   0  -1           -0.00000 
     15     Na4_2p_z       Na1_3s      4.02671      -1   0  -1           -0.00113 
     15     Na4_2p_x       Na1_3s      4.02671      -1   0  -1           -0.00113 
     15       Na4_3s     Na1_2p_y      4.02671      -1   0  -1           -0.00000 
     15     Na4_2p_y     Na1_2p_y      4.02671      -1   0  -1           -0.00000 
     15     Na4_2p_z     Na1_2p_y      4.02671      -1   0  -1           -0.00000 
     15     Na4_2p_x     Na1_2p_y      4.02671      -1   0  -1           -0.00000 
     15       Na4_3s     Na1_2p_z      4.02671      -1   0  -1           -0.00113 
     15     Na4_2p_y     Na1_2p_z      4.02671      -1   0  -1           -0.00000 
     15     Na4_2p_z     Na1_2p_z      4.02671      -1   0  -1            0.00000 
     15     Na4_2p_x     Na1_2p_z      4.02671      -1   0  -1           -0.00000 
     15       Na4_3s     Na1_2p_x      4.02671      -1   0  -1           -0.00113 
     15     Na4_2p_y     Na1_2p_x      4.02671      -1   0  -1           -0.00000 
     15     Na4_2p_z     Na1_2p_x      4.02671      -1   0  -1           -0.00000 
     15     Na4_2p_x     Na1_2p_x      4.02671      -1   0  -1            0.00000 
     16          Na4          Na1      4.02671       0   0  -1           -0.03021 
     16       Na4_3s       Na1_3s      4.02671       0   0  -1           -0.02570 
     16     Na4_2p_y       Na1_3s      4.02671       0   0  -1           -0.00000 
     16     Na4_2p_z       Na1_3s      4.02671       0   0  -1           -0.00113 
     16     Na4_2p_x       Na1_3s      4.02671       0   0  -1           -0.00113 
     16       Na4_3s     Na1_2p_y      4.02671       0   0  -1           -0.00000 
     16     Na4_2p_y     Na1_2p_y      4.02671       0   0  -1           -0.00000 
     16     Na4_2p_z     Na1_2p_y      4.02671       0   0  -1           -0.00000 
     16     Na4_2p_x     Na1_2p_y      4.02671       0   0  -1           -0.00000 
     16       Na4_3s     Na1_2p_z      4.02671       0   0  -1           -0.00113 
     16     Na4_2p_y     Na1_2p_z      4.02671       0   0  -1           -0.00000 
     16     Na4_2p_z     Na1_2p_z      4.02671       0   0  -1            0.00000 
     16     Na4_2p_x     Na1_2p_z      4.02671       0   0  -1           -0.00000 
     16       Na4_3s     Na1_2p_x      4.02671       0   0  -1           -0.00113 
     16     Na4_2p_y     Na1_2p_x      4.02671       0   0  -1           -0.00000 
     16     Na4_2p_z     Na1_2p_x      4.02671       0   0  -1           -0.00000 
     16     Na4_2p_x     Na1_2p_x      4.02671       0   0  -1            0.00000 
     17          Na4          Na1      4.02671      -1   0   0           -0.03021 
     17       Na4_3s       Na1_3s      4.02671      -1   0   0           -0.02570 
     17     Na4_2p_y       Na1_3s      4.02671      -1   0   0           -0.00000 
     17     Na4_2p_z       Na1_3s      4.02671      -1   0   0           -0.00113 
     17     Na4_2p_x       Na1_3s      4.02671      -1   0   0           -0.00113 
     17       Na4_3s     Na1_2p_y      4.02671      -1   0   0           -0.00000 
     17     Na4_2p_y     Na1_2p_y      4.02671      -1   0   0           -0.00000 
     17     Na4_2p_z     Na1_2p_y      4.02671      -1   0   0           -0.00000 
     17     Na4_2p_x     Na1_2p_y      4.02671      -1   0   0           -0.00000 
     17       Na4_3s     Na1_2p_z      4.02671      -1   0   0           -0.00113 
     17     Na4_2p_y     Na1_2p_z      4.02671      -1   0   0           -0.00000 
     17     Na4_2p_z     Na1_2p_z      4.02671      -1   0   0            0.00000 
     17     Na4_2p_x     Na1_2p_z      4.02671      -1   0   0           -0.00000 
     17       Na4_3s     Na1_2p_x      4.02671      -1   0   0           -0.00113 
     17     Na4_2p_y     Na1_2p_x      4.02671      -1   0   0           -0.00000 
     17     Na4_2p_z     Na1_2p_x      4.02671      -1   0   0           -0.00000 
     17     Na4_2p_x     Na1_2p_x      4.02671      -1   0   0            0.00000 
     18          Na4          Na1      4.02671       0   0   0           -0.03021 
     18       Na4_3s       Na1_3s      4.02671       0   0   0           -0.02570 
     18     Na4_2p_y       Na1_3s      4.02671       0   0   0           -0.00000 
     18     Na4_2p_z       Na1_3s      4.02671       0   0   0           -0.00113 
     18     Na4_2p_x       Na1_3s      4.02671       0   0   0           -0.00113 
     18       Na4_3s     Na1_2p_y      4.02671       0   0   0           -0.00000 
     18     Na4_2p_y     Na1_2p_y      4.02671       0   0   0           -0.00000 
     18     Na4_2p_z     Na1_2p_y      4.02671       0   0   0           -0.00000 
     18     Na4_2p_x     Na1_2p_y      4.02671       0   0   0           -0.00000 
     18       Na4_3s     Na1_2p_z      4.02671       0   0   0           -0.00113 
     18     Na4_2p_y     Na1_2p_z      4.02671       0   0   0           -0.00000 
     18     Na4_2p_z     Na1_2p_z      4.02671       0   0   0            0.00000 
     18     Na4_2p_x     Na1_2p_z      4.02671       0   0   0           -0.00000 
     18       Na4_3s     Na1_2p_x      4.02671       0   0   0           -0.00113 
     18     Na4_2p_y     Na1_2p_x      4.02671       0   0   0           -0.00000 
     18     Na4_2p_z     Na1_2p_x      4.02671       0   0   0           -0.00000 
     18     Na4_2p_x     Na1_2p_x      4.02671       0   0   0            0.00000 
     19          Cl5          Na1      2.84731       0   0   0           -0.56501 
     19       Cl5_3s       Na1_3s      2.84731       0   0   0           -0.32460 
     19     Cl5_3p_y       Na1_3s      2.84731       0   0   0           -0.24064 
     19     Cl5_3p_z       Na1_3s      2.84731       0   0   0           -0.00000 
     19     Cl5_3p_x       Na1_3s      2.84731       0   0   0           -0.00000 
     19       Cl5_3s     Na1_2p_y      2.84731       0   0   0            0.00034 
     19     Cl5_3p_y     Na1_2p_y      2.84731       0   0   0           -0.00038 
     19     Cl5_3p_z     Na1_2p_y      2.84731       0   0   0           -0.00000 
     19     Cl5_3p_x     Na1_2p_y      2.84731       0   0   0            0.00000 
     19       Cl5_3s     Na1_2p_z      2.84731       0   0   0           -0.00000 
     19     Cl5_3p_y     Na1_2p_z      2.84731       0   0   0           -0.00000 
     19     Cl5_3p_z     Na1_2p_z      2.84731       0   0   0            0.00014 
     19     Cl5_3p_x     Na1_2p_z      2.84731       0   0   0            0.00000 
     19       Cl5_3s     Na1_2p_x      2.84731       0   0   0           -0.00000 
     19     Cl5_3p_y     Na1_2p_x      2.84731       0   0   0           -0.00000 
     19     Cl5_3p_z     Na1_2p_x      2.84731       0   0   0           -0.00000 
     19     Cl5_3p_x     Na1_2p_x      2.84731       0   0   0            0.00014 
     20          Cl5          Na1      2.84731       0   1   0           -0.56501 
     20       Cl5_3s       Na1_3s      2.84731       0   1   0           -0.32461 
     20     Cl5_3p_y       Na1_3s      2.84731       0   1   0           -0.24065 
     20     Cl5_3p_z       Na1_3s      2.84731       0   1   0           -0.00000 
     20     Cl5_3p_x       Na1_3s      2.84731       0   1   0           -0.00000 
     20       Cl5_3s     Na1_2p_y      2.84731       0   1   0            0.00034 
     20     Cl5_3p_y     Na1_2p_y      2.84731       0   1   0           -0.00038 
     20     Cl5_3p_z     Na1_2p_y      2.84731       0   1   0           -0.00000 
     20     Cl5_3p_x     Na1_2p_y      2.84731       0   1   0           -0.00000 
     20       Cl5_3s     Na1_2p_z      2.84731       0   1   0           -0.00000 
     20     Cl5_3p_y     Na1_2p_z      2.84731       0   1   0           -0.00000 
     20     Cl5_3p_z     Na1_2p_z      2.84731       0   1   0            0.00014 
     20     Cl5_3p_x     Na1_2p_z      2.84731       0   1   0           -0.00000 
     20       Cl5_3s     Na1_2p_x      2.84731       0   1   0           -0.00000 
     20     Cl5_3p_y     Na1_2p_x      2.84731       0   1   0           -0.00000 
     20     Cl5_3p_z     Na1_2p_x      2.84731       0   1   0            0.00000 
     20     Cl5_3p_x     Na1_2p_x      2.84731       0   1   0            0.00014 
     21          Cl6          Na1      2.84731      -1   0   0           -0.56501 
     21       Cl6_3s       Na1_3s      2.84731      -1   0   0           -0.32460 
     21     Cl6_3p_y       Na1_3s      2.84731      -1   0   0           -0.00000 
     21     Cl6_3p_z       Na1_3s      2.84731      -1   0   0           -0.00000 
     21     Cl6_3p_x       Na1_3s      2.84731      -1   0   0           -0.24065 
     21       Cl6_3s     Na1_2p_y      2.84731      -1   0   0           -0.00000 
     21     Cl6_3p_y     Na1_2p_y      2.84731      -1   0   0            0.00014 
     21     Cl6_3p_z     Na1_2p_y      2.84731      -1   0   0           -0.00000 
     21     Cl6_3p_x     Na1_2p_y      2.84731      -1   0   0           -0.00000 
     21       Cl6_3s     Na1_2p_z      2.84731      -1   0   0           -0.00000 
     21     Cl6_3p_y     Na1_2p_z      2.84731      -1   0   0           -0.00000 
     21     Cl6_3p_z     Na1_2p_z      2.84731      -1   0   0            0.00014 
     21     Cl6_3p_x     Na1_2p_z      2.84731      -1   0   0           -0.00000 
     21       Cl6_3s     Na1_2p_x      2.84731      -1   0   0            0.00034 
     21     Cl6_3p_y     Na1_2p_x      2.84731      -1   0   0           -0.00000 
     21     Cl6_3p_z     Na1_2p_x      2.84731      -1   0   0           -0.00000 
     21     Cl6_3p_x     Na1_2p_x      2.84731      -1   0   0           -0.00038 
     22          Cl6          Na1      2.84731       0   0   0           -0.56500 
     22       Cl6_3s       Na1_3s      2.84731       0   0   0           -0.32460 
     22     Cl6_3p_y       Na1_3s      2.84731       0   0   0           -0.00000 