  COHP#  fragmentAlpha   fragmentBeta   distance   translation     ICOHP (at) eF      ICOHP (at) eF 
                                                                      for spin 1         for spin 2 
      1          AlN_1          AlN_1    3.66124    -1  -2   0          -0.01119           -0.01124 
      1      AlN_1_1a1      AlN_1_1a1    3.66124    -1  -2   0          -0.00003           -0.00003 
      1      AlN_1_1a1      AlN_1_2a1    3.66124    -1  -2   0          -0.00003           -0.00003 
      1      AlN_1_1a1       AlN_1_1e    3.66124    -1  -2   0          -0.00000           -0.00000 
      1      AlN_1_1a1       AlN_1_2e    3.66124    -1  -2   0          -0.00000           -0.00000 
      1      AlN_1_1a1      AlN_1_3a1    3.66124    -1  -2   0          -0.00085           -0.00084 
      1      AlN_1_1a1       AlN_1_3e    3.66124    -1  -2   0           0.00010            0.00010 
      1      AlN_1_1a1       AlN_1_4e    3.66124    -1  -2   0          -0.00000            0.00000 
      1      AlN_1_1a1      AlN_1_4a1    3.66124    -1  -2   0          -0.00030           -0.00030 
      1      AlN_1_2a1      AlN_1_1a1    3.66124    -1  -2   0          -0.00052           -0.00052 
      1      AlN_1_2a1      AlN_1_2a1    3.66124    -1  -2   0          -0.00113           -0.00116 
      1      AlN_1_2a1       AlN_1_1e    3.66124    -1  -2   0          -0.00002           -0.00002 
      1      AlN_1_2a1       AlN_1_2e    3.66124    -1  -2   0          -0.00000           -0.00000 
      1      AlN_1_2a1      AlN_1_3a1    3.66124    -1  -2   0          -0.00197           -0.00201 
      1      AlN_1_2a1       AlN_1_3e    3.66124    -1  -2   0          -0.00125           -0.00119 
      1      AlN_1_2a1       AlN_1_4e    3.66124    -1  -2   0          -0.00000           -0.00000 
      1      AlN_1_2a1      AlN_1_4a1    3.66124    -1  -2   0          -0.00016           -0.00019 
      1       AlN_1_1e      AlN_1_1a1    3.66124    -1  -2   0          -0.00007           -0.00007 
      1       AlN_1_1e      AlN_1_2a1    3.66124    -1  -2   0          -0.00008           -0.00009 
      1       AlN_1_1e       AlN_1_1e    3.66124    -1  -2   0           0.00001            0.00001 
      1       AlN_1_1e       AlN_1_2e    3.66124    -1  -2   0          -0.00000            0.00000 
      1       AlN_1_1e      AlN_1_3a1    3.66124    -1  -2   0           0.00017            0.00017 
      1       AlN_1_1e       AlN_1_3e    3.66124    -1  -2   0           0.00022            0.00022 
      1       AlN_1_1e       AlN_1_4e    3.66124    -1  -2   0          -0.00000           -0.00000 
      1       AlN_1_1e      AlN_1_4a1    3.66124    -1  -2   0           0.00127            0.00126 
      1       AlN_1_2e      AlN_1_1a1    3.66124    -1  -2   0          -0.00000           -0.00000 
      1       AlN_1_2e      AlN_1_2a1    3.66124    -1  -2   0          -0.00000           -0.00000 
      1       AlN_1_2e       AlN_1_1e    3.66124    -1  -2   0          -0.00000            0.00000 
      1       AlN_1_2e       AlN_1_2e    3.66124    -1  -2   0           0.00001            0.00001 
      1       AlN_1_2e      AlN_1_3a1    3.66124    -1  -2   0          -0.00000            0.00000 
      1       AlN_1_2e       AlN_1_3e    3.66124    -1  -2   0           0.00000            0.00000 
      1       AlN_1_2e       AlN_1_4e    3.66124    -1  -2   0          -0.00197           -0.00192 
      1       AlN_1_2e      AlN_1_4a1    3.66124    -1  -2   0          -0.00000            0.00000 
      1      AlN_1_3a1      AlN_1_1a1    3.66124    -1  -2   0          -0.00003           -0.00003 
      1      AlN_1_3a1      AlN_1_2a1    3.66124    -1  -2   0          -0.00001           -0.00001 
      1      AlN_1_3a1       AlN_1_1e    3.66124    -1  -2   0          -0.00001           -0.00001 
      1      AlN_1_3a1       AlN_1_2e    3.66124    -1  -2   0          -0.00000           -0.00000 
      1      AlN_1_3a1      AlN_1_3a1    3.66124    -1  -2   0          -0.00010           -0.00010 
      1      AlN_1_3a1       AlN_1_3e    3.66124    -1  -2   0          -0.00003           -0.00003 
      1      AlN_1_3a1       AlN_1_4e    3.66124    -1  -2   0           0.00000            0.00000 
      1      AlN_1_3a1      AlN_1_4a1    3.66124    -1  -2   0          -0.00008           -0.00009 
      1       AlN_1_3e      AlN_1_1a1    3.66124    -1  -2   0          -0.00002           -0.00002 
      1       AlN_1_3e      AlN_1_2a1    3.66124    -1  -2   0          -0.00000           -0.00000 
      1       AlN_1_3e       AlN_1_1e    3.66124    -1  -2   0          -0.00001           -0.00001 
      1       AlN_1_3e       AlN_1_2e    3.66124    -1  -2   0          -0.00000           -0.00000 
      1       AlN_1_3e      AlN_1_3a1    3.66124    -1  -2   0           0.00005            0.00005 
      1       AlN_1_3e       AlN_1_3e    3.66124    -1  -2   0          -0.00000           -0.00000 
      1       AlN_1_3e       AlN_1_4e    3.66124    -1  -2   0           0.00000            0.00000 
      1       AlN_1_3e      AlN_1_4a1    3.66124    -1  -2   0          -0.00010           -0.00010 
      1       AlN_1_4e      AlN_1_1a1    3.66124    -1  -2   0          -0.00000            0.00000 
      1       AlN_1_4e      AlN_1_2a1    3.66124    -1  -2   0          -0.00000            0.00000 
      1       AlN_1_4e       AlN_1_1e    3.66124    -1  -2   0           0.00000            0.00000 
      1       AlN_1_4e       AlN_1_2e    3.66124    -1  -2   0           0.00002            0.00001 
      1       AlN_1_4e      AlN_1_3a1    3.66124    -1  -2   0           0.00000           -0.00000 
      1       AlN_1_4e       AlN_1_3e    3.66124    -1  -2   0           0.00000            0.00000 
      1       AlN_1_4e       AlN_1_4e    3.66124    -1  -2   0          -0.00019           -0.00020 
      1       AlN_1_4e      AlN_1_4a1    3.66124    -1  -2   0          -0.00000            0.00000 
      1      AlN_1_4a1      AlN_1_1a1    3.66124    -1  -2   0           0.00000            0.00000 
      1      AlN_1_4a1      AlN_1_2a1    3.66124    -1  -2   0          -0.00001           -0.00001 
      1      AlN_1_4a1       AlN_1_1e    3.66124    -1  -2   0           0.00000            0.00000 
      1      AlN_1_4a1       AlN_1_2e    3.66124    -1  -2   0          -0.00000           -0.00000 
      1      AlN_1_4a1      AlN_1_3a1    3.66124    -1  -2   0          -0.00151           -0.00149 
      1      AlN_1_4a1       AlN_1_3e    3.66124    -1  -2   0          -0.00014           -0.00014 
      1      AlN_1_4a1       AlN_1_4e    3.66124    -1  -2   0           0.00000            0.00000 
      1      AlN_1_4a1      AlN_1_4a1    3.66124    -1  -2   0          -0.00239           -0.00246 
      2          AlN_1          AlN_1    1.90173    -1  -1   0          -2.72392           -2.72332 
      2      AlN_1_1a1      AlN_1_1a1    1.90173    -1  -1   0          -0.00222           -0.00222 
      2      AlN_1_1a1      AlN_1_2a1    1.90173    -1  -1   0           0.00101            0.00101 
      2      AlN_1_1a1       AlN_1_1e    1.90173    -1  -1   0          -0.00208           -0.00241 
      2      AlN_1_1a1       AlN_1_2e    1.90173    -1  -1   0          -0.00417           -0.00381 
      2      AlN_1_1a1      AlN_1_3a1    1.90173    -1  -1   0          -0.39046           -0.38962 
      2      AlN_1_1a1       AlN_1_3e    1.90173    -1  -1   0          -0.04672           -0.04700 
      2      AlN_1_1a1       AlN_1_4e    1.90173    -1  -1   0          -0.47836           -0.48018 
      2      AlN_1_1a1      AlN_1_4a1    1.90173    -1  -1   0          -0.03959           -0.03840 
      2      AlN_1_2a1      AlN_1_1a1    1.90173    -1  -1   0           0.00070            0.00068 
      2      AlN_1_2a1      AlN_1_2a1    1.90173    -1  -1   0          -0.00178           -0.00181 
      2      AlN_1_2a1       AlN_1_1e    1.90173    -1  -1   0          -0.00035           -0.00036 
      2      AlN_1_2a1       AlN_1_2e    1.90173    -1  -1   0           0.00113            0.00111 
      2      AlN_1_2a1      AlN_1_3a1    1.90173    -1  -1   0          -0.04232           -0.04227 
      2      AlN_1_2a1       AlN_1_3e    1.90173    -1  -1   0          -0.04727           -0.04728 
      2      AlN_1_2a1       AlN_1_4e    1.90173    -1  -1   0          -0.22775           -0.22639 
      2      AlN_1_2a1      AlN_1_4a1    1.90173    -1  -1   0          -0.14412           -0.14642 
      2       AlN_1_1e      AlN_1_1a1    1.90173    -1  -1   0           0.00017            0.00018 
      2       AlN_1_1e      AlN_1_2a1    1.90173    -1  -1   0          -0.00326           -0.00402 
      2       AlN_1_1e       AlN_1_1e    1.90173    -1  -1   0          -0.00023           -0.00005 
      2       AlN_1_1e       AlN_1_2e    1.90173    -1  -1   0          -0.00255           -0.00285 
      2       AlN_1_1e      AlN_1_3a1    1.90173    -1  -1   0          -0.10314           -0.13116 
      2       AlN_1_1e       AlN_1_3e    1.90173    -1  -1   0          -0.07307           -0.06643 
      2       AlN_1_1e       AlN_1_4e    1.90173    -1  -1   0          -0.16280           -0.17766 
      2       AlN_1_1e      AlN_1_4a1    1.90173    -1  -1   0           0.00032            0.00033 
      2       AlN_1_2e      AlN_1_1a1    1.90173    -1  -1   0           0.00019            0.00017 
      2       AlN_1_2e      AlN_1_2a1    1.90173    -1  -1   0          -0.01495           -0.01416 
      2       AlN_1_2e       AlN_1_1e    1.90173    -1  -1   0          -0.00361           -0.00402 
      2       AlN_1_2e       AlN_1_2e    1.90173    -1  -1   0          -0.00266           -0.00209 
      2       AlN_1_2e      AlN_1_3a1    1.90173    -1  -1   0          -0.65040           -0.62097 
      2       AlN_1_2e       AlN_1_3e    1.90173    -1  -1   0          -0.05439           -0.06169 
      2       AlN_1_2e       AlN_1_4e    1.90173    -1  -1   0          -0.14190           -0.12641 
      2       AlN_1_2e      AlN_1_4a1    1.90173    -1  -1   0          -0.00363           -0.00345 
      2      AlN_1_3a1      AlN_1_1a1    1.90173    -1  -1   0          -0.00043           -0.00042 
      2      AlN_1_3a1      AlN_1_2a1    1.90173    -1  -1   0          -0.00004           -0.00003 
      2      AlN_1_3a1       AlN_1_1e    1.90173    -1  -1   0          -0.00009           -0.00009 
      2      AlN_1_3a1       AlN_1_2e    1.90173    -1  -1   0           0.00000            0.00001 
      2      AlN_1_3a1      AlN_1_3a1    1.90173    -1  -1   0          -0.00181           -0.00176 
      2      AlN_1_3a1       AlN_1_3e    1.90173    -1  -1   0          -0.00263           -0.00265 
      2      AlN_1_3a1       AlN_1_4e    1.90173    -1  -1   0          -0.01593           -0.01583 
      2      AlN_1_3a1      AlN_1_4a1    1.90173    -1  -1   0          -0.00029           -0.00032 
      2       AlN_1_3e      AlN_1_1a1    1.90173    -1  -1   0           0.00001            0.00001 
      2       AlN_1_3e      AlN_1_2a1    1.90173    -1  -1   0          -0.00014           -0.00015 
      2       AlN_1_3e       AlN_1_1e    1.90173    -1  -1   0           0.00000            0.00000 
      2       AlN_1_3e       AlN_1_2e    1.90173    -1  -1   0          -0.00001           -0.00001 
      2       AlN_1_3e      AlN_1_3a1    1.90173    -1  -1   0           0.00045            0.00046 
      2       AlN_1_3e       AlN_1_3e    1.90173    -1  -1   0           0.00002            0.00002 
      2       AlN_1_3e       AlN_1_4e    1.90173    -1  -1   0          -0.00117           -0.00117 
      2       AlN_1_3e      AlN_1_4a1    1.90173    -1  -1   0          -0.00452           -0.00447 
      2       AlN_1_4e      AlN_1_1a1    1.90173    -1  -1   0          -0.00030           -0.00030 
      2       AlN_1_4e      AlN_1_2a1    1.90173    -1  -1   0          -0.00012           -0.00010 
      2       AlN_1_4e       AlN_1_1e    1.90173    -1  -1   0          -0.00015           -0.00018 
      2       AlN_1_4e       AlN_1_2e    1.90173    -1  -1   0          -0.00073           -0.00065 
      2       AlN_1_4e      AlN_1_3a1    1.90173    -1  -1   0           0.00148            0.00148 
      2       AlN_1_4e       AlN_1_3e    1.90173    -1  -1   0          -0.00345           -0.00343 
      2       AlN_1_4e       AlN_1_4e    1.90173    -1  -1   0          -0.00500           -0.00490 
      2       AlN_1_4e      AlN_1_4a1    1.90173    -1  -1   0          -0.01262           -0.01276 
      2      AlN_1_4a1      AlN_1_1a1    1.90173    -1  -1   0          -0.00159           -0.00155 
      2      AlN_1_4a1      AlN_1_2a1    1.90173    -1  -1   0          -0.00923           -0.00941 
      2      AlN_1_4a1       AlN_1_1e    1.90173    -1  -1   0          -0.00008           -0.00012 
      2      AlN_1_4a1       AlN_1_2e    1.90173    -1  -1   0          -0.00130           -0.00125 
      2      AlN_1_4a1      AlN_1_3a1    1.90173    -1  -1   0          -0.01899           -0.01903 
      2      AlN_1_4a1       AlN_1_3e    1.90173    -1  -1   0          -0.00000           -0.00000 
      2      AlN_1_4a1       AlN_1_4e    1.90173    -1  -1   0          -0.00519           -0.00528 
      2      AlN_1_4a1      AlN_1_4a1    1.90173    -1  -1   0           0.00020            0.00020 
      3          AlN_1          AlN_1    1.90173     0  -1   0          -2.72423           -2.72180 
      3      AlN_1_1a1      AlN_1_1a1    1.90173     0  -1   0          -0.00222           -0.00222 
      3      AlN_1_1a1      AlN_1_2a1    1.90173     0  -1   0           0.00102            0.00101 
      3      AlN_1_1a1       AlN_1_1e    1.90173     0  -1   0          -0.00214           -0.00182 
      3      AlN_1_1a1       AlN_1_2e    1.90173     0  -1   0          -0.00410           -0.00435 
      3      AlN_1_1a1      AlN_1_3a1    1.90173     0  -1   0          -0.39342           -0.39287 
      3      AlN_1_1a1       AlN_1_3e    1.90173     0  -1   0          -0.04946           -0.05081 
      3      AlN_1_1a1       AlN_1_4e    1.90173     0  -1   0          -0.47483           -0.47303 
      3      AlN_1_1a1      AlN_1_4a1    1.90173     0  -1   0          -0.03773           -0.03895 
      3      AlN_1_2a1      AlN_1_1a1    1.90173     0  -1   0           0.00068            0.00066 
      3      AlN_1_2a1      AlN_1_2a1    1.90173     0  -1   0          -0.00181           -0.00184 
      3      AlN_1_2a1       AlN_1_1e    1.90173     0  -1   0          -0.00036           -0.00035 
      3      AlN_1_2a1       AlN_1_2e    1.90173     0  -1   0           0.00113            0.00115 
      3      AlN_1_2a1      AlN_1_3a1    1.90173     0  -1   0          -0.04305           -0.04264 
      3      AlN_1_2a1       AlN_1_3e    1.90173     0  -1   0          -0.04902           -0.04944 
      3      AlN_1_2a1       AlN_1_4e    1.90173     0  -1   0          -0.22372           -0.22414 
      3      AlN_1_2a1      AlN_1_4a1    1.90173     0  -1   0          -0.14706           -0.14508 
      3       AlN_1_1e      AlN_1_1a1    1.90173     0  -1   0           0.00016            0.00014 
      3       AlN_1_1e      AlN_1_2a1    1.90173     0  -1   0          -0.00342           -0.00272 
      3       AlN_1_1e       AlN_1_1e    1.90173     0  -1   0          -0.00019           -0.00041 
      3       AlN_1_1e       AlN_1_2e    1.90173     0  -1   0          -0.00256           -0.00223 
      3       AlN_1_1e      AlN_1_3a1    1.90173     0  -1   0          -0.10771           -0.08284 
      3       AlN_1_1e       AlN_1_3e    1.90173     0  -1   0          -0.07033           -0.07598 
      3       AlN_1_1e       AlN_1_4e    1.90173     0  -1   0          -0.16655           -0.15126 
      3       AlN_1_1e      AlN_1_4a1    1.90173     0  -1   0           0.00034            0.00033 
      3       AlN_1_2e      AlN_1_1a1    1.90173     0  -1   0           0.00017            0.00020 
      3       AlN_1_2e      AlN_1_2a1    1.90173     0  -1   0          -0.01492           -0.01549 
      3       AlN_1_2e       AlN_1_1e    1.90173     0  -1   0          -0.00370           -0.00322 
      3       AlN_1_2e       AlN_1_2e    1.90173     0  -1   0          -0.00251           -0.00309 
      3       AlN_1_2e      AlN_1_3a1    1.90173     0  -1   0          -0.64754           -0.67204 
      3       AlN_1_2e       AlN_1_3e    1.90173     0  -1   0          -0.05677           -0.05148 
      3       AlN_1_2e       AlN_1_4e    1.90173     0  -1   0          -0.13555           -0.15032 
      3       AlN_1_2e      AlN_1_4a1    1.90173     0  -1   0          -0.00332           -0.00353 
      3      AlN_1_3a1      AlN_1_1a1    1.90173     0  -1   0          -0.00042           -0.00042 
      3      AlN_1_3a1      AlN_1_2a1    1.90173     0  -1   0          -0.00003           -0.00003 
      3      AlN_1_3a1       AlN_1_1e    1.90173     0  -1   0          -0.00008           -0.00008 
      3      AlN_1_3a1       AlN_1_2e    1.90173     0  -1   0          -0.00000           -0.00000 
      3      AlN_1_3a1      AlN_1_3a1    1.90173     0  -1   0          -0.00178           -0.00179 
      3      AlN_1_3a1       AlN_1_3e    1.90173     0  -1   0          -0.00278           -0.00280 
      3      AlN_1_3a1       AlN_1_4e    1.90173     0  -1   0          -0.01574           -0.01567 
      3      AlN_1_3a1      AlN_1_4a1    1.90173     0  -1   0          -0.00037           -0.00033 
      3       AlN_1_3e      AlN_1_1a1    1.90173     0  -1   0           0.00001            0.00001 
      3       AlN_1_3e      AlN_1_2a1    1.90173     0  -1   0          -0.00014           -0.00013 
      3       AlN_1_3e       AlN_1_1e    1.90173     0  -1   0           0.00000            0.00000 
      3       AlN_1_3e       AlN_1_2e    1.90173     0  -1   0          -0.00002           -0.00002 
      3       AlN_1_3e      AlN_1_3a1    1.90173     0  -1   0           0.00048            0.00048 
      3       AlN_1_3e       AlN_1_3e    1.90173     0  -1   0           0.00002            0.00003 
      3       AlN_1_3e       AlN_1_4e    1.90173     0  -1   0          -0.00116           -0.00120 
      3       AlN_1_3e      AlN_1_4a1    1.90173     0  -1   0          -0.00468           -0.00474 
      3       AlN_1_4e      AlN_1_1a1    1.90173     0  -1   0          -0.00030           -0.00029 
      3       AlN_1_4e      AlN_1_2a1    1.90173     0  -1   0          -0.00008           -0.00010 
      3       AlN_1_4e       AlN_1_1e    1.90173     0  -1   0          -0.00014           -0.00011 
      3       AlN_1_4e       AlN_1_2e    1.90173     0  -1   0          -0.00065           -0.00071 
      3       AlN_1_4e      AlN_1_3a1    1.90173     0  -1   0           0.00149            0.00146 
      3       AlN_1_4e       AlN_1_3e    1.90173     0  -1   0          -0.00348           -0.00348 
      3       AlN_1_4e       AlN_1_4e    1.90173     0  -1   0          -0.00479           -0.00469 
      3       AlN_1_4e      AlN_1_4a1    1.90173     0  -1   0          -0.01276           -0.01251 
      3      AlN_1_4a1      AlN_1_1a1    1.90173     0  -1   0          -0.00154           -0.00154 
      3      AlN_1_4a1      AlN_1_2a1    1.90173     0  -1   0          -0.00932           -0.00925 
      3      AlN_1_4a1       AlN_1_1e    1.90173     0  -1   0          -0.00008           -0.00005 
      3      AlN_1_4a1       AlN_1_2e    1.90173     0  -1   0          -0.00127           -0.00136 
      3      AlN_1_4a1      AlN_1_3a1    1.90173     0  -1   0          -0.01900           -0.01886 
      3      AlN_1_4a1       AlN_1_3e    1.90173     0  -1   0          -0.00001           -0.00001 
      3      AlN_1_4a1       AlN_1_4e    1.90173     0  -1   0          -0.00530           -0.00511 
      3      AlN_1_4a1      AlN_1_4a1    1.90173     0  -1   0           0.00019            0.00019 
      4          AlN_1          AlN_1    3.12859    -1   0   0          -0.27495           -0.27511 
      4      AlN_1_1a1      AlN_1_1a1    3.12859    -1   0   0          -0.00183           -0.00183 
      4      AlN_1_1a1      AlN_1_2a1    3.12859    -1   0   0          -0.00106           -0.00106 
      4      AlN_1_1a1       AlN_1_1e    3.12859    -1   0   0          -0.00052           -0.00079 
      4      AlN_1_1a1       AlN_1_2e    3.12859    -1   0   0          -0.01057           -0.01036 
      4      AlN_1_1a1      AlN_1_3a1    3.12859    -1   0   0          -0.00037           -0.00038 
      4      AlN_1_1a1       AlN_1_3e    3.12859    -1   0   0          -0.00099           -0.00099 
      4      AlN_1_1a1       AlN_1_4e    3.12859    -1   0   0          -0.00278           -0.00282 
      4      AlN_1_1a1      AlN_1_4a1    3.12859    -1   0   0          -0.00068           -0.00070 
      4      AlN_1_2a1      AlN_1_1a1    3.12859    -1   0   0          -0.00105           -0.00105 
      4      AlN_1_2a1      AlN_1_2a1    3.12859    -1   0   0           0.00014            0.00014 
      4      AlN_1_2a1       AlN_1_1e    3.12859    -1   0   0          -0.00155           -0.00174 
      4      AlN_1_2a1       AlN_1_2e    3.12859    -1   0   0          -0.00225           -0.00208 
      4      AlN_1_2a1      AlN_1_3a1    3.12859    -1   0   0           0.00000            0.00001 
      4      AlN_1_2a1       AlN_1_3e    3.12859    -1   0   0           0.00003            0.00003 
      4      AlN_1_2a1       AlN_1_4e    3.12859    -1   0   0          -0.01167           -0.01139 
      4      AlN_1_2a1      AlN_1_4a1    3.12859    -1   0   0          -0.00064           -0.00071 
      4       AlN_1_1e      AlN_1_1a1    3.12859    -1   0   0          -0.00055           -0.00033 
      4       AlN_1_1e      AlN_1_2a1    3.12859    -1   0   0          -0.00158           -0.00138 
      4       AlN_1_1e       AlN_1_1e    3.12859    -1   0   0           0.00004            0.00003 
      4       AlN_1_1e       AlN_1_2e    3.12859    -1   0   0           0.00009            0.00002 
      4       AlN_1_1e      AlN_1_3a1    3.12859    -1   0   0           0.00001            0.00001 
      4       AlN_1_1e       AlN_1_3e    3.12859    -1   0   0          -0.00058           -0.00054 
      4       AlN_1_1e       AlN_1_4e    3.12859    -1   0   0           0.00011            0.00015 
      4       AlN_1_1e      AlN_1_4a1    3.12859    -1   0   0          -0.00038           -0.00052 
      4       AlN_1_2e      AlN_1_1a1    3.12859    -1   0   0          -0.01047           -0.01080 
      4       AlN_1_2e      AlN_1_2a1    3.12859    -1   0   0          -0.00219           -0.00242 
      4       AlN_1_2e       AlN_1_1e    3.12859    -1   0   0           0.00007            0.00015 
      4       AlN_1_2e       AlN_1_2e    3.12859    -1   0   0           0.00012            0.00016 
      4       AlN_1_2e      AlN_1_3a1    3.12859    -1   0   0          -0.00015           -0.00018 
      4       AlN_1_2e       AlN_1_3e    3.12859    -1   0   0          -0.00008           -0.00012 
      4       AlN_1_2e       AlN_1_4e    3.12859    -1   0   0          -0.01493           -0.01501 
      4       AlN_1_2e      AlN_1_4a1    3.12859    -1   0   0          -0.00503           -0.00498 
      4      AlN_1_3a1      AlN_1_1a1    3.12859    -1   0   0          -0.00038           -0.00038 
      4      AlN_1_3a1      AlN_1_2a1    3.12859    -1   0   0           0.00000            0.00001 
      4      AlN_1_3a1       AlN_1_1e    3.12859    -1   0   0           0.00000           -0.00000 
      4      AlN_1_3a1       AlN_1_2e    3.12859    -1   0   0          -0.00018           -0.00016 
      4      AlN_1_3a1      AlN_1_3a1    3.12859    -1   0   0           0.00335            0.00326 
      4      AlN_1_3a1       AlN_1_3e    3.12859    -1   0   0           0.00179            0.00180 
      4      AlN_1_3a1       AlN_1_4e    3.12859    -1   0   0          -0.02540           -0.02554 
      4      AlN_1_3a1      AlN_1_4a1    3.12859    -1   0   0           0.00061            0.00059 
      4       AlN_1_3e      AlN_1_1a1    3.12859    -1   0   0          -0.00102           -0.00101 
      4       AlN_1_3e      AlN_1_2a1    3.12859    -1   0   0           0.00003            0.00003 
      4       AlN_1_3e       AlN_1_1e    3.12859    -1   0   0          -0.00057           -0.00060 
      4       AlN_1_3e       AlN_1_2e    3.12859    -1   0   0          -0.00010           -0.00006 
      4       AlN_1_3e      AlN_1_3a1    3.12859    -1   0   0           0.00180            0.00179 
      4       AlN_1_3e       AlN_1_3e    3.12859    -1   0   0          -0.00415           -0.00417 
      4       AlN_1_3e       AlN_1_4e    3.12859    -1   0   0          -0.00391           -0.00376 
      4       AlN_1_3e      AlN_1_4a1    3.12859    -1   0   0           0.00130            0.00128 
      4       AlN_1_4e      AlN_1_1a1    3.12859    -1   0   0          -0.00273           -0.00277 
      4       AlN_1_4e      AlN_1_2a1    3.12859    -1   0   0          -0.01150           -0.01148 
      4       AlN_1_4e       AlN_1_1e    3.12859    -1   0   0           0.00012            0.00002 
      4       AlN_1_4e       AlN_1_2e    3.12859    -1   0   0          -0.01514           -0.01491 
      4       AlN_1_4e      AlN_1_3a1    3.12859    -1   0   0          -0.02497           -0.02505 
      4       AlN_1_4e       AlN_1_3e    3.12859    -1   0   0          -0.00432           -0.00428 
      4       AlN_1_4e       AlN_1_4e    3.12859    -1   0   0          -0.08765           -0.08776 
      4       AlN_1_4e      AlN_1_4a1    3.12859    -1   0   0          -0.00804           -0.00834 
      4      AlN_1_4a1      AlN_1_1a1    3.12859    -1   0   0          -0.00069           -0.00068 
      4      AlN_1_4a1      AlN_1_2a1    3.12859    -1   0   0          -0.00072           -0.00066 
      4      AlN_1_4a1       AlN_1_1e    3.12859    -1   0   0          -0.00038           -0.00027 
      4      AlN_1_4a1       AlN_1_2e    3.12859    -1   0   0          -0.00512           -0.00512 
      4      AlN_1_4a1      AlN_1_3a1    3.12859    -1   0   0           0.00060            0.00061 
      4      AlN_1_4a1       AlN_1_3e    3.12859    -1   0   0           0.00128            0.00130 
      4      AlN_1_4a1       AlN_1_4e    3.12859    -1   0   0          -0.00847           -0.00825 
      4      AlN_1_4a1      AlN_1_4a1    3.12859    -1   0   0          -0.00909           -0.00905 
      5          AlN_1          AlN_1    3.12859     1   0   0          -0.27495           -0.27511 
      5      AlN_1_1a1      AlN_1_1a1    3.12859     1   0   0          -0.00183           -0.00183 
      5      AlN_1_1a1      AlN_1_2a1    3.12859     1   0   0          -0.00105           -0.00105 
      5      AlN_1_1a1       AlN_1_1e    3.12859     1   0   0          -0.00055           -0.00033 
      5      AlN_1_1a1       AlN_1_2e    3.12859     1   0   0          -0.01047           -0.01080 
      5      AlN_1_1a1      AlN_1_3a1    3.12859     1   0   0          -0.00038           -0.00038 
      5      AlN_1_1a1       AlN_1_3e    3.12859     1   0   0          -0.00102           -0.00101 
      5      AlN_1_1a1       AlN_1_4e    3.12859     1   0   0          -0.00273           -0.00277 
      5      AlN_1_1a1      AlN_1_4a1    3.12859     1   0   0          -0.00069           -0.00068 
      5      AlN_1_2a1      AlN_1_1a1    3.12859     1   0   0          -0.00106           -0.00106 
      5      AlN_1_2a1      AlN_1_2a1    3.12859     1   0   0           0.00014            0.00014 
      5      AlN_1_2a1       AlN_1_1e    3.12859     1   0   0          -0.00158           -0.00138 
      5      AlN_1_2a1       AlN_1_2e    3.12859     1   0   0          -0.00219           -0.00242 
      5      AlN_1_2a1      AlN_1_3a1    3.12859     1   0   0           0.00000            0.00001 
      5      AlN_1_2a1       AlN_1_3e    3.12859     1   0   0           0.00003            0.00003 
      5      AlN_1_2a1       AlN_1_4e    3.12859     1   0   0          -0.01150           -0.01148 
      5      AlN_1_2a1      AlN_1_4a1    3.12859     1   0   0          -0.00072           -0.00066 
      5       AlN_1_1e      AlN_1_1a1    3.12859     1   0   0          -0.00052           -0.00079 
      5       AlN_1_1e      AlN_1_2a1    3.12859     1   0   0          -0.00155           -0.00174 
      5       AlN_1_1e       AlN_1_1e    3.12859     1   0   0           0.00004            0.00003 
      5       AlN_1_1e       AlN_1_2e    3.12859     1   0   0           0.00007            0.00015 
      5       AlN_1_1e      AlN_1_3a1    3.12859     1   0   0           0.00000           -0.00000 
      5       AlN_1_1e       AlN_1_3e    3.12859     1   0   0          -0.00057           -0.00060 
      5       AlN_1_1e       AlN_1_4e    3.12859     1   0   0           0.00012            0.00002 
      5       AlN_1_1e      AlN_1_4a1    3.12859     1   0   0          -0.00038           -0.00027 
      5       AlN_1_2e      AlN_1_1a1    3.12859     1   0   0          -0.01057           -0.01036 
      5       AlN_1_2e      AlN_1_2a1    3.12859     1   0   0          -0.00225           -0.00208 
      5       AlN_1_2e       AlN_1_1e    3.12859     1   0   0           0.00009            0.00002 
      5       AlN_1_2e       AlN_1_2e    3.12859     1   0   0           0.00012            0.00016 
      5       AlN_1_2e      AlN_1_3a1    3.12859     1   0   0          -0.00018           -0.00016 
      5       AlN_1_2e       AlN_1_3e    3.12859     1   0   0          -0.00010           -0.00006 
      5       AlN_1_2e       AlN_1_4e    3.12859     1   0   0          -0.01514           -0.01491 
      5       AlN_1_2e      AlN_1_4a1    3.12859     1   0   0          -0.00512           -0.00512 
      5      AlN_1_3a1      AlN_1_1a1    3.12859     1   0   0          -0.00037           -0.00038 
      5      AlN_1_3a1      AlN_1_2a1    3.12859     1   0   0           0.00000            0.00001 