  COHP#  fragmentAlpha   fragmentBeta   distance   translation     ICOHP (at) eF      ICOHP (at) eF 
                                                                      for spin 1         for spin 2 
      1          AlN_1          AlN_1    3.66124    -1  -2   0          -0.01119           -0.01124 
      2          AlN_1          AlN_1    1.90173    -1  -1   0          -2.72392           -2.72332 
      3          AlN_1          AlN_1    1.90173     0  -1   0          -2.72423           -2.72180 
      4          AlN_1          AlN_1    3.12859    -1   0   0          -0.27495           -0.27511 
      5          AlN_1          AlN_1    3.12859     1   0   0          -0.27495           -0.27511 
      6          AlN_1          AlN_1    1.90173     0   1   0          -2.72423           -2.72180 
      7          AlN_1          AlN_1    1.90173     1   1   0          -2.72392           -2.72332 
      8          AlN_1          AlN_1    3.66124     1   2   0          -0.01119           -0.01124 
      9          AlN_1           Al_2    3.66741    -1  -2  -1          -0.01173           -0.01183 
     10          AlN_1           Al_2    3.66741     0  -2  -1          -0.01192           -0.01181 
     11          AlN_1           Al_2    3.66741    -1  -1  -1          -0.01263           -0.01268 
     12          AlN_1           Al_2    1.91360     0  -1  -1          -2.59998           -2.59957 
     13          AlN_1           Al_2    3.66741     1  -1  -1          -0.01270           -0.01268 
     14          AlN_1           Al_2    3.09114     0   0  -1          -0.21569           -0.21557 
     15          AlN_1           Al_2    3.09114     1   0  -1          -0.21561           -0.21583 
     16          AlN_1           Al_2    3.09114     0  -1   0          -0.29830           -0.29842 
     17          AlN_1           Al_2    3.09114     0   0   0          -0.21495           -0.21498 
     18          AlN_1           Al_2    3.09114     1   0   0          -0.21538           -0.21494 
     19          AlN_1            N_3    3.09114    -1  -1  -1          -0.06676           -0.06691 
     20          AlN_1            N_3    3.09114     0  -1  -1          -0.06703           -0.06701 
     21          AlN_1            N_3    3.09114     0   0  -1          -0.15021           -0.15007 
     22          AlN_1            N_3    3.09114    -1  -1   0          -0.06739           -0.06747 
     23          AlN_1            N_3    3.09114     0  -1   0          -0.06774           -0.06770 
     24          AlN_1            N_3    3.66741    -1   0   0          -0.00906           -0.00910 
     25          AlN_1            N_3    1.91360     0   0   0          -2.45085           -2.45139 
     26          AlN_1            N_3    3.66741     1   0   0          -0.00914           -0.00914 
     27          AlN_1            N_3    3.66741     0   1   0          -0.00889           -0.00895 
     28          AlN_1            N_3    3.66741     1   1   0          -0.00878           -0.00876 