 argument  1 = CH4.nw
                                         
                                         


              Northwest Computational Chemistry Package (NWChem) 6.3
              ------------------------------------------------------


                    Environmental Molecular Sciences Laboratory
                       Pacific Northwest National Laboratory
                                Richland, WA 99352

                              Copyright (c) 1994-2012
                       Pacific Northwest National Laboratory
                            Battelle Memorial Institute

             NWChem is an open-source computational chemistry package
                        distributed under the terms of the
                      Educational Community License (ECL) 2.0
             A copy of the license is included with this distribution
                              in the LICENSE.TXT file

                                  ACKNOWLEDGMENT
                                  --------------

            This software and its documentation were developed at the
            EMSL at Pacific Northwest National Laboratory, a multiprogram
            national laboratory, operated for the U.S. Department of Energy
            by Battelle under Contract Number DE-AC05-76RL01830. Support
            for this work was provided by the Department of Energy Office
            of Biological and Environmental Research, Office of Basic
            Energy Sciences, and the Office of Advanced Scientific Computing.


           Job information
           ---------------

    hostname        = shyuep.mit.edu
    program         = ../nwchem-6.3/bin/MACX/nwchem
    date            = Wed Jun  5 22:00:13 2013

    compiled        = Sat_May_25_22:55:36_2013
    source          = /Users/shyue/nwchem-6.3
    nwchem branch   = 6.3
    nwchem revision = 24252
    ga revision     = N/A
    input           = CH4.nw
    prefix          = H4C1.
    data base       = ./H4C1.db
    status          = startup
    nproc           =        1
    time left       =     -1s



           Memory information
           ------------------

    heap     =   13107201 doubles =    100.0 Mbytes
    stack    =   13107201 doubles =    100.0 Mbytes
    global   =   26214400 doubles =    200.0 Mbytes (distinct from heap & stack)
    total    =   52428802 doubles =    400.0 Mbytes
    verify   = yes
    hardfail = no 


           Directory information
           ---------------------

  0 permanent = .
  0 scratch   = .




                                NWChem Input Module
                                -------------------



 Scaling coordinates for geometry "geometry" by  1.889725989
 (inverse scale =  0.529177249)

 TD  symmetry detected

          ------
          auto-z
          ------
  Looking for out-of-plane bends


                             Geometry "geometry" -> ""
                             -------------------------

 Output coordinates in angstroms (scale by  1.889725989 to convert to a.u.)

  No.       Tag          Charge          X              Y              Z
 ---- ---------------- ---------- -------------- -------------- --------------
    1 C                    6.0000     0.00000000     0.00000000     0.00000000
    2 H                    1.0000     0.62873455     0.62873455    -0.62873455
    3 H                    1.0000    -0.62873455    -0.62873455    -0.62873455
    4 H                    1.0000     0.62873455    -0.62873455     0.62873455
    5 H                    1.0000    -0.62873455     0.62873455     0.62873455

      Atomic Mass 
      ----------- 

      C                 12.000000
      H                  1.007825


 Effective nuclear repulsion energy (a.u.)      13.4477252140

            Nuclear Dipole moment (a.u.) 
            ----------------------------
        X                 Y               Z
 ---------------- ---------------- ----------------
     0.0000000000     0.0000000000     0.0000000000

      Symmetry information
      --------------------

 Group name              Td       
 Group number             42
 Group order              24
 No. of unique centers     2

      Symmetry unique atoms

     1    2



                                Z-matrix (autoz)
                                -------- 

 Units are Angstrom for bonds and degrees for angles

      Type          Name      I     J     K     L     M      Value
      ----------- --------  ----- ----- ----- ----- ----- ----------
    1 Stretch                  1     2                       1.08900
    2 Stretch                  1     3                       1.08900
    3 Stretch                  1     4                       1.08900
    4 Stretch                  1     5                       1.08900
    5 Bend                     2     1     3               109.47122
    6 Bend                     2     1     4               109.47122
    7 Bend                     2     1     5               109.47122
    8 Bend                     3     1     4               109.47122
    9 Bend                     3     1     5               109.47122
   10 Bend                     4     1     5               109.47122


            XYZ format geometry
            -------------------
     5
 geometry
 C                     0.00000000     0.00000000     0.00000000
 H                     0.62873455     0.62873455    -0.62873455
 H                    -0.62873455    -0.62873455    -0.62873455
 H                     0.62873455    -0.62873455     0.62873455
 H                    -0.62873455     0.62873455     0.62873455

 ==============================================================================
                                internuclear distances
 ------------------------------------------------------------------------------
       center one      |      center two      | atomic units |  angstroms
 ------------------------------------------------------------------------------
    2 H                |   1 C                |     2.05791  |     1.08900
    3 H                |   1 C                |     2.05791  |     1.08900
    4 H                |   1 C                |     2.05791  |     1.08900
    5 H                |   1 C                |     2.05791  |     1.08900
 ------------------------------------------------------------------------------
                         number of included internuclear distances:          4
 ==============================================================================



 ==============================================================================
                                 internuclear angles
 ------------------------------------------------------------------------------
        center 1       |       center 2       |       center 3       |  degrees
 ------------------------------------------------------------------------------
    2 H                |   1 C                |   3 H                |   109.47
    2 H                |   1 C                |   4 H                |   109.47
    2 H                |   1 C                |   5 H                |   109.47
    3 H                |   1 C                |   4 H                |   109.47
    3 H                |   1 C                |   5 H                |   109.47
    4 H                |   1 C                |   5 H                |   109.47
 ------------------------------------------------------------------------------
                            number of included internuclear angles:          6
 ==============================================================================



                                 H4C1 dft optimize
                                 -----------------
                      Basis "ao basis" -> "" (cartesian)
                      -----
  H (Hydrogen)
  ------------
            Exponent  Coefficients 
       -------------- ---------------------------------------------------------
  1 S  1.87311370E+01  0.033495
  1 S  2.82539370E+00  0.234727
  1 S  6.40121700E-01  0.813757

  2 S  1.61277800E-01  1.000000

  3 S  3.60000000E-02  1.000000

  C (Carbon)
  ----------
            Exponent  Coefficients 
       -------------- ---------------------------------------------------------
  1 S  3.04752490E+03  0.001835
  1 S  4.57369510E+02  0.014037
  1 S  1.03948690E+02  0.068843
  1 S  2.92101550E+01  0.232184
  1 S  9.28666300E+00  0.467941
  1 S  3.16392700E+00  0.362312

  2 S  7.86827240E+00 -0.119332
  2 S  1.88128850E+00 -0.160854
  2 S  5.44249300E-01  1.143456

  3 P  7.86827240E+00  0.068999
  3 P  1.88128850E+00  0.316424
  3 P  5.44249300E-01  0.744308

  4 S  1.68714400E-01  1.000000

  5 P  1.68714400E-01  1.000000

  6 S  4.38000000E-02  1.000000

  7 P  4.38000000E-02  1.000000

  8 D  8.00000000E-01  1.000000



 Summary of "ao basis" -> "" (cartesian)
 ------------------------------------------------------------------------------
       Tag                 Description            Shells   Functions and Types
 ---------------- ------------------------------  ------  ---------------------
 H                          6-31++G*                 3        3   3s
 C                          6-31++G*                 8       19   4s3p1d




                           NWChem Geometry Optimization
                           ----------------------------




                                 H4C1 dft optimize


 maximum gradient threshold         (gmax) =   0.000450
 rms gradient threshold             (grms) =   0.000300
 maximum cartesian step threshold   (xmax) =   0.001800
 rms cartesian step threshold       (xrms) =   0.001200
 fixed trust radius                (trust) =   0.300000
 maximum step size to saddle      (sadstp) =   0.100000
 energy precision                  (eprec) =   5.0D-06
 maximum number of steps          (nptopt) =   20
 initial hessian option           (inhess) =    0
 line search option               (linopt) =    1
 hessian update option            (modupd) =    1
 saddle point option              (modsad) =    0
 initial eigen-mode to follow     (moddir) =    0
 initial variable to follow       (vardir) =    0
 follow first negative mode     (firstneg) =    T
 apply conjugacy                    (opcg) =    F
 source of zmatrix                         =   autoz   


          -------------------
          Energy Minimization
          -------------------


 Names of Z-matrix variables 
    1              2              3              4              5         
    6              7              8              9             10         

 Variables with the same non-blank name are constrained to be equal


 Using old Hessian from previous optimization

          --------
          Step   0
          --------


                         Geometry "geometry" -> "geometry"
                         ---------------------------------

 Output coordinates in angstroms (scale by  1.889725989 to convert to a.u.)

  No.       Tag          Charge          X              Y              Z
 ---- ---------------- ---------- -------------- -------------- --------------
    1 C                    6.0000     0.00000000     0.00000000     0.00000000
    2 H                    1.0000     0.62873455     0.62873455    -0.62873455
    3 H                    1.0000    -0.62873455    -0.62873455    -0.62873455
    4 H                    1.0000     0.62873455    -0.62873455     0.62873455
    5 H                    1.0000    -0.62873455     0.62873455     0.62873455

      Atomic Mass 
      ----------- 

      C                 12.000000
      H                  1.007825


 Effective nuclear repulsion energy (a.u.)      13.4477252140

            Nuclear Dipole moment (a.u.) 
            ----------------------------
        X                 Y               Z
 ---------------- ---------------- ----------------
     0.0000000000     0.0000000000     0.0000000000

      Symmetry information
      --------------------

 Group name              Td       
 Group number             42
 Group order              24
 No. of unique centers     2

      Symmetry unique atoms

     1    2


                                 NWChem DFT Module
                                 -----------------


                                 H4C1 dft optimize


  Caching 1-el integrals 

            General Information
            -------------------
          SCF calculation type: DFT
          Wavefunction type:  closed shell.
          No. of atoms     :     5
          No. of electrons :    10
           Alpha electrons :     5
            Beta electrons :     5
          Charge           :     0
          Spin multiplicity:     1
          Use of symmetry is: on ; symmetry adaption is: on 
          Maximum number of iterations:  30
          AO basis - number of functions:    31
                     number of shells:    20
          Convergence on energy requested: 1.00D-06
          Convergence on density requested: 1.00D-05
          Convergence on gradient requested: 5.00D-04

              XC Information
              --------------
                         B3LYP Method XC Potential
                     Hartree-Fock (Exact) Exchange  0.200          
                        Slater Exchange Functional  0.800 local    
                    Becke 1988 Exchange Functional  0.720 non-local
              Lee-Yang-Parr Correlation Functional  0.810          
                  VWN I RPA Correlation Functional  0.190 local    

             Grid Information
             ----------------
          Grid used for XC integration:  medium    
          Radial quadrature: Mura-Knowles        
          Angular quadrature: Lebedev. 
          Tag              B.-S. Rad. Rad. Pts. Rad. Cut. Ang. Pts.
          ---              ---------- --------- --------- ---------
          C                   0.70       49          10.0       434
          H                   0.35       45          11.0       434
          Grid pruning is: on 
          Number of quadrature shells:    94
          Spatial weights used:  Erf1

          Convergence Information
          -----------------------
          Convergence aids based upon iterative change in 
          total energy or number of iterations. 
          Levelshifting, if invoked, occurs when the 
          HOMO/LUMO gap drops below (HL_TOL): 1.00D-02
          DIIS, if invoked, will attempt to extrapolate 
          using up to (NFOCK): 10 stored Fock matrices.

                    Damping( 0%)  Levelshifting(0.5)       DIIS
                  --------------- ------------------- ---------------
          dE  on:    start            ASAP                start   
          dE off:    2 iters         30 iters            30 iters 


      Screening Tolerance Information
      -------------------------------
          Density screening/tol_rho: 1.00D-10
          AO Gaussian exp screening on grid/accAOfunc:  14
          CD Gaussian exp screening on grid/accCDfunc:  20
          XC Gaussian exp screening on grid/accXCfunc:  20
          Schwarz screening/accCoul: 1.00D-08


      Superposition of Atomic Density Guess
      -------------------------------------

 Sum of atomic energies:         -39.65869697

      Non-variational initial energy
      ------------------------------

 Total energy =     -40.259029
 1-e energy   =     -78.219112
 2-e energy   =      24.512358
 HOMO         =      -0.523652
 LUMO         =       0.024248


      Symmetry analysis of molecular orbitals - initial
      -------------------------------------------------

  Numbering of irreducible representations: 

     1 a1          2 a2          3 e           4 t1          5 t2      

  Orbital symmetries:

     1 a1          2 a1          3 t2          4 t2          5 t2      
     6 a1          7 t2          8 t2          9 t2         10 t2      
    11 t2         12 t2         13 a1         14 t2         15 t2      

   Time after variat. SCF:      0.1
   Time prior to 1st pass:      0.1

 #quartets = 4.038D+03 #integrals = 2.585D+04 #direct =  0.0% #cached =100.0%


 Integral file          = ./H4C1.aoints.0
 Record size in doubles =  65536        No. of integs per rec  =  43688
 Max. records in memory =      2        Max. records in file   = 193603
 No. of bits per label  =      8        No. of bits per value  =     64


 Grid_pts file          = ./H4C1.gridpts.0
 Record size in doubles =  12289        No. of grid_pts per rec  =   3070
 Max. records in memory =     16        Max. recs in file   =   1032472

 Grid integrated density:      10.000010711303
 Requested integration accuracy:   0.10E-05

           Memory utilization after 1st SCF pass: 
           Heap Space remaining (MW):       12.78            12777676
          Stack Space remaining (MW):       13.11            13106948

   convergence    iter        energy       DeltaE   RMS-Dens  Diis-err    time
 ---------------- ----- ----------------- --------- --------- ---------  ------
 d= 0,ls=0.0,diis     1    -40.5095370044 -5.40D+01  9.31D-03  1.24D-01     0.2
 d= 0,ls=0.0,diis     2    -40.5188554755 -9.32D-03  3.24D-03  1.43D-02     0.2
 d= 0,ls=0.0,diis     3    -40.5195960875 -7.41D-04  1.51D-03  7.57D-03     0.2
 d= 0,ls=0.0,diis     4    -40.5205605647 -9.64D-04  5.84D-05  4.47D-06     0.3
 d= 0,ls=0.0,diis     5    -40.5205612025 -6.38D-07  3.88D-06  1.13D-09     0.3
  Resetting Diis
 d= 0,ls=0.0,diis     6    -40.5205612027 -2.29D-10  8.42D-08  1.96D-13     0.3
 d= 0,ls=0.0,diis     7    -40.5205612027 -8.95D-13  2.90D-09  6.36D-16     0.3


         Total DFT energy =      -40.520561202733
      One electron energy =      -79.811246351576
           Coulomb energy =       32.740781564113
    Exchange-Corr. energy =       -6.897821629295
 Nuclear repulsion energy =       13.447725214025

 Numeric. integr. density =       10.000009526499

     Total iterative time =      0.2s



                  Occupations of the irreducible representations
                  ----------------------------------------------

                     irrep           alpha         beta
                     --------     --------     --------
                     a1                2.0          2.0
                     a2                0.0          0.0
                     e                 0.0          0.0
                     t1                0.0          0.0
                     t2                3.0          3.0


                       DFT Final Molecular Orbital Analysis
                       ------------------------------------

 Vector    1  Occ=2.000000D+00  E=-1.017034D+01  Symmetry=a1
              MO Center=  4.9D-21,  6.0D-21,  1.3D-20, r^2= 2.8D-02
   Bfn.  Coefficient  Atom+Function         Bfn.  Coefficient  Atom+Function  
  ----- ------------  ---------------      ----- ------------  ---------------
     1      0.992810  1 C  s          

 Vector    2  Occ=2.000000D+00  E=-6.973717D-01  Symmetry=a1
              MO Center=  2.0D-16,  1.6D-16,  2.9D-16, r^2= 1.0D+00
   Bfn.  Coefficient  Atom+Function         Bfn.  Coefficient  Atom+Function  
  ----- ------------  ---------------      ----- ------------  ---------------
     6      0.388125  1 C  s                  2      0.379074  1 C  s          
     1     -0.199084  1 C  s          

 Vector    3  Occ=2.000000D+00  E=-3.953697D-01  Symmetry=t2
              MO Center=  9.1D-02, -2.3D-01,  4.4D-02, r^2= 1.3D+00
   Bfn.  Coefficient  Atom+Function         Bfn.  Coefficient  Atom+Function  
  ----- ------------  ---------------      ----- ------------  ---------------
     5      0.397413  1 C  pz                26      0.255070  4 H  s          
    23     -0.196176  3 H  s                  3      0.193775  1 C  px         
    27      0.191845  4 H  s                  9      0.187041  1 C  pz         

 Vector    4  Occ=2.000000D+00  E=-3.953697D-01  Symmetry=t2
              MO Center= -9.6D-02, -5.7D-03, -3.4D-02, r^2= 1.3D+00
   Bfn.  Coefficient  Atom+Function         Bfn.  Coefficient  Atom+Function  
  ----- ------------  ---------------      ----- ------------  ---------------
     4      0.442061  1 C  py                 8      0.208055  1 C  py         
    23     -0.206601  3 H  s                 29      0.186555  5 H  s          
    24     -0.155390  3 H  s                 20      0.150864  2 H  s          

 Vector    5  Occ=2.000000D+00  E=-3.953697D-01  Symmetry=t2
              MO Center=  4.8D-03,  2.3D-01, -9.9D-03, r^2= 1.3D+00
   Bfn.  Coefficient  Atom+Function         Bfn.  Coefficient  Atom+Function  
  ----- ------------  ---------------      ----- ------------  ---------------
     3      0.403981  1 C  px                20      0.231896  2 H  s          
    29     -0.225582  5 H  s                  5     -0.195372  1 C  pz         
     7      0.190133  1 C  px                21      0.174415  2 H  s          
    30     -0.169666  5 H  s          

 Vector    6  Occ=0.000000D+00  E=-4.811482D-03  Symmetry=a1
              MO Center= -5.0D-16,  2.8D-16, -6.7D-16, r^2= 1.1D+01
   Bfn.  Coefficient  Atom+Function         Bfn.  Coefficient  Atom+Function  
  ----- ------------  ---------------      ----- ------------  ---------------
    10      2.721810  1 C  s                 22     -0.917040  2 H  s          
    25     -0.917040  3 H  s                 28     -0.917040  4 H  s          
    31     -0.917040  5 H  s                  6      0.574309  1 C  s          
    21     -0.203951  2 H  s                 24     -0.203951  3 H  s          
    27     -0.203951  4 H  s                 30     -0.203951  5 H  s          

 Vector    7  Occ=0.000000D+00  E= 4.084367D-02  Symmetry=t2
              MO Center=  7.9D-01, -4.4D-01,  1.6D-01, r^2= 1.3D+01
   Bfn.  Coefficient  Atom+Function         Bfn.  Coefficient  Atom+Function  
  ----- ------------  ---------------      ----- ------------  ---------------
    28      3.233956  4 H  s                 22     -2.394904  2 H  s          
    25     -1.715636  3 H  s                 13     -0.913121  1 C  pz         
    31      0.876585  5 H  s                 12      0.337282  1 C  py         
    11     -0.186388  1 C  px                 5     -0.164208  1 C  pz         

 Vector    8  Occ=0.000000D+00  E= 4.084367D-02  Symmetry=t2
              MO Center=  4.8D-02,  1.2D-01, -8.7D-01, r^2= 1.3D+01
   Bfn.  Coefficient  Atom+Function         Bfn.  Coefficient  Atom+Function  
  ----- ------------  ---------------      ----- ------------  ---------------
    22      3.013473  2 H  s                 25     -2.785780  3 H  s          
    31     -1.346391  5 H  s                 28      1.118698  4 H  s          
    11     -0.917926  1 C  px                12     -0.370328  1 C  py         
     3     -0.165072  1 C  px         

 Vector    9  Occ=0.000000D+00  E= 4.084367D-02  Symmetry=t2
              MO Center= -8.4D-01,  3.2D-01,  7.1D-01, r^2= 1.2D+01
   Bfn.  Coefficient  Atom+Function         Bfn.  Coefficient  Atom+Function  
  ----- ------------  ---------------      ----- ------------  ---------------
    31      3.514003  5 H  s                 25     -2.055579  3 H  s          
    28     -1.794277  4 H  s                 12     -0.855212  1 C  py         
    13     -0.382022  1 C  pz                22      0.335853  2 H  s          
    11      0.323976  1 C  px                 4     -0.153794  1 C  py         

 Vector   10  Occ=0.000000D+00  E= 1.017052D-01  Symmetry=t2
              MO Center= -1.1D-01,  1.3D-01, -1.5D-02, r^2= 9.1D+00
   Bfn.  Coefficient  Atom+Function         Bfn.  Coefficient  Atom+Function  
  ----- ------------  ---------------      ----- ------------  ---------------
    28      3.579977  4 H  s                 13     -3.203497  1 C  pz         
    25     -2.921017  3 H  s                 22     -2.781259  2 H  s          
    31      2.122299  5 H  s                 27      0.596586  4 H  s          
    24     -0.486773  3 H  s                 21     -0.463483  2 H  s          
    11     -0.448714  1 C  px                12      0.370199  1 C  py         

 Vector   11  Occ=0.000000D+00  E= 1.017052D-01  Symmetry=t2
              MO Center=  1.4D-01, -5.9D-02, -3.4D-01, r^2= 9.0D+00
   Bfn.  Coefficient  Atom+Function         Bfn.  Coefficient  Atom+Function  
  ----- ------------  ---------------      ----- ------------  ---------------
    31      4.222427  5 H  s                 28     -3.297809  4 H  s          
    12     -2.950988  1 C  py                25     -1.954998  3 H  s          
    11      1.273825  1 C  px                22      1.030380  2 H  s          
    30      0.703647  5 H  s                 27     -0.549564  4 H  s          
    13     -0.519444  1 C  pz                24     -0.325791  3 H  s          

 Vector   12  Occ=0.000000D+00  E= 1.017052D-01  Symmetry=t2
              MO Center= -3.1D-02, -6.9D-02,  3.5D-01, r^2= 9.0D+00
   Bfn.  Coefficient  Atom+Function         Bfn.  Coefficient  Atom+Function  
  ----- ------------  ---------------      ----- ------------  ---------------
    22      4.048953  2 H  s                 25     -3.582840  3 H  s          
    11     -2.962568  1 C  px                31     -1.690579  5 H  s          
    12     -1.324917  1 C  py                28      1.224466  4 H  s          
    21      0.674738  2 H  s                 24     -0.597063  3 H  s          
    30     -0.281727  5 H  s                 13      0.261859  1 C  pz         

 Vector   13  Occ=0.000000D+00  E= 1.380344D-01  Symmetry=a1
              MO Center=  1.2D-13,  3.7D-14,  2.6D-14, r^2= 1.2D+01
   Bfn.  Coefficient  Atom+Function         Bfn.  Coefficient  Atom+Function  
  ----- ------------  ---------------      ----- ------------  ---------------
    10      8.643444  1 C  s                 22     -1.940007  2 H  s          
    25     -1.940007  3 H  s                 28     -1.940007  4 H  s          
    31     -1.940007  5 H  s                  6     -1.140278  1 C  s          
     2     -0.176302  1 C  s                 21     -0.153945  2 H  s          
    24     -0.153945  3 H  s                 27     -0.153945  4 H  s          

 Vector   14  Occ=0.000000D+00  E= 2.171896D-01  Symmetry=t2
              MO Center= -3.5D-01,  2.4D-01,  5.9D-02, r^2= 6.1D+00
   Bfn.  Coefficient  Atom+Function         Bfn.  Coefficient  Atom+Function  
  ----- ------------  ---------------      ----- ------------  ---------------
    31      2.919264  5 H  s                 25     -2.232269  3 H  s          
    22     -1.904510  2 H  s                 13     -1.596351  1 C  pz         
    30     -1.449300  5 H  s                  9      1.358094  1 C  pz         
    28      1.217515  4 H  s                 24      1.108234  3 H  s          
    21      0.945514  2 H  s                 27     -0.604448  4 H  s          

 Vector   15  Occ=0.000000D+00  E= 2.171896D-01  Symmetry=t2
              MO Center= -3.9D-02, -1.2D-01, -4.6D-01, r^2= 6.1D+00
   Bfn.  Coefficient  Atom+Function         Bfn.  Coefficient  Atom+Function  
  ----- ------------  ---------------      ----- ------------  ---------------
    25      2.889546  3 H  s                 22     -2.541921  2 H  s          
    11      1.575918  1 C  px                28     -1.541909  4 H  s          
    24     -1.434545  3 H  s                  7     -1.340711  1 C  px         
    21      1.261963  2 H  s                 31      1.194283  5 H  s          
    27      0.765497  4 H  s                 30     -0.592915  5 H  s          

 Vector   16  Occ=0.000000D+00  E= 2.171896D-01  Symmetry=t2
              MO Center=  3.9D-01, -1.2D-01,  4.0D-01, r^2= 5.9D+00
   Bfn.  Coefficient  Atom+Function         Bfn.  Coefficient  Atom+Function  
  ----- ------------  ---------------      ----- ------------  ---------------
    28      3.178230  4 H  s                 31     -2.003136  5 H  s          
    22     -1.967856  2 H  s                 27     -1.577866  4 H  s          
    12      1.532375  1 C  py                 8     -1.303667  1 C  py         
    30      0.994478  5 H  s                 21      0.976963  2 H  s          
    25      0.792762  3 H  s                 11     -0.467074  1 C  px         

 Vector   17  Occ=0.000000D+00  E= 3.499167D-01  Symmetry=a1
              MO Center=  9.5D-15,  1.0D-14,  6.9D-15, r^2= 6.1D+00
   Bfn.  Coefficient  Atom+Function         Bfn.  Coefficient  Atom+Function  
  ----- ------------  ---------------      ----- ------------  ---------------
    10      8.386465  1 C  s                  6      3.269898  1 C  s          
    21     -2.089786  2 H  s                 24     -2.089786  3 H  s          
    27     -2.089786  4 H  s                 30     -2.089786  5 H  s          
    22     -1.433814  2 H  s                 25     -1.433814  3 H  s          
    28     -1.433814  4 H  s                 31     -1.433814  5 H  s          

 Vector   18  Occ=0.000000D+00  E= 6.985274D-01  Symmetry=t2
              MO Center= -3.6D-02, -2.4D-01,  3.6D-02, r^2= 3.3D+00
   Bfn.  Coefficient  Atom+Function         Bfn.  Coefficient  Atom+Function  
  ----- ------------  ---------------      ----- ------------  ---------------
    22      2.023140  2 H  s                 31     -1.746325  5 H  s          
     7      1.307268  1 C  px                 9     -1.312056  1 C  pz         
    11     -1.250192  1 C  px                13      1.254771  1 C  pz         
     3     -0.629772  1 C  px                 5      0.632079  1 C  pz         
    20     -0.366349  2 H  s                 29      0.316224  5 H  s          


 center of mass
 --------------
 x =   0.00000000 y =   0.00000000 z =   0.00000000

 moments of inertia (a.u.)
 ------------------
          11.381708111619           0.000000000000           0.000000000000
           0.000000000000          11.381708111619           0.000000000000
           0.000000000000           0.000000000000          11.381708111619

     Multipole analysis of the density
     ---------------------------------

     L   x y z        total         alpha         beta         nuclear
     -   - - -        -----         -----         ----         -------
     0   0 0 0     -0.000000     -5.000000     -5.000000     10.000000

     1   1 0 0      0.000000      0.000000      0.000000      0.000000
     1   0 1 0     -0.000000     -0.000000     -0.000000      0.000000
     1   0 0 1     -0.000000     -0.000000     -0.000000      0.000000

     2   2 0 0     -6.321615     -5.984142     -5.984142      5.646669
     2   1 1 0     -0.000000     -0.000000     -0.000000      0.000000
     2   1 0 1      0.000000      0.000000      0.000000      0.000000
     2   0 2 0     -6.321615     -5.984142     -5.984142      5.646669
     2   0 1 1      0.000000      0.000000      0.000000      0.000000
     2   0 0 2     -6.321615     -5.984142     -5.984142      5.646669


 Parallel integral file used       1 records with       0 large values



                            NWChem DFT Gradient Module
                            --------------------------


                                 H4C1 dft optimize



  charge          =   0.00
  wavefunction    = closed shell

  Using symmetry


                         DFT ENERGY GRADIENTS

    atom               coordinates                        gradient
                 x          y          z           x          y          z
   1 C       0.000000   0.000000   0.000000    0.000000   0.000000   0.000000
   2 H       1.188136   1.188136  -1.188136   -0.001991  -0.001991   0.001991
   3 H      -1.188136  -1.188136  -1.188136    0.001991   0.001991   0.001991
   4 H       1.188136  -1.188136   1.188136   -0.001991   0.001991  -0.001991
   5 H      -1.188136   1.188136   1.188136    0.001991  -0.001991  -0.001991

                 ----------------------------------------
                 |  Time  |  1-e(secs)   |  2-e(secs)   |
                 ----------------------------------------
                 |  CPU   |       0.00   |       0.06   |
                 ----------------------------------------
                 |  WALL  |       0.00   |       0.06   |
                 ----------------------------------------

@ Step       Energy      Delta E   Gmax     Grms     Xrms     Xmax   Walltime
@ ---- ---------------- -------- -------- -------- -------- -------- --------
@    0     -40.52056120  0.0D+00  0.00345  0.00218  0.00000  0.00000      0.5
                                                                    



                                Z-matrix (autoz)
                                -------- 

 Units are Angstrom for bonds and degrees for angles

      Type          Name      I     J     K     L     M      Value     Gradient
      ----------- --------  ----- ----- ----- ----- ----- ---------- ----------
    1 Stretch                  1     2                       1.08900   -0.00345
    2 Stretch                  1     3                       1.08900   -0.00345
    3 Stretch                  1     4                       1.08900   -0.00345
    4 Stretch                  1     5                       1.08900   -0.00345
    5 Bend                     2     1     3               109.47122   -0.00000
    6 Bend                     2     1     4               109.47122   -0.00000
    7 Bend                     2     1     5               109.47122    0.00000
    8 Bend                     3     1     4               109.47122    0.00000
    9 Bend                     3     1     5               109.47122   -0.00000
   10 Bend                     4     1     5               109.47122   -0.00000


                                 NWChem DFT Module
                                 -----------------


                                 H4C1 dft optimize


  Caching 1-el integrals 

            General Information
            -------------------
          SCF calculation type: DFT
          Wavefunction type:  closed shell.
          No. of atoms     :     5
          No. of electrons :    10
           Alpha electrons :     5
            Beta electrons :     5
          Charge           :     0
          Spin multiplicity:     1
          Use of symmetry is: on ; symmetry adaption is: on 
          Maximum number of iterations:  30
          AO basis - number of functions:    31
                     number of shells:    20
          Convergence on energy requested: 1.00D-06
          Convergence on density requested: 1.00D-05
          Convergence on gradient requested: 5.00D-04

              XC Information
              --------------
                         B3LYP Method XC Potential
                     Hartree-Fock (Exact) Exchange  0.200          
                        Slater Exchange Functional  0.800 local    
                    Becke 1988 Exchange Functional  0.720 non-local
              Lee-Yang-Parr Correlation Functional  0.810          
                  VWN I RPA Correlation Functional  0.190 local    

             Grid Information
             ----------------
          Grid used for XC integration:  medium    
          Radial quadrature: Mura-Knowles        
          Angular quadrature: Lebedev. 
          Tag              B.-S. Rad. Rad. Pts. Rad. Cut. Ang. Pts.
          ---              ---------- --------- --------- ---------
          C                   0.70       49          10.0       434
          H                   0.35       45          11.0       434
          Grid pruning is: on 
          Number of quadrature shells:    94
          Spatial weights used:  Erf1

          Convergence Information
          -----------------------
          Convergence aids based upon iterative change in 
          total energy or number of iterations. 
          Levelshifting, if invoked, occurs when the 
          HOMO/LUMO gap drops below (HL_TOL): 1.00D-02
          DIIS, if invoked, will attempt to extrapolate 
          using up to (NFOCK): 10 stored Fock matrices.

                    Damping( 0%)  Levelshifting(0.5)       DIIS
                  --------------- ------------------- ---------------
          dE  on:    start            ASAP                start   
          dE off:    2 iters         30 iters            30 iters 


      Screening Tolerance Information
      -------------------------------
          Density screening/tol_rho: 1.00D-10
          AO Gaussian exp screening on grid/accAOfunc:  14
          CD Gaussian exp screening on grid/accCDfunc:  20
          XC Gaussian exp screening on grid/accXCfunc:  20
          Schwarz screening/accCoul: 1.00D-08


 Loading old vectors from job with title :

H4C1 dft optimize


      Symmetry analysis of molecular orbitals - initial
      -------------------------------------------------

  Numbering of irreducible representations: 

     1 a1          2 a2          3 e           4 t1          5 t2      

  Orbital symmetries:

     1 a1          2 a1          3 t2          4 t2          5 t2      
     6 a1          7 t2          8 t2          9 t2         10 t2      
    11 t2         12 t2         13 a1         14 t2         15 t2      

   Time after variat. SCF:      0.5
   Time prior to 1st pass:      0.5

 #quartets = 4.038D+03 #integrals = 2.585D+04 #direct =  0.0% #cached =100.0%


 Integral file          = ./H4C1.aoints.0
 Record size in doubles =  65536        No. of integs per rec  =  43688
 Max. records in memory =      2        Max. records in file   = 193603
 No. of bits per label  =      8        No. of bits per value  =     64


 Grid_pts file          = ./H4C1.gridpts.0
 Record size in doubles =  12289        No. of grid_pts per rec  =   3070
 Max. records in memory =     16        Max. recs in file   =   1032472


           Memory utilization after 1st SCF pass: 
           Heap Space remaining (MW):       12.78            12777676
          Stack Space remaining (MW):       13.11            13106948

   convergence    iter        energy       DeltaE   RMS-Dens  Diis-err    time
 ---------------- ----- ----------------- --------- --------- ---------  ------
 d= 0,ls=0.0,diis     1    -40.5206134859 -5.39D+01  3.49D-04  9.53D-05     0.6
 d= 0,ls=0.0,diis     2    -40.5206147572 -1.27D-06  1.83D-04  1.02D-04     0.6
 d= 0,ls=0.0,diis     3    -40.5206278682 -1.31D-05  1.27D-05  6.85D-07     0.6
 d= 0,ls=0.0,diis     4    -40.5206279502 -8.20D-08  8.07D-07  9.61D-10     0.7
 d= 0,ls=0.0,diis     5    -40.5206279504 -1.60D-10  4.05D-08  5.23D-12     0.7
  Resetting Diis
 d= 0,ls=0.0,diis     6    -40.5206279504 -5.90D-13  2.33D-09  1.84D-15     0.7
 d= 0,ls=0.0,diis     7    -40.5206279504  3.62D-13  1.78D-10  3.25D-18     0.7


         Total DFT energy =      -40.520627950377
      One electron energy =      -79.692305820801
           Coulomb energy =       32.677645907713
    Exchange-Corr. energy =       -6.890280376815
 Nuclear repulsion energy =       13.384312339526

 Numeric. integr. density =       10.000009054961

     Total iterative time =      0.2s



                  Occupations of the irreducible representations
                  ----------------------------------------------

                     irrep           alpha         beta
                     --------     --------     --------
                     a1                2.0          2.0
                     a2                0.0          0.0
                     e                 0.0          0.0
                     t1                0.0          0.0
                     t2                3.0          3.0


                       DFT Final Molecular Orbital Analysis
                       ------------------------------------

 Vector    1  Occ=2.000000D+00  E=-1.017254D+01  Symmetry=a1
              MO Center=  9.3D-21,  1.6D-21,  6.5D-21, r^2= 2.8D-02
   Bfn.  Coefficient  Atom+Function         Bfn.  Coefficient  Atom+Function  
  ----- ------------  ---------------      ----- ------------  ---------------
     1      0.992822  1 C  s          

 Vector    2  Occ=2.000000D+00  E=-6.958386D-01  Symmetry=a1
              MO Center= -2.5D-18,  2.3D-17,  7.3D-18, r^2= 1.0D+00
   Bfn.  Coefficient  Atom+Function         Bfn.  Coefficient  Atom+Function  
  ----- ------------  ---------------      ----- ------------  ---------------
     6      0.389848  1 C  s                  2      0.378950  1 C  s          
     1     -0.198912  1 C  s          

 Vector    3  Occ=2.000000D+00  E=-3.945474D-01  Symmetry=t2
              MO Center= -1.2D-02,  1.8D-02,  2.7D-01, r^2= 1.3D+00
   Bfn.  Coefficient  Atom+Function         Bfn.  Coefficient  Atom+Function  
  ----- ------------  ---------------      ----- ------------  ---------------
     3      0.374406  1 C  px                 4     -0.245369  1 C  py         
    29     -0.243092  5 H  s                 26      0.230542  4 H  s          
    30     -0.183732  5 H  s                  7      0.176918  1 C  px         
    27      0.174246  4 H  s          

 Vector    4  Occ=2.000000D+00  E=-3.945474D-01  Symmetry=t2
              MO Center=  2.3D-01,  1.5D-01, -1.9D-01, r^2= 1.2D+00
   Bfn.  Coefficient  Atom+Function         Bfn.  Coefficient  Atom+Function  
  ----- ------------  ---------------      ----- ------------  ---------------
     4      0.317036  1 C  py                20      0.291037  2 H  s          
     5     -0.247733  1 C  pz                21      0.219969  2 H  s          
     3      0.196905  1 C  px         

 Vector    5  Occ=2.000000D+00  E=-3.945474D-01  Symmetry=t2
              MO Center= -2.2D-01, -1.6D-01, -8.8D-02, r^2= 1.3D+00
   Bfn.  Coefficient  Atom+Function         Bfn.  Coefficient  Atom+Function  
  ----- ------------  ---------------      ----- ------------  ---------------
     5      0.372846  1 C  pz                23     -0.275118  3 H  s          
    24     -0.207937  3 H  s                  4      0.199843  1 C  py         
     9      0.176180  1 C  pz                29      0.162533  5 H  s          

 Vector    6  Occ=0.000000D+00  E=-5.074871D-03  Symmetry=a1
              MO Center= -1.7D-16,  0.0D+00, -2.2D-16, r^2= 1.1D+01
   Bfn.  Coefficient  Atom+Function         Bfn.  Coefficient  Atom+Function  
  ----- ------------  ---------------      ----- ------------  ---------------
    10      2.704659  1 C  s                 22     -0.912955  2 H  s          
    25     -0.912955  3 H  s                 28     -0.912955  4 H  s          
    31     -0.912955  5 H  s                  6      0.575275  1 C  s          
    21     -0.204274  2 H  s                 24     -0.204274  3 H  s          
    27     -0.204274  4 H  s                 30     -0.204274  5 H  s          

 Vector    7  Occ=0.000000D+00  E= 4.071094D-02  Symmetry=t2
              MO Center= -1.2D+00,  4.4D-01,  4.3D-01, r^2= 1.2D+01
   Bfn.  Coefficient  Atom+Function         Bfn.  Coefficient  Atom+Function  
  ----- ------------  ---------------      ----- ------------  ---------------
    31      3.598198  5 H  s                 25     -2.474961  3 H  s          
    13     -0.690109  1 C  pz                12     -0.666244  1 C  py         
    22     -0.615046  2 H  s                 28     -0.508190  4 H  s          
    11      0.250859  1 C  px         

 Vector    8  Occ=0.000000D+00  E= 4.071094D-02  Symmetry=t2
              MO Center= -2.7D-02, -7.5D-01, -8.2D-02, r^2= 1.3D+01
   Bfn.  Coefficient  Atom+Function         Bfn.  Coefficient  Atom+Function  
  ----- ------------  ---------------      ----- ------------  ---------------
    25      2.876072  3 H  s                 28     -2.724935  4 H  s          
    22     -1.489873  2 H  s                 31      1.338737  5 H  s          
    11      0.941317  1 C  px                13      0.309588  1 C  pz         
     3      0.170385  1 C  px         

 Vector    9  Occ=0.000000D+00  E= 4.071094D-02  Symmetry=t2
              MO Center=  1.2D+00,  3.0D-01, -3.5D-01, r^2= 1.2D+01
   Bfn.  Coefficient  Atom+Function         Bfn.  Coefficient  Atom+Function  
  ----- ------------  ---------------      ----- ------------  ---------------
    22      3.490522  2 H  s                 28     -2.664248  4 H  s          
    12     -0.733513  1 C  py                13      0.641067  1 C  pz         
    25     -0.620103  3 H  s                 31     -0.206171  5 H  s          
    11     -0.184536  1 C  px         

 Vector   10  Occ=0.000000D+00  E= 1.013331D-01  Symmetry=t2
              MO Center= -2.0D-01,  5.2D-02, -2.2D-01, r^2= 9.0D+00
   Bfn.  Coefficient  Atom+Function         Bfn.  Coefficient  Atom+Function  
  ----- ------------  ---------------      ----- ------------  ---------------
    28      4.028018  4 H  s                 12      3.056114  1 C  py         
    31     -2.771657  5 H  s                 22     -2.626577  2 H  s          
    25      1.370216  3 H  s                 11     -0.793401  1 C  px         
    13     -0.711266  1 C  pz                27      0.681389  4 H  s          
    30     -0.468860  5 H  s                 21     -0.444318  2 H  s          

 Vector   11  Occ=0.000000D+00  E= 1.013331D-01  Symmetry=t2
              MO Center= -4.5D-03, -1.8D-02,  2.3D-01, r^2= 9.1D+00
   Bfn.  Coefficient  Atom+Function         Bfn.  Coefficient  Atom+Function  
  ----- ------------  ---------------      ----- ------------  ---------------
    22      3.530172  2 H  s                 25     -3.420921  3 H  s          
    11     -3.135596  1 C  px                31     -2.117709  5 H  s          
    28      2.008458  4 H  s                 12     -0.799641  1 C  py         
    21      0.597172  2 H  s                 24     -0.578691  3 H  s          
    30     -0.358237  5 H  s                 27      0.339755  4 H  s          

 Vector   12  Occ=0.000000D+00  E= 1.013331D-01  Symmetry=t2
              MO Center=  2.0D-01, -3.4D-02, -7.6D-03, r^2= 9.1D+00
   Bfn.  Coefficient  Atom+Function         Bfn.  Coefficient  Atom+Function  
  ----- ------------  ---------------      ----- ------------  ---------------
    31      3.513656  5 H  s                 25     -3.306413  3 H  s          
    13     -3.156816  1 C  pz                22     -2.269700  2 H  s          
    28      2.062456  4 H  s                 12     -0.704244  1 C  py         
    30      0.594378  5 H  s                 24     -0.559320  3 H  s          
    21     -0.383948  2 H  s                 27      0.348890  4 H  s          

 Vector   13  Occ=0.000000D+00  E= 1.376537D-01  Symmetry=a1
              MO Center=  3.3D-14,  3.7D-14,  9.3D-14, r^2= 1.2D+01
   Bfn.  Coefficient  Atom+Function         Bfn.  Coefficient  Atom+Function  
  ----- ------------  ---------------      ----- ------------  ---------------
    10      8.588471  1 C  s                 22     -1.930088  2 H  s          
    25     -1.930088  3 H  s                 28     -1.930088  4 H  s          
    31     -1.930088  5 H  s                  6     -1.158285  1 C  s          
     2     -0.176484  1 C  s          

 Vector   14  Occ=0.000000D+00  E= 2.156970D-01  Symmetry=t2
              MO Center= -3.7D-01, -6.3D-01, -4.7D-01, r^2= 5.6D+00
   Bfn.  Coefficient  Atom+Function         Bfn.  Coefficient  Atom+Function  
  ----- ------------  ---------------      ----- ------------  ---------------
    25      3.648163  3 H  s                 28     -1.857066  4 H  s          
    24     -1.791175  3 H  s                 22     -1.235093  2 H  s          
    11      1.199697  1 C  px                 7     -1.007218  1 C  px         
    13      0.936224  1 C  pz                27      0.911782  4 H  s          
     9     -0.786017  1 C  pz                12      0.694911  1 C  py         

 Vector   15  Occ=0.000000D+00  E= 2.156970D-01  Symmetry=t2
              MO Center=  5.8D-01,  4.7D-01, -2.6D-01, r^2= 5.7D+00
   Bfn.  Coefficient  Atom+Function         Bfn.  Coefficient  Atom+Function  
  ----- ------------  ---------------      ----- ------------  ---------------
    22      3.523614  2 H  s                 28     -1.929774  4 H  s          
    21     -1.730024  2 H  s                 31     -1.565794  5 H  s          
    13      1.356212  1 C  pz                 9     -1.138622  1 C  pz         
    27      0.947481  4 H  s                 30      0.768774  5 H  s          
    12     -0.759596  1 C  py                 8      0.637727  1 C  py         

 Vector   16  Occ=0.000000D+00  E= 2.156970D-01  Symmetry=t2
              MO Center= -2.1D-01,  1.6D-01,  7.3D-01, r^2= 5.7D+00
   Bfn.  Coefficient  Atom+Function         Bfn.  Coefficient  Atom+Function  
  ----- ------------  ---------------      ----- ------------  ---------------
    31      3.344164  5 H  s                 28     -2.602223  4 H  s          
    30     -1.641918  5 H  s                 12     -1.318637  1 C  py         
    27      1.277640  4 H  s                  8      1.107075  1 C  py         
    11      0.988445  1 C  px                 7     -0.829860  1 C  px         
    25     -0.796496  3 H  s                 24      0.391064  3 H  s          

 Vector   17  Occ=0.000000D+00  E= 3.473069D-01  Symmetry=a1
              MO Center= -1.4D-14,  2.6D-15,  1.8D-14, r^2= 6.1D+00
   Bfn.  Coefficient  Atom+Function         Bfn.  Coefficient  Atom+Function  
  ----- ------------  ---------------      ----- ------------  ---------------
    10      8.355298  1 C  s                  6      3.196238  1 C  s          
    21     -2.067604  2 H  s                 24     -2.067604  3 H  s          
    27     -2.067604  4 H  s                 30     -2.067604  5 H  s          
    22     -1.428084  2 H  s                 25     -1.428084  3 H  s          
    28     -1.428084  4 H  s                 31     -1.428084  5 H  s          

 Vector   18  Occ=0.000000D+00  E= 6.997345D-01  Symmetry=t2
              MO Center=  1.6D-01, -1.8D-01, -1.0D-01, r^2= 3.3D+00
   Bfn.  Coefficient  Atom+Function         Bfn.  Coefficient  Atom+Function  
  ----- ------------  ---------------      ----- ------------  ---------------
    31      2.224614  5 H  s                  9      1.428373  1 C  pz         
    13     -1.358075  1 C  pz                22     -1.099271  2 H  s          
    25     -0.936277  3 H  s                  7     -0.904044  1 C  px         
    11      0.859551  1 C  px                 8      0.789669  1 C  py         
    12     -0.750805  1 C  py                 5     -0.691772  1 C  pz         


 center of mass
 --------------
 x =   0.00000000 y =   0.00000000 z =   0.00000000

 moments of inertia (a.u.)
 ------------------
          11.489813268477           0.000000000000           0.000000000000
           0.000000000000          11.489813268477           0.000000000000
           0.000000000000           0.000000000000          11.489813268477

     Multipole analysis of the density
     ---------------------------------

     L   x y z        total         alpha         beta         nuclear
     -   - - -        -----         -----         ----         -------
     0   0 0 0     -0.000000     -5.000000     -5.000000     10.000000

     1   1 0 0     -0.000000     -0.000000     -0.000000      0.000000
     1   0 1 0      0.000000      0.000000      0.000000      0.000000
     1   0 0 1     -0.000000     -0.000000     -0.000000      0.000000

     2   2 0 0     -6.334100     -6.017201     -6.017201      5.700302
     2   1 1 0      0.000000      0.000000      0.000000      0.000000
     2   1 0 1      0.000000      0.000000      0.000000      0.000000
     2   0 2 0     -6.334100     -6.017201     -6.017201      5.700302
     2   0 1 1      0.000000      0.000000      0.000000      0.000000
     2   0 0 2     -6.334100     -6.017201     -6.017201      5.700302


 Parallel integral file used       1 records with       0 large values

 Line search: 
     step= 1.00 grad=-1.3D-04 hess= 6.8D-05 energy=    -40.520628 mode=accept  
 new step= 1.00                   predicted energy=    -40.520628

          --------
          Step   1
          --------


                         Geometry "geometry" -> "geometry"
                         ---------------------------------

 Output coordinates in angstroms (scale by  1.889725989 to convert to a.u.)

  No.       Tag          Charge          X              Y              Z
 ---- ---------------- ---------- -------------- -------------- --------------
    1 C                    6.0000     0.00000000     0.00000000     0.00000000
    2 H                    1.0000     0.63171340     0.63171340    -0.63171340
    3 H                    1.0000    -0.63171340    -0.63171340    -0.63171340
    4 H                    1.0000     0.63171340    -0.63171340     0.63171340
    5 H                    1.0000    -0.63171340     0.63171340     0.63171340

      Atomic Mass 
      ----------- 

      C                 12.000000
      H                  1.007825


 Effective nuclear repulsion energy (a.u.)      13.3843123395

            Nuclear Dipole moment (a.u.) 
            ----------------------------
        X                 Y               Z
 ---------------- ---------------- ----------------
     0.0000000000     0.0000000000     0.0000000000

      Symmetry information
      --------------------

 Group name              Td       
 Group number             42
 Group order              24
 No. of unique centers     2

      Symmetry unique atoms

     1    2


                                 NWChem DFT Module
                                 -----------------


                                 H4C1 dft optimize



  The DFT is already converged 

         Total DFT energy =    -40.520627950377



                            NWChem DFT Gradient Module
                            --------------------------


                                 H4C1 dft optimize



  charge          =   0.00
  wavefunction    = closed shell

  Using symmetry


                         DFT ENERGY GRADIENTS

    atom               coordinates                        gradient
                 x          y          z           x          y          z
   1 C       0.000000   0.000000   0.000000    0.000000   0.000000   0.000000
   2 H       1.193765   1.193765  -1.193765    0.000022   0.000022  -0.000022
   3 H      -1.193765  -1.193765  -1.193765   -0.000022  -0.000022  -0.000022
   4 H       1.193765  -1.193765   1.193765    0.000022  -0.000022   0.000022
   5 H      -1.193765   1.193765   1.193765   -0.000022   0.000022   0.000022

                 ----------------------------------------
                 |  Time  |  1-e(secs)   |  2-e(secs)   |
                 ----------------------------------------
                 |  CPU   |       0.00   |       0.06   |
                 ----------------------------------------
                 |  WALL  |       0.00   |       0.06   |
                 ----------------------------------------

  Step       Energy      Delta E   Gmax     Grms     Xrms     Xmax   Walltime
  ---- ---------------- -------- -------- -------- -------- -------- --------
@    1     -40.52062795 -6.7D-05  0.00004  0.00002  0.00503  0.00563      1.0
                                     ok       ok                    



                                Z-matrix (autoz)
                                -------- 

 Units are Angstrom for bonds and degrees for angles

      Type          Name      I     J     K     L     M      Value     Gradient
      ----------- --------  ----- ----- ----- ----- ----- ---------- ----------
    1 Stretch                  1     2                       1.09416    0.00004
    2 Stretch                  1     3                       1.09416    0.00004
    3 Stretch                  1     4                       1.09416    0.00004
    4 Stretch                  1     5                       1.09416    0.00004
    5 Bend                     2     1     3               109.47122    0.00000
    6 Bend                     2     1     4               109.47122   -0.00000
    7 Bend                     2     1     5               109.47122   -0.00000
    8 Bend                     3     1     4               109.47122   -0.00000
    9 Bend                     3     1     5               109.47122   -0.00000
   10 Bend                     4     1     5               109.47122    0.00000


                                 NWChem DFT Module
                                 -----------------


                                 H4C1 dft optimize


  Caching 1-el integrals 

            General Information
            -------------------
          SCF calculation type: DFT
          Wavefunction type:  closed shell.
          No. of atoms     :     5
          No. of electrons :    10
           Alpha electrons :     5
            Beta electrons :     5
          Charge           :     0
          Spin multiplicity:     1
          Use of symmetry is: on ; symmetry adaption is: on 
          Maximum number of iterations:  30
          AO basis - number of functions:    31
                     number of shells:    20
          Convergence on energy requested: 1.00D-06
          Convergence on density requested: 1.00D-05
          Convergence on gradient requested: 5.00D-04

              XC Information
              --------------
                         B3LYP Method XC Potential
                     Hartree-Fock (Exact) Exchange  0.200          
                        Slater Exchange Functional  0.800 local    
                    Becke 1988 Exchange Functional  0.720 non-local
              Lee-Yang-Parr Correlation Functional  0.810          
                  VWN I RPA Correlation Functional  0.190 local    

             Grid Information
             ----------------
          Grid used for XC integration:  medium    
          Radial quadrature: Mura-Knowles        
          Angular quadrature: Lebedev. 
          Tag              B.-S. Rad. Rad. Pts. Rad. Cut. Ang. Pts.
          ---              ---------- --------- --------- ---------
          C                   0.70       49          10.0       434
          H                   0.35       45          11.0       434
          Grid pruning is: on 
          Number of quadrature shells:    94
          Spatial weights used:  Erf1

          Convergence Information
          -----------------------
          Convergence aids based upon iterative change in 
          total energy or number of iterations. 
          Levelshifting, if invoked, occurs when the 
          HOMO/LUMO gap drops below (HL_TOL): 1.00D-02
          DIIS, if invoked, will attempt to extrapolate 
          using up to (NFOCK): 10 stored Fock matrices.

                    Damping( 0%)  Levelshifting(0.5)       DIIS
                  --------------- ------------------- ---------------
          dE  on:    start            ASAP                start   
          dE off:    2 iters         30 iters            30 iters 


      Screening Tolerance Information
      -------------------------------
          Density screening/tol_rho: 1.00D-10
          AO Gaussian exp screening on grid/accAOfunc:  14
          CD Gaussian exp screening on grid/accCDfunc:  20
          XC Gaussian exp screening on grid/accXCfunc:  20
          Schwarz screening/accCoul: 1.00D-08


 Loading old vectors from job with title :

H4C1 dft optimize


      Symmetry analysis of molecular orbitals - initial
      -------------------------------------------------

  Numbering of irreducible representations: 

     1 a1          2 a2          3 e           4 t1          5 t2      

  Orbital symmetries:

     1 a1          2 a1          3 t2          4 t2          5 t2      
     6 a1          7 t2          8 t2          9 t2         10 t2      
    11 t2         12 t2         13 a1         14 t2         15 t2      

   Time after variat. SCF:      0.9
   Time prior to 1st pass:      0.9

 #quartets = 4.038D+03 #integrals = 2.585D+04 #direct =  0.0% #cached =100.0%


 Integral file          = ./H4C1.aoints.0
 Record size in doubles =  65536        No. of integs per rec  =  43688
 Max. records in memory =      2        Max. records in file   = 193603
 No. of bits per label  =      8        No. of bits per value  =     64


 Grid_pts file          = ./H4C1.gridpts.0
 Record size in doubles =  12289        No. of grid_pts per rec  =   3070
 Max. records in memory =     16        Max. recs in file   =   1032472


           Memory utilization after 1st SCF pass: 
           Heap Space remaining (MW):       12.78            12777676
          Stack Space remaining (MW):       13.11            13106948

   convergence    iter        energy       DeltaE   RMS-Dens  Diis-err    time
 ---------------- ----- ----------------- --------- --------- ---------  ------
 d= 0,ls=0.0,diis     1    -40.5206279566 -5.39D+01  3.74D-06  1.09D-08     1.0
 d= 0,ls=0.0,diis     2    -40.5206279568 -1.47D-10  1.96D-06  1.17D-08     1.0
 d= 0,ls=0.0,diis     3    -40.5206279583 -1.50D-09  1.36D-07  7.81D-11     1.0
 d= 0,ls=0.0,diis     4    -40.5206279583 -8.42D-12  8.61D-09  1.10D-13     1.1
 d= 0,ls=0.0,diis     5    -40.5206279583 -3.27D-13  4.31D-10  5.88D-16     1.1
  Singularity in Pulay matrix. Error and Fock matrices removed. 
  Singularity in Pulay matrix. Error and Fock matrices removed. 
  Singularity in Pulay matrix. Error and Fock matrices removed. 
  Singularity in Pulay matrix. Error and Fock matrices removed. 
  Resetting Diis
 d= 0,ls=0.0,diis     6    -40.5206279583 -5.83D-13  2.45D-11  2.13D-19     1.1
 d= 0,ls=0.0,diis     7    -40.5206279583  5.54D-13  2.52D-12  3.08D-21     1.1


         Total DFT energy =      -40.520627958293
      One electron energy =      -79.693578307428
           Coulomb energy =       32.678321381799
    Exchange-Corr. energy =       -6.890361058586
 Nuclear repulsion energy =       13.384990025921

 Numeric. integr. density =       10.000009053194

     Total iterative time =      0.2s



                  Occupations of the irreducible representations
                  ----------------------------------------------

                     irrep           alpha         beta
                     --------     --------     --------
                     a1                2.0          2.0
                     a2                0.0          0.0
                     e                 0.0          0.0
                     t1                0.0          0.0
                     t2                3.0          3.0


                       DFT Final Molecular Orbital Analysis
                       ------------------------------------

 Vector    1  Occ=2.000000D+00  E=-1.017252D+01  Symmetry=a1
              MO Center=  9.0D-18,  1.4D-19,  9.9D-19, r^2= 2.8D-02
   Bfn.  Coefficient  Atom+Function         Bfn.  Coefficient  Atom+Function  
  ----- ------------  ---------------      ----- ------------  ---------------
     1      0.992822  1 C  s          

 Vector    2  Occ=2.000000D+00  E=-6.958550D-01  Symmetry=a1
              MO Center=  5.3D-18, -6.0D-19, -1.8D-17, r^2= 1.0D+00
   Bfn.  Coefficient  Atom+Function         Bfn.  Coefficient  Atom+Function  
  ----- ------------  ---------------      ----- ------------  ---------------
     6      0.389830  1 C  s                  2      0.378951  1 C  s          
     1     -0.198914  1 C  s          

 Vector    3  Occ=2.000000D+00  E=-3.945562D-01  Symmetry=t2
              MO Center=  2.3D-01,  1.9D-01, -1.6D-01, r^2= 1.2D+00
   Bfn.  Coefficient  Atom+Function         Bfn.  Coefficient  Atom+Function  
  ----- ------------  ---------------      ----- ------------  ---------------
     5      0.302018  1 C  pz                20     -0.293296  2 H  s          
     4     -0.255890  1 C  py                21     -0.221665  2 H  s          
     3     -0.209688  1 C  px         

 Vector    4  Occ=2.000000D+00  E=-3.945562D-01  Symmetry=t2
              MO Center= -2.8D-01,  5.0D-02,  6.9D-02, r^2= 1.3D+00
   Bfn.  Coefficient  Atom+Function         Bfn.  Coefficient  Atom+Function  
  ----- ------------  ---------------      ----- ------------  ---------------
     4      0.359198  1 C  py                 5      0.259887  1 C  pz         
    29      0.261013  5 H  s                 23     -0.212088  3 H  s          
    30      0.197266  5 H  s                  8      0.169724  1 C  py         
    24     -0.160290  3 H  s          

 Vector    5  Occ=2.000000D+00  E=-3.945562D-01  Symmetry=t2
              MO Center=  4.8D-02, -2.4D-01,  9.2D-02, r^2= 1.3D+00
   Bfn.  Coefficient  Atom+Function         Bfn.  Coefficient  Atom+Function  
  ----- ------------  ---------------      ----- ------------  ---------------
     3      0.390635  1 C  px                26      0.257471  4 H  s          
     5      0.204713  1 C  pz                23     -0.197490  3 H  s          
    27      0.194589  4 H  s                  7      0.184578  1 C  px         

 Vector    6  Occ=0.000000D+00  E=-5.072068D-03  Symmetry=a1
              MO Center=  5.6D-17,  3.3D-16,  0.0D+00, r^2= 1.1D+01
   Bfn.  Coefficient  Atom+Function         Bfn.  Coefficient  Atom+Function  
  ----- ------------  ---------------      ----- ------------  ---------------
    10      2.704853  1 C  s                 22     -0.913001  2 H  s          
    25     -0.913001  3 H  s                 28     -0.913001  4 H  s          
    31     -0.913001  5 H  s                  6      0.575264  1 C  s          
    21     -0.204270  2 H  s                 24     -0.204270  3 H  s          
    27     -0.204270  4 H  s                 30     -0.204270  5 H  s          

 Vector    7  Occ=0.000000D+00  E= 4.071226D-02  Symmetry=t2
              MO Center=  6.0D-01, -5.0D-01,  1.3D-01, r^2= 1.3D+01
   Bfn.  Coefficient  Atom+Function         Bfn.  Coefficient  Atom+Function  
  ----- ------------  ---------------      ----- ------------  ---------------
    28      3.124245  4 H  s                 22     -2.185302  2 H  s          
    25     -2.007973  3 H  s                 31      1.069030  5 H  s          
    13     -0.936458  1 C  pz                12      0.249290  1 C  py         
    11     -0.209688  1 C  px                 5     -0.169492  1 C  pz         

 Vector    8  Occ=0.000000D+00  E= 4.071226D-02  Symmetry=t2
              MO Center= -7.0D-01,  2.6D-01,  7.4D-01, r^2= 1.2D+01
   Bfn.  Coefficient  Atom+Function         Bfn.  Coefficient  Atom+Function  
  ----- ------------  ---------------      ----- ------------  ---------------
    31      3.402995  5 H  s                 28     -2.021171  4 H  s          
    25     -1.934096  3 H  s                 12     -0.883305  1 C  py         
    22      0.552272  2 H  s                 11      0.328040  1 C  px         
    13     -0.308594  1 C  pz                 4     -0.159872  1 C  py         

 Vector    9  Occ=0.000000D+00  E= 4.071226D-02  Symmetry=t2
              MO Center=  1.0D-01,  2.4D-01, -8.8D-01, r^2= 1.3D+01
   Bfn.  Coefficient  Atom+Function         Bfn.  Coefficient  Atom+Function  
  ----- ------------  ---------------      ----- ------------  ---------------
    22      3.114944  2 H  s                 25     -2.647781  3 H  s          
    31     -1.435350  5 H  s                 28      0.968186  4 H  s          
    11     -0.911860  1 C  px                12     -0.375094  1 C  py         
     3     -0.165040  1 C  px         

 Vector   10  Occ=0.000000D+00  E= 1.013369D-01  Symmetry=t2
              MO Center=  4.3D-01,  1.8D-01,  1.2D-01, r^2= 8.9D+00
   Bfn.  Coefficient  Atom+Function         Bfn.  Coefficient  Atom+Function  
  ----- ------------  ---------------      ----- ------------  ---------------
    25      4.527439  3 H  s                 31     -3.212414  5 H  s          
    13      2.593192  1 C  pz                12      1.788228  1 C  py         
    28     -1.368504  4 H  s                 24      0.765747  3 H  s          
    11      0.744417  1 C  px                30     -0.543331  5 H  s          
    27     -0.231462  4 H  s                  9      0.178477  1 C  pz         

 Vector   11  Occ=0.000000D+00  E= 1.013369D-01  Symmetry=t2
              MO Center= -4.4D-01,  2.8D-02, -4.2D-02, r^2= 8.9D+00
   Bfn.  Coefficient  Atom+Function         Bfn.  Coefficient  Atom+Function  
  ----- ------------  ---------------      ----- ------------  ---------------
    28     -4.111748  4 H  s                 22      3.811595  2 H  s          
    12     -2.683538  1 C  py                13      1.801753  1 C  pz         
    31      0.928921  5 H  s                 27     -0.695439  4 H  s          
    21      0.644673  2 H  s                 25     -0.628768  3 H  s          
     8     -0.184695  1 C  py                11      0.169913  1 C  px         

 Vector   12  Occ=0.000000D+00  E= 1.013369D-01  Symmetry=t2
              MO Center=  1.8D-02, -2.1D-01, -8.0D-02, r^2= 9.1D+00
   Bfn.  Coefficient  Atom+Function         Bfn.  Coefficient  Atom+Function  
  ----- ------------  ---------------      ----- ------------  ---------------
    31      3.652017  5 H  s                 11      3.145399  1 C  px         
    22     -3.160477  2 H  s                 28     -2.395924  4 H  s          
    25      1.904384  3 H  s                 13     -0.711056  1 C  pz         
    30      0.617683  5 H  s                 21     -0.534546  2 H  s          
    27     -0.405234  4 H  s                 24      0.322097  3 H  s          

 Vector   13  Occ=0.000000D+00  E= 1.376577D-01  Symmetry=a1
              MO Center= -2.3D-14,  2.6D-14, -3.4D-14, r^2= 1.2D+01
   Bfn.  Coefficient  Atom+Function         Bfn.  Coefficient  Atom+Function  
  ----- ------------  ---------------      ----- ------------  ---------------
    10      8.589068  1 C  s                 22     -1.930195  2 H  s          
    25     -1.930195  3 H  s                 28     -1.930195  4 H  s          
    31     -1.930195  5 H  s                  6     -1.158092  1 C  s          
     2     -0.176482  1 C  s          

 Vector   14  Occ=0.000000D+00  E= 2.157130D-01  Symmetry=t2
              MO Center= -4.2D-01, -1.9D-01, -5.4D-01, r^2= 5.8D+00
   Bfn.  Coefficient  Atom+Function         Bfn.  Coefficient  Atom+Function  
  ----- ------------  ---------------      ----- ------------  ---------------
    25      3.382471  3 H  s                 22     -2.045400  2 H  s          
    31     -1.686839  5 H  s                 24     -1.660929  3 H  s          
    12      1.447952  1 C  py                 8     -1.215819  1 C  py         
    21      1.004373  2 H  s                 30      0.828305  5 H  s          
    11      0.657834  1 C  px                 7     -0.552371  1 C  px         

 Vector   15  Occ=0.000000D+00  E= 2.157130D-01  Symmetry=t2
              MO Center= -1.6D-01,  5.6D-01,  3.5D-01, r^2= 5.9D+00
   Bfn.  Coefficient  Atom+Function         Bfn.  Coefficient  Atom+Function  
  ----- ------------  ---------------      ----- ------------  ---------------
    31      3.314795  5 H  s                 22     -2.222286  2 H  s          
    30     -1.627697  5 H  s                 28     -1.563438  4 H  s          
    11      1.468701  1 C  px                 7     -1.233243  1 C  px         
    21      1.091231  2 H  s                 27      0.767711  4 H  s          
    13     -0.679453  1 C  pz                 9      0.570525  1 C  pz         

 Vector   16  Occ=0.000000D+00  E= 2.157130D-01  Symmetry=t2
              MO Center=  5.8D-01, -3.7D-01,  1.9D-01, r^2= 5.8D+00
   Bfn.  Coefficient  Atom+Function         Bfn.  Coefficient  Atom+Function  
  ----- ------------  ---------------      ----- ------------  ---------------
    28      3.373088  4 H  s                 22     -2.195947  2 H  s          
    27     -1.656321  4 H  s                 25     -1.510469  3 H  s          
    13     -1.437934  1 C  pz                 9      1.207407  1 C  pz         
    21      1.078298  2 H  s                 24      0.741701  3 H  s          
    12      0.722618  1 C  py                 8     -0.606769  1 C  py         

 Vector   17  Occ=0.000000D+00  E= 3.473348D-01  Symmetry=a1
              MO Center=  6.3D-15, -1.2D-15,  3.8D-17, r^2= 6.1D+00
   Bfn.  Coefficient  Atom+Function         Bfn.  Coefficient  Atom+Function  
  ----- ------------  ---------------      ----- ------------  ---------------
    10      8.355621  1 C  s                  6      3.197025  1 C  s          
    21     -2.067841  2 H  s                 24     -2.067841  3 H  s          
    27     -2.067841  4 H  s                 30     -2.067841  5 H  s          
    22     -1.428143  2 H  s                 25     -1.428143  3 H  s          
    28     -1.428143  4 H  s                 31     -1.428143  5 H  s          

 Vector   18  Occ=0.000000D+00  E= 6.997215D-01  Symmetry=t2
              MO Center= -4.6D-02, -2.0D-02,  1.8D-01, r^2= 3.3D+00
   Bfn.  Coefficient  Atom+Function         Bfn.  Coefficient  Atom+Function  
  ----- ------------  ---------------      ----- ------------  ---------------
    22      1.873886  2 H  s                  8      1.705660  1 C  py         
    12     -1.621817  1 C  py                25     -1.599064  3 H  s          
    28     -0.831895  4 H  s                  4     -0.826018  1 C  py         
     7      0.731103  1 C  px                11     -0.695166  1 C  px         
    31      0.557072  5 H  s                  3     -0.354059  1 C  px         


 center of mass
 --------------
 x =   0.00000000 y =   0.00000000 z =   0.00000000

 moments of inertia (a.u.)
 ------------------
          11.488649831970           0.000000000000           0.000000000000
           0.000000000000          11.488649831970           0.000000000000
           0.000000000000           0.000000000000          11.488649831970

     Multipole analysis of the density
     ---------------------------------

     L   x y z        total         alpha         beta         nuclear
     -   - - -        -----         -----         ----         -------
     0   0 0 0     -0.000000     -5.000000     -5.000000     10.000000

     1   1 0 0      0.000000      0.000000      0.000000      0.000000
     1   0 1 0     -0.000000     -0.000000     -0.000000      0.000000
     1   0 0 1      0.000000      0.000000      0.000000      0.000000

     2   2 0 0     -6.333966     -6.016845     -6.016845      5.699725
     2   1 1 0     -0.000000     -0.000000     -0.000000      0.000000
     2   1 0 1      0.000000      0.000000      0.000000      0.000000
     2   0 2 0     -6.333966     -6.016845     -6.016845      5.699725
     2   0 1 1      0.000000      0.000000      0.000000      0.000000
     2   0 0 2     -6.333966     -6.016845     -6.016845      5.699725


 Parallel integral file used       1 records with       0 large values

 Line search: 
     step= 1.00 grad=-1.6D-08 hess= 7.8D-09 energy=    -40.520628 mode=accept  
 new step= 1.00                   predicted energy=    -40.520628

          --------
          Step   2
          --------


                         Geometry "geometry" -> "geometry"
                         ---------------------------------

 Output coordinates in angstroms (scale by  1.889725989 to convert to a.u.)

  No.       Tag          Charge          X              Y              Z
 ---- ---------------- ---------- -------------- -------------- --------------
    1 C                    6.0000     0.00000000     0.00000000     0.00000000
    2 H                    1.0000     0.63168142     0.63168142    -0.63168142
    3 H                    1.0000    -0.63168142    -0.63168142    -0.63168142
    4 H                    1.0000     0.63168142    -0.63168142     0.63168142
    5 H                    1.0000    -0.63168142     0.63168142     0.63168142

      Atomic Mass 
      ----------- 

      C                 12.000000
      H                  1.007825


 Effective nuclear repulsion energy (a.u.)      13.3849900259

            Nuclear Dipole moment (a.u.) 
            ----------------------------
        X                 Y               Z
 ---------------- ---------------- ----------------
     0.0000000000     0.0000000000     0.0000000000

      Symmetry information
      --------------------

 Group name              Td       
 Group number             42
 Group order              24
 No. of unique centers     2

      Symmetry unique atoms

     1    2


                                 NWChem DFT Module
                                 -----------------


                                 H4C1 dft optimize



  The DFT is already converged 

         Total DFT energy =    -40.520627958293



                            NWChem DFT Gradient Module
                            --------------------------


                                 H4C1 dft optimize



  charge          =   0.00
  wavefunction    = closed shell

  Using symmetry


                         DFT ENERGY GRADIENTS

    atom               coordinates                        gradient
                 x          y          z           x          y          z
   1 C       0.000000   0.000000   0.000000    0.000000   0.000000   0.000000
   2 H       1.193705   1.193705  -1.193705    0.000000   0.000000  -0.000000
   3 H      -1.193705  -1.193705  -1.193705   -0.000000  -0.000000  -0.000000
   4 H       1.193705  -1.193705   1.193705    0.000000  -0.000000   0.000000
   5 H      -1.193705   1.193705   1.193705   -0.000000   0.000000   0.000000

                 ----------------------------------------
                 |  Time  |  1-e(secs)   |  2-e(secs)   |
                 ----------------------------------------
                 |  CPU   |       0.00   |       0.06   |
                 ----------------------------------------
                 |  WALL  |       0.00   |       0.06   |
                 ----------------------------------------

  Step       Energy      Delta E   Gmax     Grms     Xrms     Xmax   Walltime
  ---- ---------------- -------- -------- -------- -------- -------- --------
@    2     -40.52062796 -7.9D-09  0.00000  0.00000  0.00005  0.00006      1.4
                                     ok       ok       ok       ok  



                                Z-matrix (autoz)
                                -------- 

 Units are Angstrom for bonds and degrees for angles

      Type          Name      I     J     K     L     M      Value     Gradient
      ----------- --------  ----- ----- ----- ----- ----- ---------- ----------
    1 Stretch                  1     2                       1.09410    0.00000
    2 Stretch                  1     3                       1.09410    0.00000
    3 Stretch                  1     4                       1.09410    0.00000
    4 Stretch                  1     5                       1.09410    0.00000
    5 Bend                     2     1     3               109.47122    0.00000
    6 Bend                     2     1     4               109.47122   -0.00000
    7 Bend                     2     1     5               109.47122   -0.00000
    8 Bend                     3     1     4               109.47122   -0.00000
    9 Bend                     3     1     5               109.47122   -0.00000
   10 Bend                     4     1     5               109.47122    0.00000


      ----------------------
      Optimization converged
      ----------------------


  Step       Energy      Delta E   Gmax     Grms     Xrms     Xmax   Walltime
  ---- ---------------- -------- -------- -------- -------- -------- --------
@    2     -40.52062796 -7.9D-09  0.00000  0.00000  0.00005  0.00006      1.4
                                     ok       ok       ok       ok  



                                Z-matrix (autoz)
                                -------- 

 Units are Angstrom for bonds and degrees for angles

      Type          Name      I     J     K     L     M      Value     Gradient
      ----------- --------  ----- ----- ----- ----- ----- ---------- ----------
    1 Stretch                  1     2                       1.09410    0.00000
    2 Stretch                  1     3                       1.09410    0.00000
[...]
    15      1.249533  1 C  px                26      1.051692  2 H  s          
    48      0.824790  5 H  s                 47     -0.565814  5 H  s          

 Vector   16  Occ=0.000000D+00  E= 3.203358D-01  Symmetry=t2
              MO Center= -5.4D-01,  1.8D-01,  4.7D-01, r^2= 6.5D+00
   Bfn.  Coefficient  Atom+Function         Bfn.  Coefficient  Atom+Function  
  ----- ------------  ---------------      ----- ------------  ---------------
    48      3.289330  5 H  s                 47     -2.256512  5 H  s          
    34     -2.012742  3 H  s                 41     -1.830968  4 H  s          
    33      1.380760  3 H  s                 12      1.283416  1 C  py         
    40      1.256062  4 H  s                 16     -1.218936  1 C  py         
    27      0.554380  2 H  s                 13      0.486948  1 C  pz         

 Vector   17  Occ=0.000000D+00  E= 4.006596D-01  Symmetry=a1
              MO Center= -1.0D-14,  2.2D-14, -2.1D-14, r^2= 8.3D+00
   Bfn.  Coefficient  Atom+Function         Bfn.  Coefficient  Atom+Function  
  ----- ------------  ---------------      ----- ------------  ---------------
    14     15.845686  1 C  s                 10      3.968452  1 C  s          
    26     -3.486296  2 H  s                 33     -3.486296  3 H  s          
    40     -3.486296  4 H  s                 47     -3.486296  5 H  s          
    27     -2.219577  2 H  s                 34     -2.219577  3 H  s          
    41     -2.219577  4 H  s                 48     -2.219577  5 H  s          

 Vector   18  Occ=0.000000D+00  E= 5.498929D-01  Symmetry=t2
              MO Center= -1.3D-03,  1.6D-03, -1.5D-01, r^2= 4.6D+00
   Bfn.  Coefficient  Atom+Function         Bfn.  Coefficient  Atom+Function  
  ----- ------------  ---------------      ----- ------------  ---------------
    40      1.533312  4 H  s                 47     -1.518571  5 H  s          
    15     -1.372369  1 C  px                39     -1.306446  4 H  s          
    46      1.293887  5 H  s                 16      1.139227  1 C  py         
    41      1.101321  4 H  s                 48     -1.090734  5 H  s          
    11      0.979440  1 C  px                12     -0.813050  1 C  py         


                     DFT Final Beta Molecular Orbital Analysis
                     -----------------------------------------

 Vector    1  Occ=1.000000D+00  E=-9.997846D+00  Symmetry=a1
              MO Center=  6.4D-21, -4.2D-21, -3.5D-21, r^2= 2.8D-02
   Bfn.  Coefficient  Atom+Function         Bfn.  Coefficient  Atom+Function  
  ----- ------------  ---------------      ----- ------------  ---------------
     1      0.563547  1 C  s                  2      0.459461  1 C  s          

 Vector    2  Occ=1.000000D+00  E=-5.387316D-01  Symmetry=a1
              MO Center=  1.1D-16,  5.1D-17, -2.8D-18, r^2= 1.0D+00
   Bfn.  Coefficient  Atom+Function         Bfn.  Coefficient  Atom+Function  
  ----- ------------  ---------------      ----- ------------  ---------------
     6      0.438906  1 C  s                 10      0.291865  1 C  s          
     2     -0.170310  1 C  s          

 Vector    3  Occ=1.000000D+00  E=-2.385231D-01  Symmetry=t2
              MO Center= -1.2D-01,  1.0D-01,  2.2D-02, r^2= 1.3D+00
   Bfn.  Coefficient  Atom+Function         Bfn.  Coefficient  Atom+Function  
  ----- ------------  ---------------      ----- ------------  ---------------
     9      0.277744  1 C  pz                 5      0.196173  1 C  pz         
    46      0.196103  5 H  s                 13      0.192224  1 C  pz         

 Vector    4  Occ=1.000000D+00  E=-2.385231D-01  Symmetry=t2
              MO Center=  1.4D-01, -3.3D-02,  1.2D-01, r^2= 1.3D+00
   Bfn.  Coefficient  Atom+Function         Bfn.  Coefficient  Atom+Function  
  ----- ------------  ---------------      ----- ------------  ---------------
     8      0.272528  1 C  py                39     -0.205190  4 H  s          
     4      0.192489  1 C  py                12      0.188614  1 C  py         

 Vector    5  Occ=1.000000D+00  E=-2.385231D-01  Symmetry=t2
              MO Center= -1.8D-02, -6.8D-02, -1.5D-01, r^2= 1.3D+00
   Bfn.  Coefficient  Atom+Function         Bfn.  Coefficient  Atom+Function  
  ----- ------------  ---------------      ----- ------------  ---------------
     7      0.277276  1 C  px                 3      0.195843  1 C  px         
    32     -0.193763  3 H  s                 11      0.191901  1 C  px         
    25      0.159181  2 H  s          

 Vector    6  Occ=0.000000D+00  E= 1.040720D-01  Symmetry=a1
              MO Center= -1.0D-15, -3.5D-16,  2.7D-17, r^2= 1.4D+01
   Bfn.  Coefficient  Atom+Function         Bfn.  Coefficient  Atom+Function  
  ----- ------------  ---------------      ----- ------------  ---------------
    14      5.792045  1 C  s                 27     -1.472783  2 H  s          
    34     -1.472783  3 H  s                 41     -1.472783  4 H  s          
    48     -1.472783  5 H  s                 26     -0.442657  2 H  s          
    33     -0.442657  3 H  s                 40     -0.442657  4 H  s          
    47     -0.442657  5 H  s                 10      0.290729  1 C  s          

 Vector    7  Occ=0.000000D+00  E= 1.425635D-01  Symmetry=t2
              MO Center= -1.3D+00, -1.1D-01, -1.7D-01, r^2= 1.4D+01
   Bfn.  Coefficient  Atom+Function         Bfn.  Coefficient  Atom+Function  
  ----- ------------  ---------------      ----- ------------  ---------------
    34      3.826117  3 H  s                 48     -3.429905  5 H  s          
    16      1.034771  1 C  py                27     -0.954867  2 H  s          
    17      0.677592  1 C  pz                41      0.558656  4 H  s          
    33     -0.359504  3 H  s                 47      0.322276  5 H  s          

 Vector    8  Occ=0.000000D+00  E= 1.425635D-01  Symmetry=t2
              MO Center=  1.3D+00,  1.4D-01, -9.1D-02, r^2= 1.4D+01
   Bfn.  Coefficient  Atom+Function         Bfn.  Coefficient  Atom+Function  
  ----- ------------  ---------------      ----- ------------  ---------------
    27      3.787812  2 H  s                 41     -3.468417  4 H  s          
    17      1.038917  1 C  pz                48     -0.933921  5 H  s          
    16     -0.673495  1 C  py                34      0.614526  3 H  s          
    26     -0.355905  2 H  s                 40      0.325894  4 H  s          

 Vector    9  Occ=0.000000D+00  E= 1.425635D-01  Symmetry=t2
              MO Center=  2.6D-03, -2.7D-02,  2.6D-01, r^2= 1.5D+01
   Bfn.  Coefficient  Atom+Function         Bfn.  Coefficient  Atom+Function  
  ----- ------------  ---------------      ----- ------------  ---------------
    41      2.894555  4 H  s                 48     -2.843239  5 H  s          
    34     -2.388232  3 H  s                 27      2.336916  2 H  s          
    15     -1.234585  1 C  px                40     -0.271974  4 H  s          
    47      0.267152  5 H  s                 33      0.224400  3 H  s          
    26     -0.219578  2 H  s          

 Vector   10  Occ=0.000000D+00  E= 2.108487D-01  Symmetry=t2
              MO Center= -4.4D-01, -4.7D-02,  1.3D-01, r^2= 9.5D+00
   Bfn.  Coefficient  Atom+Function         Bfn.  Coefficient  Atom+Function  
  ----- ------------  ---------------      ----- ------------  ---------------
    27      3.831221  2 H  s                 16     -3.325414  1 C  py         
    41     -3.281004  4 H  s                 34     -1.927753  3 H  s          
    48      1.377537  5 H  s                 17      1.215226  1 C  pz         
    26      1.012490  2 H  s                 40     -0.867083  4 H  s          
    33     -0.509454  3 H  s                 47      0.364046  5 H  s          

 Vector   11  Occ=0.000000D+00  E= 2.108487D-01  Symmetry=t2
              MO Center=  3.0D-01,  5.5D-01,  1.7D-01, r^2= 9.3D+00
   Bfn.  Coefficient  Atom+Function         Bfn.  Coefficient  Atom+Function  
  ----- ------------  ---------------      ----- ------------  ---------------
    34      4.380537  3 H  s                 17      3.006078  1 C  pz         
    41     -2.935268  4 H  s                 48     -1.773298  5 H  s          
    15      1.664533  1 C  px                33      1.157660  3 H  s          
    16      0.922700  1 C  py                40     -0.775713  4 H  s          
    47     -0.468636  5 H  s                 27      0.328029  2 H  s          

 Vector   12  Occ=0.000000D+00  E= 2.108487D-01  Symmetry=t2
              MO Center=  1.4D-01, -5.0D-01, -2.9D-01, r^2= 9.4D+00
   Bfn.  Coefficient  Atom+Function         Bfn.  Coefficient  Atom+Function  
  ----- ------------  ---------------      ----- ------------  ---------------
    48      4.272075  5 H  s                 15      3.124818  1 C  px         
    27     -2.916669  2 H  s                 41     -1.977885  4 H  s          
    17     -1.464674  1 C  pz                47      1.128996  5 H  s          
    16     -0.865329  1 C  py                26     -0.770798  2 H  s          
    34      0.622479  3 H  s                 40     -0.522703  4 H  s          

 Vector   13  Occ=0.000000D+00  E= 2.381436D-01  Symmetry=a1
              MO Center=  2.4D-13, -2.7D-14,  8.2D-14, r^2= 1.2D+01
   Bfn.  Coefficient  Atom+Function         Bfn.  Coefficient  Atom+Function  
  ----- ------------  ---------------      ----- ------------  ---------------
    14     13.237450  1 C  s                 27     -2.497734  2 H  s          
    34     -2.497734  3 H  s                 41     -2.497734  4 H  s          
    48     -2.497734  5 H  s                 26     -1.061723  2 H  s          
    33     -1.061723  3 H  s                 40     -1.061723  4 H  s          
    47     -1.061723  5 H  s                 10     -0.835197  1 C  s          

 Vector   14  Occ=0.000000D+00  E= 3.247210D-01  Symmetry=t2
              MO Center=  6.4D-01, -3.8D-01,  6.2D-01, r^2= 6.3D+00
   Bfn.  Coefficient  Atom+Function         Bfn.  Coefficient  Atom+Function  
  ----- ------------  ---------------      ----- ------------  ---------------
    41      3.701904  4 H  s                 40     -2.481572  4 H  s          
    27     -1.715652  2 H  s                 48     -1.629594  5 H  s          
    26      1.150087  2 H  s                 12     -1.093461  1 C  py         
    47      1.092399  5 H  s                 16      1.056495  1 C  py         
    13      0.677376  1 C  pz                17     -0.654476  1 C  pz         

 Vector   15  Occ=0.000000D+00  E= 3.247210D-01  Symmetry=t2
              MO Center= -1.0D-01,  8.9D-01,  9.0D-02, r^2= 6.4D+00
   Bfn.  Coefficient  Atom+Function         Bfn.  Coefficient  Atom+Function  
  ----- ------------  ---------------      ----- ------------  ---------------
    48      3.268291  5 H  s                 27     -2.933248  2 H  s          
    47     -2.190899  5 H  s                 26      1.966303  2 H  s          
    13      1.082325  1 C  pz                17     -1.045735  1 C  pz         
    11     -0.944772  1 C  px                15      0.912833  1 C  px         
    34     -0.377930  3 H  s                 33      0.253345  3 H  s          

 Vector   16  Occ=0.000000D+00  E= 3.247210D-01  Symmetry=t2
              MO Center= -5.4D-01, -5.1D-01, -7.1D-01, r^2= 6.2D+00
   Bfn.  Coefficient  Atom+Function         Bfn.  Coefficient  Atom+Function  
  ----- ------------  ---------------      ----- ------------  ---------------
    34      3.781894  3 H  s                 33     -2.535193  3 H  s          
    27     -1.739353  2 H  s                 26      1.165975  2 H  s          
    48     -1.111509  5 H  s                 12     -0.931861  1 C  py         
    41     -0.931032  4 H  s                 16      0.900358  1 C  py         
    11     -0.872869  1 C  px                15      0.843360  1 C  px         

 Vector   17  Occ=0.000000D+00  E= 4.040840D-01  Symmetry=a1
              MO Center= -2.7D-14,  3.5D-14,  5.6D-14, r^2= 8.1D+00
   Bfn.  Coefficient  Atom+Function         Bfn.  Coefficient  Atom+Function  
  ----- ------------  ---------------      ----- ------------  ---------------
    14     15.458981  1 C  s                 10      3.970509  1 C  s          
    26     -3.443777  2 H  s                 33     -3.443777  3 H  s          
    40     -3.443777  4 H  s                 47     -3.443777  5 H  s          
    27     -2.150037  2 H  s                 34     -2.150037  3 H  s          
    41     -2.150037  4 H  s                 48     -2.150037  5 H  s          

 Vector   18  Occ=0.000000D+00  E= 5.525912D-01  Symmetry=t2
              MO Center=  4.2D-03,  1.4D-02,  8.3D-02, r^2= 4.7D+00
   Bfn.  Coefficient  Atom+Function         Bfn.  Coefficient  Atom+Function  
  ----- ------------  ---------------      ----- ------------  ---------------
    15      1.731258  1 C  px                33      1.412977  3 H  s          
    26     -1.307602  2 H  s                 11     -1.212252  1 C  px         
    32     -1.186469  3 H  s                 25      1.097986  2 H  s          
    34      1.005117  3 H  s                 27     -0.930159  2 H  s          
    40     -0.800071  4 H  s                 47      0.694696  5 H  s          


------------------------------------------------------------
EAF file 6: "./H4C1.aoints.0" size=524288 bytes
------------------------------------------------------------
               write      read    awrite     aread      wait
               -----      ----    ------     -----      ----
     calls:        1         9         0         0         0
   data(b): 5.24e+05  4.72e+06  0.00e+00  0.00e+00
   time(s): 1.80e-04  1.03e-03  0.00e+00  0.00e+00  0.00e+00
rate(mb/s): 2.91e+03  4.57e+03
------------------------------------------------------------


   alpha - beta orbital overlaps 
   ----------------------------- 


   alpha      1      2      3      4      5      6      7      8      9     10
    beta      1      2      4      3      5      6      9      7      8     12
 overlap   1.000  1.000  0.988  0.984  0.986  1.000  0.978  0.862  0.883  0.896


   alpha     11     12     13     14     15     16     17     18     19     20
    beta     10     11     13     15     16     14     17     20     18     19
 overlap   0.904  0.823  0.999  0.797  0.831  0.652  1.000  0.820  0.828  0.992


   alpha     21     22     23     24     25     26     27     28     29     30
    beta     22     21     23     24     25     26     27     30     28     29
 overlap   0.952  0.882  0.908  1.000  1.000  0.991  0.991  0.952  0.952  1.000


   alpha     31     32     33     34     35     36     37     38     39     40
    beta     32     33     31     34     35     36     37     38     39     42
 overlap   0.832  0.973  0.840  0.723  0.740  0.920  0.920  0.920  1.000  0.957


   alpha     41     42     43     44     45     46     47     48     49     50
    beta     41     40     43     45     44     46     47     49     50     48
 overlap   0.957  0.975  0.827  0.864  0.861  1.000  1.000  0.930  0.975  0.913


   alpha     51
    beta     51
 overlap   1.000

     --------------------------
     Expectation value of S2:  
     --------------------------
      <S2> =      0.7501 (Exact =     0.7500)


 center of mass
 --------------
 x =   0.00000000 y =   0.00000000 z =   0.00000000

 moments of inertia (a.u.)
 ------------------
          11.488649831970           0.000000000000           0.000000000000
           0.000000000000          11.488649831970           0.000000000000
           0.000000000000           0.000000000000          11.488649831970

     Multipole analysis of the density
     ---------------------------------

     L   x y z        total         alpha         beta         nuclear
     -   - - -        -----         -----         ----         -------
     0   0 0 0     -1.000000     -6.000000     -5.000000     10.000000

     1   1 0 0     -0.000000     -0.000000      0.000000      0.000000
     1   0 1 0     -0.000000     -0.000000      0.000000      0.000000
     1   0 0 1     -0.000000     -0.000000     -0.000000      0.000000

     2   2 0 0    -23.591537    -23.199339     -6.091922      5.699725
     2   1 1 0      0.000000      0.000000      0.000000      0.000000
     2   1 0 1      0.000000      0.000000      0.000000      0.000000
     2   0 2 0    -23.591537    -23.199339     -6.091922      5.699725
     2   0 1 1     -0.000000     -0.000000     -0.000000      0.000000
     2   0 0 2    -23.591537    -23.199339     -6.091922      5.699725


 Parallel integral file used       4 records with       0 large values


 Task  times  cpu:        5.3s     wall:        5.3s
 Summary of allocated global arrays
-----------------------------------
  No active global arrays



                         GA Statistics for process    0
                         ------------------------------

       create   destroy   get      put      acc     scatter   gather  read&inc
calls: 3255     3255     7.16e+05 5.60e+04 6.01e+05  392        0     7670     
number of processes/call 1.00e+00 1.00e+00 1.00e+00 1.00e+00 0.00e+00
bytes total:             4.09e+08 4.74e+07 3.15e+08 2.61e+06 0.00e+00 3.07e+04
bytes remote:            0.00e+00 0.00e+00 0.00e+00 0.00e+00 0.00e+00 0.00e+00
Max memory consumed for GA by this process: 1352520 bytes
MA_summarize_allocated_blocks: starting scan ...
MA_summarize_allocated_blocks: scan completed: 0 heap blocks, 0 stack blocks
MA usage statistics:

	allocation statistics:
					      heap	     stack
					      ----	     -----
	current number of blocks	         0	         0
	maximum number of blocks	        26	        52
	current total bytes		         0	         0
	maximum total bytes		   9222352	  76108808
	maximum total K-bytes		      9223	     76109
	maximum total M-bytes		        10	        77


                                NWChem Input Module
                                -------------------





                                     CITATION
                                     --------
                Please cite the following reference when publishing
                           results obtained with NWChem:

                 M. Valiev, E.J. Bylaska, N. Govind, K. Kowalski,
              T.P. Straatsma, H.J.J. van Dam, D. Wang, J. Nieplocha,
                        E. Apra, T.L. Windus, W.A. de Jong
                 "NWChem: a comprehensive and scalable open-source
                  solution for large scale molecular simulations"
                      Comput. Phys. Commun. 181, 1477 (2010)
                           doi:10.1016/j.cpc.2010.04.018

                              AUTHORS & CONTRIBUTORS
                              ----------------------
          E. Apra, E. J. Bylaska, W. A. de Jong, N. Govind, K. Kowalski,
       T. P. Straatsma, M. Valiev, H. J. J. van Dam, D. Wang, T. L. Windus,
        J. Hammond, J. Autschbach, K. Bhaskaran-Nair, J. Brabec, K. Lopata,
     F. Aquino, S. Hirata, M. T. Hackler, J. Mullin, P. Nichols, R. Peverati,
    J. Pittner, Y. Zhao, P.-D. Fan, R. J. Harrison, M. Dupuis, D. Silverstein,
    D. M. A. Smith, J. Nieplocha, V. Tipparaju, M. Krishnan, B. E. Van Kuiken,
        A. Vazquez-Mayagoitia, L. Jensen, M. Swart, Q. Wu, T. Van Voorhis,
     A. A. Auer, M. Nooijen, L. D. Crosby, E. Brown, G. Cisneros, G. I. Fann,
     H. Fruchtl, J. Garza, K. Hirao, R. Kendall, J. A. Nichols, K. Tsemekhman,
      K. Wolinski, J. Anchell, D. Bernholdt, P. Borowski, T. Clark, D. Clerc,
      H. Dachsel, M. Deegan, K. Dyall, D. Elwood, E. Glendening, M. Gutowski,
      A. Hess, J. Jaffe, B. Johnson, J. Ju, R. Kobayashi, R. Kutteh, Z. Lin,
   R. Littlefield, X. Long, B. Meng, T. Nakajima, S. Niu, L. Pollack, M. Rosing,
   K. Glaesemann, G. Sandrone, M. Stave, H. Taylor, G. Thomas, J. H. van Lenthe,
                                A. Wong, Z. Zhang.

 Total times  cpu:       50.1s     wall:       50.6s
