 Entering Gaussian System, Link 0=g09
 Input=g.com
 Output=g.log
 Initial command:
 /cluster/apps/gaussian/g09/l1.exe "/scratch/133741165.tmpdir/Gau-27393.inp" -scrdir="/scratch/133741165.tmpdir/"
 Entering Link 1 = /cluster/apps/gaussian/g09/l1.exe PID=     27400.
  
 Copyright (c) 1988,1990,1992,1993,1995,1998,2003,2009,2013,
            Gaussian, Inc.  All Rights Reserved.
  
 This is part of the Gaussian(R) 09 program.  It is based on
 the Gaussian(R) 03 system (copyright 2003, Gaussian, Inc.),
 the Gaussian(R) 98 system (copyright 1998, Gaussian, Inc.),
 the Gaussian(R) 94 system (copyright 1995, Gaussian, Inc.),
 the Gaussian 92(TM) system (copyright 1992, Gaussian, Inc.),
 the Gaussian 90(TM) system (copyright 1990, Gaussian, Inc.),
 the Gaussian 88(TM) system (copyright 1988, Gaussian, Inc.),
 the Gaussian 86(TM) system (copyright 1986, Carnegie Mellon
 University), and the Gaussian 82(TM) system (copyright 1983,
 Carnegie Mellon University). Gaussian is a federally registered
 trademark of Gaussian, Inc.
  
 This software contains proprietary and confidential information,
 including trade secrets, belonging to Gaussian, Inc.
  
 This software is provided under written license and may be
 used, copied, transmitted, or stored only in accord with that
 written license.
  
 The following legend is applicable only to US Government
 contracts under FAR:
  
                    RESTRICTED RIGHTS LEGEND
  
 Use, reproduction and disclosure by the US Government is
 subject to restrictions as set forth in subparagraphs (a)
 and (c) of the Commercial Computer Software - Restricted
 Rights clause in FAR 52.227-19.
  
 Gaussian, Inc.
 340 Quinnipiac St., Bldg. 40, Wallingford CT 06492
  
  
 ---------------------------------------------------------------
 Warning -- This program may not be used in any manner that
 competes with the business of Gaussian, Inc. or will provide
 assistance to any competitor of Gaussian, Inc.  The licensee
 of this program is prohibited from giving any competitor of
 Gaussian, Inc. access to this program.  By using this program,
 the user acknowledges that Gaussian, Inc. is engaged in the
 business of creating and licensing software in the field of
 computational chemistry and represents and warrants to the
 licensee that it is not a competitor of Gaussian, Inc. and that
 it will not use this program in any manner prohibited above.
 ---------------------------------------------------------------
  

 Cite this work as:
 Gaussian 09, Revision D.01,
 M. J. Frisch, G. W. Trucks, H. B. Schlegel, G. E. Scuseria, 
 M. A. Robb, J. R. Cheeseman, G. Scalmani, V. Barone, B. Mennucci, 
 G. A. Petersson, H. Nakatsuji, M. Caricato, X. Li, H. P. Hratchian, 
 A. F. Izmaylov, J. Bloino, G. Zheng, J. L. Sonnenberg, M. Hada, 
 M. Ehara, K. Toyota, R. Fukuda, J. Hasegawa, M. Ishida, T. Nakajima, 
 Y. Honda, O. Kitao, H. Nakai, T. Vreven, J. A. Montgomery, Jr., 
 J. E. Peralta, F. Ogliaro, M. Bearpark, J. J. Heyd, E. Brothers, 
 K. N. Kudin, V. N. Staroverov, T. Keith, R. Kobayashi, J. Normand, 
 K. Raghavachari, A. Rendell, J. C. Burant, S. S. Iyengar, J. Tomasi, 
 M. Cossi, N. Rega, J. M. Millam, M. Klene, J. E. Knox, J. B. Cross, 
 V. Bakken, C. Adamo, J. Jaramillo, R. Gomperts, R. E. Stratmann, 
 O. Yazyev, A. J. Austin, R. Cammi, C. Pomelli, J. W. Ochterski, 
 R. L. Martin, K. Morokuma, V. G. Zakrzewski, G. A. Voth, 
 P. Salvador, J. J. Dannenberg, S. Dapprich, A. D. Daniels, 
 O. Farkas, J. B. Foresman, J. V. Ortiz, J. Cioslowski, 
 and D. J. Fox, Gaussian, Inc., Wallingford CT, 2013.
 
 ******************************************
 Gaussian 09:  ES64L-G09RevD.01 24-Apr-2013
                 4-Aug-2020 
 ******************************************
 %chk=r-b3lyp-sto3g.chk
 ------------------------------------------------------
 #p b3lyp/sto-3g scf=(maxcycle=2048,cdiis,conver=7) opt
 ------------------------------------------------------
 1/14=-1,18=20,19=15,26=3,38=1/1,3;
 2/9=110,12=2,17=6,18=5,40=1/2;
 3/6=3,11=2,16=1,25=1,30=1,71=1,74=-5/1,2,3;
 4//1;
 5/5=2,6=7,7=2048,22=12,38=5/2;
 6/7=2,8=2,9=2,10=2,28=1/1;
 7//1,2,3,16;
 1/14=-1,18=20,19=15,26=3/3(2);
 2/9=110/2;
 99//99;
 2/9=110/2;
 3/6=3,11=2,16=1,25=1,30=1,71=1,74=-5/1,2,3;
 4/5=5,16=3,69=1/1;
 5/5=2,6=7,7=2048,22=12,38=5/2;
 7//1,2,3,16;
 1/14=-1,18=20,19=15,26=3/3(-5);
 2/9=110/2;
 6/7=2,8=2,9=2,10=2,19=2,28=1/1;
 99/9=1/99;
 Leave Link    1 at Tue Aug  4 10:38:18 2020, MaxMem=           0 cpu:         0.0
 (Enter /cluster/apps/gaussian/g09/l101.exe)
 --------
 acene-nh
 --------
 Symbolic Z-matrix:
 Charge =  0 Multiplicity = 1
 C                     21.54843   8.20577   5.06779 
 C                     21.54843   6.79418   5.06779 
 C                     22.73795   8.89845   5.06763 
 C                     23.9788   8.21526   5.06746 
 C                     23.9788   6.78469   5.06746 
 C                     22.73795   6.1015    5.06763 
 C                     25.22247   6.10183   5.06729 
 C                     26.41679   6.78416   5.06713 
 C                     26.41679   8.21579   5.06713 
 C                     25.22247   8.89812   5.06729 
 N                     27.64667   8.86161   5.06693 
 C                     28.88     8.2243    5.06696 
 C                     28.88001   6.77566   5.06696 
 N                     27.64667   6.13834   5.06693 
 C                     30.06402   6.09499   5.06696 
 C                     31.32477   6.77333   5.06696 
 C                     31.32477   8.22663   5.06696 
 C                     30.06402   8.90496   5.06696 
 C                     32.5326   8.90396   5.06696 
 C                     33.77492   8.22633   5.06696 
 C                     33.77492   6.77363   5.06696 
 C                     32.5326   6.096     5.06696 
 C                     35.       6.09585   5.06696 
 C                     36.22508   6.77364   5.06696 
 C                     36.22508   8.22633   5.06696 
 C                     35.       8.90411   5.06696 
 C                     37.4674   8.90396   5.06696 
 C                     38.67522   8.22663   5.06696 
 C                     38.67523   6.77333   5.06696 
 C                     37.4674   6.096     5.06696 
 C                     39.93599   6.095     5.06696 
 C                     41.12     6.77566   5.06696 
 C                     41.12     8.2243    5.06696 
 C                     39.93598   8.90497   5.06696 
 N                     42.35333   8.86162   5.06693 
 C                     43.58321   8.2158    5.06713 
 C                     43.58321   6.78417   5.06713 
 N                     42.35333   6.13835   5.06693 
 C                     44.77753   6.10184   5.06729 
 C                     46.0212   6.7847    5.06746 
 C                     46.0212   8.21527   5.06746 
 C                     44.77752   8.89813   5.06729 
 C                     47.26205   8.89846   5.06763 
 C                     48.45157   8.20578   5.06779 
 C                     48.45157   6.79419   5.06779 
 C                     47.26205   6.10151   5.06763 
 H                     20.60712   8.74362   5.06792 
 H                     20.60712   6.25633   5.06792 
 H                     22.73841   9.98377   5.06763 
 H                     22.73841   5.01618   5.06763 
 H                     25.22799   5.01599   5.0673 
 H                     25.22798   9.98396   5.0673 
 H                     30.05719   5.00924   5.06697 
 H                     30.05719   9.99072   5.06697 
 H                     32.53324   5.01006   5.06696 
 H                     35.       9.99012   5.06696 
 H                     37.46676   5.01006   5.06696 
 H                     39.94281   9.99072   5.06697 
 H                     44.77202   5.016     5.0673 
 H                     44.77201   9.98397   5.0673 
 H                     47.26159   9.98378   5.06763 
 H                     49.39288   8.74363   5.06792 
 H                     49.39288   6.25634   5.06792 
 H                     47.26159   5.01619   5.06763 
 H                     32.53324   9.9899    5.06696 
 H                     37.46676   9.9899    5.06696 
 H                     35.       5.00985   5.06696 
 H                     39.94281   5.00924   5.06697 
 H                     27.64433   9.86957   5.06696 
 H                     42.35567   9.86957   5.06698 
 H                     27.64433   5.13039   5.06698 
 H                     42.35567   5.13039   5.06696 
 
 NAtoms=     72 NQM=       72 NQMF=       0 NMMI=      0 NMMIF=      0
                NMic=       0 NMicF=      0.
                    Isotopes and Nuclear Properties:
 (Nuclear quadrupole moments (NQMom) in fm**2, nuclear magnetic moments (NMagM)
  in nuclear magnetons)

  Atom         1           2           3           4           5           6           7           8           9          10
 IAtWgt=          12          12          12          12          12          12          12          12          12          12
 AtmWgt=  12.0000000  12.0000000  12.0000000  12.0000000  12.0000000  12.0000000  12.0000000  12.0000000  12.0000000  12.0000000
 NucSpn=           0           0           0           0           0           0           0           0           0           0
 AtZEff=   0.0000000   0.0000000   0.0000000   0.0000000   0.0000000   0.0000000   0.0000000   0.0000000   0.0000000   0.0000000
 NQMom=    0.0000000   0.0000000   0.0000000   0.0000000   0.0000000   0.0000000   0.0000000   0.0000000   0.0000000   0.0000000
 NMagM=    0.0000000   0.0000000   0.0000000   0.0000000   0.0000000   0.0000000   0.0000000   0.0000000   0.0000000   0.0000000
 AtZNuc=   6.0000000   6.0000000   6.0000000   6.0000000   6.0000000   6.0000000   6.0000000   6.0000000   6.0000000   6.0000000

  Atom        11          12          13          14          15          16          17          18          19          20
 IAtWgt=          14          12          12          14          12          12          12          12          12          12
 AtmWgt=  14.0030740  12.0000000  12.0000000  14.0030740  12.0000000  12.0000000  12.0000000  12.0000000  12.0000000  12.0000000
 NucSpn=           2           0           0           2           0           0           0           0           0           0
 AtZEff=   0.0000000   0.0000000   0.0000000   0.0000000   0.0000000   0.0000000   0.0000000   0.0000000   0.0000000   0.0000000
 NQMom=    2.0440000   0.0000000   0.0000000   2.0440000   0.0000000   0.0000000   0.0000000   0.0000000   0.0000000   0.0000000
 NMagM=    0.4037610   0.0000000   0.0000000   0.4037610   0.0000000   0.0000000   0.0000000   0.0000000   0.0000000   0.0000000
 AtZNuc=   7.0000000   6.0000000   6.0000000   7.0000000   6.0000000   6.0000000   6.0000000   6.0000000   6.0000000   6.0000000

  Atom        21          22          23          24          25          26          27          28          29          30
 IAtWgt=          12          12          12          12          12          12          12          12          12          12
 AtmWgt=  12.0000000  12.0000000  12.0000000  12.0000000  12.0000000  12.0000000  12.0000000  12.0000000  12.0000000  12.0000000
 NucSpn=           0           0           0           0           0           0           0           0           0           0
 AtZEff=   0.0000000   0.0000000   0.0000000   0.0000000   0.0000000   0.0000000   0.0000000   0.0000000   0.0000000   0.0000000
 NQMom=    0.0000000   0.0000000   0.0000000   0.0000000   0.0000000   0.0000000   0.0000000   0.0000000   0.0000000   0.0000000
 NMagM=    0.0000000   0.0000000   0.0000000   0.0000000   0.0000000   0.0000000   0.0000000   0.0000000   0.0000000   0.0000000
 AtZNuc=   6.0000000   6.0000000   6.0000000   6.0000000   6.0000000   6.0000000   6.0000000   6.0000000   6.0000000   6.0000000

  Atom        31          32          33          34          35          36          37          38          39          40
 IAtWgt=          12          12          12          12          14          12          12          14          12          12
 AtmWgt=  12.0000000  12.0000000  12.0000000  12.0000000  14.0030740  12.0000000  12.0000000  14.0030740  12.0000000  12.0000000
 NucSpn=           0           0           0           0           2           0           0           2           0           0
 AtZEff=   0.0000000   0.0000000   0.0000000   0.0000000   0.0000000   0.0000000   0.0000000   0.0000000   0.0000000   0.0000000
 NQMom=    0.0000000   0.0000000   0.0000000   0.0000000   2.0440000   0.0000000   0.0000000   2.0440000   0.0000000   0.0000000
 NMagM=    0.0000000   0.0000000   0.0000000   0.0000000   0.4037610   0.0000000   0.0000000   0.4037610   0.0000000   0.0000000
 AtZNuc=   6.0000000   6.0000000   6.0000000   6.0000000   7.0000000   6.0000000   6.0000000   7.0000000   6.0000000   6.0000000

  Atom        41          42          43          44          45          46          47          48          49          50
 IAtWgt=          12          12          12          12          12          12           1           1           1           1
 AtmWgt=  12.0000000  12.0000000  12.0000000  12.0000000  12.0000000  12.0000000   1.0078250   1.0078250   1.0078250   1.0078250
 NucSpn=           0           0           0           0           0           0           1           1           1           1
 AtZEff=   0.0000000   0.0000000   0.0000000   0.0000000   0.0000000   0.0000000   0.0000000   0.0000000   0.0000000   0.0000000
 NQMom=    0.0000000   0.0000000   0.0000000   0.0000000   0.0000000   0.0000000   0.0000000   0.0000000   0.0000000   0.0000000
 NMagM=    0.0000000   0.0000000   0.0000000   0.0000000   0.0000000   0.0000000   2.7928460   2.7928460   2.7928460   2.7928460
 AtZNuc=   6.0000000   6.0000000   6.0000000   6.0000000   6.0000000   6.0000000   1.0000000   1.0000000   1.0000000   1.0000000

  Atom        51          52          53          54          55          56          57          58          59          60
 IAtWgt=           1           1           1           1           1           1           1           1           1           1
 AtmWgt=   1.0078250   1.0078250   1.0078250   1.0078250   1.0078250   1.0078250   1.0078250   1.0078250   1.0078250   1.0078250
 NucSpn=           1           1           1           1           1           1           1           1           1           1
 AtZEff=   0.0000000   0.0000000   0.0000000   0.0000000   0.0000000   0.0000000   0.0000000   0.0000000   0.0000000   0.0000000
 NQMom=    0.0000000   0.0000000   0.0000000   0.0000000   0.0000000   0.0000000   0.0000000   0.0000000   0.0000000   0.0000000
 NMagM=    2.7928460   2.7928460   2.7928460   2.7928460   2.7928460   2.7928460   2.7928460   2.7928460   2.7928460   2.7928460
 AtZNuc=   1.0000000   1.0000000   1.0000000   1.0000000   1.0000000   1.0000000   1.0000000   1.0000000   1.0000000   1.0000000

  Atom        61          62          63          64          65          66          67          68          69          70
 IAtWgt=           1           1           1           1           1           1           1           1           1           1
 AtmWgt=   1.0078250   1.0078250   1.0078250   1.0078250   1.0078250   1.0078250   1.0078250   1.0078250   1.0078250   1.0078250
 NucSpn=           1           1           1           1           1           1           1           1           1           1
 AtZEff=   0.0000000   0.0000000   0.0000000   0.0000000   0.0000000   0.0000000   0.0000000   0.0000000   0.0000000   0.0000000
 NQMom=    0.0000000   0.0000000   0.0000000   0.0000000   0.0000000   0.0000000   0.0000000   0.0000000   0.0000000   0.0000000
 NMagM=    2.7928460   2.7928460   2.7928460   2.7928460   2.7928460   2.7928460   2.7928460   2.7928460   2.7928460   2.7928460
 AtZNuc=   1.0000000   1.0000000   1.0000000   1.0000000   1.0000000   1.0000000   1.0000000   1.0000000   1.0000000   1.0000000

  Atom        71          72
 IAtWgt=           1           1
 AtmWgt=   1.0078250   1.0078250
 NucSpn=           1           1
 AtZEff=   0.0000000   0.0000000
 NQMom=    0.0000000   0.0000000
 NMagM=    2.7928460   2.7928460
 AtZNuc=   1.0000000   1.0000000
 Leave Link  101 at Tue Aug  4 10:38:18 2020, MaxMem=    33554432 cpu:         0.1
 (Enter /cluster/apps/gaussian/g09/l103.exe)

 GradGradGradGradGradGradGradGradGradGradGradGradGradGradGradGradGradGrad
 Berny optimization.
 Initialization pass.
                           ----------------------------
                           !    Initial Parameters    !
                           ! (Angstroms and Degrees)  !
 --------------------------                            --------------------------
 ! Name  Definition              Value          Derivative Info.                !
 --------------------------------------------------------------------------------
 ! R1    R(1,2)                  1.4116         estimate D2E/DX2                !
 ! R2    R(1,3)                  1.3765         estimate D2E/DX2                !
 ! R3    R(1,47)                 1.0841         estimate D2E/DX2                !
 ! R4    R(2,6)                  1.3765         estimate D2E/DX2                !
 ! R5    R(2,48)                 1.0841         estimate D2E/DX2                !
 ! R6    R(3,4)                  1.4165         estimate D2E/DX2                !
 ! R7    R(3,49)                 1.0853         estimate D2E/DX2                !
 ! R8    R(4,5)                  1.4306         estimate D2E/DX2                !
 ! R9    R(4,10)                 1.4188         estimate D2E/DX2                !
 ! R10   R(5,6)                  1.4165         estimate D2E/DX2                !
 ! R11   R(5,7)                  1.4188         estimate D2E/DX2                !
 ! R12   R(6,50)                 1.0853         estimate D2E/DX2                !
 ! R13   R(7,8)                  1.3755         estimate D2E/DX2                !
 ! R14   R(7,51)                 1.0859         estimate D2E/DX2                !
 ! R15   R(8,9)                  1.4316         estimate D2E/DX2                !
 ! R16   R(8,14)                 1.3891         estimate D2E/DX2                !
 ! R17   R(9,10)                 1.3755         estimate D2E/DX2                !
 ! R18   R(9,11)                 1.3891         estimate D2E/DX2                !
 ! R19   R(10,52)                1.0859         estimate D2E/DX2                !
 ! R20   R(11,12)                1.3883         estimate D2E/DX2                !
 ! R21   R(11,69)                1.008          estimate D2E/DX2                !
 ! R22   R(12,13)                1.4486         estimate D2E/DX2                !
 ! R23   R(12,18)                1.3657         estimate D2E/DX2                !
 ! R24   R(13,14)                1.3883         estimate D2E/DX2                !
 ! R25   R(13,15)                1.3657         estimate D2E/DX2                !
 ! R26   R(14,71)                1.008          estimate D2E/DX2                !
 ! R27   R(15,16)                1.4317         estimate D2E/DX2                !
 ! R28   R(15,53)                1.0858         estimate D2E/DX2                !
 ! R29   R(16,17)                1.4533         estimate D2E/DX2                !
 ! R30   R(16,22)                1.3848         estimate D2E/DX2                !
 ! R31   R(17,18)                1.4317         estimate D2E/DX2                !
 ! R32   R(17,19)                1.3848         estimate D2E/DX2                !
 ! R33   R(18,54)                1.0858         estimate D2E/DX2                !
 ! R34   R(19,20)                1.4151         estimate D2E/DX2                !
 ! R35   R(19,65)                1.0859         estimate D2E/DX2                !
 ! R36   R(20,21)                1.4527         estimate D2E/DX2                !
 ! R37   R(20,26)                1.4001         estimate D2E/DX2                !
 ! R38   R(21,22)                1.4151         estimate D2E/DX2                !
 ! R39   R(21,23)                1.4001         estimate D2E/DX2                !
 ! R40   R(22,55)                1.0859         estimate D2E/DX2                !
 ! R41   R(23,24)                1.4001         estimate D2E/DX2                !
 ! R42   R(23,67)                1.086          estimate D2E/DX2                !
 ! R43   R(24,25)                1.4527         estimate D2E/DX2                !
 ! R44   R(24,30)                1.4151         estimate D2E/DX2                !
 ! R45   R(25,26)                1.4001         estimate D2E/DX2                !
 ! R46   R(25,27)                1.4151         estimate D2E/DX2                !
 ! R47   R(26,56)                1.086          estimate D2E/DX2                !
 ! R48   R(27,28)                1.3848         estimate D2E/DX2                !
 ! R49   R(27,66)                1.0859         estimate D2E/DX2                !
 ! R50   R(28,29)                1.4533         estimate D2E/DX2                !
 ! R51   R(28,34)                1.4317         estimate D2E/DX2                !
 ! R52   R(29,30)                1.3848         estimate D2E/DX2                !
 ! R53   R(29,31)                1.4317         estimate D2E/DX2                !
 ! R54   R(30,57)                1.0859         estimate D2E/DX2                !
 ! R55   R(31,32)                1.3657         estimate D2E/DX2                !
 ! R56   R(31,68)                1.0858         estimate D2E/DX2                !
 ! R57   R(32,33)                1.4486         estimate D2E/DX2                !
 ! R58   R(32,38)                1.3883         estimate D2E/DX2                !
 ! R59   R(33,34)                1.3657         estimate D2E/DX2                !
 ! R60   R(33,35)                1.3883         estimate D2E/DX2                !
 ! R61   R(34,58)                1.0858         estimate D2E/DX2                !
 ! R62   R(35,36)                1.3891         estimate D2E/DX2                !
 ! R63   R(35,70)                1.008          estimate D2E/DX2                !
 ! R64   R(36,37)                1.4316         estimate D2E/DX2                !
 ! R65   R(36,42)                1.3755         estimate D2E/DX2                !
 ! R66   R(37,38)                1.3891         estimate D2E/DX2                !
 ! R67   R(37,39)                1.3755         estimate D2E/DX2                !
 ! R68   R(38,72)                1.008          estimate D2E/DX2                !
 ! R69   R(39,40)                1.4188         estimate D2E/DX2                !
 ! R70   R(39,59)                1.0859         estimate D2E/DX2                !
 ! R71   R(40,41)                1.4306         estimate D2E/DX2                !
 ! R72   R(40,46)                1.4165         estimate D2E/DX2                !
 ! R73   R(41,42)                1.4188         estimate D2E/DX2                !
 ! R74   R(41,43)                1.4165         estimate D2E/DX2                !
 ! R75   R(42,60)                1.0859         estimate D2E/DX2                !
 ! R76   R(43,44)                1.3765         estimate D2E/DX2                !
 ! R77   R(43,61)                1.0853         estimate D2E/DX2                !
 ! R78   R(44,45)                1.4116         estimate D2E/DX2                !
 ! R79   R(44,62)                1.0841         estimate D2E/DX2                !
 ! R80   R(45,46)                1.3765         estimate D2E/DX2                !
 ! R81   R(45,63)                1.0841         estimate D2E/DX2                !
 ! R82   R(46,64)                1.0853         estimate D2E/DX2                !
 ! A1    A(2,1,3)              120.2132         estimate D2E/DX2                !
 ! A2    A(2,1,47)             119.743          estimate D2E/DX2                !
 ! A3    A(3,1,47)             120.0437         estimate D2E/DX2                !
 ! A4    A(1,2,6)              120.2132         estimate D2E/DX2                !
 ! A5    A(1,2,48)             119.743          estimate D2E/DX2                !
 ! A6    A(6,2,48)             120.0438         estimate D2E/DX2                !
 ! A7    A(1,3,4)              120.9505         estimate D2E/DX2                !
 ! A8    A(1,3,49)             120.2377         estimate D2E/DX2                !
 ! A9    A(4,3,49)             118.8118         estimate D2E/DX2                !
 ! A10   A(3,4,5)              118.8363         estimate D2E/DX2                !
 ! A11   A(3,4,10)             122.394          estimate D2E/DX2                !
 ! A12   A(5,4,10)             118.7697         estimate D2E/DX2                !
 ! A13   A(4,5,6)              118.8363         estimate D2E/DX2                !
 ! A14   A(4,5,7)              118.7697         estimate D2E/DX2                !
 ! A15   A(6,5,7)              122.394          estimate D2E/DX2                !
 ! A16   A(2,6,5)              120.9505         estimate D2E/DX2                !
 ! A17   A(2,6,50)             120.2377         estimate D2E/DX2                !
 ! A18   A(5,6,50)             118.8118         estimate D2E/DX2                !
 ! A19   A(5,7,8)              121.4905         estimate D2E/DX2                !
 ! A20   A(5,7,51)             119.0605         estimate D2E/DX2                !
 ! A21   A(8,7,51)             119.4491         estimate D2E/DX2                !
 ! A22   A(7,8,9)              119.7399         estimate D2E/DX2                !
 ! A23   A(7,8,14)             122.5558         estimate D2E/DX2                !
 ! A24   A(9,8,14)             117.7043         estimate D2E/DX2                !
 ! A25   A(8,9,10)             119.7398         estimate D2E/DX2                !
 ! A26   A(8,9,11)             117.7044         estimate D2E/DX2                !
 ! A27   A(10,9,11)            122.5558         estimate D2E/DX2                !
 ! A28   A(4,10,9)             121.4905         estimate D2E/DX2                !
 ! A29   A(4,10,52)            119.0604         estimate D2E/DX2                !
 ! A30   A(9,10,52)            119.4491         estimate D2E/DX2                !
 ! A31   A(9,11,12)            124.9683         estimate D2E/DX2                !
 ! A32   A(9,11,69)            117.571          estimate D2E/DX2                !
 ! A33   A(12,11,69)           117.4607         estimate D2E/DX2                !
 ! A34   A(11,12,13)           117.3274         estimate D2E/DX2                !
 ! A35   A(11,12,18)           122.7789         estimate D2E/DX2                !
 ! A36   A(13,12,18)           119.8937         estimate D2E/DX2                !
 ! A37   A(12,13,14)           117.3274         estimate D2E/DX2                !
 ! A38   A(12,13,15)           119.8938         estimate D2E/DX2                !
 ! A39   A(14,13,15)           122.7789         estimate D2E/DX2                !
 ! A40   A(8,14,13)            124.9683         estimate D2E/DX2                !
 ! A41   A(8,14,71)            117.571          estimate D2E/DX2                !
 ! A42   A(13,14,71)           117.4607         estimate D2E/DX2                !
 ! A43   A(13,15,16)           121.8243         estimate D2E/DX2                !
 ! A44   A(13,15,53)           119.5334         estimate D2E/DX2                !
 ! A45   A(16,15,53)           118.6422         estimate D2E/DX2                !
 ! A46   A(15,16,17)           118.2819         estimate D2E/DX2                !
 ! A47   A(15,16,22)           122.4351         estimate D2E/DX2                !
 ! A48   A(17,16,22)           119.283          estimate D2E/DX2                !
 ! A49   A(16,17,18)           118.2819         estimate D2E/DX2                !
 ! A50   A(16,17,19)           119.2829         estimate D2E/DX2                !
 ! A51   A(18,17,19)           122.4351         estimate D2E/DX2                !
 ! A52   A(12,18,17)           121.8243         estimate D2E/DX2                !
 ! A53   A(12,18,54)           119.5334         estimate D2E/DX2                !
 ! A54   A(17,18,54)           118.6423         estimate D2E/DX2                !
 ! A55   A(17,19,20)           122.1065         estimate D2E/DX2                !
 ! A56   A(17,19,65)           119.3165         estimate D2E/DX2                !
 ! A57   A(20,19,65)           118.577          estimate D2E/DX2                !
 ! A58   A(19,20,21)           118.6106         estimate D2E/DX2                !
 ! A59   A(19,20,26)           122.4356         estimate D2E/DX2                !
 ! A60   A(21,20,26)           118.9538         estimate D2E/DX2                !
 ! A61   A(20,21,22)           118.6106         estimate D2E/DX2                !
 ! A62   A(20,21,23)           118.9539         estimate D2E/DX2                !
 ! A63   A(22,21,23)           122.4355         estimate D2E/DX2                !
 ! A64   A(16,22,21)           122.1064         estimate D2E/DX2                !
 ! A65   A(16,22,55)           119.3165         estimate D2E/DX2                !
 ! A66   A(21,22,55)           118.5771         estimate D2E/DX2                !
 ! A67   A(21,23,24)           122.0923         estimate D2E/DX2                !
 ! A68   A(21,23,67)           118.9539         estimate D2E/DX2                !
 ! A69   A(24,23,67)           118.9538         estimate D2E/DX2                !
 ! A70   A(23,24,25)           118.9539         estimate D2E/DX2                !
 ! A71   A(23,24,30)           122.4356         estimate D2E/DX2                !
 ! A72   A(25,24,30)           118.6106         estimate D2E/DX2                !
 ! A73   A(24,25,26)           118.9538         estimate D2E/DX2                !
 ! A74   A(24,25,27)           118.6106         estimate D2E/DX2                !
 ! A75   A(26,25,27)           122.4356         estimate D2E/DX2                !
 ! A76   A(20,26,25)           122.0923         estimate D2E/DX2                !
 ! A77   A(20,26,56)           118.9539         estimate D2E/DX2                !
 ! A78   A(25,26,56)           118.9538         estimate D2E/DX2                !
 ! A79   A(25,27,28)           122.1065         estimate D2E/DX2                !
 ! A80   A(25,27,66)           118.5771         estimate D2E/DX2                !
 ! A81   A(28,27,66)           119.3164         estimate D2E/DX2                !
 ! A82   A(27,28,29)           119.283          estimate D2E/DX2                !
 ! A83   A(27,28,34)           122.4352         estimate D2E/DX2                !
 ! A84   A(29,28,34)           118.2819         estimate D2E/DX2                !
 ! A85   A(28,29,30)           119.2829         estimate D2E/DX2                !
 ! A86   A(28,29,31)           118.2819         estimate D2E/DX2                !
 ! A87   A(30,29,31)           122.4351         estimate D2E/DX2                !
 ! A88   A(24,30,29)           122.1064         estimate D2E/DX2                !
 ! A89   A(24,30,57)           118.5771         estimate D2E/DX2                !
 ! A90   A(29,30,57)           119.3164         estimate D2E/DX2                !
 ! A91   A(29,31,32)           121.8243         estimate D2E/DX2                !
 ! A92   A(29,31,68)           118.6423         estimate D2E/DX2                !
 ! A93   A(32,31,68)           119.5334         estimate D2E/DX2                !
 ! A94   A(31,32,33)           119.8937         estimate D2E/DX2                !
 ! A95   A(31,32,38)           122.7789         estimate D2E/DX2                !
 ! A96   A(33,32,38)           117.3274         estimate D2E/DX2                !
 ! A97   A(32,33,34)           119.8938         estimate D2E/DX2                !
 ! A98   A(32,33,35)           117.3273         estimate D2E/DX2                !
 ! A99   A(34,33,35)           122.7789         estimate D2E/DX2                !
 ! A100  A(28,34,33)           121.8243         estimate D2E/DX2                !
 ! A101  A(28,34,58)           118.6422         estimate D2E/DX2                !
 ! A102  A(33,34,58)           119.5334         estimate D2E/DX2                !
 ! A103  A(33,35,36)           124.9683         estimate D2E/DX2                !
 ! A104  A(33,35,70)           117.4607         estimate D2E/DX2                !
 ! A105  A(36,35,70)           117.571          estimate D2E/DX2                !
 ! A106  A(35,36,37)           117.7044         estimate D2E/DX2                !
 ! A107  A(35,36,42)           122.5559         estimate D2E/DX2                !
 ! A108  A(37,36,42)           119.7398         estimate D2E/DX2                !
 ! A109  A(36,37,38)           117.7043         estimate D2E/DX2                !
 ! A110  A(36,37,39)           119.7398         estimate D2E/DX2                !
 ! A111  A(38,37,39)           122.5559         estimate D2E/DX2                !
 ! A112  A(32,38,37)           124.9683         estimate D2E/DX2                !
 ! A113  A(32,38,72)           117.4607         estimate D2E/DX2                !
 ! A114  A(37,38,72)           117.571          estimate D2E/DX2                !
 ! A115  A(37,39,40)           121.4905         estimate D2E/DX2                !
 ! A116  A(37,39,59)           119.449          estimate D2E/DX2                !
 ! A117  A(40,39,59)           119.0605         estimate D2E/DX2                !
 ! A118  A(39,40,41)           118.7697         estimate D2E/DX2                !
 ! A119  A(39,40,46)           122.3941         estimate D2E/DX2                !
 ! A120  A(41,40,46)           118.8362         estimate D2E/DX2                !
 ! A121  A(40,41,42)           118.7696         estimate D2E/DX2                !
 ! A122  A(40,41,43)           118.8363         estimate D2E/DX2                !
 ! A123  A(42,41,43)           122.3941         estimate D2E/DX2                !
 ! A124  A(36,42,41)           121.4906         estimate D2E/DX2                !
 ! A125  A(36,42,60)           119.449          estimate D2E/DX2                !
 ! A126  A(41,42,60)           119.0604         estimate D2E/DX2                !
 ! A127  A(41,43,44)           120.9505         estimate D2E/DX2                !
 ! A128  A(41,43,61)           118.8118         estimate D2E/DX2                !
 ! A129  A(44,43,61)           120.2377         estimate D2E/DX2                !
 ! A130  A(43,44,45)           120.2132         estimate D2E/DX2                !
 ! A131  A(43,44,62)           120.0437         estimate D2E/DX2                !
 ! A132  A(45,44,62)           119.7431         estimate D2E/DX2                !
 ! A133  A(44,45,46)           120.2132         estimate D2E/DX2                !
 ! A134  A(44,45,63)           119.7429         estimate D2E/DX2                !
 ! A135  A(46,45,63)           120.0438         estimate D2E/DX2                !
 ! A136  A(40,46,45)           120.9505         estimate D2E/DX2                !
 ! A137  A(40,46,64)           118.8118         estimate D2E/DX2                !
 ! A138  A(45,46,64)           120.2377         estimate D2E/DX2                !
 ! D1    D(3,1,2,6)              0.0            estimate D2E/DX2                !
 ! D2    D(3,1,2,48)          -179.9999         estimate D2E/DX2                !
 ! D3    D(47,1,2,6)           180.0            estimate D2E/DX2                !
 ! D4    D(47,1,2,48)            0.0            estimate D2E/DX2                !
 ! D5    D(2,1,3,4)             -0.0001         estimate D2E/DX2                !
 ! D6    D(2,1,3,49)          -180.0            estimate D2E/DX2                !
 ! D7    D(47,1,3,4)           180.0            estimate D2E/DX2                !
 ! D8    D(47,1,3,49)            0.0001         estimate D2E/DX2                !
 ! D9    D(1,2,6,5)              0.0            estimate D2E/DX2                !
 ! D10   D(1,2,6,50)           179.9999         estimate D2E/DX2                !
 ! D11   D(48,2,6,5)          -180.0            estimate D2E/DX2                !
 ! D12   D(48,2,6,50)           -0.0001         estimate D2E/DX2                !
 ! D13   D(1,3,4,5)              0.0            estimate D2E/DX2                !
 ! D14   D(1,3,4,10)          -179.9997         estimate D2E/DX2                !
 ! D15   D(49,3,4,5)           180.0            estimate D2E/DX2                !
 ! D16   D(49,3,4,10)            0.0002         estimate D2E/DX2                !
 ! D17   D(3,4,5,6)              0.0            estimate D2E/DX2                !
 ! D18   D(3,4,5,7)           -179.9999         estimate D2E/DX2                !
 ! D19   D(10,4,5,6)           179.9998         estimate D2E/DX2                !
 ! D20   D(10,4,5,7)            -0.0001         estimate D2E/DX2                !
 ! D21   D(3,4,10,9)          -179.9997         estimate D2E/DX2                !
 ! D22   D(3,4,10,52)            0.0            estimate D2E/DX2                !
 ! D23   D(5,4,10,9)             0.0005         estimate D2E/DX2                !
 ! D24   D(5,4,10,52)         -179.9998         estimate D2E/DX2                !
 ! D25   D(4,5,6,2)             -0.0001         estimate D2E/DX2                !
 ! D26   D(4,5,6,50)          -180.0            estimate D2E/DX2                !
 ! D27   D(7,5,6,2)            179.9998         estimate D2E/DX2                !
 ! D28   D(7,5,6,50)             0.0            estimate D2E/DX2                !
 ! D29   D(4,5,7,8)             -0.0003         estimate D2E/DX2                !
 ! D30   D(4,5,7,51)           179.9999         estimate D2E/DX2                !
 ! D31   D(6,5,7,8)            179.9997         estimate D2E/DX2                !
 ! D32   D(6,5,7,51)            -0.0001         estimate D2E/DX2                !
 ! D33   D(5,7,8,9)              0.0004         estimate D2E/DX2                !
 ! D34   D(5,7,8,14)          -179.9985         estimate D2E/DX2                !
 ! D35   D(51,7,8,9)          -179.9998         estimate D2E/DX2                !
 ! D36   D(51,7,8,14)            0.0013         estimate D2E/DX2                !
 ! D37   D(7,8,9,10)             0.0            estimate D2E/DX2                !
 ! D38   D(7,8,9,11)          -179.999          estimate D2E/DX2                !
 ! D39   D(14,8,9,10)          179.9989         estimate D2E/DX2                !
 ! D40   D(14,8,9,11)           -0.0001         estimate D2E/DX2                !
 ! D41   D(7,8,14,13)         -179.9898         estimate D2E/DX2                !
 ! D42   D(7,8,14,71)           -0.0046         estimate D2E/DX2                !
 ! D43   D(9,8,14,13)            0.0113         estimate D2E/DX2                !
 ! D44   D(9,8,14,71)          179.9966         estimate D2E/DX2                !
 ! D45   D(8,9,10,4)            -0.0004         estimate D2E/DX2                !
 ! D46   D(8,9,10,52)          179.9998         estimate D2E/DX2                !
 ! D47   D(11,9,10,4)          179.9985         estimate D2E/DX2                !
 ! D48   D(11,9,10,52)          -0.0012         estimate D2E/DX2                !
 ! D49   D(8,9,11,12)           -0.011          estimate D2E/DX2                !
 ! D50   D(8,9,11,69)         -179.998          estimate D2E/DX2                !
 ! D51   D(10,9,11,12)         179.99           estimate D2E/DX2                !
 ! D52   D(10,9,11,69)           0.003          estimate D2E/DX2                !
 ! D53   D(9,11,12,13)           0.011          estimate D2E/DX2                !
 ! D54   D(9,11,12,18)        -179.99           estimate D2E/DX2                !
 ! D55   D(69,11,12,13)        179.998          estimate D2E/DX2                !
 ! D56   D(69,11,12,18)         -0.0029         estimate D2E/DX2                !
 ! D57   D(11,12,13,14)          0.0001         estimate D2E/DX2                !
 ! D58   D(11,12,13,15)        179.9991         estimate D2E/DX2                !
 ! D59   D(18,12,13,14)       -179.9989         estimate D2E/DX2                !
 ! D60   D(18,12,13,15)          0.0            estimate D2E/DX2                !
 ! D61   D(11,12,18,17)       -179.9985         estimate D2E/DX2                !
 ! D62   D(11,12,18,54)          0.0013         estimate D2E/DX2                !
 ! D63   D(13,12,18,17)          0.0005         estimate D2E/DX2                !
 ! D64   D(13,12,18,54)       -179.9997         estimate D2E/DX2                !
 ! D65   D(12,13,14,8)          -0.0113         estimate D2E/DX2                !
 ! D66   D(12,13,14,71)       -179.9965         estimate D2E/DX2                !
 ! D67   D(15,13,14,8)         179.9898         estimate D2E/DX2                !
 ! D68   D(15,13,14,71)          0.0046         estimate D2E/DX2                !
 ! D69   D(12,13,15,16)         -0.0005         estimate D2E/DX2                !
 ! D70   D(12,13,15,53)        179.9999         estimate D2E/DX2                !
 ! D71   D(14,13,15,16)        179.9984         estimate D2E/DX2                !
 ! D72   D(14,13,15,53)         -0.0012         estimate D2E/DX2                !
 ! D73   D(13,15,16,17)          0.0005         estimate D2E/DX2                !
 ! D74   D(13,15,16,22)       -179.9997         estimate D2E/DX2                !
 ! D75   D(53,15,16,17)       -179.9999         estimate D2E/DX2                !
 ! D76   D(53,15,16,22)         -0.0001         estimate D2E/DX2                !
 ! D77   D(15,16,17,18)          0.0            estimate D2E/DX2                !
 ! D78   D(15,16,17,19)        179.9999         estimate D2E/DX2                !
 ! D79   D(22,16,17,18)       -179.9998         estimate D2E/DX2                !
 ! D80   D(22,16,17,19)          0.0            estimate D2E/DX2                !
 ! D81   D(15,16,22,21)       -179.9998         estimate D2E/DX2                !
 ! D82   D(15,16,22,55)          0.0002         estimate D2E/DX2                !
 ! D83   D(17,16,22,21)          0.0            estimate D2E/DX2                !
 ! D84   D(17,16,22,55)        180.0            estimate D2E/DX2                !
 ! D85   D(16,17,18,12)         -0.0005         estimate D2E/DX2                !
 ! D86   D(16,17,18,54)        179.9997         estimate D2E/DX2                !
 ! D87   D(19,17,18,12)        179.9997         estimate D2E/DX2                !
 ! D88   D(19,17,18,54)         -0.0002         estimate D2E/DX2                !
 ! D89   D(16,17,19,20)         -0.0001         estimate D2E/DX2                !
 ! D90   D(16,17,19,65)       -179.9999         estimate D2E/DX2                !
 ! D91   D(18,17,19,20)        179.9998         estimate D2E/DX2                !
 ! D92   D(18,17,19,65)         -0.0001         estimate D2E/DX2                !
 ! D93   D(17,19,20,21)          0.0001         estimate D2E/DX2                !
 ! D94   D(17,19,20,26)       -179.9999         estimate D2E/DX2                !
 ! D95   D(65,19,20,21)        179.9999         estimate D2E/DX2                !
 ! D96   D(65,19,20,26)         -0.0001         estimate D2E/DX2                !
 ! D97   D(19,20,21,22)          0.0            estimate D2E/DX2                !
 ! D98   D(19,20,21,23)        180.0            estimate D2E/DX2                !
 ! D99   D(26,20,21,22)        180.0            estimate D2E/DX2                !
 ! D100  D(26,20,21,23)          0.0            estimate D2E/DX2                !
 ! D101  D(19,20,26,25)        180.0            estimate D2E/DX2                !
 ! D102  D(19,20,26,56)          0.0            estimate D2E/DX2                !
 ! D103  D(21,20,26,25)          0.0            estimate D2E/DX2                !
 ! D104  D(21,20,26,56)        180.0            estimate D2E/DX2                !
 ! D105  D(20,21,22,16)          0.0            estimate D2E/DX2                !
 ! D106  D(20,21,22,55)        180.0            estimate D2E/DX2                !
 ! D107  D(23,21,22,16)        180.0            estimate D2E/DX2                !
 ! D108  D(23,21,22,55)          0.0            estimate D2E/DX2                !
 ! D109  D(20,21,23,24)          0.0            estimate D2E/DX2                !
 ! D110  D(20,21,23,67)        180.0            estimate D2E/DX2                !
 ! D111  D(22,21,23,24)       -180.0            estimate D2E/DX2                !
 ! D112  D(22,21,23,67)          0.0            estimate D2E/DX2                !
 ! D113  D(21,23,24,25)          0.0            estimate D2E/DX2                !
 ! D114  D(21,23,24,30)        180.0            estimate D2E/DX2                !
 ! D115  D(67,23,24,25)        180.0            estimate D2E/DX2                !
 ! D116  D(67,23,24,30)          0.0            estimate D2E/DX2                !
 ! D117  D(23,24,25,26)          0.0            estimate D2E/DX2                !
 ! D118  D(23,24,25,27)        180.0            estimate D2E/DX2                !
 ! D119  D(30,24,25,26)        180.0            estimate D2E/DX2                !
 ! D120  D(30,24,25,27)          0.0            estimate D2E/DX2                !
 ! D121  D(23,24,30,29)       -179.9999         estimate D2E/DX2                !
 ! D122  D(23,24,30,57)         -0.0001         estimate D2E/DX2                !
 ! D123  D(25,24,30,29)          0.0001         estimate D2E/DX2                !
 ! D124  D(25,24,30,57)        179.9999         estimate D2E/DX2                !
 ! D125  D(24,25,26,20)          0.0            estimate D2E/DX2                !
 ! D126  D(24,25,26,56)        180.0            estimate D2E/DX2                !
 ! D127  D(27,25,26,20)       -180.0            estimate D2E/DX2                !
 ! D128  D(27,25,26,56)          0.0            estimate D2E/DX2                !
 ! D129  D(24,25,27,28)          0.0            estimate D2E/DX2                !
 ! D130  D(24,25,27,66)        180.0            estimate D2E/DX2                !
 ! D131  D(26,25,27,28)        180.0            estimate D2E/DX2                !
 ! D132  D(26,25,27,66)          0.0            estimate D2E/DX2                !
 ! D133  D(25,27,28,29)          0.0            estimate D2E/DX2                !
 ! D134  D(25,27,28,34)       -179.9998         estimate D2E/DX2                !
 ! D135  D(66,27,28,29)        180.0            estimate D2E/DX2                !
 ! D136  D(66,27,28,34)          0.0002         estimate D2E/DX2                !
 ! D137  D(27,28,29,30)          0.0            estimate D2E/DX2                !
 ! D138  D(27,28,29,31)       -179.9998         estimate D2E/DX2                !
 ! D139  D(34,28,29,30)        179.9999         estimate D2E/DX2                !
 ! D140  D(34,28,29,31)          0.0            estimate D2E/DX2                !
 ! D141  D(27,28,34,33)       -179.9997         estimate D2E/DX2                !
 ! D142  D(27,28,34,58)         -0.0001         estimate D2E/DX2                !
 ! D143  D(29,28,34,33)          0.0005         estimate D2E/DX2                !
 ! D144  D(29,28,34,58)       -179.9999         estimate D2E/DX2                !
 ! D145  D(28,29,30,24)         -0.0001         estimate D2E/DX2                !
 ! D146  D(28,29,30,57)       -179.9999         estimate D2E/DX2                !
 ! D147  D(31,29,30,24)        179.9998         estimate D2E/DX2                !
 ! D148  D(31,29,30,57)         -0.0001         estimate D2E/DX2                !
 ! D149  D(28,29,31,32)         -0.0005         estimate D2E/DX2                !
 ! D150  D(28,29,31,68)        179.9997         estimate D2E/DX2                !
 ! D151  D(30,29,31,32)        179.9997         estimate D2E/DX2                !
 ! D152  D(30,29,31,68)         -0.0002         estimate D2E/DX2                !
 ! D153  D(29,31,32,33)          0.0005         estimate D2E/DX2                !
 ! D154  D(29,31,32,38)       -179.9985         estimate D2E/DX2                !
 ! D155  D(68,31,32,33)       -179.9997         estimate D2E/DX2                !
 ! D156  D(68,31,32,38)          0.0013         estimate D2E/DX2                !
 ! D157  D(31,32,33,34)          0.0            estimate D2E/DX2                !
 ! D158  D(31,32,33,35)       -179.9989         estimate D2E/DX2                !
 ! D159  D(38,32,33,34)        179.9991         estimate D2E/DX2                !
 ! D160  D(38,32,33,35)          0.0001         estimate D2E/DX2                !
 ! D161  D(31,32,38,37)       -179.99           estimate D2E/DX2                !
 ! D162  D(31,32,38,72)         -0.0029         estimate D2E/DX2                !
 ! D163  D(33,32,38,37)          0.011          estimate D2E/DX2                !
 ! D164  D(33,32,38,72)        179.998          estimate D2E/DX2                !
 ! D165  D(32,33,34,28)         -0.0005         estimate D2E/DX2                !
 ! D166  D(32,33,34,58)        179.9999         estimate D2E/DX2                !
 ! D167  D(35,33,34,28)        179.9984         estimate D2E/DX2                !
 ! D168  D(35,33,34,58)         -0.0012         estimate D2E/DX2                !
 ! D169  D(32,33,35,36)         -0.0113         estimate D2E/DX2                !
 ! D170  D(32,33,35,70)       -179.9965         estimate D2E/DX2                !
 ! D171  D(34,33,35,36)        179.9898         estimate D2E/DX2                !
 ! D172  D(34,33,35,70)          0.0046         estimate D2E/DX2                !
 ! D173  D(33,35,36,37)          0.0113         estimate D2E/DX2                !
 ! D174  D(33,35,36,42)       -179.9898         estimate D2E/DX2                !
 ! D175  D(70,35,36,37)        179.9966         estimate D2E/DX2                !
 ! D176  D(70,35,36,42)         -0.0046         estimate D2E/DX2                !
 ! D177  D(35,36,37,38)         -0.0001         estimate D2E/DX2                !
 ! D178  D(35,36,37,39)        179.9989         estimate D2E/DX2                !
 ! D179  D(42,36,37,38)       -179.999          estimate D2E/DX2                !
 ! D180  D(42,36,37,39)          0.0            estimate D2E/DX2                !
 ! D181  D(35,36,42,41)       -179.9985         estimate D2E/DX2                !
 ! D182  D(35,36,42,60)          0.0013         estimate D2E/DX2                !
 ! D183  D(37,36,42,41)          0.0004         estimate D2E/DX2                !
 ! D184  D(37,36,42,60)       -179.9998         estimate D2E/DX2                !
 ! D185  D(36,37,38,32)         -0.011          estimate D2E/DX2                !
 ! D186  D(36,37,38,72)       -179.998          estimate D2E/DX2                !
 ! D187  D(39,37,38,32)        179.99           estimate D2E/DX2                !
 ! D188  D(39,37,38,72)          0.003          estimate D2E/DX2                !
 ! D189  D(36,37,39,40)         -0.0004         estimate D2E/DX2                !
 ! D190  D(36,37,39,59)        179.9998         estimate D2E/DX2                !
 ! D191  D(38,37,39,40)        179.9985         estimate D2E/DX2                !
 ! D192  D(38,37,39,59)         -0.0012         estimate D2E/DX2                !
 ! D193  D(37,39,40,41)          0.0005         estimate D2E/DX2                !
 ! D194  D(37,39,40,46)       -179.9997         estimate D2E/DX2                !
 ! D195  D(59,39,40,41)       -179.9998         estimate D2E/DX2                !
 ! D196  D(59,39,40,46)          0.0            estimate D2E/DX2                !
 ! D197  D(39,40,41,42)         -0.0001         estimate D2E/DX2                !
 ! D198  D(39,40,41,43)        179.9998         estimate D2E/DX2                !
 ! D199  D(46,40,41,42)       -179.9999         estimate D2E/DX2                !
 ! D200  D(46,40,41,43)          0.0            estimate D2E/DX2                !
 ! D201  D(39,40,46,45)       -179.9997         estimate D2E/DX2                !
 ! D202  D(39,40,46,64)          0.0002         estimate D2E/DX2                !
 ! D203  D(41,40,46,45)          0.0            estimate D2E/DX2                !
 ! D204  D(41,40,46,64)        180.0            estimate D2E/DX2                !
 ! D205  D(40,41,42,36)         -0.0003         estimate D2E/DX2                !
 ! D206  D(40,41,42,60)        179.9999         estimate D2E/DX2                !
 ! D207  D(43,41,42,36)        179.9997         estimate D2E/DX2                !
 ! D208  D(43,41,42,60)         -0.0001         estimate D2E/DX2                !
 ! D209  D(40,41,43,44)         -0.0001         estimate D2E/DX2                !
 ! D210  D(40,41,43,61)       -180.0            estimate D2E/DX2                !
 ! D211  D(42,41,43,44)        179.9998         estimate D2E/DX2                !
 ! D212  D(42,41,43,61)          0.0            estimate D2E/DX2                !
 ! D213  D(41,43,44,45)          0.0            estimate D2E/DX2                !
 ! D214  D(41,43,44,62)       -180.0            estimate D2E/DX2                !
 ! D215  D(61,43,44,45)        179.9999         estimate D2E/DX2                !
 ! D216  D(61,43,44,62)         -0.0001         estimate D2E/DX2                !
 ! D217  D(43,44,45,46)          0.0            estimate D2E/DX2                !
 ! D218  D(43,44,45,63)        180.0            estimate D2E/DX2                !
 ! D219  D(62,44,45,46)       -179.9999         estimate D2E/DX2                !
 ! D220  D(62,44,45,63)          0.0            estimate D2E/DX2                !
 ! D221  D(44,45,46,40)         -0.0001         estimate D2E/DX2                !
 ! D222  D(44,45,46,64)       -180.0            estimate D2E/DX2                !
 ! D223  D(63,45,46,40)        180.0            estimate D2E/DX2                !
 ! D224  D(63,45,46,64)          0.0001         estimate D2E/DX2                !
 --------------------------------------------------------------------------------
 Trust Radius=3.00D-01 FncErr=1.00D-07 GrdErr=1.00D-06
 Number of steps in this run=    432 maximum allowed number of steps=    432.
 GradGradGradGradGradGradGradGradGradGradGradGradGradGradGradGradGradGrad

 Leave Link  103 at Tue Aug  4 10:38:18 2020, MaxMem=    33554432 cpu:         0.0
 (Enter /cluster/apps/gaussian/g09/l202.exe)
 Stoichiometry    C42H26N4
 Framework group  C2[X(C42H26N4)]
 Deg. of freedom   106
 Full point group                 C2      NOp   2
 Largest Abelian subgroup         C2      NOp   2
 Largest concise Abelian subgroup C2      NOp   2
                         Standard orientation:                         
 ---------------------------------------------------------------------
 Center     Atomic      Atomic             Coordinates (Angstroms)
 Number     Number       Type             X           Y           Z
 ---------------------------------------------------------------------
      1          6           0        0.705793   13.451571    0.000611
      2          6           0       -0.705795   13.451570    0.000611
      3          6           0        1.398477   12.262053    0.000448
      4          6           0        0.715286   11.021197    0.000280
      5          6           0       -0.715287   11.021196    0.000281
      6          6           0       -1.398477   12.262053    0.000449
      7          6           0       -1.398143    9.777526    0.000115
      8          6           0       -0.715815    8.583208   -0.000052
      9          6           0        0.715814    8.583208   -0.000052
     10          6           0        1.398143    9.777526    0.000115
     11          7           0        1.361636    7.353327   -0.000245
     12          6           0        0.724320    6.119996   -0.000220
     13          6           0       -0.724320    6.119995   -0.000220
     14          7           0       -1.361636    7.353327   -0.000248
     15          6           0       -1.404984    4.935984   -0.000215
     16          6           0       -0.726649    3.675225   -0.000220
     17          6           0        0.726649    3.675226   -0.000220
     18          6           0        1.404985    4.935984   -0.000215
     19          6           0        1.403978    2.467398   -0.000222
     20          6           0        0.726346    1.225079   -0.000222
     21          6           0       -0.726346    1.225078   -0.000222
     22          6           0       -1.403978    2.467397   -0.000221
     23          6           0       -1.404128    0.000000   -0.000222
     24          6           0       -0.726346   -1.225079   -0.000222
     25          6           0        0.726346   -1.225078   -0.000222
     26          6           0        1.404128    0.000000   -0.000222
     27          6           0        1.403978   -2.467397   -0.000221
     28          6           0        0.726649   -3.675225   -0.000220
     29          6           0       -0.726649   -3.675226   -0.000220
     30          6           0       -1.403978   -2.467398   -0.000222
     31          6           0       -1.404985   -4.935984   -0.000215
     32          6           0       -0.724320   -6.119996   -0.000220
     33          6           0        0.724320   -6.119995   -0.000220
     34          6           0        1.404984   -4.935984   -0.000215
     35          7           0        1.361636   -7.353327   -0.000248
     36          6           0        0.715815   -8.583208   -0.000052
     37          6           0       -0.715814   -8.583208   -0.000052
     38          7           0       -1.361636   -7.353327   -0.000245
     39          6           0       -1.398143   -9.777526    0.000115
     40          6           0       -0.715286  -11.021197    0.000280
     41          6           0        0.715287  -11.021196    0.000281
     42          6           0        1.398143   -9.777526    0.000115
     43          6           0        1.398477  -12.262053    0.000449
     44          6           0        0.705795  -13.451570    0.000611
     45          6           0       -0.705793  -13.451571    0.000611
     46          6           0       -1.398477  -12.262053    0.000448
     47          1           0        1.243646   14.392883    0.000739
     48          1           0       -1.243646   14.392882    0.000739
     49          1           0        2.483798   12.261590    0.000448
     50          1           0       -2.483798   12.261590    0.000450
     51          1           0       -2.483986    9.772016    0.000117
     52          1           0        2.483986    9.772016    0.000117
     53          1           0       -2.490738    4.942813   -0.000213
     54          1           0        2.490739    4.942813   -0.000210
     55          1           0       -2.489920    2.466763   -0.000221
     56          1           0        2.490136    0.000000   -0.000222
     57          1           0       -2.489920   -2.466763   -0.000221
     58          1           0        2.490738   -4.942813   -0.000213
     59          1           0       -2.483986   -9.772016    0.000117
     60          1           0        2.483986   -9.772016    0.000117
     61          1           0        2.483798  -12.261590    0.000450
     62          1           0        1.243646  -14.392882    0.000739
     63          1           0       -1.243646  -14.392883    0.000739
     64          1           0       -2.483798  -12.261590    0.000448
     65          1           0        2.489920    2.466763   -0.000221
     66          1           0        2.489920   -2.466763   -0.000221
     67          1           0       -2.490136    0.000000   -0.000222
     68          1           0       -2.490739   -4.942813   -0.000210
     69          1           0        2.369590    7.355674   -0.000214
     70          1           0        2.369591   -7.355673   -0.000194
     71          1           0       -2.369591    7.355673   -0.000194
     72          1           0       -2.369590   -7.355674   -0.000214
 ---------------------------------------------------------------------
 Rotational constants (GHZ):      0.6176181      0.0129472      0.0126814
 Leave Link  202 at Tue Aug  4 10:38:18 2020, MaxMem=    33554432 cpu:         0.0
 (Enter /cluster/apps/gaussian/g09/l301.exe)
 Standard basis: STO-3G (5D, 7F)
 Ernie: Thresh=  0.10000D-02 Tol=  0.10000D-05 Strict=F.
 There are   128 symmetry adapted cartesian basis functions of A   symmetry.
 There are   128 symmetry adapted cartesian basis functions of B   symmetry.
 There are   128 symmetry adapted basis functions of A   symmetry.
 There are   128 symmetry adapted basis functions of B   symmetry.
   256 basis functions,   768 primitive gaussians,   256 cartesian basis functions
   153 alpha electrons      153 beta electrons
       nuclear repulsion energy      4341.4528379089 Hartrees.
 IExCor=  402 DFT=T Ex+Corr=B3LYP ExCW=0 ScaHFX=  0.200000
 ScaDFX=  0.800000  0.720000  1.000000  0.810000 ScalE2=  1.000000  1.000000
 IRadAn=      0 IRanWt=     -1 IRanGd=            0 ICorTp=0 IEmpDi=  4
 NAtoms=   72 NActive=   72 NUniq=   36 SFac= 4.00D+00 NAtFMM=   60 NAOKFM=T Big=F
 Integral buffers will be    131072 words long.
 Raffenetti 2 integral format.
 Two-electron integral symmetry is turned on.
 Leave Link  301 at Tue Aug  4 10:38:18 2020, MaxMem=    33554432 cpu:         0.0
 (Enter /cluster/apps/gaussian/g09/l302.exe)
 NPDir=0 NMtPBC=     1 NCelOv=     1 NCel=       1 NClECP=     1 NCelD=      1
         NCelK=      1 NCelE2=     1 NClLst=     1 CellRange=     0.0.
 One-electron integrals computed using PRISM.
 One-electron integral symmetry used in STVInt
 NBasis=   256 RedAO= T EigKep=  1.21D-01  NBF=   128   128
 NBsUse=   256 1.00D-06 EigRej= -1.00D+00 NBFU=   128   128
 Precomputing XC quadrature grid using
 IXCGrd= 4 IRadAn=           0 IRanWt=          -1 IRanGd=           0 AccXCQ= 0.00D+00.
 Generated NRdTot=       0 NPtTot=           0 NUsed=           0 NTot=          32
 NSgBfM=   218   218   218   218   218 MxSgAt=    72 MxSgA2=    71.
 Leave Link  302 at Tue Aug  4 10:38:19 2020, MaxMem=    33554432 cpu:         1.2
 (Enter /cluster/apps/gaussian/g09/l303.exe)
 DipDrv:  MaxL=1.
 Leave Link  303 at Tue Aug  4 10:38:20 2020, MaxMem=    33554432 cpu:         0.0
 (Enter /cluster/apps/gaussian/g09/l401.exe)
 ExpMin= 1.69D-01 ExpMax= 9.91D+01 ExpMxC= 9.91D+01 IAcc=1 IRadAn=         1 AccDes= 0.00D+00
 Harris functional with IExCor=  402 and IRadAn=       1 diagonalized for initial guess.
 HarFok:  IExCor=  402 AccDes= 0.00D+00 IRadAn=         1 IDoV= 1 UseB2=F ITyADJ=14
 ICtDFT=  3500011 ScaDFX=  1.000000  1.000000  1.000000  1.000000
 FoFCou: FMM=F IPFlag=           0 FMFlag=      100000 FMFlg1=        2000
         NFxFlg=           0 DoJE=T BraDBF=F KetDBF=T FulRan=T
         wScrn=  0.000000 ICntrl=     500 IOpCl=  0 I1Cent=   200000004 NGrid=           0
         NMat0=    1 NMatS0=      1 NMatT0=    0 NMatD0=    1 NMtDS0=    0 NMtDT0=    0
 Petite list used in FoFCou.
 Harris En= -1811.88203540418    
 JPrj=0 DoOrth=F DoCkMO=F.
 Initial guess orbital symmetries:
       Occupied  (B) (A) (A) (B) (B) (A) (B) (A) (B) (A) (B) (A)
                 (B) (A) (B) (A) (A) (B) (A) (B) (B) (A) (A) (B)
                 (B) (A) (A) (B) (A) (B) (A) (B) (B) (A) (B) (A)
                 (B) (A) (B) (A) (B) (A) (B) (A) (B) (A) (A) (B)
                 (A) (B) (A) (B) (A) (B) (A) (B) (A) (B) (B) (A)
                 (B) (A) (A) (B) (B) (A) (B) (A) (A) (B) (B) (A)
                 (A) (B) (A) (B) (B) (A) (A) (A) (B) (B) (A) (B)
                 (A) (B) (A) (B) (A) (A) (B) (B) (B) (A) (A) (B)
                 (B) (A) (A) (B) (B) (A) (A) (B) (A) (B) (B) (B)
                 (A) (A) (B) (A) (A) (B) (B) (A) (A) (B) (B) (B)
                 (A) (B) (A) (A) (A) (B) (B) (A) (B) (A) (B) (A)
                 (A) (B) (A) (B) (B) (A) (B) (A) (A) (B) (B) (A)
                 (A) (B) (B) (A) (B) (A) (B) (A) (B)
       Virtual   (A) (B) (A) (A) (B) (B) (A) (A) (B) (A) (B) (B)
                 (A) (A) (B) (A) (B) (A) (B) (A) (B) (B) (A) (B)
                 (A) (B) (A) (A) (B) (A) (B) (B) (A) (B) (A) (B)
                 (A) (A) (B) (B) (A) (B) (A) (A) (B) (A) (B) (A)
                 (B) (A) (B) (B) (A) (A) (B) (A) (A) (B) (B) (B)
                 (A) (A) (B) (B) (B) (A) (A) (A) (B) (A) (B) (B)
                 (B) (A) (A) (A) (A) (B) (B) (B) (A) (B) (A) (B)
                 (A) (B) (A) (A) (B) (A) (B) (A) (B) (A) (B) (A)
                 (B) (A) (B) (A) (B) (B) (A)
 The electronic state of the initial guess is 1-A.
 Leave Link  401 at Tue Aug  4 10:38:21 2020, MaxMem=    33554432 cpu:         1.5
 (Enter /cluster/apps/gaussian/g09/l502.exe)
 Closed shell SCF:
 Using DIIS extrapolation, IDIIS=    10.
 Integral symmetry usage will be decided dynamically.
 IVT=     4406646 IEndB=     4406646 NGot=    33554432 MDV=    33411979
 LenX=    33411979 LenY=    33346002
 Requested convergence on RMS density matrix=1.00D-07 within2048 cycles.
 Requested convergence on MAX density matrix=1.00D-05.
 Requested convergence on             energy=1.00D-05.
 Level shift goal  0.100 maximum shift  0.100.
 No special actions if energy rises.
 Fock matrices will be formed incrementally for  20 cycles.
 Integral accuracy reduced to 1.0D-05 until final iterations.

 Cycle   1  Pass 0  IDiag  1:
 FoFJK:  IHMeth= 1 ICntrl=       0 DoSepK=F KAlg= 0 I1Cent=   0 FoldK=F
 IRaf= 400000000 NMat=   1 IRICut=       1 DoRegI=T DoRafI=F ISym2E= 1.
 FoFCou: FMM=F IPFlag=           0 FMFlag=      100000 FMFlg1=        2000
         NFxFlg=           0 DoJE=F BraDBF=F KetDBF=F FulRan=T
         wScrn=  0.000000 ICntrl=       0 IOpCl=  0 I1Cent=           0 NGrid=           0
         NMat0=    1 NMatS0=      1 NMatT0=    0 NMatD0=    1 NMtDS0=    0 NMtDT0=    0
 Petite list used in FoFCou.
 E= -1812.13185104053    
 DIIS: error= 5.28D-02 at cycle   1 NSaved=   1.
 NSaved= 1 IEnMin= 1 EnMin= -1812.13185104053     IErMin= 1 ErrMin= 5.28D-02
 ErrMax= 5.28D-02  0.00D+00 EMaxC= 1.00D+00 BMatC= 2.76D-01 BMatP= 2.76D-01
 IDIUse=1 WtCom= 1.00D+00 WtEn= 0.00D+00
 Coeff-Com:  0.100D+01
 Coeff:      0.100D+01
 Gap=     0.149 Goal=     0.100 Shift=    0.000
 GapD=    0.149 DampG=1.000 DampE=0.500 DampFc=0.5000 IDamp=-1.
 Damping current iteration by 5.00D-01
 RMSDP=8.70D-03 MaxDP=3.06D-01              OVMax= 0.00D+00

 Cycle   2  Pass 0  IDiag  1:
 RMSU=  4.34D-03    CP:  9.92D-01
 E= -1812.16218301074     Delta-E=       -0.030331970212 Rises=F Damp=T
 DIIS: error= 2.26D-02 at cycle   2 NSaved=   2.
 NSaved= 2 IEnMin= 2 EnMin= -1812.16218301074     IErMin= 2 ErrMin= 2.26D-02
 ErrMax= 2.26D-02  0.00D+00 EMaxC= 1.00D+00 BMatC= 8.73D-02 BMatP= 2.76D-01
 IDIUse=1 WtCom= 1.00D+00 WtEn= 0.00D+00
 Coeff-Com:  0.315D+00 0.685D+00
 Coeff:      0.315D+00 0.685D+00
 Gap=     0.136 Goal=     0.100 Shift=    0.000
 GapD=    0.136 DampG=1.000 DampE=0.500 DampFc=0.5000 IDamp=-1.
 Damping current iteration by 5.00D-01
 RMSDP=2.76D-03 MaxDP=1.25D-01 DE=-3.03D-02 OVMax= 0.00D+00

 Cycle   3  Pass 0  IDiag  1:
 RMSU=  1.07D-03    CP:  9.95D-01  8.01D-01
 E= -1812.38135152135     Delta-E=       -0.219168510614 Rises=F Damp=T
 DIIS: error= 6.70D-03 at cycle   3 NSaved=   3.
 NSaved= 3 IEnMin= 3 EnMin= -1812.38135152135     IErMin= 3 ErrMin= 6.70D-03
 ErrMax= 6.70D-03  0.00D+00 EMaxC= 1.00D+00 BMatC= 9.38D-03 BMatP= 8.73D-02
 IDIUse=1 WtCom= 1.00D+00 WtEn= 0.00D+00
 Coeff-Com:  0.514D-01-0.287D+00 0.124D+01
 Coeff:      0.514D-01-0.287D+00 0.124D+01
 Gap=     0.093 Goal=     0.100 Shift=    0.007
 GapD=    0.093 DampG=0.500 DampE=1.000 DampFc=0.5000 IDamp=-1.
 Damping current iteration by 5.00D-01
 RMSDP=9.44D-04 MaxDP=2.13D-02 DE=-2.19D-01 OVMax= 0.00D+00

 Cycle   4  Pass 0  IDiag  1:
 RMSU=  3.59D-04    CP:  9.96D-01  7.60D-01  1.23D+00
 E= -1812.46601695786     Delta-E=       -0.084665436509 Rises=F Damp=T
 DIIS: error= 4.26D-03 at cycle   4 NSaved=   4.
 NSaved= 4 IEnMin= 4 EnMin= -1812.46601695786     IErMin= 4 ErrMin= 4.26D-03
 ErrMax= 4.26D-03  0.00D+00 EMaxC= 1.00D+00 BMatC= 2.70D-03 BMatP= 9.38D-03
 IDIUse=1 WtCom= 1.00D+00 WtEn= 0.00D+00
 Coeff-Com:  0.991D-02-0.160D+00-0.177D+00 0.133D+01
 Coeff:      0.991D-02-0.160D+00-0.177D+00 0.133D+01
 Gap=     0.094 Goal=     0.100 Shift=    0.006
 GapD=    0.094 DampG=0.500 DampE=1.000 DampFc=0.5000 IDamp=-1.
 Damping current iteration by 5.00D-01
 RMSDP=5.15D-04 MaxDP=1.85D-02 DE=-8.47D-02 OVMax= 0.00D+00

 Cycle   5  Pass 0  IDiag  1:
 RMSU=  1.23D-04    CP:  9.96D-01  7.38D-01  1.38D+00  1.33D+00
 E= -1812.50831439699     Delta-E=       -0.042297439128 Rises=F Damp=T
 DIIS: error= 2.30D-03 at cycle   5 NSaved=   5.
 NSaved= 5 IEnMin= 5 EnMin= -1812.50831439699     IErMin= 5 ErrMin= 2.30D-03
 ErrMax= 2.30D-03  0.00D+00 EMaxC= 1.00D+00 BMatC= 9.00D-04 BMatP= 2.70D-03
 IDIUse=1 WtCom= 1.00D+00 WtEn= 0.00D+00
 Coeff-Com:  0.411D-02-0.615D-01-0.260D+00 0.204D+00 0.111D+01
 Coeff:      0.411D-02-0.615D-01-0.260D+00 0.204D+00 0.111D+01
 Gap=     0.095 Goal=     0.100 Shift=    0.005
 GapD=    0.095 DampG=0.500 DampE=1.000 DampFc=0.5000 IDamp=-1.
 Damping current iteration by 5.00D-01
 RMSDP=2.77D-04 MaxDP=9.24D-03 DE=-4.23D-02 OVMax= 0.00D+00

 Cycle   6  Pass 0  IDiag  1:
 RMSU=  3.15D-05    CP:  9.97D-01  7.25D-01  1.46D+00  1.56D+00  1.19D+00
 E= -1812.52939061419     Delta-E=       -0.021076217206 Rises=F Damp=T
 DIIS: error= 1.23D-03 at cycle   6 NSaved=   6.
 NSaved= 6 IEnMin= 6 EnMin= -1812.52939061419     IErMin= 6 ErrMin= 1.23D-03
 ErrMax= 1.23D-03  0.00D+00 EMaxC= 1.00D+00 BMatC= 2.67D-04 BMatP= 9.00D-04
 IDIUse=1 WtCom= 1.00D+00 WtEn= 0.00D+00
 Coeff-Com:  0.274D-02-0.287D-01-0.152D+00 0.694D-01 0.139D+00 0.969D+00
 Coeff:      0.274D-02-0.287D-01-0.152D+00 0.694D-01 0.139D+00 0.969D+00
 Gap=     0.095 Goal=     0.100 Shift=    0.005
 GapD=    0.095 DampG=0.500 DampE=1.000 DampFc=0.5000 IDamp=-1.
 Damping current iteration by 5.00D-01
 RMSDP=1.45D-04 MaxDP=4.55D-03 DE=-2.11D-02 OVMax= 0.00D+00

 Cycle   7  Pass 0  IDiag  1:
 RMSU=  9.25D-06    CP:  9.97D-01  7.18D-01  1.51D+00  1.68D+00  1.30D+00
                    CP:  1.27D+00
 E= -1812.53986882858     Delta-E=       -0.010478214391 Rises=F Damp=T
 DIIS: error= 6.52D-04 at cycle   7 NSaved=   7.
 NSaved= 7 IEnMin= 7 EnMin= -1812.53986882858     IErMin= 7 ErrMin= 6.52D-04
 ErrMax= 6.52D-04  0.00D+00 EMaxC= 1.00D+00 BMatC= 7.55D-05 BMatP= 2.67D-04
 IDIUse=1 WtCom= 1.00D+00 WtEn= 0.00D+00
 Coeff-Com:  0.107D-02-0.169D-02 0.412D-03 0.109D-01-0.858D-01-0.860D+00
 Coeff-Com:  0.193D+01
 Coeff:      0.107D-02-0.169D-02 0.412D-03 0.109D-01-0.858D-01-0.860D+00
 Coeff:      0.193D+01
 Gap=     0.095 Goal=     0.100 Shift=    0.005
 RMSDP=7.73D-05 MaxDP=2.60D-03 DE=-1.05D-02 OVMax= 0.00D+00

 Cycle   8  Pass 0  IDiag  1:
 RMSU=  4.51D-06    CP:  9.97D-01  7.09D-01  1.55D+00  1.80D+00  1.42D+00
                    CP:  1.67D+00  2.05D+00
 E= -1812.55028022975     Delta-E=       -0.010411401162 Rises=F Damp=F
 DIIS: error= 2.47D-05 at cycle   8 NSaved=   8.
 NSaved= 8 IEnMin= 8 EnMin= -1812.55028022975     IErMin= 8 ErrMin= 2.47D-05
 ErrMax= 2.47D-05  0.00D+00 EMaxC= 1.00D+00 BMatC= 2.06D-07 BMatP= 7.55D-05
 IDIUse=1 WtCom= 1.00D+00 WtEn= 0.00D+00
 Coeff-Com:  0.589D-03-0.208D-03 0.654D-02 0.471D-02-0.503D-01-0.542D+00
 Coeff-Com:  0.111D+01 0.469D+00
 Coeff:      0.589D-03-0.208D-03 0.654D-02 0.471D-02-0.503D-01-0.542D+00
 Coeff:      0.111D+01 0.469D+00
 Gap=     0.095 Goal=     0.100 Shift=    0.005
 RMSDP=2.63D-06 MaxDP=1.12D-04 DE=-1.04D-02 OVMax= 0.00D+00

 Initial convergence to 1.0D-05 achieved.  Increase integral accuracy.
 Cycle   9  Pass 1  IDiag  1:
 E= -1812.54967126382     Delta-E=        0.000608965926 Rises=F Damp=F
 DIIS: error= 1.28D-05 at cycle   1 NSaved=   1.
 NSaved= 1 IEnMin= 1 EnMin= -1812.54967126382     IErMin= 1 ErrMin= 1.28D-05
 ErrMax= 1.28D-05  0.00D+00 EMaxC= 1.00D+00 BMatC= 3.44D-08 BMatP= 3.44D-08
 IDIUse=1 WtCom= 1.00D+00 WtEn= 0.00D+00
 Coeff-Com:  0.100D+01
 Coeff:      0.100D+01
 Gap=     0.095 Goal=   None    Shift=    0.000
 RMSDP=2.63D-06 MaxDP=1.12D-04 DE= 6.09D-04 OVMax= 0.00D+00

 Cycle  10  Pass 1  IDiag  1:
 RMSU=  2.07D-06    CP:  1.00D+00
 E= -1812.54967128419     Delta-E=       -0.000000020366 Rises=F Damp=F
 DIIS: error= 1.54D-05 at cycle   2 NSaved=   2.
 NSaved= 2 IEnMin= 2 EnMin= -1812.54967128419     IErMin= 1 ErrMin= 1.28D-05
 ErrMax= 1.54D-05  0.00D+00 EMaxC= 1.00D+00 BMatC= 2.98D-08 BMatP= 3.44D-08
 IDIUse=1 WtCom= 1.00D+00 WtEn= 0.00D+00
 Coeff-Com:  0.475D+00 0.525D+00
 Coeff:      0.475D+00 0.525D+00
 Gap=     0.095 Goal=   None    Shift=    0.000
 RMSDP=1.85D-06 MaxDP=7.74D-05 DE=-2.04D-08 OVMax= 0.00D+00

 Cycle  11  Pass 1  IDiag  1:
 RMSU=  1.25D-06    CP:  1.00D+00  3.42D-01
 E= -1812.54967130662     Delta-E=       -0.000000022437 Rises=F Damp=F
 DIIS: error= 1.16D-05 at cycle   3 NSaved=   3.
 NSaved= 3 IEnMin= 3 EnMin= -1812.54967130662     IErMin= 3 ErrMin= 1.16D-05
 ErrMax= 1.16D-05  0.00D+00 EMaxC= 1.00D+00 BMatC= 1.53D-08 BMatP= 2.98D-08
 IDIUse=1 WtCom= 1.00D+00 WtEn= 0.00D+00
 Coeff-Com: -0.553D-04 0.416D+00 0.584D+00
 Coeff:     -0.553D-04 0.416D+00 0.584D+00
 Gap=     0.095 Goal=   None    Shift=    0.000
 RMSDP=7.96D-07 MaxDP=2.85D-05 DE=-2.24D-08 OVMax= 0.00D+00

 Cycle  12  Pass 1  IDiag  1:
 RMSU=  2.38D-07    CP:  1.00D+00  6.16D-01  5.94D-01
 E= -1812.54967132787     Delta-E=       -0.000000021250 Rises=F Damp=F
 DIIS: error= 1.34D-06 at cycle   4 NSaved=   4.
 NSaved= 4 IEnMin= 4 EnMin= -1812.54967132787     IErMin= 4 ErrMin= 1.34D-06
 ErrMax= 1.34D-06  0.00D+00 EMaxC= 1.00D+00 BMatC= 5.95D-10 BMatP= 1.53D-08
 IDIUse=1 WtCom= 1.00D+00 WtEn= 0.00D+00
 Coeff-Com: -0.161D-01 0.246D+00 0.360D+00 0.410D+00
 Coeff:     -0.161D-01 0.246D+00 0.360D+00 0.410D+00
 Gap=     0.095 Goal=   None    Shift=    0.000
 RMSDP=1.48D-07 MaxDP=5.84D-06 DE=-2.13D-08 OVMax= 0.00D+00

 Cycle  13  Pass 1  IDiag  1:
 RMSU=  3.71D-08    CP:  1.00D+00  6.19D-01  6.17D-01  4.12D-01
 E= -1812.54967132939     Delta-E=       -0.000000001518 Rises=F Damp=F
 DIIS: error= 1.66D-07 at cycle   5 NSaved=   5.
 NSaved= 5 IEnMin= 5 EnMin= -1812.54967132939     IErMin= 5 ErrMin= 1.66D-07
 ErrMax= 1.66D-07  0.00D+00 EMaxC= 1.00D+00 BMatC= 6.03D-12 BMatP= 5.95D-10
 IDIUse=1 WtCom= 1.00D+00 WtEn= 0.00D+00
 Coeff-Com: -0.619D-02 0.789D-01 0.108D+00 0.142D+00 0.677D+00
 Coeff:     -0.619D-02 0.789D-01 0.108D+00 0.142D+00 0.677D+00
 Gap=     0.095 Goal=   None    Shift=    0.000
 RMSDP=1.61D-08 MaxDP=6.68D-07 DE=-1.52D-09 OVMax= 0.00D+00

 SCF Done:  E(RB3LYP) =  -1812.54967133     A.U. after   13 cycles
            NFock= 13  Conv=0.16D-07     -V/T= 2.0175
 KE= 1.781433988106D+03 PE=-1.288133025192D+04 EE= 4.945893754574D+03
 Leave Link  502 at Tue Aug  4 10:39:01 2020, MaxMem=    33554432 cpu:        39.8
 (Enter /cluster/apps/gaussian/g09/l601.exe)
 Copying SCF densities to generalized density rwf, IOpCl= 0 IROHF=0.

 **********************************************************************

            Population analysis using the SCF density.

 **********************************************************************

 Orbital symmetries:
       Occupied  (B) (A) (B) (A) (B) (A) (A) (B) (B) (A) (B) (A)
                 (B) (A) (B) (A) (B) (A) (B) (A) (B) (A) (B) (A)
                 (B) (A) (B) (A) (B) (A) (B) (A) (B) (A) (B) (A)
                 (B) (A) (A) (B) (B) (A) (A) (B) (B) (A) (A) (B)
                 (B) (A) (A) (B) (A) (B) (A) (B) (A) (B) (B) (A)
                 (B) (A) (A) (B) (B) (A) (A) (B) (B) (A) (A) (B)
                 (B) (A) (A) (B) (B) (A) (A) (B) (A) (A) (B) (B)
                 (A) (A) (B) (B) (A) (A) (B) (B) (A) (B) (A) (B)
                 (A) (B) (B) (A) (B) (A) (A) (B) (A) (B) (A) (B)
                 (B) (A) (B) (B) (A) (A) (A) (A) (B) (A) (B) (B)
                 (B) (A) (A) (B) (B) (B) (B) (A) (A) (A) (B) (A)
                 (B) (A) (B) (B) (A) (A) (A) (B) (A) (B) (B) (A)
                 (A) (B) (B) (A) (B) (A) (A) (B) (B)
       Virtual   (A) (B) (A) (A) (B) (B) (A) (A) (B) (B) (A) (B)
                 (A) (A) (B) (A) (B) (A) (B) (A) (B) (B) (A) (A)
                 (B) (B) (A) (A) (B) (B) (A) (B) (A) (A) (B) (B)
                 (A) (A) (B) (B) (A) (B) (A) (A) (B) (A) (B) (A)
                 (B) (A) (A) (B) (B) (B) (A) (A) (A) (B) (B) (A)
                 (B) (A) (B) (B) (A) (B) (B) (A) (A) (A) (B) (A)
                 (B) (B) (A) (A) (A) (B) (B) (B) (A) (B) (A) (B)
                 (B) (A) (A) (A) (A) (B) (B) (B) (A) (A) (B) (A)
                 (B) (A) (B) (A) (B) (B) (A)
 The electronic state is 1-A.
 Alpha  occ. eigenvalues --  -14.21420 -14.21420 -14.21418 -14.21418 -10.07355
 Alpha  occ. eigenvalues --  -10.07355 -10.07272 -10.07272 -10.07184 -10.07184
 Alpha  occ. eigenvalues --  -10.07095 -10.07095 -10.01458 -10.01458 -10.01377
 Alpha  occ. eigenvalues --  -10.01377 -10.01075 -10.01075 -10.00986 -10.00986
 Alpha  occ. eigenvalues --  -10.00491 -10.00487 -10.00404 -10.00398 -10.00044
 Alpha  occ. eigenvalues --  -10.00044 -10.00036 -10.00036  -9.99827  -9.99827
 Alpha  occ. eigenvalues --   -9.99783  -9.99783  -9.99755  -9.99755  -9.99717
 Alpha  occ. eigenvalues --   -9.99717  -9.99397  -9.99397  -9.99390  -9.99390
 Alpha  occ. eigenvalues --   -9.98772  -9.98771  -9.98765  -9.98764  -9.98762
 Alpha  occ. eigenvalues --   -9.98753  -0.95200  -0.95200  -0.90024  -0.90024
 Alpha  occ. eigenvalues --   -0.83290  -0.83085  -0.82264  -0.81302  -0.79820
 Alpha  occ. eigenvalues --   -0.78199  -0.76694  -0.74798  -0.73830  -0.73543
 Alpha  occ. eigenvalues --   -0.72793  -0.72338  -0.71932  -0.70496  -0.69760
 Alpha  occ. eigenvalues --   -0.68757  -0.68186  -0.67389  -0.66866  -0.65847
 Alpha  occ. eigenvalues --   -0.63340  -0.63253  -0.62080  -0.60086  -0.59058
 Alpha  occ. eigenvalues --   -0.57793  -0.57408  -0.55578  -0.55550  -0.55478
 Alpha  occ. eigenvalues --   -0.54509  -0.54312  -0.54243  -0.51928  -0.50353
 Alpha  occ. eigenvalues --   -0.50175  -0.50095  -0.50075  -0.49377  -0.49181
 Alpha  occ. eigenvalues --   -0.48969  -0.45934  -0.45867  -0.45769  -0.44101
 Alpha  occ. eigenvalues --   -0.43892  -0.42172  -0.41231  -0.41196  -0.40634
 Alpha  occ. eigenvalues --   -0.40278  -0.40193  -0.40041  -0.39823  -0.39806
 Alpha  occ. eigenvalues --   -0.39799  -0.39438  -0.38552  -0.38385  -0.38276
 Alpha  occ. eigenvalues --   -0.37095  -0.36980  -0.36951  -0.36725  -0.36324
 Alpha  occ. eigenvalues --   -0.35941  -0.35569  -0.34748  -0.34117  -0.34075
 Alpha  occ. eigenvalues --   -0.33900  -0.33392  -0.33049  -0.32743  -0.32396
 Alpha  occ. eigenvalues --   -0.31436  -0.31179  -0.31177  -0.30417  -0.29874
 Alpha  occ. eigenvalues --   -0.29624  -0.29604  -0.28421  -0.28420  -0.27930
 Alpha  occ. eigenvalues --   -0.27659  -0.27512  -0.26158  -0.24862  -0.24286
 Alpha  occ. eigenvalues --   -0.23185  -0.22414  -0.21808  -0.21268  -0.20273
 Alpha  occ. eigenvalues --   -0.18739  -0.18225  -0.15941  -0.14437  -0.12704
 Alpha  occ. eigenvalues --   -0.11167  -0.10164  -0.09050
 Alpha virt. eigenvalues --    0.00416   0.04407   0.05553   0.06755   0.07085
 Alpha virt. eigenvalues --    0.08040   0.10248   0.11090   0.13641   0.13954
 Alpha virt. eigenvalues --    0.14141   0.15205   0.17867   0.17928   0.20359
 Alpha virt. eigenvalues --    0.22192   0.25922   0.27218   0.27309   0.29807
 Alpha virt. eigenvalues --    0.30354   0.30534   0.30783   0.31141   0.33882
 Alpha virt. eigenvalues --    0.34311   0.35074   0.35568   0.35571   0.35680
 Alpha virt. eigenvalues --    0.35925   0.36323   0.37036   0.37891   0.37894
 Alpha virt. eigenvalues --    0.39260   0.39799   0.40774   0.41067   0.41182
 Alpha virt. eigenvalues --    0.41893   0.42139   0.42174   0.42449   0.42955
 Alpha virt. eigenvalues --    0.43824   0.44440   0.44696   0.45651   0.45653
 Alpha virt. eigenvalues --    0.46672   0.46678   0.47218   0.47352   0.47814
 Alpha virt. eigenvalues --    0.48181   0.48279   0.48421   0.49004   0.49950
 Alpha virt. eigenvalues --    0.50072   0.50327   0.51244   0.52720   0.53409
 Alpha virt. eigenvalues --    0.55304   0.55485   0.55633   0.57178   0.57350
 Alpha virt. eigenvalues --    0.58062   0.58908   0.58984   0.59029   0.59754
 Alpha virt. eigenvalues --    0.60941   0.63511   0.64059   0.64592   0.64841
 Alpha virt. eigenvalues --    0.65411   0.66071   0.66848   0.67184   0.68319
 Alpha virt. eigenvalues --    0.68686   0.69465   0.70625   0.71169   0.71613
 Alpha virt. eigenvalues --    0.71935   0.72954   0.73166   0.76190   0.76975
 Alpha virt. eigenvalues --    0.80641   0.82163   0.82982   0.83956   0.84035
 Alpha virt. eigenvalues --    0.84414   0.86063   0.86405
          Condensed to atoms (all electrons):
 Mulliken charges:
               1
     1  C   -0.085779
     2  C   -0.085779
     3  C   -0.082889
     4  C   -0.006020
[...]
 Largest Abelian subgroup         C2      NOp   2
 Largest concise Abelian subgroup C2      NOp   2
                         Standard orientation:                         
 ---------------------------------------------------------------------
 Center     Atomic      Atomic             Coordinates (Angstroms)
 Number     Number       Type             X           Y           Z
 ---------------------------------------------------------------------
      1          6           0      -13.642932    0.715060    0.000444
      2          6           0      -13.642932   -0.715060    0.000444
      3          6           0      -12.444202    1.416837    0.000325
      4          6           0      -11.184284    0.723616    0.000199
      5          6           0      -11.184284   -0.723616    0.000198
      6          6           0      -12.444202   -1.416837    0.000324
      7          6           0       -9.926406   -1.424059    0.000073
      8          6           0       -8.720812   -0.728728   -0.000052
      9          6           0       -8.720812    0.728728   -0.000051
     10          6           0       -9.926406    1.424059    0.000074
     11          7           0       -7.459610    1.396524   -0.000204
     12          6           0       -6.194172    0.737193   -0.000168
     13          6           0       -6.194172   -0.737193   -0.000169
     14          7           0       -7.459610   -1.396524   -0.000209
     15          6           0       -5.000042   -1.431099   -0.000155
     16          6           0       -3.721882   -0.736387   -0.000148
     17          6           0       -3.721882    0.736387   -0.000148
     18          6           0       -5.000042    1.431099   -0.000155
     19          6           0       -2.500489    1.424532   -0.000142
     20          6           0       -1.240559    0.735088   -0.000138
     21          6           0       -1.240559   -0.735088   -0.000138
     22          6           0       -2.500489   -1.424532   -0.000142
     23          6           0        0.000000   -1.424498   -0.000137
     24          6           0        1.240559   -0.735088   -0.000138
     25          6           0        1.240559    0.735088   -0.000138
     26          6           0        0.000000    1.424498   -0.000137
     27          6           0        2.500489    1.424532   -0.000142
     28          6           0        3.721882    0.736387   -0.000148
     29          6           0        3.721882   -0.736387   -0.000148
     30          6           0        2.500489   -1.424532   -0.000142
     31          6           0        5.000042   -1.431099   -0.000155
     32          6           0        6.194172   -0.737193   -0.000168
     33          6           0        6.194172    0.737193   -0.000169
     34          6           0        5.000042    1.431099   -0.000155
     35          7           0        7.459610    1.396524   -0.000209
     36          6           0        8.720812    0.728728   -0.000052
     37          6           0        8.720812   -0.728728   -0.000051
     38          7           0        7.459610   -1.396524   -0.000204
     39          6           0        9.926406   -1.424059    0.000074
     40          6           0       11.184284   -0.723616    0.000199
     41          6           0       11.184284    0.723616    0.000198
     42          6           0        9.926406    1.424059    0.000073
     43          6           0       12.444202    1.416837    0.000324
     44          6           0       13.642932    0.715060    0.000444
     45          6           0       13.642932   -0.715060    0.000444
     46          6           0       12.444202   -1.416837    0.000325
     47          1           0      -14.598801    1.255518    0.000539
     48          1           0      -14.598801   -1.255518    0.000539
     49          1           0      -12.441431    2.515120    0.000324
     50          1           0      -12.441431   -2.515120    0.000324
     51          1           0       -9.919575   -2.521125    0.000073
     52          1           0       -9.919575    2.521125    0.000075
     53          1           0       -5.007958   -2.527894   -0.000154
     54          1           0       -5.007958    2.527894   -0.000152
     55          1           0       -2.499308   -2.522656   -0.000142
     56          1           0        0.000000    2.522893   -0.000137
     57          1           0        2.499308   -2.522656   -0.000143
     58          1           0        5.007958    2.527894   -0.000154
     59          1           0        9.919575   -2.521125    0.000075
     60          1           0        9.919575    2.521125    0.000073
     61          1           0       12.441431    2.515120    0.000324
     62          1           0       14.598801    1.255518    0.000539
     63          1           0       14.598801   -1.255518    0.000539
     64          1           0       12.441431   -2.515120    0.000324
     65          1           0       -2.499308    2.522656   -0.000143
     66          1           0        2.499308    2.522656   -0.000142
     67          1           0        0.000000   -2.522893   -0.000137
     68          1           0        5.007958   -2.527894   -0.000152
     69          1           0       -7.462516    2.437237   -0.000137
     70          1           0        7.462516    2.437237   -0.000133
     71          1           0       -7.462516   -2.437237   -0.000133
     72          1           0        7.462516   -2.437237   -0.000137
 ---------------------------------------------------------------------
 Rotational constants (GHZ):      0.5972060      0.0125779      0.0123185
 Leave Link  202 at Tue Aug  4 10:42:02 2020, MaxMem=    33554432 cpu:         0.0
 (Enter /cluster/apps/gaussian/g09/l601.exe)
 Copying SCF densities to generalized density rwf, IOpCl= 0 IROHF=0.

 **********************************************************************

            Population analysis using the SCF density.

 **********************************************************************

 Orbital symmetries:
       Occupied  (B) (A) (B) (A) (B) (A) (A) (B) (B) (A) (B) (A)
                 (B) (A) (B) (A) (B) (A) (B) (A) (B) (A) (B) (A)
                 (B) (A) (B) (A) (B) (A) (B) (A) (B) (A) (B) (A)
                 (B) (A) (A) (B) (B) (A) (A) (B) (B) (A) (A) (B)
                 (B) (A) (A) (B) (A) (B) (A) (B) (A) (B) (B) (A)
                 (B) (A) (A) (B) (B) (A) (A) (B) (B) (A) (B) (A)
                 (B) (A) (A) (B) (B) (A) (A) (B) (A) (A) (B) (B)
                 (A) (B) (A) (B) (A) (A) (B) (B) (B) (A) (A) (B)
                 (A) (B) (B) (A) (B) (A) (B) (A) (A) (B) (A) (B)
                 (A) (B) (B) (A) (B) (A) (A) (A) (B) (A) (B) (B)
                 (B) (A) (B) (A) (B) (B) (A) (B) (A) (A) (B) (A)
                 (B) (A) (B) (A) (B) (A) (A) (B) (A) (B) (B) (A)
                 (A) (B) (B) (A) (B) (A) (A) (B) (B)
       Virtual   (A) (B) (A) (A) (B) (B) (A) (A) (B) (B) (A) (B)
                 (A) (A) (B) (A) (A) (B) (B) (A) (B) (B) (A) (A)
                 (B) (A) (B) (A) (B) (A) (B) (B) (A) (A) (B) (B)
                 (A) (A) (B) (B) (A) (B) (A) (A) (B) (A) (B) (A)
                 (B) (A) (B) (A) (B) (A) (B) (A) (B) (A) (B) (A)
                 (B) (A) (B) (B) (A) (B) (B) (A) (A) (A) (B) (A)
                 (B) (B) (A) (A) (A) (B) (B) (B) (A) (B) (A) (B)
                 (B) (A) (A) (A) (A) (B) (B) (B) (A) (A) (B) (A)
                 (B) (A) (B) (A) (B) (B) (A)
 The electronic state is 1-A.
 Alpha  occ. eigenvalues --  -14.20408 -14.20408 -14.20406 -14.20406 -10.07124
 Alpha  occ. eigenvalues --  -10.07124 -10.07034 -10.07034 -10.06984 -10.06984
 Alpha  occ. eigenvalues --  -10.06890 -10.06890 -10.01554 -10.01554 -10.01469
 Alpha  occ. eigenvalues --  -10.01469 -10.01246 -10.01246 -10.01154 -10.01154
 Alpha  occ. eigenvalues --  -10.00674 -10.00669 -10.00582 -10.00577 -10.00191
 Alpha  occ. eigenvalues --  -10.00191 -10.00185 -10.00185  -9.99926  -9.99926
 Alpha  occ. eigenvalues --   -9.99890  -9.99890  -9.99859  -9.99859  -9.99809
 Alpha  occ. eigenvalues --   -9.99809  -9.99588  -9.99588  -9.99581  -9.99581
 Alpha  occ. eigenvalues --   -9.98980  -9.98980  -9.98975  -9.98973  -9.98972
 Alpha  occ. eigenvalues --   -9.98963  -0.92539  -0.92539  -0.87662  -0.87662
 Alpha  occ. eigenvalues --   -0.82131  -0.81889  -0.81189  -0.80233  -0.78720
 Alpha  occ. eigenvalues --   -0.77118  -0.75688  -0.73834  -0.73033  -0.72686
 Alpha  occ. eigenvalues --   -0.72037  -0.71377  -0.71247  -0.69753  -0.68825
 Alpha  occ. eigenvalues --   -0.67972  -0.67216  -0.66760  -0.65829  -0.65340
 Alpha  occ. eigenvalues --   -0.62680  -0.61748  -0.60579  -0.59107  -0.58015
 Alpha  occ. eigenvalues --   -0.56984  -0.56549  -0.55029  -0.54906  -0.54861
 Alpha  occ. eigenvalues --   -0.54002  -0.53746  -0.53681  -0.51220  -0.49008
 Alpha  occ. eigenvalues --   -0.48792  -0.48581  -0.48461  -0.48456  -0.48065
 Alpha  occ. eigenvalues --   -0.47921  -0.45229  -0.45150  -0.45056  -0.43446
 Alpha  occ. eigenvalues --   -0.42959  -0.41839  -0.40984  -0.40432  -0.40431
 Alpha  occ. eigenvalues --   -0.40059  -0.39811  -0.39521  -0.39513  -0.38760
 Alpha  occ. eigenvalues --   -0.38160  -0.37976  -0.37965  -0.37829  -0.37749
 Alpha  occ. eigenvalues --   -0.36615  -0.36602  -0.36502  -0.36057  -0.35839
 Alpha  occ. eigenvalues --   -0.35455  -0.35334  -0.33844  -0.33733  -0.33385
 Alpha  occ. eigenvalues --   -0.33154  -0.33036  -0.32416  -0.32131  -0.31948
 Alpha  occ. eigenvalues --   -0.30537  -0.30264  -0.29572  -0.29567  -0.29534
 Alpha  occ. eigenvalues --   -0.29230  -0.28792  -0.28290  -0.28290  -0.27879
 Alpha  occ. eigenvalues --   -0.27168  -0.26919  -0.26159  -0.24173  -0.23745
 Alpha  occ. eigenvalues --   -0.22676  -0.21876  -0.21220  -0.20734  -0.19756
 Alpha  occ. eigenvalues --   -0.18342  -0.17762  -0.15697  -0.14225  -0.12534
 Alpha  occ. eigenvalues --   -0.11010  -0.10091  -0.09066
 Alpha virt. eigenvalues --    0.00349   0.04270   0.05336   0.06493   0.06700
 Alpha virt. eigenvalues --    0.07728   0.09690   0.10546   0.12998   0.13346
 Alpha virt. eigenvalues --    0.13513   0.14492   0.17058   0.17248   0.19488
 Alpha virt. eigenvalues --    0.21075   0.24026   0.24094   0.24687   0.28554
 Alpha virt. eigenvalues --    0.29212   0.29525   0.29691   0.29811   0.30894
 Alpha virt. eigenvalues --    0.31216   0.32377   0.33947   0.34007   0.34234
 Alpha virt. eigenvalues --    0.34463   0.34561   0.35867   0.36495   0.36512
 Alpha virt. eigenvalues --    0.37040   0.37975   0.38214   0.38945   0.39375
 Alpha virt. eigenvalues --    0.40010   0.40342   0.40388   0.40635   0.40847
 Alpha virt. eigenvalues --    0.41581   0.42569   0.42732   0.43484   0.43487
 Alpha virt. eigenvalues --    0.44127   0.44186   0.44253   0.44950   0.45231
 Alpha virt. eigenvalues --    0.45832   0.45959   0.46019   0.46353   0.47681
 Alpha virt. eigenvalues --    0.47908   0.47999   0.49309   0.50932   0.51708
 Alpha virt. eigenvalues --    0.53089   0.53362   0.53401   0.54807   0.55303
 Alpha virt. eigenvalues --    0.55548   0.56587   0.56700   0.56818   0.57417
 Alpha virt. eigenvalues --    0.58405   0.60690   0.61661   0.61994   0.62375
 Alpha virt. eigenvalues --    0.63237   0.63638   0.64166   0.64403   0.65405
 Alpha virt. eigenvalues --    0.65841   0.67022   0.68068   0.68224   0.68773
 Alpha virt. eigenvalues --    0.69180   0.69975   0.70387   0.72876   0.73939
 Alpha virt. eigenvalues --    0.77624   0.79170   0.79811   0.80695   0.80741
 Alpha virt. eigenvalues --    0.81014   0.82582   0.83035
          Condensed to atoms (all electrons):
 Mulliken charges:
               1
     1  C   -0.083081
     2  C   -0.083081
     3  C   -0.080604
     4  C   -0.005788
     5  C   -0.005788
     6  C   -0.080604
     7  C   -0.098845
     8  C    0.082673
     9  C    0.082673
    10  C   -0.098845
    11  N   -0.284405
    12  C    0.083617
    13  C    0.083617
    14  N   -0.284405
    15  C   -0.102431
    16  C   -0.005660
    17  C   -0.005660
    18  C   -0.102431
    19  C   -0.082291
    20  C   -0.008171
    21  C   -0.008171
    22  C   -0.082291
    23  C   -0.079744
    24  C   -0.008171
    25  C   -0.008171
    26  C   -0.079744
    27  C   -0.082291
    28  C   -0.005660
    29  C   -0.005660
    30  C   -0.082291
    31  C   -0.102431
    32  C    0.083617
    33  C    0.083617
    34  C   -0.102431
    35  N   -0.284405
    36  C    0.082673
    37  C    0.082673
    38  N   -0.284405
    39  C   -0.098845
    40  C   -0.005788
    41  C   -0.005788
    42  C   -0.098845
    43  C   -0.080604
    44  C   -0.083081
    45  C   -0.083081
    46  C   -0.080604
    47  H    0.076803
    48  H    0.076803
    49  H    0.074687
    50  H    0.074687
    51  H    0.073274
    52  H    0.073274
    53  H    0.071794
    54  H    0.071794
    55  H    0.071798
    56  H    0.072583
    57  H    0.071798
    58  H    0.071794
    59  H    0.073274
    60  H    0.073274
    61  H    0.074687
    62  H    0.076803
    63  H    0.076803
    64  H    0.074687
    65  H    0.071798
    66  H    0.071798
    67  H    0.072583
    68  H    0.071794
    69  H    0.220211
    70  H    0.220211
    71  H    0.220211
    72  H    0.220211
 Sum of Mulliken charges =   0.00000
 Mulliken charges with hydrogens summed into heavy atoms:
               1
     1  C   -0.006278
     2  C   -0.006278
     3  C   -0.005916
     4  C   -0.005788
     5  C   -0.005788
     6  C   -0.005916
     7  C   -0.025571
     8  C    0.082673
     9  C    0.082673
    10  C   -0.025571
    11  N   -0.064194
    12  C    0.083617
    13  C    0.083617
    14  N   -0.064194
    15  C   -0.030638
    16  C   -0.005660
    17  C   -0.005660
    18  C   -0.030638
    19  C   -0.010493
    20  C   -0.008171
    21  C   -0.008171
    22  C   -0.010493
    23  C   -0.007161
    24  C   -0.008171
    25  C   -0.008171
    26  C   -0.007161
    27  C   -0.010493
    28  C   -0.005660
    29  C   -0.005660
    30  C   -0.010493
    31  C   -0.030638
    32  C    0.083617
    33  C    0.083617
    34  C   -0.030638
    35  N   -0.064194
    36  C    0.082673
    37  C    0.082673
    38  N   -0.064194
    39  C   -0.025571
    40  C   -0.005788
    41  C   -0.005788
    42  C   -0.025571
    43  C   -0.005916
    44  C   -0.006278
    45  C   -0.006278
    46  C   -0.005916
 Electronic spatial extent (au):  <R**2>=          77944.9288
 Charge=              0.0000 electrons
 Dipole moment (field-independent basis, Debye):
    X=              0.0000    Y=              0.0000    Z=              0.0006  Tot=              0.0006
 Quadrupole moment (field-independent basis, Debye-Ang):
   XX=           -232.6105   YY=           -207.3624   ZZ=           -253.7126
   XY=              0.0000   XZ=              0.0000   YZ=              0.0000
 Traceless Quadrupole moment (field-independent basis, Debye-Ang):
   XX=             -1.3820   YY=             23.8661   ZZ=            -22.4841
   XY=              0.0000   XZ=              0.0000   YZ=              0.0000
 Octapole moment (field-independent basis, Debye-Ang**2):
  XXX=              0.0000  YYY=              0.0000  ZZZ=             -0.0017  XYY=              0.0000
  XXY=              0.0000  XXZ=              0.0436  XZZ=              0.0000  YZZ=              0.0000
  YYZ=             -0.0002  XYZ=              0.0004
 Hexadecapole moment (field-independent basis, Debye-Ang**3):
 XXXX=        -100076.3518 YYYY=          -2117.6285 ZZZZ=           -203.1417 XXXY=              0.0001
 XXXZ=              0.0000 YYYX=              0.0001 YYYZ=              0.0000 ZZZX=              0.0000
 ZZZY=              0.0000 XXYY=         -14976.3590 XXZZ=         -17683.0360 YYZZ=           -472.1871
 XXYZ=              0.0000 YYXZ=              0.0000 ZZXY=              0.0000
 N-N= 4.276303176586D+03 E-N=-1.275105115549D+04  KE= 1.779405659201D+03
 Symmetry A    KE= 8.878614587945D+02
 Symmetry B    KE= 8.915442004063D+02
 No NMR shielding tensors so no spin-rotation constants.
 Leave Link  601 at Tue Aug  4 10:42:03 2020, MaxMem=    33554432 cpu:         0.2
 (Enter /cluster/apps/gaussian/g09/l9999.exe)
 1\1\GINC-EU-MS-002-31\FOpt\RB3LYP\STO-3G\C42H26N4\CARLOP\04-Aug-2020\0
 \\#p b3lyp/sto-3g scf=(maxcycle=2048,cdiis,conver=7) opt\\acene-nh\\0,
 1\C,21.3570675441,8.2150343245,5.0676285493\C,21.3570681776,6.78491429
 67,5.0676284231\C,22.5557972171,8.9168114895,5.0675093572\C,23.8157152
 182,8.2235917504,5.0673833853\C,23.8157158595,6.7763590465,5.067383260
 7\C,22.5557984733,6.0831381917,5.0675091152\C,25.073594921,6.075917419
 2,5.0672579335\C,26.2791877777,6.7712485978,5.0671330756\C,26.27918712
 83,8.2287043754,5.0671336513\C,25.0735936602,8.9240344905,5.0672586694
 \N,27.5403892523,8.8965006619,5.0669804694\C,28.8058278978,8.237170728
 6,5.0670168094\C,28.8058285522,6.7627844833,5.067016319\N,27.540390487
 2,6.1034534303,5.066975958\C,29.9999589275,6.0688792115,5.0670298105\C
 ,31.2781183731,6.7635914975,5.067036655\C,31.2781177203,8.2363658907,5
 .0670366131\C,29.9999576646,8.9310770503,5.0670303091\C,32.499509937,8
 .9245109438,5.0670426545\C,33.7594401894,8.2350681117,5.0670465584\C,3
 3.75944084,6.7648914652,5.0670465735\C,32.4995111934,6.0754475229,5.06
 70427187\C,35.0000004579,6.0754819245,5.0670478375\C,36.2405594642,6.7
 648925615,5.0670465584\C,36.2405588136,8.235069208,5.0670465735\C,34.9
 999991957,8.9244787487,5.0670478375\C,37.5004884602,8.9245131503,5.067
 0427187\C,38.7218812805,8.2363691757,5.067036655\C,38.7218819333,6.763
 5947825,5.0670366131\C,37.5004897166,6.0754497294,5.0670426545\C,40.00
 0041989,6.0688836229,5.0670303091\C,41.1941717558,6.7627899446,5.06701
 68094\C,41.1941711014,8.2371761899,5.067016319\C,40.0000407261,8.93108
 14617,5.0670298105\N,42.4596091664,8.8965072429,5.066975958\C,43.72081
 18759,8.2287120754,5.0671330756\C,43.7208125253,6.7712562978,5.0671336
 513\N,42.4596104013,6.1034600113,5.0669804694\C,44.9264059934,6.075926
 1827,5.0672586694\C,46.1842844354,6.7763689228,5.0673833853\C,46.18428
 37941,8.2236016267,5.0673832607\C,44.9264047325,8.924043254,5.06725793
 35\C,47.4442011803,8.9168224815,5.0675091152\C,48.642931476,8.21504637
 65,5.0676284231\C,48.6429321095,6.7849263487,5.0676285493\C,47.4442024
 365,6.0831491837,5.0675093572\H,20.4011984659,8.7554919788,5.067723831
 2\H,20.40119958,6.2444557925,5.0677235962\H,22.5585680002,10.015094733
 4,5.067509118\H,22.5585702284,4.9848549505,5.0675086417\H,25.080426108
 9,4.9788512096,5.0672579831\H,25.0804238777,10.0211007059,5.0672596119
 \H,29.9920427359,4.9720842487,5.0670311688\H,29.9920405066,10.02787200
 59,5.0670325192\H,32.5006929136,4.9773236811,5.0670423748\H,34.9999987
 092,10.022873093,5.0670475411\H,37.4993089694,4.9773258869,5.067042325
 \H,40.0079569177,10.0278764245,5.0670311688\H,44.9195757759,4.97885996
 73,5.0672596119\H,44.9195735447,10.0211094636,5.0672579831\H,47.441429
 4252,10.0151057227,5.0675086417\H,49.5988000736,8.7555048807,5.0677235
 962\H,49.5988011877,6.2444686944,5.0677238312\H,47.4414316534,4.984865
 9398,5.067509118\H,32.5006906842,10.0226347863,5.067042325\H,37.499306
 74,10.0226369921,5.0670423748\H,35.0000009444,4.9770875802,5.067047541
 1\H,40.007959147,4.9720886673,5.0670325192\H,27.5374822864,9.937214085
 6,5.0670481102\H,42.4625152083,9.9372206677,5.0670514792\H,27.53748444
 53,5.0627400055,5.0670514792\H,42.4625173672,5.0627465876,5.0670481102
 \\Version=ES64L-G09RevD.01\State=1-A\HF=-1812.5839967\RMSD=5.819e-08\R
 MSF=3.168e-05\Dipole=0.,0.,0.0002169\Quadrupole=-1.02747,17.7438784,-1
 6.7164084,-0.0000084,0.,0.\PG=C02 [X(C42H26N4)]\\@


 I KNOW YOU BELIEVE YOU UNDERSTAND WHAT YOU THINK I SAID,
 BUT I AM NOT SURE YOU REALIZE THAT WHAT YOU HEARD IS NOT WHAT I MEANT.
 Job cpu time:       0 days  0 hours  3 minutes 44.3 seconds.
 File lengths (MBytes):  RWF=     48 Int=      0 D2E=      0 Chk=     10 Scr=      1
 Normal termination of Gaussian 09 at Tue Aug  4 10:42:03 2020.
