===============================================
Execution sur noeud     : dnas-node31.univ-pau.fr
Job id = 730834
Fichiers temporaire sur :  /scratch/730834
===============================================
Debut execution du job  : mer. juin  8 21:58:09 CEST 2016
 Entering Gaussian System, Link 0=g09
 Initial command:
 /opt/g09-d01/g09/l1.exe "/scratch/730834/Gau-15130.inp" -scrdir="/scratch/730834/"
 Entering Link 1 = /opt/g09-d01/g09/l1.exe PID=     15131.
  
 Copyright (c) 1988,1990,1992,1993,1995,1998,2003,2009,2013,
            Gaussian, Inc.  All Rights Reserved.
  
 This is part of the Gaussian(R) 09 program.  It is based on
 the Gaussian(R) 03 system (copyright 2003, Gaussian, Inc.),
 the Gaussian(R) 98 system (copyright 1998, Gaussian, Inc.),
 the Gaussian(R) 94 system (copyright 1995, Gaussian, Inc.),
 the Gaussian 92(TM) system (copyright 1992, Gaussian, Inc.),
 the Gaussian 90(TM) system (copyright 1990, Gaussian, Inc.),
 the Gaussian 88(TM) system (copyright 1988, Gaussian, Inc.),
 the Gaussian 86(TM) system (copyright 1986, Carnegie Mellon
 University), and the Gaussian 82(TM) system (copyright 1983,
 Carnegie Mellon University). Gaussian is a federally registered
 trademark of Gaussian, Inc.
  
 This software contains proprietary and confidential information,
 including trade secrets, belonging to Gaussian, Inc.
  
 This software is provided under written license and may be
 used, copied, transmitted, or stored only in accord with that
 written license.
  
 The following legend is applicable only to US Government
 contracts under FAR:
  
                    RESTRICTED RIGHTS LEGEND
  
 Use, reproduction and disclosure by the US Government is
 subject to restrictions as set forth in subparagraphs (a)
 and (c) of the Commercial Computer Software - Restricted
 Rights clause in FAR 52.227-19.
  
 Gaussian, Inc.
 340 Quinnipiac St., Bldg. 40, Wallingford CT 06492
  
  
 ---------------------------------------------------------------
 Warning -- This program may not be used in any manner that
 competes with the business of Gaussian, Inc. or will provide
 assistance to any competitor of Gaussian, Inc.  The licensee
 of this program is prohibited from giving any competitor of
 Gaussian, Inc. access to this program.  By using this program,
 the user acknowledges that Gaussian, Inc. is engaged in the
 business of creating and licensing software in the field of
 computational chemistry and represents and warrants to the
 licensee that it is not a competitor of Gaussian, Inc. and that
 it will not use this program in any manner prohibited above.
 ---------------------------------------------------------------
  

 Cite this work as:
 Gaussian 09, Revision D.01,
 M. J. Frisch, G. W. Trucks, H. B. Schlegel, G. E. Scuseria, 
 M. A. Robb, J. R. Cheeseman, G. Scalmani, V. Barone, B. Mennucci, 
 G. A. Petersson, H. Nakatsuji, M. Caricato, X. Li, H. P. Hratchian, 
 A. F. Izmaylov, J. Bloino, G. Zheng, J. L. Sonnenberg, M. Hada, 
 M. Ehara, K. Toyota, R. Fukuda, J. Hasegawa, M. Ishida, T. Nakajima, 
 Y. Honda, O. Kitao, H. Nakai, T. Vreven, J. A. Montgomery, Jr., 
 J. E. Peralta, F. Ogliaro, M. Bearpark, J. J. Heyd, E. Brothers, 
 K. N. Kudin, V. N. Staroverov, T. Keith, R. Kobayashi, J. Normand, 
 K. Raghavachari, A. Rendell, J. C. Burant, S. S. Iyengar, J. Tomasi, 
 M. Cossi, N. Rega, J. M. Millam, M. Klene, J. E. Knox, J. B. Cross, 
 V. Bakken, C. Adamo, J. Jaramillo, R. Gomperts, R. E. Stratmann, 
 O. Yazyev, A. J. Austin, R. Cammi, C. Pomelli, J. W. Ochterski, 
 R. L. Martin, K. Morokuma, V. G. Zakrzewski, G. A. Voth, 
 P. Salvador, J. J. Dannenberg, S. Dapprich, A. D. Daniels, 
 O. Farkas, J. B. Foresman, J. V. Ortiz, J. Cioslowski, 
 and D. J. Fox, Gaussian, Inc., Wallingford CT, 2013.
 
 ******************************************
 Gaussian 09:  EM64L-G09RevD.01 24-Apr-2013
                 8-Jun-2016 
 ******************************************
 -----------------------------
 # UHF / 6-31G 5d pop=Full opt
 -----------------------------
 1/18=20,19=15,38=1/1,3;
 2/9=110,12=2,17=6,18=5,40=1/2;
 3/5=1,6=6,8=1,11=2,16=1,25=1,30=1,71=1,116=2/1,2,3;
 4//1;
 5/5=2,38=5/2;
 6/7=3,28=1/1;
 7//1,2,3,16;
 1/18=20,19=15/3(2);
 2/9=110/2;
 99//99;
 2/9=110/2;
 3/5=1,6=6,8=1,11=2,16=1,25=1,30=1,71=1,116=2/1,2,3;
 4/5=5,16=3,69=1/1;
 5/5=2,38=5/2;
 7//1,2,3,16;
 1/18=20,19=15/3(-5);
 2/9=110/2;
 6/7=3,19=2,28=1/1;
 99/9=1/99;
 ------
 H2O HF
 ------
 Symbolic Z-matrix:
 Charge =  0 Multiplicity = 1
 O
 H                    1     0.95843 
 H                    1     0.95843  2     104.44 
 

 GradGradGradGradGradGradGradGradGradGradGradGradGradGradGradGradGradGrad
 Berny optimization.
 Initialization pass.
                           ----------------------------
                           !    Initial Parameters    !
                           ! (Angstroms and Degrees)  !
 --------------------------                            --------------------------
 ! Name  Definition              Value          Derivative Info.                !
 --------------------------------------------------------------------------------
 ! R1    R(1,2)                  0.9584         estimate D2E/DX2                !
 ! R2    R(1,3)                  0.9584         estimate D2E/DX2                !
 ! A1    A(2,1,3)              104.44           estimate D2E/DX2                !
 --------------------------------------------------------------------------------
 Trust Radius=3.00D-01 FncErr=1.00D-07 GrdErr=1.00D-07
 Number of steps in this run=     20 maximum allowed number of steps=    100.
 GradGradGradGradGradGradGradGradGradGradGradGradGradGradGradGradGradGrad

                          Input orientation:                          
 ---------------------------------------------------------------------
 Center     Atomic      Atomic             Coordinates (Angstroms)
 Number     Number       Type             X           Y           Z
 ---------------------------------------------------------------------
      1          8           0        0.000000    0.000000    0.000000
      2          1           0        0.000000    0.000000    0.958430
      3          1           0        0.928153    0.000000   -0.239000
 ---------------------------------------------------------------------
                    Distance matrix (angstroms):
                    1          2          3
     1  O    0.000000
     2  H    0.958430   0.000000
     3  H    0.958430   1.515027   0.000000
 Stoichiometry    H2O
 Framework group  C2V[C2(O),SGV(H2)]
 Deg. of freedom     2
 Full point group                 C2V     NOp   4
 Largest Abelian subgroup         C2V     NOp   4
 Largest concise Abelian subgroup C2      NOp   2
                         Standard orientation:                         
 ---------------------------------------------------------------------
 Center     Atomic      Atomic             Coordinates (Angstroms)
 Number     Number       Type             X           Y           Z
 ---------------------------------------------------------------------
      1          8           0        0.000000    0.000000    0.117433
      2          1           0        0.000000    0.757513   -0.469731
      3          1           0        0.000000   -0.757513   -0.469731
 ---------------------------------------------------------------------
 Rotational constants (GHZ):    818.8954169    436.9397570    284.9163424
 Standard basis: 6-31G (5D, 7F)
 There are     7 symmetry adapted cartesian basis functions of A1  symmetry.
 There are     0 symmetry adapted cartesian basis functions of A2  symmetry.
 There are     2 symmetry adapted cartesian basis functions of B1  symmetry.
 There are     4 symmetry adapted cartesian basis functions of B2  symmetry.
 There are     7 symmetry adapted basis functions of A1  symmetry.
 There are     0 symmetry adapted basis functions of A2  symmetry.
 There are     2 symmetry adapted basis functions of B1  symmetry.
 There are     4 symmetry adapted basis functions of B2  symmetry.
    13 basis functions,    30 primitive gaussians,    13 cartesian basis functions
     5 alpha electrons        5 beta electrons
       nuclear repulsion energy         9.1833532908 Hartrees.
 NAtoms=    3 NActive=    3 NUniq=    2 SFac= 2.25D+00 NAtFMM=   60 NAOKFM=F Big=F
 Integral buffers will be    131072 words long.
 Raffenetti 2 integral format.
 Two-electron integral symmetry is turned on.
 One-electron integrals computed using PRISM.
 NBasis=    13 RedAO= T EigKep=  1.16D-01  NBF=     7     0     2     4
 NBsUse=    13 1.00D-06 EigRej= -1.00D+00 NBFU=     7     0     2     4
 ExpMin= 1.61D-01 ExpMax= 5.48D+03 ExpMxC= 8.25D+02 IAcc=1 IRadAn=         1 AccDes= 0.00D+00
 Harris functional with IExCor=  205 and IRadAn=       1 diagonalized for initial guess.
 HarFok:  IExCor=  205 AccDes= 0.00D+00 IRadAn=         1 IDoV= 1 UseB2=F ITyADJ=14
 ICtDFT=  3500011 ScaDFX=  1.000000  1.000000  1.000000  1.000000
 FoFCou: FMM=F IPFlag=           0 FMFlag=      100000 FMFlg1=           0
         NFxFlg=           0 DoJE=T BraDBF=F KetDBF=T FulRan=T
         wScrn=  0.000000 ICntrl=     500 IOpCl=  0 I1Cent=   200000004 NGrid=           0
         NMat0=    1 NMatS0=      1 NMatT0=    0 NMatD0=    1 NMtDS0=    0 NMtDT0=    0
 Petite list used in FoFCou.
 Initial guess orbital symmetries:
 Alpha Orbitals:
       Occupied  (A1) (A1) (B2) (A1) (B1)
       Virtual   (A1) (B2) (B1) (A1) (B2) (A1) (B2) (A1)
 Beta  Orbitals:
       Occupied  (A1) (A1) (B2) (A1) (B1)
       Virtual   (A1) (B2) (B1) (A1) (B2) (A1) (B2) (A1)
 The electronic state of the initial guess is 1-A1.
 Initial guess <Sx>= 0.0000 <Sy>= 0.0000 <Sz>= 0.0000 <S**2>= 0.0000 S= 0.0000
 Keep R1 and R2 ints in memory in symmetry-blocked form, NReq=829687.
 Requested convergence on RMS density matrix=1.00D-08 within 128 cycles.
 Requested convergence on MAX density matrix=1.00D-06.
 Requested convergence on             energy=1.00D-06.
 No special actions if energy rises.
 SCF Done:  E(UHF) =  -75.9839489832     A.U. after   10 cycles
            NFock= 10  Conv=0.31D-08     -V/T= 1.9999
 <Sx>= 0.0000 <Sy>= 0.0000 <Sz>= 0.0000 <S**2>= 0.0000 S= 0.0000
 <L.S>= 0.000000000000E+00
 Annihilation of the first spin contaminant:
 S**2 before annihilation     0.0000,   after     0.0000

 **********************************************************************

            Population analysis using the SCF density.

 **********************************************************************

 Orbital symmetries:
 Alpha Orbitals:
       Occupied  (A1) (A1) (B2) (A1) (B1)
       Virtual   (A1) (B2) (B2) (B1) (A1) (A1) (B2) (A1)
 Beta  Orbitals:
       Occupied  (A1) (A1) (B2) (A1) (B1)
       Virtual   (A1) (B2) (B2) (B1) (A1) (A1) (B2) (A1)
 The electronic state is 1-A1.
 Alpha  occ. eigenvalues --  -20.56068  -1.35583  -0.70940  -0.56059  -0.50135
 Alpha virt. eigenvalues --    0.20348   0.29954   1.05677   1.16443   1.18612
 Alpha virt. eigenvalues --    1.21579   1.37909   1.69629
  Beta  occ. eigenvalues --  -20.56068  -1.35583  -0.70940  -0.56059  -0.50135
  Beta virt. eigenvalues --    0.20348   0.29954   1.05677   1.16443   1.18612
  Beta virt. eigenvalues --    1.21579   1.37909   1.69629
     Alpha Molecular Orbital Coefficients:
                           1         2         3         4         5
                        (A1)--O   (A1)--O   (B2)--O   (A1)--O   (B1)--O
     Eigenvalues --   -20.56068  -1.35583  -0.70940  -0.56059  -0.50135
   1 1   O  1S          0.99578  -0.21245   0.00000  -0.07588   0.00000
   2        2S          0.02196   0.46909   0.00000   0.18091   0.00000
   3        2PX         0.00000   0.00000   0.00000   0.00000   0.64182
   4        2PY         0.00000   0.00000   0.50570   0.00000   0.00000
   5        2PZ        -0.00210  -0.11143   0.00000   0.55041   0.00000
   6        3S         -0.00805   0.47967   0.00000   0.30664   0.00000
   7        3PX         0.00000   0.00000   0.00000   0.00000   0.50978
   8        3PY         0.00000   0.00000   0.26976   0.00000   0.00000
   9        3PZ         0.00195  -0.06055   0.00000   0.40266   0.00000
  10 2   H  1S          0.00012   0.13993   0.26307  -0.14402   0.00000
  11        2S          0.00198  -0.00828   0.12399  -0.08067   0.00000
  12 3   H  1S          0.00012   0.13993  -0.26307  -0.14402   0.00000
  13        2S          0.00198  -0.00828  -0.12399  -0.08067   0.00000
                           6         7         8         9        10
                        (A1)--V   (B2)--V   (B2)--V   (B1)--V   (A1)--V
     Eigenvalues --     0.20348   0.29954   1.05677   1.16443   1.18612
   1 1   O  1S         -0.08497   0.00000   0.00000   0.00000   0.04952
   2        2S          0.10396   0.00000   0.00000   0.00000  -0.24546
   3        2PX         0.00000   0.00000   0.00000  -0.96131   0.00000
   4        2PY         0.00000  -0.33786  -0.10371   0.00000   0.00000
   5        2PZ        -0.23100   0.00000   0.00000   0.00000   0.69812
   6        3S          1.17966   0.00000   0.00000   0.00000   0.17117
   7        3PX         0.00000   0.00000   0.00000   1.03739   0.00000
   8        3PY         0.00000  -0.82348  -0.75416   0.00000   0.00000
   9        3PZ        -0.47557   0.00000   0.00000   0.00000  -0.26458
  10 2   H  1S         -0.05786   0.04216   0.97513   0.00000   0.82298
  11        2S         -0.99198   1.38417  -0.48735   0.00000  -0.54353
  12 3   H  1S         -0.05786  -0.04216  -0.97513   0.00000   0.82298
  13        2S         -0.99198  -1.38417   0.48735   0.00000  -0.54353
                          11        12        13
                        (A1)--V   (B2)--V   (A1)--V
     Eigenvalues --     1.21579   1.37909   1.69629
   1 1   O  1S          0.07133   0.00000   0.05385
   2        2S         -0.45180   0.00000  -1.67269
   3        2PX         0.00000   0.00000   0.00000
   4        2PY         0.00000  -1.03449   0.00000
   5        2PZ        -0.69224   0.00000   0.19886
   6        3S          0.06239   0.00000   2.75826
   7        3PX         0.00000   0.00000   0.00000
   8        3PY         0.00000   1.53837   0.00000
   9        3PZ         1.17484   0.00000  -0.86578
  10 2   H  1S          0.56255   0.09530  -0.46896
  11        2S         -0.08869  -0.90901  -0.61227
  12 3   H  1S          0.56255  -0.09530  -0.46896
  13        2S         -0.08869   0.90901  -0.61227
     Beta Molecular Orbital Coefficients:
                           1         2         3         4         5
                        (A1)--O   (A1)--O   (B2)--O   (A1)--O   (B1)--O
     Eigenvalues --   -20.56068  -1.35583  -0.70940  -0.56059  -0.50135
   1 1   O  1S          0.99578  -0.21245   0.00000  -0.07588   0.00000
   2        2S          0.02196   0.46909   0.00000   0.18091   0.00000
   3        2PX         0.00000   0.00000   0.00000   0.00000   0.64182
   4        2PY         0.00000   0.00000   0.50570   0.00000   0.00000
   5        2PZ        -0.00210  -0.11143   0.00000   0.55041   0.00000
   6        3S         -0.00805   0.47967   0.00000   0.30664   0.00000
   7        3PX         0.00000   0.00000   0.00000   0.00000   0.50978
   8        3PY         0.00000   0.00000   0.26976   0.00000   0.00000
   9        3PZ         0.00195  -0.06055   0.00000   0.40266   0.00000
  10 2   H  1S          0.00012   0.13993   0.26307  -0.14402   0.00000
  11        2S          0.00198  -0.00828   0.12399  -0.08067   0.00000
  12 3   H  1S          0.00012   0.13993  -0.26307  -0.14402   0.00000
  13        2S          0.00198  -0.00828  -0.12399  -0.08067   0.00000
                           6         7         8         9        10
                        (A1)--V   (B2)--V   (B2)--V   (B1)--V   (A1)--V
     Eigenvalues --     0.20348   0.29954   1.05677   1.16443   1.18612
   1 1   O  1S         -0.08497   0.00000   0.00000   0.00000   0.04952
   2        2S          0.10396   0.00000   0.00000   0.00000  -0.24546
   3        2PX         0.00000   0.00000   0.00000  -0.96131   0.00000
   4        2PY         0.00000  -0.33786  -0.10371   0.00000   0.00000
   5        2PZ        -0.23100   0.00000   0.00000   0.00000   0.69812
   6        3S          1.17966   0.00000   0.00000   0.00000   0.17117
   7        3PX         0.00000   0.00000   0.00000   1.03739   0.00000
   8        3PY         0.00000  -0.82348  -0.75416   0.00000   0.00000
   9        3PZ        -0.47557   0.00000   0.00000   0.00000  -0.26458
  10 2   H  1S         -0.05786   0.04216   0.97513   0.00000   0.82298
  11        2S         -0.99198   1.38417  -0.48735   0.00000  -0.54353
  12 3   H  1S         -0.05786  -0.04216  -0.97513   0.00000   0.82298
  13        2S         -0.99198  -1.38417   0.48735   0.00000  -0.54353
                          11        12        13
                        (A1)--V   (B2)--V   (A1)--V
     Eigenvalues --     1.21579   1.37909   1.69629
   1 1   O  1S          0.07133   0.00000   0.05385
   2        2S         -0.45180   0.00000  -1.67269
   3        2PX         0.00000   0.00000   0.00000
   4        2PY         0.00000  -1.03449   0.00000
   5        2PZ        -0.69224   0.00000   0.19886
   6        3S          0.06239   0.00000   2.75826
   7        3PX         0.00000   0.00000   0.00000
   8        3PY         0.00000   1.53837   0.00000
   9        3PZ         1.17484   0.00000  -0.86578
  10 2   H  1S          0.56255   0.09530  -0.46896
  11        2S         -0.08869  -0.90901  -0.61227
  12 3   H  1S          0.56255  -0.09530  -0.46896
  13        2S         -0.08869   0.90901  -0.61227
     Alpha Density Matrix:
                           1         2         3         4         5
   1 1   O  1S          1.04248
   2        2S         -0.09152   0.25326
   3        2PX         0.00000   0.00000   0.41194
   4        2PY         0.00000   0.00000   0.00000   0.25574
   5        2PZ        -0.02018   0.04726   0.00000   0.00000   0.31537
   6        3S         -0.13319   0.28030   0.00000   0.00000   0.11534
   7        3PX         0.00000   0.00000   0.32719   0.00000   0.00000
   8        3PY         0.00000   0.00000   0.00000   0.13642   0.00000
   9        3PZ        -0.01575   0.04448   0.00000   0.00000   0.22837
  10 2   H  1S         -0.01868   0.03959   0.00000   0.13304  -0.09486
  11        2S          0.00985  -0.01843   0.00000   0.06270  -0.04348
  12 3   H  1S         -0.01868   0.03959   0.00000  -0.13304  -0.09486
  13        2S          0.00985  -0.01843   0.00000  -0.06270  -0.04348
                           6         7         8         9        10
   6        3S          0.32417
   7        3PX         0.00000   0.25988
   8        3PY         0.00000   0.00000   0.07277
   9        3PZ         0.09441   0.00000   0.00000   0.16580
  10 2   H  1S          0.02295   0.00000   0.07097  -0.06646   0.10953
  11        2S         -0.02872   0.00000   0.03345  -0.03198   0.04308
  12 3   H  1S          0.02295   0.00000  -0.07097  -0.06646  -0.02888
  13        2S         -0.02872   0.00000  -0.03345  -0.03198  -0.02216
                          11        12        13
  11        2S          0.02195
  12 3   H  1S         -0.02216   0.10953
  13        2S         -0.00879   0.04308   0.02195
     Beta Density Matrix:
                           1         2         3         4         5
   1 1   O  1S          1.04248
   2        2S         -0.09152   0.25326
   3        2PX         0.00000   0.00000   0.41194
   4        2PY         0.00000   0.00000   0.00000   0.25574
   5        2PZ        -0.02018   0.04726   0.00000   0.00000   0.31537
   6        3S         -0.13319   0.28030   0.00000   0.00000   0.11534
   7        3PX         0.00000   0.00000   0.32719   0.00000   0.00000
   8        3PY         0.00000   0.00000   0.00000   0.13642   0.00000
   9        3PZ        -0.01575   0.04448   0.00000   0.00000   0.22837
  10 2   H  1S         -0.01868   0.03959   0.00000   0.13304  -0.09486
  11        2S          0.00985  -0.01843   0.00000   0.06270  -0.04348
  12 3   H  1S         -0.01868   0.03959   0.00000  -0.13304  -0.09486
  13        2S          0.00985  -0.01843   0.00000  -0.06270  -0.04348
                           6         7         8         9        10
   6        3S          0.32417
   7        3PX         0.00000   0.25988
   8        3PY         0.00000   0.00000   0.07277
   9        3PZ         0.09441   0.00000   0.00000   0.16580
  10 2   H  1S          0.02295   0.00000   0.07097  -0.06646   0.10953
  11        2S         -0.02872   0.00000   0.03345  -0.03198   0.04308
  12 3   H  1S          0.02295   0.00000  -0.07097  -0.06646  -0.02888
  13        2S         -0.02872   0.00000  -0.03345  -0.03198  -0.02216
                          11        12        13
  11        2S          0.02195
  12 3   H  1S         -0.02216   0.10953
  13        2S         -0.00879   0.04308   0.02195
    Full Mulliken population analysis:
                           1         2         3         4         5
   1 1   O  1S          2.08496
   2        2S         -0.04278   0.50651
   3        2PX         0.00000   0.00000   0.82387
   4        2PY         0.00000   0.00000   0.00000   0.51147
   5        2PZ         0.00000   0.00000   0.00000   0.00000   0.63075
   6        3S         -0.04456   0.42810   0.00000   0.00000   0.00000
   7        3PX         0.00000   0.00000   0.32819   0.00000   0.00000
   8        3PY         0.00000   0.00000   0.00000   0.13683   0.00000
   9        3PZ         0.00000   0.00000   0.00000   0.00000   0.22907
  10 2   H  1S         -0.00130   0.01966   0.00000   0.06040   0.03338
  11        2S          0.00136  -0.01401   0.00000   0.01465   0.00787
  12 3   H  1S         -0.00130   0.01966   0.00000   0.06040   0.03338
  13        2S          0.00136  -0.01401   0.00000   0.01465   0.00787
                           6         7         8         9        10
   6        3S          0.64834
   7        3PX         0.00000   0.51976
   8        3PY         0.00000   0.00000   0.14554
   9        3PZ         0.00000   0.00000   0.00000   0.33161
  10 2   H  1S          0.01961   0.00000   0.06548   0.04754   0.21906
  11        2S         -0.03927   0.00000   0.02544   0.01885   0.05672
  12 3   H  1S          0.01961   0.00000   0.06548   0.04754  -0.00299
  13        2S         -0.03927   0.00000   0.02544   0.01885  -0.00994
                          11        12        13
  11        2S          0.04391
  12 3   H  1S         -0.00994   0.21906
  13        2S         -0.00908   0.05672   0.04391
     Gross orbital populations:
                         Total     Alpha     Beta      Spin
   1 1   O  1S          1.99774   0.99887   0.99887   0.00000
   2        2S          0.90314   0.45157   0.45157   0.00000
   3        2PX         1.15206   0.57603   0.57603   0.00000
   4        2PY         0.79840   0.39920   0.39920   0.00000
   5        2PZ         0.94233   0.47116   0.47116   0.00000
   6        3S          0.99257   0.49628   0.49628   0.00000
   7        3PX         0.84794   0.42397   0.42397   0.00000
   8        3PY         0.46421   0.23211   0.23211   0.00000
   9        3PZ         0.69344   0.34672   0.34672   0.00000
  10 2   H  1S          0.50760   0.25380   0.25380   0.00000
  11        2S          0.09649   0.04824   0.04824   0.00000
  12 3   H  1S          0.50760   0.25380   0.25380   0.00000
  13        2S          0.09649   0.04824   0.04824   0.00000
          Condensed to atoms (all electrons):
               1          2          3
     1  O    8.272528   0.259651   0.259651
     2  H    0.259651   0.376395  -0.031960
     3  H    0.259651  -0.031960   0.376395
          Atomic-Atomic Spin Densities.
               1          2          3
     1  O    0.000000   0.000000   0.000000
     2  H    0.000000   0.000000   0.000000
     3  H    0.000000   0.000000   0.000000
 Mulliken charges and spin densities:
               1          2
     1  O   -0.791829   0.000000
     2  H    0.395915   0.000000
     3  H    0.395915   0.000000
 Sum of Mulliken charges =   0.00000   0.00000
 Mulliken charges and spin densities with hydrogens summed into heavy atoms:
               1          2
     1  O    0.000000   0.000000
 Electronic spatial extent (au):  <R**2>=             19.1247
 Charge=              0.0000 electrons
 Dipole moment (field-independent basis, Debye):
    X=              0.0000    Y=              0.0000    Z=             -2.6319  Tot=              2.6319
 Quadrupole moment (field-independent basis, Debye-Ang):
   XX=             -7.2084   YY=             -4.2113   ZZ=             -6.1418
   XY=              0.0000   XZ=              0.0000   YZ=              0.0000
 Traceless Quadrupole moment (field-independent basis, Debye-Ang):
   XX=             -1.3546   YY=              1.6425   ZZ=             -0.2880
   XY=              0.0000   XZ=              0.0000   YZ=              0.0000
 Octapole moment (field-independent basis, Debye-Ang**2):
  XXX=              0.0000  YYY=              0.0000  ZZZ=             -1.6046  XYY=              0.0000
  XXY=              0.0000  XXZ=             -0.4459  XZZ=              0.0000  YZZ=              0.0000
  YYZ=             -1.3102  XYZ=              0.0000
 Hexadecapole moment (field-independent basis, Debye-Ang**3):
 XXXX=             -5.1812 YYYY=             -5.6378 ZZZZ=             -6.1949 XXXY=              0.0000
 XXXZ=              0.0000 YYYX=              0.0000 YYYZ=              0.0000 ZZZX=              0.0000
 ZZZY=              0.0000 XXYY=             -2.0366 XXZZ=             -1.9441 YYZZ=             -1.6635
 XXYZ=              0.0000 YYXZ=              0.0000 ZZXY=              0.0000
 N-N= 9.183353290787D+00 E-N=-1.989506819769D+02  KE= 7.599179048141D+01
 Symmetry A1   KE= 6.792161047236D+01
 Symmetry A2   KE= 0.000000000000D+00
 Symmetry B1   KE= 4.570057948966D+00
 Symmetry B2   KE= 3.500122060088D+00
 Orbital energies and kinetic energies (alpha):
                                 1                 2
   1         (A1)--O         -20.560681         29.194806
   2         (A1)--O          -1.355826          2.601346
   3         (B2)--O          -0.709404          1.750061
   4         (A1)--O          -0.560593          2.164654
   5         (B1)--O          -0.501352          2.285029
   6         (A1)--V           0.203478          0.952777
   7         (B2)--V           0.299539          1.025276
   8         (B2)--V           1.056770          2.087810
   9         (B1)--V           1.164430          3.564160
  10         (A1)--V           1.186117          3.596650
  11         (A1)--V           1.215787          3.072342
  12         (B2)--V           1.379093          4.083112
  13         (A1)--V           1.696290          3.663251
 Orbital energies and kinetic energies (beta):
                                 1                 2
   1         (A1)--O         -20.560681         29.194806
   2         (A1)--O          -1.355826          2.601346
   3         (B2)--O          -0.709404          1.750061
   4         (A1)--O          -0.560593          2.164654
   5         (B1)--O          -0.501352          2.285029
   6         (A1)--V           0.203478          0.952777
   7         (B2)--V           0.299539          1.025276
   8         (B2)--V           1.056770          2.087810
   9         (B1)--V           1.164430          3.564160
  10         (A1)--V           1.186117          3.596650
  11         (A1)--V           1.215787          3.072342
  12         (B2)--V           1.379093          4.083112
  13         (A1)--V           1.696290          3.663251
 Total kinetic energy from orbitals= 7.599179048141D+01
                          Isotropic Fermi Contact Couplings
        Atom                 a.u.       MegaHertz       Gauss      10(-4) cm-1
     1  O(17)              0.00000       0.00000       0.00000       0.00000
     2  H(1)               0.00000       0.00000       0.00000       0.00000
     3  H(1)               0.00000       0.00000       0.00000       0.00000
 --------------------------------------------------------
       Center         ----  Spin Dipole Couplings  ----
                      3XX-RR        3YY-RR        3ZZ-RR
 --------------------------------------------------------
     1   Atom        0.000000      0.000000      0.000000
     2   Atom        0.000000      0.000000      0.000000
     3   Atom        0.000000      0.000000      0.000000
 --------------------------------------------------------
                        XY            XZ            YZ
 --------------------------------------------------------
     1   Atom        0.000000      0.000000      0.000000
     2   Atom        0.000000      0.000000      0.000000
     3   Atom        0.000000      0.000000      0.000000
 --------------------------------------------------------


 ---------------------------------------------------------------------------------
              Anisotropic Spin Dipole Couplings in Principal Axis System
 ---------------------------------------------------------------------------------

       Atom             a.u.   MegaHertz   Gauss  10(-4) cm-1        Axes

              Baa     0.0000     0.000     0.000     0.000  1.0000  0.0000  0.0000
     1 O(17)  Bbb     0.0000     0.000     0.000     0.000  0.0000  1.0000  0.0000
              Bcc     0.0000     0.000     0.000     0.000  0.0000  0.0000  1.0000
 
              Baa     0.0000     0.000     0.000     0.000  1.0000  0.0000  0.0000
     2 H(1)   Bbb     0.0000     0.000     0.000     0.000  0.0000  1.0000  0.0000
              Bcc     0.0000     0.000     0.000     0.000  0.0000  0.0000  1.0000
 
              Baa     0.0000     0.000     0.000     0.000  1.0000  0.0000  0.0000
     3 H(1)   Bbb     0.0000     0.000     0.000     0.000  0.0000  1.0000  0.0000
              Bcc     0.0000     0.000     0.000     0.000  0.0000  0.0000  1.0000
 

 ---------------------------------------------------------------------------------

 Calling FoFJK, ICntrl=      2127 FMM=F ISym2X=1 I1Cent= 0 IOpClX= 1 NMat=1 NMatS=1 NMatT=0.
 ***** Axes restored to original set *****
 -------------------------------------------------------------------
 Center     Atomic                   Forces (Hartrees/Bohr)
 Number     Number              X              Y              Z
 -------------------------------------------------------------------
      1        8           0.019473047    0.000000000    0.015093959
      2        1          -0.012128872    0.000000000   -0.004460558
      3        1          -0.007344175    0.000000000   -0.010633401
 -------------------------------------------------------------------
 Cartesian Forces:  Max     0.019473047 RMS     0.010225455

 GradGradGradGradGradGradGradGradGradGradGradGradGradGradGradGradGradGrad
 Berny optimization.
 FormGI is forming the generalized inverse of G from B-inverse, IUseBI=4.
 Internal  Forces:  Max     0.021967452 RMS     0.013195481
 Search for a local minimum.
 Step number   1 out of a maximum of   20
 All quantities printed in internal units (Hartrees-Bohrs-Radians)
 Mixed Optimization -- RFO/linear search
 Second derivative matrix not updated -- first step.
 The second derivative matrix:
                          R1        R2        A1
           R1           0.55812
           R2           0.00000   0.55812
           A1           0.00000   0.00000   0.16000
 ITU=  0
     Eigenvalues ---    0.16000   0.55812   0.55812
 RFO step:  Lambda=-3.03089726D-03 EMin= 1.60000000D-01
 Linear search not attempted -- first point.
 Iteration  1 RMS(Cart)=  0.07344530 RMS(Int)=  0.00336952
 Iteration  2 RMS(Cart)=  0.00305896 RMS(Int)=  0.00000031
 Iteration  3 RMS(Cart)=  0.00000028 RMS(Int)=  0.00000000
 ClnCor:  largest displacement from symmetrization is 4.61D-15 for atom     3.
 Variable       Old X    -DE/DX   Delta X   Delta X   Delta X     New X
                                 (Linear)    (Quad)   (Total)
    R1        1.81117  -0.00446   0.00000  -0.00795  -0.00795   1.80322
    R2        1.81117  -0.00446   0.00000  -0.00795  -0.00795   1.80322
    A1        1.82282   0.02197   0.00000   0.13474   0.13474   1.95757
         Item               Value     Threshold  Converged?
 Maximum Force            0.021967     0.000450     NO 
 RMS     Force            0.013195     0.000300     NO 
 Maximum Displacement     0.072358     0.001800     NO 
 RMS     Displacement     0.071947     0.001200     NO 
 Predicted change in Energy=-1.543155D-03
 GradGradGradGradGradGradGradGradGradGradGradGradGradGradGradGradGradGrad

                          Input orientation:                          
 ---------------------------------------------------------------------
 Center     Atomic      Atomic             Coordinates (Angstroms)
 Number     Number       Type             X           Y           Z
 ---------------------------------------------------------------------
      1          8           0        0.028809    0.000000    0.022331
      2          1           0       -0.035430    0.000000    0.974390
      3          1           0        0.934773    0.000000   -0.277290
 ---------------------------------------------------------------------
                    Distance matrix (angstroms):
                    1          2          3
     1  O    0.000000
     2  H    0.954224   0.000000
     3  H    0.954224   1.583666   0.000000
 Stoichiometry    H2O
 Framework group  C2V[C2(O),SGV(H2)]
 Deg. of freedom     2
 Full point group                 C2V     NOp   4
 Largest Abelian subgroup         C2V     NOp   4
 Largest concise Abelian subgroup C2      NOp   2
                         Standard orientation:                         
 ---------------------------------------------------------------------
 Center     Atomic      Atomic             Coordinates (Angstroms)
 Number     Number       Type             X           Y           Z
 ---------------------------------------------------------------------
      1          8           0        0.000000    0.000000    0.106498
      2          1           0        0.000000    0.791833   -0.425991
      3          1           0        0.000000   -0.791833   -0.425991
 ---------------------------------------------------------------------
 Rotational constants (GHZ):    995.6978690    399.8850100    285.3034802
 Standard basis: 6-31G (5D, 7F)
 There are     7 symmetry adapted cartesian basis functions of A1  symmetry.
 There are     0 symmetry adapted cartesian basis functions of A2  symmetry.
 There are     2 symmetry adapted cartesian basis functions of B1  symmetry.
 There are     4 symmetry adapted cartesian basis functions of B2  symmetry.
 There are     7 symmetry adapted basis functions of A1  symmetry.
 There are     0 symmetry adapted basis functions of A2  symmetry.
 There are     2 symmetry adapted basis functions of B1  symmetry.
 There are     4 symmetry adapted basis functions of B2  symmetry.
    13 basis functions,    30 primitive gaussians,    13 cartesian basis functions
     5 alpha electrons        5 beta electrons
       nuclear repulsion energy         9.2071565436 Hartrees.
 NAtoms=    3 NActive=    3 NUniq=    2 SFac= 2.25D+00 NAtFMM=   60 NAOKFM=F Big=F
 Integral buffers will be    131072 words long.
 Raffenetti 2 integral format.
 Two-electron integral symmetry is turned on.
 One-electron integrals computed using PRISM.
 NBasis=    13 RedAO= T EigKep=  1.18D-01  NBF=     7     0     2     4
 NBsUse=    13 1.00D-06 EigRej= -1.00D+00 NBFU=     7     0     2     4
 Initial guess from the checkpoint file:  "/scratch/730834/Gau-15131.chk"
 B after Tr=     0.000000    0.000000    0.000000
         Rot=    1.000000    0.000000    0.000000    0.000000 Ang=   0.00 deg.
 Initial guess orbital symmetries:
 Alpha Orbitals:
       Occupied  (A1) (A1) (B2) (A1) (B1)
       Virtual   (A1) (A1) (A1) (A1) (B1) (B2) (B2) (B2)
 Beta  Orbitals:
       Occupied  (A1) (A1) (B2) (A1) (B1)
       Virtual   (A1) (A1) (A1) (A1) (B1) (B2) (B2) (B2)
 Initial guess <Sx>= 0.0000 <Sy>= 0.0000 <Sz>= 0.0000 <S**2>= 0.0000 S= 0.0000
 ExpMin= 1.61D-01 ExpMax= 5.48D+03 ExpMxC= 8.25D+02 IAcc=1 IRadAn=         1 AccDes= 0.00D+00
 Harris functional with IExCor=  205 and IRadAn=       1 diagonalized for initial guess.
 HarFok:  IExCor=  205 AccDes= 0.00D+00 IRadAn=         1 IDoV= 1 UseB2=F ITyADJ=14
 ICtDFT=  3500011 ScaDFX=  1.000000  1.000000  1.000000  1.000000
 FoFCou: FMM=F IPFlag=           0 FMFlag=      100000 FMFlg1=           0
         NFxFlg=           0 DoJE=T BraDBF=F KetDBF=T FulRan=T
         wScrn=  0.000000 ICntrl=     500 IOpCl=  0 I1Cent=   200000004 NGrid=           0
         NMat0=    1 NMatS0=      1 NMatT0=    0 NMatD0=    1 NMtDS0=    0 NMtDT0=    0
 Petite list used in FoFCou.
 Keep R1 and R2 ints in memory in symmetry-blocked form, NReq=829687.
 Requested convergence on RMS density matrix=1.00D-08 within 128 cycles.
 Requested convergence on MAX density matrix=1.00D-06.
 Requested convergence on             energy=1.00D-06.
 No special actions if energy rises.
 SCF Done:  E(UHF) =  -75.9852983318     A.U. after    9 cycles
            NFock=  9  Conv=0.29D-08     -V/T= 1.9999
 <Sx>= 0.0000 <Sy>= 0.0000 <Sz>= 0.0000 <S**2>= 0.0000 S= 0.0000
 <L.S>= 0.000000000000E+00
 Annihilation of the first spin contaminant:
 S**2 before annihilation     0.0000,   after     0.0000
 Calling FoFJK, ICntrl=      2127 FMM=F ISym2X=1 I1Cent= 0 IOpClX= 1 NMat=1 NMatS=1 NMatT=0.
 ***** Axes restored to original set *****
 -------------------------------------------------------------------
 Center     Atomic                   Forces (Hartrees/Bohr)
 Number     Number              X              Y              Z
 -------------------------------------------------------------------
      1        8           0.002921816    0.000000000    0.002264760
      2        1           0.001768931    0.000000000   -0.005299266
      3        1          -0.004690747    0.000000000    0.003034507
 -------------------------------------------------------------------
 Cartesian Forces:  Max     0.005299266 RMS     0.002907630

 GradGradGradGradGradGradGradGradGradGradGradGradGradGradGradGradGradGrad
 Berny optimization.
 Using GEDIIS/GDIIS optimizer.
 FormGI is forming the generalized inverse of G from B-inverse, IUseBI=4.
 Internal  Forces:  Max     0.005406331 RMS     0.004651327
 Search for a local minimum.
 Step number   2 out of a maximum of   20
 All quantities printed in internal units (Hartrees-Bohrs-Radians)
 Mixed Optimization -- RFO/linear search
 Update second derivatives using D2CorX and points    1    2
 DE= -1.35D-03 DEPred=-1.54D-03 R= 8.74D-01
 TightC=F SS=  1.41D+00  RLast= 1.35D-01 DXNew= 5.0454D-01 4.0564D-01
 Trust test= 8.74D-01 RLast= 1.35D-01 DXMaxT set to 4.06D-01
 The second derivative matrix:
                          R1        R2        A1
           R1           0.55178
           R2          -0.00634   0.55178
           A1           0.03920   0.03920   0.18650
 ITU=  1  0
 Use linear search instead of GDIIS.
     Eigenvalues ---    0.17813   0.55380   0.55812
 RFO step:  Lambda=-1.03868797D-04 EMin= 1.78134944D-01
 Quartic linear search produced a step of -0.08318.
 Iteration  1 RMS(Cart)=  0.01056382 RMS(Int)=  0.00003655
 Iteration  2 RMS(Cart)=  0.00002469 RMS(Int)=  0.00000000
 Iteration  3 RMS(Cart)=  0.00000000 RMS(Int)=  0.00000000
 ClnCor:  largest displacement from symmetrization is 9.24D-15 for atom     3.
 Variable       Old X    -DE/DX   Delta X   Delta X   Delta X     New X
                                 (Linear)    (Quad)   (Total)
    R1        1.80322  -0.00541   0.00066  -0.00981  -0.00915   1.79408
    R2        1.80322  -0.00541   0.00066  -0.00981  -0.00915   1.79408
    A1        1.95757  -0.00254  -0.01121   0.00076  -0.01045   1.94711
         Item               Value     Threshold  Converged?
 Maximum Force            0.005406     0.000450     NO 
 RMS     Force            0.004651     0.000300     NO 
 Maximum Displacement     0.010693     0.001800     NO 
 RMS     Displacement     0.010560     0.001200     NO 
 Predicted change in Energy=-6.212621D-05
 GradGradGradGradGradGradGradGradGradGradGradGradGradGradGradGradGradGrad

                          Input orientation:                          
 ---------------------------------------------------------------------
 Center     Atomic      Atomic             Coordinates (Angstroms)
 Number     Number       Type             X           Y           Z
 ---------------------------------------------------------------------
      1          8           0        0.028067    0.000000    0.021755
      2          1           0       -0.030896    0.000000    0.969307
      3          1           0        0.930981    0.000000   -0.271632
 ---------------------------------------------------------------------
                    Distance matrix (angstroms):
                    1          2          3
     1  O    0.000000
     2  H    0.949384   0.000000
     3  H    0.949384   1.570075   0.000000
 Stoichiometry    H2O
 Framework group  C2V[C2(O),SGV(H2)]
 Deg. of freedom     2
 Full point group                 C2V     NOp   4
 Largest Abelian subgroup         C2V     NOp   4
 Largest concise Abelian subgroup C2      NOp   2
                         Standard orientation:                         
 ---------------------------------------------------------------------
 Center     Atomic      Atomic             Coordinates (Angstroms)
 Number     Number       Type             X           Y           Z
 ---------------------------------------------------------------------
      1          8           0        0.000000    0.000000    0.106780
      2          1           0        0.000000    0.785037   -0.427118
      3          1           0        0.000000   -0.785037   -0.427118
 ---------------------------------------------------------------------
 Rotational constants (GHZ):    990.4479801    406.8377913    288.3817161
 Standard basis: 6-31G (5D, 7F)
 There are     7 symmetry adapted cartesian basis functions of A1  symmetry.
 There are     0 symmetry adapted cartesian basis functions of A2  symmetry.
 There are     2 symmetry adapted cartesian basis functions of B1  symmetry.
 There are     4 symmetry adapted cartesian basis functions of B2  symmetry.
 There are     7 symmetry adapted basis functions of A1  symmetry.
 There are     0 symmetry adapted basis functions of A2  symmetry.
 There are     2 symmetry adapted basis functions of B1  symmetry.
 There are     4 symmetry adapted basis functions of B2  symmetry.
    13 basis functions,    30 primitive gaussians,    13 cartesian basis functions
     5 alpha electrons        5 beta electrons
       nuclear repulsion energy         9.2552785254 Hartrees.
 NAtoms=    3 NActive=    3 NUniq=    2 SFac= 2.25D+00 NAtFMM=   60 NAOKFM=F Big=F
 Integral buffers will be    131072 words long.
 Raffenetti 2 integral format.
 Two-electron integral symmetry is turned on.
 One-electron integrals computed using PRISM.
 NBasis=    13 RedAO= T EigKep=  1.17D-01  NBF=     7     0     2     4
 NBsUse=    13 1.00D-06 EigRej= -1.00D+00 NBFU=     7     0     2     4
 Initial guess from the checkpoint file:  "/scratch/730834/Gau-15131.chk"
 B after Tr=     0.000000    0.000000    0.000000
         Rot=    1.000000    0.000000    0.000000    0.000000 Ang=   0.00 deg.
 Initial guess orbital symmetries:
 Alpha Orbitals:
       Occupied  (A1) (A1) (B2) (A1) (B1)
       Virtual   (A1) (A1) (A1) (A1) (B1) (B2) (B2) (B2)
 Beta  Orbitals:
       Occupied  (A1) (A1) (B2) (A1) (B1)
       Virtual   (A1) (A1) (A1) (A1) (B1) (B2) (B2) (B2)
 Initial guess <Sx>= 0.0000 <Sy>= 0.0000 <Sz>= 0.0000 <S**2>= 0.0000 S= 0.0000
 Keep R1 and R2 ints in memory in symmetry-blocked form, NReq=829687.
 Requested convergence on RMS density matrix=1.00D-08 within 128 cycles.
 Requested convergence on MAX density matrix=1.00D-06.
 Requested convergence on             energy=1.00D-06.
 No special actions if energy rises.
 SCF Done:  E(UHF) =  -75.9853590456     A.U. after    8 cycles
            NFock=  8  Conv=0.38D-08     -V/T= 1.9996
 <Sx>= 0.0000 <Sy>= 0.0000 <Sz>= 0.0000 <S**2>= 0.0000 S= 0.0000
 <L.S>= 0.000000000000E+00
 Annihilation of the first spin contaminant:
 S**2 before annihilation     0.0000,   after     0.0000
 Calling FoFJK, ICntrl=      2127 FMM=F ISym2X=1 I1Cent= 0 IOpClX= 1 NMat=1 NMatS=1 NMatT=0.
 ***** Axes restored to original set *****
 -------------------------------------------------------------------
 Center     Atomic                   Forces (Hartrees/Bohr)
 Number     Number              X              Y              Z
 -------------------------------------------------------------------
      1        8          -0.000242243    0.000000000   -0.000187767
      2        1          -0.000008982    0.000000000    0.000261732
      3        1           0.000251224    0.000000000   -0.000073965
 -------------------------------------------------------------------
 Cartesian Forces:  Max     0.000261732 RMS     0.000160245

 GradGradGradGradGradGradGradGradGradGradGradGradGradGradGradGradGradGrad
 Berny optimization.
 Using GEDIIS/GDIIS optimizer.
 FormGI is forming the generalized inverse of G from B-inverse, IUseBI=4.
 Internal  Forces:  Max     0.000261785 RMS     0.000213880
 Search for a local minimum.
 Step number   3 out of a maximum of   20
 All quantities printed in internal units (Hartrees-Bohrs-Radians)
 Mixed Optimization -- En-DIIS/RFO-DIIS
 Update second derivatives using D2CorX and points    1    2    3
 DE= -6.07D-05 DEPred=-6.21D-05 R= 9.77D-01
 TightC=F SS=  1.41D+00  RLast= 1.66D-02 DXNew= 6.8220D-01 4.9886D-02
 Trust test= 9.77D-01 RLast= 1.66D-02 DXMaxT set to 4.06D-01
 The second derivative matrix:
                          R1        R2        A1
           R1           0.56916
           R2           0.01103   0.56916
           A1           0.03465   0.03465   0.18105
 ITU=  1  1  0
 Use linear search instead of GDIIS.
     Eigenvalues ---    0.17513   0.55812   0.58612
 RFO step:  Lambda=-8.29609427D-08 EMin= 1.75126623D-01
 Quartic linear search produced a step of -0.03524.
 Iteration  1 RMS(Cart)=  0.00029642 RMS(Int)=  0.00000004
 Iteration  2 RMS(Cart)=  0.00000004 RMS(Int)=  0.00000000
 ClnCor:  largest displacement from symmetrization is 4.36D-15 for atom     3.
 Variable       Old X    -DE/DX   Delta X   Delta X   Delta X     New X
                                 (Linear)    (Quad)   (Total)
    R1        1.79408   0.00026   0.00032   0.00014   0.00046   1.79454
    R2        1.79408   0.00026   0.00032   0.00014   0.00046   1.79454
    A1        1.94711  -0.00001   0.00037  -0.00063  -0.00026   1.94685
         Item               Value     Threshold  Converged?
 Maximum Force            0.000262     0.000450     YES
 RMS     Force            0.000214     0.000300     YES
 Maximum Displacement     0.000291     0.001800     YES
 RMS     Displacement     0.000296     0.001200     YES
 Predicted change in Energy=-1.236542D-07
 Optimization completed.
    -- Stationary point found.
                           ----------------------------
                           !   Optimized Parameters   !
                           ! (Angstroms and Degrees)  !
 --------------------------                            --------------------------
 ! Name  Definition              Value          Derivative Info.                !
 --------------------------------------------------------------------------------
 ! R1    R(1,2)                  0.9494         -DE/DX =    0.0003              !
 ! R2    R(1,3)                  0.9494         -DE/DX =    0.0003              !
 ! A1    A(2,1,3)              111.5614         -DE/DX =    0.0                 !
 --------------------------------------------------------------------------------
 GradGradGradGradGradGradGradGradGradGradGradGradGradGradGradGradGradGrad

                          Input orientation:                          
 ---------------------------------------------------------------------
 Center     Atomic      Atomic             Coordinates (Angstroms)
 Number     Number       Type             X           Y           Z
 ---------------------------------------------------------------------
      1          8           0        0.028067    0.000000    0.021755
      2          1           0       -0.030896    0.000000    0.969307
      3          1           0        0.930981    0.000000   -0.271632
 ---------------------------------------------------------------------
                    Distance matrix (angstroms):
                    1          2          3
     1  O    0.000000
     2  H    0.949384   0.000000
     3  H    0.949384   1.570075   0.000000
 Stoichiometry    H2O
 Framework group  C2V[C2(O),SGV(H2)]
 Deg. of freedom     2
 Full point group                 C2V     NOp   4
 Largest Abelian subgroup         C2V     NOp   4
 Largest concise Abelian subgroup C2      NOp   2
                         Standard orientation:                         
 ---------------------------------------------------------------------
 Center     Atomic      Atomic             Coordinates (Angstroms)
 Number     Number       Type             X           Y           Z
 ---------------------------------------------------------------------
      1          8           0        0.000000    0.000000    0.106780
      2          1           0        0.000000    0.785037   -0.427118
      3          1           0        0.000000   -0.785037   -0.427118
 ---------------------------------------------------------------------
 Rotational constants (GHZ):    990.4479801    406.8377913    288.3817161

 **********************************************************************

            Population analysis using the SCF density.

 **********************************************************************

 Orbital symmetries:
 Alpha Orbitals:
       Occupied  (A1) (A1) (B2) (A1) (B1)
       Virtual   (A1) (B2) (B2) (A1) (B1) (A1) (B2) (A1)
 Beta  Orbitals:
       Occupied  (A1) (A1) (B2) (A1) (B1)
       Virtual   (A1) (B2) (B2) (A1) (B1) (A1) (B2) (A1)
 The electronic state is 1-A1.
 Alpha  occ. eigenvalues --  -20.55343  -1.35264  -0.72655  -0.54824  -0.49831
 Alpha virt. eigenvalues --    0.20705   0.30297   1.10569   1.16144   1.16717
 Alpha virt. eigenvalues --    1.20460   1.38903   1.67608
  Beta  occ. eigenvalues --  -20.55343  -1.35264  -0.72655  -0.54824  -0.49831
  Beta virt. eigenvalues --    0.20705   0.30297   1.10569   1.16144   1.16717
  Beta virt. eigenvalues --    1.20460   1.38903   1.67608
     Alpha Molecular Orbital Coefficients:
                           1         2         3         4         5
                        (A1)--O   (A1)--O   (B2)--O   (A1)--O   (B1)--O
     Eigenvalues --   -20.55343  -1.35264  -0.72655  -0.54824  -0.49831
   1 1   O  1S          0.99577  -0.21312   0.00000  -0.07137   0.00000
   2        2S          0.02202   0.47004   0.00000   0.17054   0.00000
   3        2PX         0.00000   0.00000   0.00000   0.00000   0.64018
   4        2PY         0.00000   0.00000   0.50449   0.00000   0.00000
   5        2PZ        -0.00202  -0.10590   0.00000   0.56062   0.00000
   6        3S         -0.00805   0.47954   0.00000   0.28970   0.00000
   7        3PX         0.00000   0.00000   0.00000   0.00000   0.51156
   8        3PY         0.00000   0.00000   0.26238   0.00000   0.00000
   9        3PZ         0.00179  -0.05638   0.00000   0.41878   0.00000
  10 2   H  1S          0.00005   0.14095   0.26554  -0.13451   0.00000
  11        2S          0.00201  -0.00853   0.11467  -0.07510   0.00000
  12 3   H  1S          0.00005   0.14095  -0.26554  -0.13451   0.00000
  13        2S          0.00201  -0.00853  -0.11467  -0.07510   0.00000
                           6         7         8         9        10
                        (A1)--V   (B2)--V   (B2)--V   (A1)--V   (B1)--V
     Eigenvalues --     0.20705   0.30297   1.10569   1.16144   1.16717
   1 1   O  1S         -0.08771   0.00000   0.00000   0.07239   0.00000
   2        2S          0.10840   0.00000   0.00000  -0.31835   0.00000
   3        2PX         0.00000   0.00000   0.00000   0.00000  -0.96240
   4        2PY         0.00000  -0.33020  -0.12629   0.00000   0.00000
   5        2PZ        -0.21625   0.00000   0.00000   0.26503   0.00000
   6        3S          1.21165   0.00000   0.00000   0.00987   0.00000
   7        3PX         0.00000   0.00000   0.00000   0.00000   1.03651
   8        3PY         0.00000  -0.84435  -0.84338   0.00000   0.00000
   9        3PZ        -0.44481   0.00000   0.00000   0.32975   0.00000
  10 2   H  1S         -0.06348   0.03138   1.00017   1.00551   0.00000
  11        2S         -1.00532   1.39054  -0.41044  -0.49268   0.00000
  12 3   H  1S         -0.06348  -0.03138  -1.00017   1.00551   0.00000
  13        2S         -1.00532  -1.39054   0.41044  -0.49268   0.00000
                          11        12        13
                        (A1)--V   (B2)--V   (A1)--V
     Eigenvalues --     1.20460   1.38903   1.67608
   1 1   O  1S          0.03562   0.00000   0.06166
   2        2S         -0.22564   0.00000  -1.70410
   3        2PX         0.00000   0.00000   0.00000
   4        2PY         0.00000  -1.03962   0.00000
   5        2PZ        -0.94591   0.00000   0.17903
   6        3S         -0.08683   0.00000   2.75492
   7        3PX         0.00000   0.00000   0.00000
   8        3PY         0.00000   1.58965   0.00000
   9        3PZ         1.15763   0.00000  -0.72875
  10 2   H  1S          0.10920   0.07536  -0.36171
  11        2S          0.17762  -0.91958  -0.64995
  12 3   H  1S          0.10920  -0.07536  -0.36171
  13        2S          0.17762   0.91958  -0.64995
     Beta Molecular Orbital Coefficients:
                           1         2         3         4         5
                        (A1)--O   (A1)--O   (B2)--O   (A1)--O   (B1)--O
     Eigenvalues --   -20.55343  -1.35264  -0.72655  -0.54824  -0.49831
   1 1   O  1S          0.99577  -0.21312   0.00000  -0.07137   0.00000
   2        2S          0.02202   0.47004   0.00000   0.17054   0.00000
   3        2PX         0.00000   0.00000   0.00000   0.00000   0.64018
   4        2PY         0.00000   0.00000   0.50449   0.00000   0.00000
   5        2PZ        -0.00202  -0.10590   0.00000   0.56062   0.00000
   6        3S         -0.00805   0.47954   0.00000   0.28970   0.00000
   7        3PX         0.00000   0.00000   0.00000   0.00000   0.51156
   8        3PY         0.00000   0.00000   0.26238   0.00000   0.00000
   9        3PZ         0.00179  -0.05638   0.00000   0.41878   0.00000
  10 2   H  1S          0.00005   0.14095   0.26554  -0.13451   0.00000
  11        2S          0.00201  -0.00853   0.11467  -0.07510   0.00000
  12 3   H  1S          0.00005   0.14095  -0.26554  -0.13451   0.00000
  13        2S          0.00201  -0.00853  -0.11467  -0.07510   0.00000
                           6         7         8         9        10
                        (A1)--V   (B2)--V   (B2)--V   (A1)--V   (B1)--V
     Eigenvalues --     0.20705   0.30297   1.10569   1.16144   1.16717
   1 1   O  1S         -0.08771   0.00000   0.00000   0.07239   0.00000
   2        2S          0.10840   0.00000   0.00000  -0.31835   0.00000
   3        2PX         0.00000   0.00000   0.00000   0.00000  -0.96240
   4        2PY         0.00000  -0.33020  -0.12629   0.00000   0.00000
   5        2PZ        -0.21625   0.00000   0.00000   0.26503   0.00000
   6        3S          1.21165   0.00000   0.00000   0.00987   0.00000
   7        3PX         0.00000   0.00000   0.00000   0.00000   1.03651
   8        3PY         0.00000  -0.84435  -0.84338   0.00000   0.00000
   9        3PZ        -0.44481   0.00000   0.00000   0.32975   0.00000
  10 2   H  1S         -0.06348   0.03138   1.00017   1.00551   0.00000
  11        2S         -1.00532   1.39054  -0.41044  -0.49268   0.00000
  12 3   H  1S         -0.06348  -0.03138  -1.00017   1.00551   0.00000
  13        2S         -1.00532  -1.39054   0.41044  -0.49268   0.00000
                          11        12        13
                        (A1)--V   (B2)--V   (A1)--V
     Eigenvalues --     1.20460   1.38903   1.67608
   1 1   O  1S          0.03562   0.00000   0.06166
   2        2S         -0.22564   0.00000  -1.70410
   3        2PX         0.00000   0.00000   0.00000
   4        2PY         0.00000  -1.03962   0.00000
   5        2PZ        -0.94591   0.00000   0.17903
   6        3S         -0.08683   0.00000   2.75492
   7        3PX         0.00000   0.00000   0.00000
   8        3PY         0.00000   1.58965   0.00000
   9        3PZ         1.15763   0.00000  -0.72875
  10 2   H  1S          0.10920   0.07536  -0.36171
  11        2S          0.17762  -0.91958  -0.64995
  12 3   H  1S          0.10920  -0.07536  -0.36171
  13        2S          0.17762   0.91958  -0.64995
     Alpha Density Matrix:
                           1         2         3         4         5
   1 1   O  1S          1.04207
   2        2S         -0.09042   0.25051
   3        2PX         0.00000   0.00000   0.40983
   4        2PY         0.00000   0.00000   0.00000   0.25451
   5        2PZ        -0.01945   0.04579   0.00000   0.00000   0.32552
   6        3S         -0.13089   0.27463   0.00000   0.00000   0.11165
   7        3PX         0.00000   0.00000   0.32749   0.00000   0.00000
   8        3PY         0.00000   0.00000   0.00000   0.13237   0.00000
   9        3PZ        -0.01609   0.04496   0.00000   0.00000   0.24075
  10 2   H  1S         -0.02039   0.04331   0.00000   0.13396  -0.09034
  11        2S          0.00918  -0.01677   0.00000   0.05785  -0.04121
  12 3   H  1S         -0.02039   0.04331   0.00000  -0.13396  -0.09034
  13        2S          0.00918  -0.01677   0.00000  -0.05785  -0.04121
                           6         7         8         9        10
   6        3S          0.31395
   7        3PX         0.00000   0.26169
   8        3PY         0.00000   0.00000   0.06884
   9        3PZ         0.09427   0.00000   0.00000   0.17856
  10 2   H  1S          0.02862   0.00000   0.06967  -0.06428   0.10847
  11        2S         -0.02586   0.00000   0.03009  -0.03097   0.03935
  12 3   H  1S          0.02862   0.00000  -0.06967  -0.06428  -0.03255
  13        2S         -0.02586   0.00000  -0.03009  -0.03097  -0.02155
                          11        12        13
  11        2S          0.01887
  12 3   H  1S         -0.02155   0.10847
  13        2S         -0.00743   0.03935   0.01887
     Beta Density Matrix:
                           1         2         3         4         5
   1 1   O  1S          1.04207
   2        2S         -0.09042   0.25051
   3        2PX         0.00000   0.00000   0.40983
   4        2PY         0.00000   0.00000   0.00000   0.25451
   5        2PZ        -0.01945   0.04579   0.00000   0.00000   0.32552
   6        3S         -0.13089   0.27463   0.00000   0.00000   0.11165
   7        3PX         0.00000   0.00000   0.32749   0.00000   0.00000
   8        3PY         0.00000   0.00000   0.00000   0.13237   0.00000
   9        3PZ        -0.01609   0.04496   0.00000   0.00000   0.24075
  10 2   H  1S         -0.02039   0.04331   0.00000   0.13396  -0.09034
  11        2S          0.00918  -0.01677   0.00000   0.05785  -0.04121
  12 3   H  1S         -0.02039   0.04331   0.00000  -0.13396  -0.09034
  13        2S          0.00918  -0.01677   0.00000  -0.05785  -0.04121
                           6         7         8         9        10
   6        3S          0.31395
   7        3PX         0.00000   0.26169
   8        3PY         0.00000   0.00000   0.06884
   9        3PZ         0.09427   0.00000   0.00000   0.17856
  10 2   H  1S          0.02862   0.00000   0.06967  -0.06428   0.10847
  11        2S         -0.02586   0.00000   0.03009  -0.03097   0.03935
  12 3   H  1S          0.02862   0.00000  -0.06967  -0.06428  -0.03255
  13        2S         -0.02586   0.00000  -0.03009  -0.03097  -0.02155
                          11        12        13
  11        2S          0.01887
  12 3   H  1S         -0.02155   0.10847
  13        2S         -0.00743   0.03935   0.01887
    Full Mulliken population analysis:
                           1         2         3         4         5
   1 1   O  1S          2.08414
   2        2S         -0.04226   0.50102
   3        2PX         0.00000   0.00000   0.81965
   4        2PY         0.00000   0.00000   0.00000   0.50903
   5        2PZ         0.00000   0.00000   0.00000   0.00000   0.65104
   6        3S         -0.04379   0.41944   0.00000   0.00000   0.00000
   7        3PX         0.00000   0.00000   0.32848   0.00000   0.00000
   8        3PY         0.00000   0.00000   0.00000   0.13277   0.00000
   9        3PZ         0.00000   0.00000   0.00000   0.00000   0.24148
  10 2   H  1S         -0.00148   0.02206   0.00000   0.06483   0.02973
  11        2S          0.00128  -0.01286   0.00000   0.01413   0.00684
  12 3   H  1S         -0.00148   0.02206   0.00000   0.06483   0.02973
  13        2S          0.00128  -0.01286   0.00000   0.01413   0.00684
                           6         7         8         9        10
   6        3S          0.62789
   7        3PX         0.00000   0.52338
   8        3PY         0.00000   0.00000   0.13768
   9        3PZ         0.00000   0.00000   0.00000   0.35712
  10 2   H  1S          0.02474   0.00000   0.06744   0.04231   0.21694
  11        2S         -0.03558   0.00000   0.02386   0.01670   0.05181
  12 3   H  1S          0.02474   0.00000   0.06744   0.04231  -0.00275
  13        2S         -0.03558   0.00000   0.02386   0.01670  -0.00893
                          11        12        13
  11        2S          0.03774
  12 3   H  1S         -0.00893   0.21694
  13        2S         -0.00731   0.05181   0.03774
     Gross orbital populations:
                         Total     Alpha     Beta      Spin
   1 1   O  1S          1.99769   0.99884   0.99884   0.00000
   2        2S          0.89661   0.44830   0.44830   0.00000
   3        2PX         1.14814   0.57407   0.57407   0.00000
   4        2PY         0.79971   0.39986   0.39986   0.00000
   5        2PZ         0.96567   0.48283   0.48283   0.00000
   6        3S          0.98187   0.49094   0.49094   0.00000
   7        3PX         0.85186   0.42593   0.42593   0.00000
   8        3PY         0.45305   0.22652   0.22652   0.00000
   9        3PZ         0.71663   0.35832   0.35832   0.00000
  10 2   H  1S          0.50671   0.25335   0.25335   0.00000
  11        2S          0.08768   0.04384   0.04384   0.00000
  12 3   H  1S          0.50671   0.25335   0.25335   0.00000
  13        2S          0.08768   0.04384   0.04384   0.00000
          Condensed to atoms (all electrons):
               1          2          3
     1  O    8.283183   0.264021   0.264021
     2  H    0.264021   0.358292  -0.027926
     3  H    0.264021  -0.027926   0.358292
          Atomic-Atomic Spin Densities.
               1          2          3
     1  O    0.000000   0.000000   0.000000
     2  H    0.000000   0.000000   0.000000
     3  H    0.000000   0.000000   0.000000
 Mulliken charges and spin densities:
               1          2
     1  O   -0.811225   0.000000
     2  H    0.405613   0.000000
     3  H    0.405613   0.000000
 Sum of Mulliken charges =   0.00000   0.00000
 Mulliken charges and spin densities with hydrogens summed into heavy atoms:
               1          2
     1  O    0.000000   0.000000
 Electronic spatial extent (au):  <R**2>=             18.9623
 Charge=              0.0000 electrons
 Dipole moment (field-independent basis, Debye):
    X=              0.0000    Y=              0.0000    Z=             -2.5002  Tot=              2.5002
 Quadrupole moment (field-independent basis, Debye-Ang):
   XX=             -7.1941   YY=             -3.8975   ZZ=             -6.3024
   XY=              0.0000   XZ=              0.0000   YZ=              0.0000
 Traceless Quadrupole moment (field-independent basis, Debye-Ang):
   XX=             -1.3961   YY=              1.9006   ZZ=             -0.5044
   XY=              0.0000   XZ=              0.0000   YZ=              0.0000
 Octapole moment (field-independent basis, Debye-Ang**2):
  XXX=              0.0000  YYY=              0.0000  ZZZ=             -1.4813  XYY=              0.0000
  XXY=              0.0000  XXZ=             -0.4285  XZZ=              0.0000  YZZ=              0.0000
  YYZ=             -1.3159  XYZ=              0.0000
 Hexadecapole moment (field-independent basis, Debye-Ang**3):
 XXXX=             -5.1679 YYYY=             -5.3058 ZZZZ=             -6.0211 XXXY=              0.0000
 XXXZ=              0.0000 YYYX=              0.0000 YYYZ=              0.0000 ZZZX=              0.0000
 ZZZY=              0.0000 XXYY=             -2.0276 XXZZ=             -1.8984 YYZZ=             -1.6658
 XXYZ=              0.0000 YYXZ=              0.0000 ZZXY=              0.0000
 N-N= 9.255278525441D+00 E-N=-1.991385741713D+02  KE= 7.601563930961D+01
 Symmetry A1   KE= 6.795885159327D+01
 Symmetry A2   KE= 0.000000000000D+00
 Symmetry B1   KE= 4.555214363894D+00
 Symmetry B2   KE= 3.501573352446D+00
 Orbital energies and kinetic energies (alpha):
                                 1                 2
   1         (A1)--O         -20.553425         29.193631
   2         (A1)--O          -1.352645          2.609192
   3         (B2)--O          -0.726551          1.750787
   4         (A1)--O          -0.548241          2.176602
   5         (B1)--O          -0.498307          2.277607
   6         (A1)--V           0.207049          0.946539
   7         (B2)--V           0.302969          0.995202
   8         (B2)--V           1.105687          2.163959
   9         (A1)--V           1.161442          2.897466
  10         (B1)--V           1.167170          3.571582
  11         (A1)--V           1.204604          3.595595
  12         (B2)--V           1.389035          4.105204
  13         (A1)--V           1.676085          3.759639
 Orbital energies and kinetic energies (beta):
                                 1                 2
   1         (A1)--O         -20.553425         29.193631
   2         (A1)--O          -1.352645          2.609192
   3         (B2)--O          -0.726551          1.750787
   4         (A1)--O          -0.548241          2.176602
   5         (B1)--O          -0.498307          2.277607
   6         (A1)--V           0.207049          0.946539
   7         (B2)--V           0.302969          0.995202
   8         (B2)--V           1.105687          2.163959
   9         (A1)--V           1.161442          2.897466
  10         (B1)--V           1.167170          3.571582
  11         (A1)--V           1.204604          3.595595
  12         (B2)--V           1.389035          4.105204
  13         (A1)--V           1.676085          3.759639
 Total kinetic energy from orbitals= 7.601563930961D+01
                          Isotropic Fermi Contact Couplings
        Atom                 a.u.       MegaHertz       Gauss      10(-4) cm-1
     1  O(17)              0.00000       0.00000       0.00000       0.00000
     2  H(1)               0.00000       0.00000       0.00000       0.00000
     3  H(1)               0.00000       0.00000       0.00000       0.00000
 --------------------------------------------------------
       Center         ----  Spin Dipole Couplings  ----
                      3XX-RR        3YY-RR        3ZZ-RR
 --------------------------------------------------------
     1   Atom        0.000000      0.000000      0.000000
     2   Atom        0.000000      0.000000      0.000000
     3   Atom        0.000000      0.000000      0.000000
 --------------------------------------------------------
                        XY            XZ            YZ
 --------------------------------------------------------
     1   Atom        0.000000      0.000000      0.000000
     2   Atom        0.000000      0.000000      0.000000
     3   Atom        0.000000      0.000000      0.000000
 --------------------------------------------------------


 ---------------------------------------------------------------------------------
              Anisotropic Spin Dipole Couplings in Principal Axis System
 ---------------------------------------------------------------------------------

       Atom             a.u.   MegaHertz   Gauss  10(-4) cm-1        Axes

              Baa     0.0000     0.000     0.000     0.000  1.0000  0.0000  0.0000
     1 O(17)  Bbb     0.0000     0.000     0.000     0.000  0.0000  1.0000  0.0000
              Bcc     0.0000     0.000     0.000     0.000  0.0000  0.0000  1.0000
 
              Baa     0.0000     0.000     0.000     0.000  1.0000  0.0000  0.0000
     2 H(1)   Bbb     0.0000     0.000     0.000     0.000  0.0000  1.0000  0.0000
              Bcc     0.0000     0.000     0.000     0.000  0.0000  0.0000  1.0000
 
              Baa     0.0000     0.000     0.000     0.000  1.0000  0.0000  0.0000
     3 H(1)   Bbb     0.0000     0.000     0.000     0.000  0.0000  1.0000  0.0000
              Bcc     0.0000     0.000     0.000     0.000  0.0000  0.0000  1.0000
 

 ---------------------------------------------------------------------------------

 1\1\GINC-DNAS-NODE31\FOpt\UHF\6-31G\H2O1\GVALLVER\08-Jun-2016\0\\# UHF
  / 6-31G 5d pop=Full opt\\H2O HF\\0,1\O,0.0280668492,0.,0.0217551922\H
 ,-0.0308956044,0.,0.9693066708\H,0.9309812871,0.,-0.2716317424\\Versio
 n=EM64L-G09RevD.01\State=1-A1\HF=-75.985359\S2=0.\S2-1=0.\S2A=0.\RMSD=
 3.762e-09\RMSF=1.602e-04\Dipole=0.7774377,0.,0.6026079\Quadrupole=0.29
 60496,-1.0379785,0.7419288,0.,-0.8657827,0.\PG=C02V [C2(O1),SGV(H2)]\\
 @


 A MAN IS NEVER SO BRILLIANT AS WHEN HE TAKES THE WORDS RIGHT OUT
 OF YOUR MOUTH. -- ARNOT SHEPPARD, JR.
 Job cpu time:       0 days  0 hours  0 minutes  3.5 seconds.
 File lengths (MBytes):  RWF=      5 Int=      0 D2E=      0 Chk=      1 Scr=      1
 Normal termination of Gaussian 09 at Wed Jun  8 21:58:14 2016.
 Fin  execution du job  : mer. juin  8 21:58:14 CEST 2016
