 Entering Gaussian System, Link 0=g03
 Input=methane.com
 Output=methane.log
 Initial command:
 /opt/Gaussian03/g03/l1.exe /home/shyue/temp/Gau-6917.inp -scrdir=/home/shyue/temp/
 Entering Link 1 = /opt/Gaussian03/g03/l1.exe PID=      6919.
  
 Copyright (c) 1988,1990,1992,1993,1995,1998,2003,2004, Gaussian, Inc.
                  All Rights Reserved.
  
 This is the Gaussian(R) 03 program.  It is based on the
 the Gaussian(R) 98 system (copyright 1998, Gaussian, Inc.),
 the Gaussian(R) 94 system (copyright 1995, Gaussian, Inc.),
 the Gaussian 92(TM) system (copyright 1992, Gaussian, Inc.),
 the Gaussian 90(TM) system (copyright 1990, Gaussian, Inc.),
 the Gaussian 88(TM) system (copyright 1988, Gaussian, Inc.),
 the Gaussian 86(TM) system (copyright 1986, Carnegie Mellon
 University), and the Gaussian 82(TM) system (copyright 1983,
 Carnegie Mellon University). Gaussian is a federally registered
 trademark of Gaussian, Inc.
  
 This software contains proprietary and confidential information,
 including trade secrets, belonging to Gaussian, Inc.
  
 This software is provided under written license and may be
 used, copied, transmitted, or stored only in accord with that
 written license.
  
 The following legend is applicable only to US Government
 contracts under FAR:
  
                    RESTRICTED RIGHTS LEGEND
  
 Use, reproduction and disclosure by the US Government is
 subject to restrictions as set forth in subparagraphs (a)
 and (c) of the Commercial Computer Software - Restricted
 Rights clause in FAR 52.227-19.
  
 Gaussian, Inc.
 340 Quinnipiac St., Bldg. 40, Wallingford CT 06492
  
  
 ---------------------------------------------------------------
 Warning -- This program may not be used in any manner that
 competes with the business of Gaussian, Inc. or will provide
 assistance to any competitor of Gaussian, Inc.  The licensee
 of this program is prohibited from giving any competitor of
 Gaussian, Inc. access to this program.  By using this program,
 the user acknowledges that Gaussian, Inc. is engaged in the
 business of creating and licensing software in the field of
 computational chemistry and represents and warrants to the
 licensee that it is not a competitor of Gaussian, Inc. and that
 it will not use this program in any manner prohibited above.
 ---------------------------------------------------------------
  

 Cite this work as:
 Gaussian 03, Revision D.01,
 M. J. Frisch, G. W. Trucks, H. B. Schlegel, G. E. Scuseria, 
 M. A. Robb, J. R. Cheeseman, J. A. Montgomery, Jr., T. Vreven, 
 K. N. Kudin, J. C. Burant, J. M. Millam, S. S. Iyengar, J. Tomasi, 
 V. Barone, B. Mennucci, M. Cossi, G. Scalmani, N. Rega, 
 G. A. Petersson, H. Nakatsuji, M. Hada, M. Ehara, K. Toyota, 
 R. Fukuda, J. Hasegawa, M. Ishida, T. Nakajima, Y. Honda, O. Kitao, 
 H. Nakai, M. Klene, X. Li, J. E. Knox, H. P. Hratchian, J. B. Cross, 
 V. Bakken, C. Adamo, J. Jaramillo, R. Gomperts, R. E. Stratmann, 
 O. Yazyev, A. J. Austin, R. Cammi, C. Pomelli, J. W. Ochterski, 
 P. Y. Ayala, K. Morokuma, G. A. Voth, P. Salvador, J. J. Dannenberg, 
 V. G. Zakrzewski, S. Dapprich, A. D. Daniels, M. C. Strain, 
 O. Farkas, D. K. Malick, A. D. Rabuck, K. Raghavachari, 
 J. B. Foresman, J. V. Ortiz, Q. Cui, A. G. Baboul, S. Clifford, 
 J. Cioslowski, B. B. Stefanov, G. Liu, A. Liashenko, P. Piskorz, 
 I. Komaromi, R. L. Martin, D. J. Fox, T. Keith, M. A. Al-Laham, 
 C. Y. Peng, A. Nanayakkara, M. Challacombe, P. M. W. Gill, 
 B. Johnson, W. Chen, M. W. Wong, C. Gonzalez, and J. A. Pople, 
 Gaussian, Inc., Wallingford CT, 2004.
 
 ******************************************
 Gaussian 03:  IA32L-G03RevD.01 13-Oct-2005
                27-Feb-2008 
 ******************************************
 ---------------
 #p hf/3-21G opt
 ---------------
 1/18=20,38=1/1,3;
 2/9=110,17=6,18=5,40=1/2;
 3/5=5,11=9,16=1,25=1,30=1/1,2,3;
 4//1;
 5/5=2,38=5/2;
 6/7=2,8=2,9=2,10=2,28=1/1;
 7//1,2,3,16;
 1/18=20/3(3);
 2/9=110/2;
 6/7=2,8=2,9=2,10=2,19=2,28=1/1;
 99//99;
 2/9=110/2;
 3/5=5,11=9,16=1,25=1,30=1/1,2,3;
 4/5=5,16=3/1;
 5/5=2,38=5/2;
 7//1,2,3,16;
 1/18=20/3(-5);
 2/9=110/2;
 6/7=2,8=2,9=2,10=2,19=2,28=1/1;
 99/9=1/99;
 Leave Link    1 at Wed Feb 27 22:45:27 2008, MaxMem=          0 cpu:       0.1
 (Enter /opt/Gaussian03/g03/l101.exe)
 -------------------
 Title Card Required
 -------------------
 Symbolic Z-matrix:
 Charge =  0 Multiplicity = 1
 C1
 H1                   C1   B1
 H2                   C1   B2       H1   A1
 H3                   C1   B3       H1   A2       H2   D1       0
 H4                   C1   B4       H1   A3       H3   D2       0
       Variables:
  B1                    1.07                     
  B2                    1.07                     
  B3                    1.07                     
  B4                    1.07                     
  A1                  109.47122                  
  A2                  109.47122                  
  A3                  109.47122                  
  D1                  120.                       
  D2                  120.                       
 
     3 tetrahedral angles replaced.
                    Isotopes and Nuclear Properties:
 (Nuclear quadrupole moments (NQMom) in fm**2, nuclear magnetic moments (NMagM)
  in nuclear magnetons)

  Atom         1           2           3           4           5
 IAtWgt=          12           1           1           1           1
 AtmWgt=  12.0000000   1.0078250   1.0078250   1.0078250   1.0078250
 NucSpn=           0           1           1           1           1
 AtZEff=   0.0000000   0.0000000   0.0000000   0.0000000   0.0000000
 NQMom=    0.0000000   0.0000000   0.0000000   0.0000000   0.0000000
 NMagM=    0.0000000   2.7928460   2.7928460   2.7928460   2.7928460
 Leave Link  101 at Wed Feb 27 22:45:27 2008, MaxMem=    6291456 cpu:       0.1
 (Enter /opt/Gaussian03/g03/l103.exe)

 GradGradGradGradGradGradGradGradGradGradGradGradGradGradGradGradGradGrad
 Berny optimization.
 Initialization pass.
                           ----------------------------
                           !    Initial Parameters    !
                           ! (Angstroms and Degrees)  !
 --------------------------                            --------------------------
 ! Name  Definition              Value          Derivative Info.                !
 --------------------------------------------------------------------------------
 ! R1    R(1,2)                  1.07           estimate D2E/DX2                !
 ! R2    R(1,3)                  1.07           estimate D2E/DX2                !
 ! R3    R(1,4)                  1.07           estimate D2E/DX2                !
 ! R4    R(1,5)                  1.07           estimate D2E/DX2                !
 ! A1    A(2,1,3)              109.4712         estimate D2E/DX2                !
 ! A2    A(2,1,4)              109.4712         estimate D2E/DX2                !
 ! A3    A(2,1,5)              109.4712         estimate D2E/DX2                !
 ! A4    A(3,1,4)              109.4712         estimate D2E/DX2                !
 ! A5    A(3,1,5)              109.4712         estimate D2E/DX2                !
 ! A6    A(4,1,5)              109.4712         estimate D2E/DX2                !
 --------------------------------------------------------------------------------
 Trust Radius=3.00D-01 FncErr=1.00D-07 GrdErr=1.00D-07
 Number of steps in this run=  20 maximum allowed number of steps= 100.
 GradGradGradGradGradGradGradGradGradGradGradGradGradGradGradGradGradGrad

 Leave Link  103 at Wed Feb 27 22:45:27 2008, MaxMem=    6291456 cpu:       0.0
 (Enter /opt/Gaussian03/g03/l202.exe)
                          Input orientation:                          
 ---------------------------------------------------------------------
 Center     Atomic     Atomic              Coordinates (Angstroms)
 Number     Number      Type              X           Y           Z
 ---------------------------------------------------------------------
    1          6             0        0.000000    0.000000    0.000000
    2          1             0        0.000000    0.000000    1.070000
    3          1             0        1.008806    0.000000   -0.356667
    4          1             0       -0.504403   -0.873651   -0.356667
    5          1             0       -0.504403    0.873651   -0.356667
 ---------------------------------------------------------------------
                    Distance matrix (angstroms):
                    1          2          3          4          5
     1  C    0.000000
     2  H    1.070000   0.000000
     3  H    1.070000   1.747303   0.000000
     4  H    1.070000   1.747303   1.747303   0.000000
     5  H    1.070000   1.747303   1.747303   1.747303   0.000000
 Stoichiometry    CH4
 Framework group  TD[O(C),4C3(H)]
 Deg. of freedom     1
 Full point group                 TD
 Largest Abelian subgroup         D2      NOp   4
 Largest concise Abelian subgroup D2      NOp   4
                         Standard orientation:                         
 ---------------------------------------------------------------------
 Center     Atomic     Atomic              Coordinates (Angstroms)
 Number     Number      Type              X           Y           Z
 ---------------------------------------------------------------------
    1          6             0        0.000000    0.000000    0.000000
    2          1             0        0.617765    0.617765    0.617765
    3          1             0       -0.617765   -0.617765    0.617765
    4          1             0       -0.617765    0.617765   -0.617765
    5          1             0        0.617765   -0.617765   -0.617765
 ---------------------------------------------------------------------
 Rotational constants (GHZ):    164.2463769    164.2463769    164.2463769
 Leave Link  202 at Wed Feb 27 22:45:27 2008, MaxMem=    6291456 cpu:       0.0
 (Enter /opt/Gaussian03/g03/l301.exe)
 Standard basis: 3-21G (6D, 7F)
 There are     5 symmetry adapted basis functions of A   symmetry.
 There are     4 symmetry adapted basis functions of B1  symmetry.
 There are     4 symmetry adapted basis functions of B2  symmetry.
 There are     4 symmetry adapted basis functions of B3  symmetry.
 Integral buffers will be    262144 words long.
 Raffenetti 1 integral format.
 Two-electron integral symmetry is turned on.
    17 basis functions,    27 primitive gaussians,    17 cartesian basis functions
     5 alpha electrons        5 beta electrons
       nuclear repulsion energy        13.6865184696 Hartrees.
 IExCor=   0 DFT=F Ex=HF Corr=None ExCW=0 ScaHFX=  1.000000
 ScaDFX=  1.000000  1.000000  1.000000  1.000000
 IRadAn=      0 IRanWt=     -1 IRanGd=            0 ICorTp=0
 NAtoms=    5 NActive=    5 NUniq=    2 SFac= 3.00D+00 NAtFMM=   80 NAOKFM=F Big=F
 Leave Link  301 at Wed Feb 27 22:45:27 2008, MaxMem=    6291456 cpu:       0.0
 (Enter /opt/Gaussian03/g03/l302.exe)
 NPDir=0 NMtPBC=     1 NCelOv=     1 NCel=       1 NClECP=     1 NCelD=      1
         NCelK=      1 NCelE2=     1 NClLst=     1 CellRange=     0.0.
 One-electron integrals computed using PRISM.
 One-electron integral symmetry used in STVInt
 NBasis=    17 RedAO= T  NBF=     5     4     4     4
 NBsUse=    17 1.00D-06 NBFU=     5     4     4     4
 Leave Link  302 at Wed Feb 27 22:45:28 2008, MaxMem=    6291456 cpu:       0.1
 (Enter /opt/Gaussian03/g03/l303.exe)
 DipDrv:  MaxL=1.
 Leave Link  303 at Wed Feb 27 22:45:28 2008, MaxMem=    6291456 cpu:       0.0
 (Enter /opt/Gaussian03/g03/l401.exe)
 Harris functional with IExCor=  205 diagonalized for initial guess.
 ExpMin= 1.83D-01 ExpMax= 1.72D+02 ExpMxC= 1.72D+02 IAcc=1 IRadAn=         1 AccDes= 1.00D-06
 HarFok:  IExCor= 205 AccDes= 1.00D-06 IRadAn=         1 IDoV=1
 ScaDFX=  1.000000  1.000000  1.000000  1.000000
 Harris En= -40.1606815330508    
 Initial guess orbital symmetries:
       Occupied  (A1) (A1) (T2) (T2) (T2)
       Virtual   (A1) (T2) (T2) (T2) (T2) (T2) (T2) (A1) (T2) (T2)
                 (T2) (A1)
 The electronic state of the initial guess is 1-A1.
 Leave Link  401 at Wed Feb 27 22:45:28 2008, MaxMem=    6291456 cpu:       0.1
 (Enter /opt/Gaussian03/g03/l502.exe)
 Closed shell SCF:
 Requested convergence on RMS density matrix=1.00D-08 within 128 cycles.
 Requested convergence on MAX density matrix=1.00D-06.
 Requested convergence on             energy=1.00D-06.
 No special actions if energy rises.
 Using DIIS extrapolation, IDIIS=  1040.
 Integral symmetry usage will be decided dynamically.
 Keep R1 integrals in memory in canonical form, NReq=      833467.
 IEnd=     18917 IEndB=     18917 NGot=   6291456 MDV=   6277847
 LenX=   6277847
 Symmetry not used in FoFDir.
 MinBra= 0 MaxBra= 1 Meth= 1.
 IRaf=       0 NMat=   1 IRICut=       1 DoRegI=T DoRafI=F ISym2E= 0 JSym2E=0.

 Cycle   1  Pass 1  IDiag  1:
 E= -39.8535115075476    
 DIIS: error= 8.84D-02 at cycle   1 NSaved=   1.
 NSaved= 1 IEnMin= 1 EnMin= -39.8535115075476     IErMin= 1 ErrMin= 8.84D-02
 ErrMax= 8.84D-02 EMaxC= 1.00D-01 BMatC= 1.28D-01 BMatP= 1.28D-01
 IDIUse=3 WtCom= 1.16D-01 WtEn= 8.84D-01
 Coeff-Com:  0.100D+01
 Coeff-En:   0.100D+01
 Coeff:      0.100D+01
 Gap=     0.773 Goal=   None    Shift=    0.000
 GapD=    0.773 DampG=2.000 DampE=0.500 DampFc=1.0000 IDamp=-1.
 RMSDP=2.10D-02 MaxDP=1.09D-01              OVMax= 1.36D-01

 Cycle   2  Pass 1  IDiag  1:
 E= -39.9593626706558     Delta-E=       -0.105851163108 Rises=F Damp=F
 DIIS: error= 3.12D-02 at cycle   2 NSaved=   2.
 NSaved= 2 IEnMin= 2 EnMin= -39.9593626706558     IErMin= 2 ErrMin= 3.12D-02
 ErrMax= 3.12D-02 EMaxC= 1.00D-01 BMatC= 1.90D-02 BMatP= 1.28D-01
 IDIUse=3 WtCom= 6.88D-01 WtEn= 3.12D-01
 Coeff-Com:  0.263D+00 0.737D+00
 Coeff-En:   0.000D+00 0.100D+01
 Coeff:      0.181D+00 0.819D+00
 Gap=     0.856 Goal=   None    Shift=    0.000
 RMSDP=5.55D-03 MaxDP=2.84D-02 DE=-1.06D-01 OVMax= 3.42D-02

 Cycle   3  Pass 1  IDiag  1:
 E= -39.9761100985960     Delta-E=       -0.016747427940 Rises=F Damp=F
 DIIS: error= 4.24D-03 at cycle   3 NSaved=   3.
 NSaved= 3 IEnMin= 3 EnMin= -39.9761100985960     IErMin= 3 ErrMin= 4.24D-03
 ErrMax= 4.24D-03 EMaxC= 1.00D-01 BMatC= 2.67D-04 BMatP= 1.90D-02
 IDIUse=3 WtCom= 9.58D-01 WtEn= 4.24D-02
 Coeff-Com: -0.232D-01 0.569D-01 0.966D+00
 Coeff-En:   0.000D+00 0.000D+00 0.100D+01
 Coeff:     -0.222D-01 0.545D-01 0.968D+00
 Gap=     0.848 Goal=   None    Shift=    0.000
 RMSDP=8.22D-04 MaxDP=3.58D-03 DE=-1.67D-02 OVMax= 5.20D-03

 Cycle   4  Pass 1  IDiag  1:
 E= -39.9764037832974     Delta-E=       -0.000293684701 Rises=F Damp=F
 DIIS: error= 3.72D-04 at cycle   4 NSaved=   4.
 NSaved= 4 IEnMin= 4 EnMin= -39.9764037832974     IErMin= 4 ErrMin= 3.72D-04
 ErrMax= 3.72D-04 EMaxC= 1.00D-01 BMatC= 1.27D-06 BMatP= 2.67D-04
 IDIUse=3 WtCom= 9.96D-01 WtEn= 3.72D-03
 Coeff-Com:  0.812D-02-0.288D-01-0.354D+00 0.137D+01
 Coeff-En:   0.000D+00 0.000D+00 0.000D+00 0.100D+01
 Coeff:      0.809D-02-0.287D-01-0.353D+00 0.137D+01
 Gap=     0.848 Goal=   None    Shift=    0.000
 RMSDP=1.35D-04 MaxDP=5.67D-04 DE=-2.94D-04 OVMax= 5.21D-04

 Cycle   5  Pass 1  IDiag  1:
 E= -39.9764058451559     Delta-E=       -0.000002061859 Rises=F Damp=F
 DIIS: error= 8.71D-06 at cycle   5 NSaved=   5.
 NSaved= 5 IEnMin= 5 EnMin= -39.9764058451559     IErMin= 5 ErrMin= 8.71D-06
 ErrMax= 8.71D-06 EMaxC= 1.00D-01 BMatC= 1.78D-09 BMatP= 1.27D-06
 IDIUse=1 WtCom= 1.00D+00 WtEn= 0.00D+00
 Coeff-Com: -0.990D-03 0.355D-02 0.435D-01-0.199D+00 0.115D+01
 Coeff:     -0.990D-03 0.355D-02 0.435D-01-0.199D+00 0.115D+01
 Gap=     0.848 Goal=   None    Shift=    0.000
 RMSDP=8.11D-06 MaxDP=4.42D-05 DE=-2.06D-06 OVMax= 2.45D-05

 Cycle   6  Pass 1  IDiag  1:
 E= -39.9764058489451     Delta-E=       -0.000000003789 Rises=F Damp=F
 DIIS: error= 4.60D-07 at cycle   6 NSaved=   6.
 NSaved= 6 IEnMin= 6 EnMin= -39.9764058489451     IErMin= 6 ErrMin= 4.60D-07
 ErrMax= 4.60D-07 EMaxC= 1.00D-01 BMatC= 4.58D-12 BMatP= 1.78D-09
 IDIUse=1 WtCom= 1.00D+00 WtEn= 0.00D+00
 Coeff-Com:  0.500D-04-0.153D-03-0.200D-02 0.103D-01-0.929D-01 0.108D+01
 Coeff:      0.500D-04-0.153D-03-0.200D-02 0.103D-01-0.929D-01 0.108D+01
 Gap=     0.848 Goal=   None    Shift=    0.000
 RMSDP=2.69D-07 MaxDP=1.10D-06 DE=-3.79D-09 OVMax= 7.25D-07

 Cycle   7  Pass 1  IDiag  1:
 E= -39.9764058489521     Delta-E=       -0.000000000007 Rises=F Damp=F
 DIIS: error= 6.08D-08 at cycle   7 NSaved=   7.
 NSaved= 7 IEnMin= 7 EnMin= -39.9764058489521     IErMin= 7 ErrMin= 6.08D-08
 ErrMax= 6.08D-08 EMaxC= 1.00D-01 BMatC= 1.05D-13 BMatP= 4.58D-12
 IDIUse=1 WtCom= 1.00D+00 WtEn= 0.00D+00
 Coeff-Com: -0.763D-06-0.436D-05-0.137D-04-0.351D-03 0.128D-01-0.301D+00
 Coeff-Com:  0.129D+01
 Coeff:     -0.763D-06-0.436D-05-0.137D-04-0.351D-03 0.128D-01-0.301D+00
 Coeff:      0.129D+01
 Gap=     0.848 Goal=   None    Shift=    0.000
 RMSDP=5.92D-08 MaxDP=6.57D-07 DE=-7.01D-12 OVMax= 1.83D-07

 Cycle   8  Pass 1  IDiag  1:
 E= -39.9764058489523     Delta-E=        0.000000000000 Rises=F Damp=F
 DIIS: error= 1.64D-09 at cycle   8 NSaved=   8.
 NSaved= 8 IEnMin= 8 EnMin= -39.9764058489523     IErMin= 8 ErrMin= 1.64D-09
 ErrMax= 1.64D-09 EMaxC= 1.00D-01 BMatC= 6.27D-17 BMatP= 1.05D-13
 IDIUse=1 WtCom= 1.00D+00 WtEn= 0.00D+00
 Coeff-Com: -0.152D-06 0.131D-05 0.115D-04-0.848D-05-0.111D-02 0.314D-01
 Coeff-Com: -0.137D+00 0.111D+01
 Coeff:     -0.152D-06 0.131D-05 0.115D-04-0.848D-05-0.111D-02 0.314D-01
 Coeff:     -0.137D+00 0.111D+01
 Gap=     0.848 Goal=   None    Shift=    0.000
 RMSDP=7.95D-10 MaxDP=9.20D-09 DE=-1.85D-13 OVMax= 7.70D-10

 SCF Done:  E(RHF) =  -39.9764058490     A.U. after    8 cycles
             Convg  =    0.7947D-09             -V/T =  2.0003
             S**2   =   0.0000
 KE= 3.996302498439D+01 PE=-1.198200649406D+02 EE= 2.619411563765D+01
 Leave Link  502 at Wed Feb 27 22:45:29 2008, MaxMem=    6291456 cpu:       0.1
 (Enter /opt/Gaussian03/g03/l601.exe)
 Copying SCF densities to generalized density rwf, ISCF=0 IROHF=0.

 **********************************************************************

            Population analysis using the SCF density.

 **********************************************************************

 Orbital symmetries:
       Occupied  (A1) (A1) (T2) (T2) (T2)
       Virtual   (A1) (T2) (T2) (T2) (T2) (T2) (T2) (A1) (T2) (T2)
                 (T2) (A1)
 The electronic state is 1-A1.
 Alpha  occ. eigenvalues --  -11.13826  -0.95125  -0.54830  -0.54830  -0.54830
 Alpha virt. eigenvalues --    0.30001   0.35670   0.35670   0.35670   0.91538
 Alpha virt. eigenvalues --    0.91538   0.91538   1.35396   1.37170   1.37170
 Alpha virt. eigenvalues --    1.37170   1.96130
          Condensed to atoms (all electrons):
              1          2          3          4          5
     1  C    5.313108   0.372312   0.372312   0.372312   0.372312
     2  H    0.372312   0.505758  -0.026219  -0.026219  -0.026219
     3  H    0.372312  -0.026219   0.505758  -0.026219  -0.026219
     4  H    0.372312  -0.026219  -0.026219   0.505758  -0.026219
     5  H    0.372312  -0.026219  -0.026219  -0.026219   0.505758
 Mulliken atomic charges:
              1
     1  C   -0.802355
     2  H    0.200589
     3  H    0.200589
     4  H    0.200589
     5  H    0.200589
 Sum of Mulliken charges=   0.00000
 Atomic charges with hydrogens summed into heavy atoms:
              1
     1  C    0.000000
     2  H    0.000000
     3  H    0.000000
     4  H    0.000000
     5  H    0.000000
 Sum of Mulliken charges=   0.00000
 Electronic spatial extent (au):  <R**2>=    34.9949
 Charge=     0.0000 electrons
 Dipole moment (field-independent basis, Debye):
    X=     0.0000    Y=     0.0000    Z=     0.0000  Tot=     0.0000
 Quadrupole moment (field-independent basis, Debye-Ang):
   XX=    -8.3575   YY=    -8.3575   ZZ=    -8.3575
   XY=     0.0000   XZ=     0.0000   YZ=     0.0000
 Traceless Quadrupole moment (field-independent basis, Debye-Ang):
   XX=     0.0000   YY=     0.0000   ZZ=     0.0000
   XY=     0.0000   XZ=     0.0000   YZ=     0.0000
 Octapole moment (field-independent basis, Debye-Ang**2):
  XXX=     0.0000  YYY=     0.0000  ZZZ=     0.0000  XYY=     0.0000
  XXY=     0.0000  XXZ=     0.0000  XZZ=     0.0000  YZZ=     0.0000
  YYZ=     0.0000  XYZ=     0.6836
 Hexadecapole moment (field-independent basis, Debye-Ang**3):
 XXXX=   -15.0377 YYYY=   -15.0377 ZZZZ=   -15.0377 XXXY=     0.0000
 XXXZ=     0.0000 YYYX=     0.0000 YYYZ=     0.0000 ZZZX=     0.0000
 ZZZY=     0.0000 XXYY=    -4.5929 XXZZ=    -4.5929 YYZZ=    -4.5929
 XXYZ=     0.0000 YYXZ=     0.0000 ZZXY=     0.0000
 N-N= 1.368651846956D+01 E-N=-1.198200649329D+02  KE= 3.996302498439D+01
 Symmetry A    KE= 3.424875327500D+01
 Symmetry B1   KE= 1.904757236465D+00
 Symmetry B2   KE= 1.904757236465D+00
 Symmetry B3   KE= 1.904757236465D+00
 No NMR shielding tensors so no spin-rotation constants.
 Leave Link  601 at Wed Feb 27 22:45:30 2008, MaxMem=    6291456 cpu:       0.2
 (Enter /opt/Gaussian03/g03/l701.exe)
 Compute integral first derivatives.
 ... and contract with generalized density number  0.
 Leave Link  701 at Wed Feb 27 22:45:30 2008, MaxMem=    6291456 cpu:       0.1
 (Enter /opt/Gaussian03/g03/l702.exe)
 L702 exits ... SP integral derivatives will be done elsewhere.
 Leave Link  702 at Wed Feb 27 22:45:30 2008, MaxMem=    6291456 cpu:       0.0
 (Enter /opt/Gaussian03/g03/l703.exe)
 Compute integral first derivatives, UseDBF=F.
 Integral derivatives from FoFDir, PRISM(SPDF).
 Petite list used in FoFDir.
 MinBra= 0 MaxBra= 1 Meth= 1.
 IRaf=       0 NMat=   1 IRICut=       1 DoRegI=T DoRafI=F ISym2E= 1 JSym2E=1.
 Leave Link  703 at Wed Feb 27 22:45:31 2008, MaxMem=    6291456 cpu:       0.1
 (Enter /opt/Gaussian03/g03/l716.exe)
 Dipole        = 6.66133815D-16 2.22044605D-16 0.00000000D+00
 ***** Axes restored to original set *****
 -------------------------------------------------------------------
 Center     Atomic                   Forces (Hartrees/Bohr)
 Number     Number              X              Y              Z
 -------------------------------------------------------------------
    1          6           0.000000000    0.000000000    0.000000000
    2          1           0.000000000    0.000000000    0.009791094
    3          1           0.009231132    0.000000000   -0.003263698
    4          1          -0.004615566   -0.007994395   -0.003263698
    5          1          -0.004615566    0.007994395   -0.003263698
 -------------------------------------------------------------------
 Cartesian Forces:  Max     0.009791094 RMS     0.005056099
 Leave Link  716 at Wed Feb 27 22:45:31 2008, MaxMem=    6291456 cpu:       0.0
 (Enter /opt/Gaussian03/g03/l103.exe)

 GradGradGradGradGradGradGradGradGradGradGradGradGradGradGradGradGradGrad
 Berny optimization.
 Internal  Forces:  Max     0.009791094 RMS     0.006192432
 Search for a local minimum.
 Step number   1 out of a maximum of  20
 All quantities printed in internal units (Hartrees-Bohrs-Radians)
 Second derivative matrix not updated -- first step.
 The second derivative matrix:
                          R1        R2        R3        R4        A1
           R1           0.37230
           R2           0.00000   0.37230
           R3           0.00000   0.00000   0.37230
           R4           0.00000   0.00000   0.00000   0.37230
           A1           0.00000   0.00000   0.00000   0.00000   0.16000
           A2           0.00000   0.00000   0.00000   0.00000   0.00000
           A3           0.00000   0.00000   0.00000   0.00000   0.00000
           A4           0.00000   0.00000   0.00000   0.00000   0.00000
           A5           0.00000   0.00000   0.00000   0.00000   0.00000
           A6           0.00000   0.00000   0.00000   0.00000   0.00000
                          A2        A3        A4        A5        A6
           A2           0.16000
           A3           0.00000   0.16000
           A4           0.00000   0.00000   0.16000
           A5           0.00000   0.00000   0.00000   0.16000
           A6           0.00000   0.00000   0.00000   0.00000   0.16000
     Eigenvalues ---    0.16000   0.16000   0.16000   0.16000   0.16000
     Eigenvalues ---    0.37230   0.37230   0.37230   0.372301000.00000
 RFO step:  Lambda=-1.02713687D-03.
 Linear search not attempted -- first point.
 Iteration  1 RMS(Cart)=  0.01658710 RMS(Int)=  0.00000000
 Iteration  2 RMS(Cart)=  0.00000000 RMS(Int)=  0.00000000
 Variable       Old X    -DE/DX   Delta X   Delta X   Delta X     New X
                                 (Linear)    (Quad)   (Total)
    R1        2.02201   0.00979   0.00000   0.02623   0.02623   2.04823
    R2        2.02201   0.00979   0.00000   0.02623   0.02623   2.04823
    R3        2.02201   0.00979   0.00000   0.02623   0.02623   2.04823
    R4        2.02201   0.00979   0.00000   0.02623   0.02623   2.04823
    A1        1.91063   0.00000   0.00000   0.00000   0.00000   1.91063
    A2        1.91063   0.00000   0.00000   0.00000   0.00000   1.91063
    A3        1.91063   0.00000   0.00000   0.00000   0.00000   1.91063
    A4        1.91063   0.00000   0.00000   0.00000   0.00000   1.91063
    A5        1.91063   0.00000   0.00000   0.00000   0.00000   1.91063
    A6        1.91063   0.00000   0.00000   0.00000   0.00000   1.91063
         Item               Value     Threshold  Converged?
 Maximum Force            0.009791     0.000450     NO 
 RMS     Force            0.006192     0.000300     NO 
 Maximum Displacement     0.026227     0.001800     NO 
 RMS     Displacement     0.016587     0.001200     NO 
 Predicted change in Energy=-5.149853D-04
 GradGradGradGradGradGradGradGradGradGradGradGradGradGradGradGradGradGrad

 Leave Link  103 at Wed Feb 27 22:45:31 2008, MaxMem=    6291456 cpu:       0.0
 (Enter /opt/Gaussian03/g03/l202.exe)
                          Input orientation:                          
 ---------------------------------------------------------------------
 Center     Atomic     Atomic              Coordinates (Angstroms)
 Number     Number      Type              X           Y           Z
 ---------------------------------------------------------------------
    1          6             0        0.000000    0.000000    0.000000
    2          1             0        0.000000    0.000000    1.083878
    3          1             0        1.021890    0.000000   -0.361293
    4          1             0       -0.510945   -0.884983   -0.361293
    5          1             0       -0.510945    0.884983   -0.361293
 ---------------------------------------------------------------------
                    Distance matrix (angstroms):
                    1          2          3          4          5
     1  C    0.000000
     2  H    1.083878   0.000000
     3  H    1.083878   1.769966   0.000000
     4  H    1.083878   1.769966   1.769966   0.000000
     5  H    1.083878   1.769966   1.769966   1.769966   0.000000
 Stoichiometry    CH4
 Framework group  TD[O(C),4C3(H)]
 Deg. of freedom     1
 Full point group                 TD
 Largest Abelian subgroup         D2      NOp   4
 Largest concise Abelian subgroup D2      NOp   4
                         Standard orientation:                         
 ---------------------------------------------------------------------
 Center     Atomic     Atomic              Coordinates (Angstroms)
 Number     Number      Type              X           Y           Z
 ---------------------------------------------------------------------
    1          6             0        0.000000    0.000000    0.000000
    2          1             0        0.625778    0.625778    0.625778
    3          1             0       -0.625778   -0.625778    0.625778
    4          1             0       -0.625778    0.625778   -0.625778
    5          1             0        0.625778   -0.625778   -0.625778
 ---------------------------------------------------------------------
 Rotational constants (GHZ):    160.0671364    160.0671364    160.0671364
 Leave Link  202 at Wed Feb 27 22:45:31 2008, MaxMem=    6291456 cpu:       0.0
 (Enter /opt/Gaussian03/g03/l301.exe)
 Standard basis: 3-21G (6D, 7F)
 There are     5 symmetry adapted basis functions of A   symmetry.
 There are     4 symmetry adapted basis functions of B1  symmetry.
 There are     4 symmetry adapted basis functions of B2  symmetry.
 There are     4 symmetry adapted basis functions of B3  symmetry.
 Integral buffers will be    262144 words long.
 Raffenetti 1 integral format.
 Two-electron integral symmetry is turned on.
    17 basis functions,    27 primitive gaussians,    17 cartesian basis functions
     5 alpha electrons        5 beta electrons
       nuclear repulsion energy        13.5112701147 Hartrees.
 IExCor=   0 DFT=F Ex=HF Corr=None ExCW=0 ScaHFX=  1.000000
 ScaDFX=  1.000000  1.000000  1.000000  1.000000
 IRadAn=      0 IRanWt=     -1 IRanGd=            0 ICorTp=0
 NAtoms=    5 NActive=    5 NUniq=    2 SFac= 3.00D+00 NAtFMM=   80 NAOKFM=F Big=F
 Leave Link  301 at Wed Feb 27 22:45:31 2008, MaxMem=    6291456 cpu:       0.0
 (Enter /opt/Gaussian03/g03/l302.exe)
 NPDir=0 NMtPBC=     1 NCelOv=     1 NCel=       1 NClECP=     1 NCelD=      1
         NCelK=      1 NCelE2=     1 NClLst=     1 CellRange=     0.0.
 One-electron integrals computed using PRISM.
 One-electron integral symmetry used in STVInt
 NBasis=    17 RedAO= T  NBF=     5     4     4     4
 NBsUse=    17 1.00D-06 NBFU=     5     4     4     4
 Leave Link  302 at Wed Feb 27 22:45:31 2008, MaxMem=    6291456 cpu:       0.1
 (Enter /opt/Gaussian03/g03/l303.exe)
 DipDrv:  MaxL=1.
 Leave Link  303 at Wed Feb 27 22:45:32 2008, MaxMem=    6291456 cpu:       0.0
 (Enter /opt/Gaussian03/g03/l401.exe)
 Initial guess read from the read-write file:
 Guess basis will be translated and rotated to current coordinates.
 Initial guess orbital symmetries:
       Occupied  (A1) (A1) (T2) (T2) (T2)
       Virtual   (A1) (T2) (T2) (T2) (T2) (T2) (T2) (A1) (T2) (T2)
                 (T2) (A1)
 The electronic state of the initial guess is 1-A1.
 Generating alternative initial guess.
 Harris functional with IExCor=  205 diagonalized for initial guess.
 ExpMin= 1.83D-01 ExpMax= 1.72D+02 ExpMxC= 1.72D+02 IAcc=1 IRadAn=         1 AccDes= 1.00D-06
 HarFok:  IExCor= 205 AccDes= 1.00D-06 IRadAn=         1 IDoV=1
 ScaDFX=  1.000000  1.000000  1.000000  1.000000
 Harris En= -40.1568188593355    
 Leave Link  401 at Wed Feb 27 22:45:32 2008, MaxMem=    6291456 cpu:       0.1
 (Enter /opt/Gaussian03/g03/l502.exe)
 Closed shell SCF:
 Requested convergence on RMS density matrix=1.00D-08 within 128 cycles.
 Requested convergence on MAX density matrix=1.00D-06.
 Requested convergence on             energy=1.00D-06.
 No special actions if energy rises.
 Using DIIS extrapolation, IDIIS=  1040.
 Integral symmetry usage will be decided dynamically.
 Keep R1 integrals in memory in canonical form, NReq=      833467.
 IEnd=     18917 IEndB=     18917 NGot=   6291456 MDV=   6277847
 LenX=   6277847
 Symmetry not used in FoFDir.
 MinBra= 0 MaxBra= 1 Meth= 1.
 IRaf=       0 NMat=   1 IRICut=       1 DoRegI=T DoRafI=F ISym2E= 0 JSym2E=0.

 Cycle   1  Pass 1  IDiag  1:
 E= -39.9767221165496    
 DIIS: error= 2.31D-03 at cycle   1 NSaved=   1.
 NSaved= 1 IEnMin= 1 EnMin= -39.9767221165496     IErMin= 1 ErrMin= 2.31D-03
 ErrMax= 2.31D-03 EMaxC= 1.00D-01 BMatC= 1.40D-04 BMatP= 1.40D-04
 IDIUse=3 WtCom= 9.77D-01 WtEn= 2.31D-02
 Coeff-Com:  0.100D+01
 Coeff-En:   0.100D+01
 Coeff:      0.100D+01
 Gap=     0.840 Goal=   None    Shift=    0.000
 GapD=    0.840 DampG=2.000 DampE=1.000 DampFc=2.0000 IDamp=-1.
 RMSDP=6.92D-04 MaxDP=2.51D-03              OVMax= 4.04D-03

 Cycle   2  Pass 1  IDiag  1:
 E= -39.9768606878174     Delta-E=       -0.000138571268 Rises=F Damp=F
 DIIS: error= 8.22D-04 at cycle   2 NSaved=   2.
 NSaved= 2 IEnMin= 2 EnMin= -39.9768606878174     IErMin= 2 ErrMin= 8.22D-04
 ErrMax= 8.22D-04 EMaxC= 1.00D-01 BMatC= 1.51D-05 BMatP= 1.40D-04
 IDIUse=3 WtCom= 9.92D-01 WtEn= 8.22D-03
 Coeff-Com:  0.175D+00 0.825D+00
 Coeff-En:   0.000D+00 0.100D+01
 Coeff:      0.174D+00 0.826D+00
 Gap=     0.841 Goal=   None    Shift=    0.000
 RMSDP=1.55D-04 MaxDP=7.75D-04 DE=-1.39D-04 OVMax= 9.58D-04

 Cycle   3  Pass 1  IDiag  1:
 E= -39.9768743854023     Delta-E=       -0.000013697585 Rises=F Damp=F
 DIIS: error= 1.39D-04 at cycle   3 NSaved=   3.
 NSaved= 3 IEnMin= 3 EnMin= -39.9768743854023     IErMin= 3 ErrMin= 1.39D-04
 ErrMax= 1.39D-04 EMaxC= 1.00D-01 BMatC= 4.59D-07 BMatP= 1.51D-05
 IDIUse=3 WtCom= 9.99D-01 WtEn= 1.39D-03
 Coeff-Com: -0.496D-01 0.300D-01 0.102D+01
 Coeff-En:   0.000D+00 0.000D+00 0.100D+01
 Coeff:     -0.496D-01 0.299D-01 0.102D+01
 Gap=     0.841 Goal=   None    Shift=    0.000
 RMSDP=3.33D-05 MaxDP=1.22D-04 DE=-1.37D-05 OVMax= 2.02D-04

 Cycle   4  Pass 1  IDiag  1:
 E= -39.9768749203659     Delta-E=       -0.000000534964 Rises=F Damp=F
 DIIS: error= 1.02D-05 at cycle   4 NSaved=   4.
 NSaved= 4 IEnMin= 4 EnMin= -39.9768749203659     IErMin= 4 ErrMin= 1.02D-05
 ErrMax= 1.02D-05 EMaxC= 1.00D-01 BMatC= 2.25D-09 BMatP= 4.59D-07
 IDIUse=1 WtCom= 1.00D+00 WtEn= 0.00D+00
 Coeff-Com:  0.466D-02-0.454D-02-0.142D+00 0.114D+01
 Coeff:      0.466D-02-0.454D-02-0.142D+00 0.114D+01
 Gap=     0.841 Goal=   None    Shift=    0.000
 RMSDP=6.47D-06 MaxDP=3.08D-05 DE=-5.35D-07 OVMax= 2.58D-05

 Cycle   5  Pass 1  IDiag  1:
 E= -39.9768749249861     Delta-E=       -0.000000004620 Rises=F Damp=F
 DIIS: error= 1.55D-06 at cycle   5 NSaved=   5.
 NSaved= 5 IEnMin= 5 EnMin= -39.9768749249861     IErMin= 5 ErrMin= 1.55D-06
 ErrMax= 1.55D-06 EMaxC= 1.00D-01 BMatC= 7.78D-11 BMatP= 2.25D-09
 IDIUse=1 WtCom= 1.00D+00 WtEn= 0.00D+00
 Coeff-Com: -0.834D-03 0.203D-02 0.255D-01-0.330D+00 0.130D+01
 Coeff:     -0.834D-03 0.203D-02 0.255D-01-0.330D+00 0.130D+01
 Gap=     0.841 Goal=   None    Shift=    0.000
 RMSDP=1.46D-06 MaxDP=6.61D-06 DE=-4.62D-09 OVMax= 5.12D-06

 Cycle   6  Pass 1  IDiag  1:
 E= -39.9768749251331     Delta-E=       -0.000000000147 Rises=F Damp=F
 DIIS: error= 1.92D-07 at cycle   6 NSaved=   6.
 NSaved= 6 IEnMin= 6 EnMin= -39.9768749251331     IErMin= 6 ErrMin= 1.92D-07
 ErrMax= 1.92D-07 EMaxC= 1.00D-01 BMatC= 1.96D-13 BMatP= 7.78D-11
 IDIUse=1 WtCom= 1.00D+00 WtEn= 0.00D+00
 Coeff-Com:  0.155D-03-0.380D-03-0.483D-02 0.649D-01-0.270D+00 0.121D+01
 Coeff:      0.155D-03-0.380D-03-0.483D-02 0.649D-01-0.270D+00 0.121D+01
 Gap=     0.841 Goal=   None    Shift=    0.000
 RMSDP=4.62D-08 MaxDP=3.85D-07 DE=-1.47D-10 OVMax= 2.91D-07

 Cycle   7  Pass 1  IDiag  1:
 E= -39.9768749251335     Delta-E=        0.000000000000 Rises=F Damp=F
 DIIS: error= 2.05D-08 at cycle   7 NSaved=   7.
 NSaved= 7 IEnMin= 7 EnMin= -39.9768749251335     IErMin= 7 ErrMin= 2.05D-08
 ErrMax= 2.05D-08 EMaxC= 1.00D-01 BMatC= 3.06D-15 BMatP= 1.96D-13
 IDIUse=1 WtCom= 1.00D+00 WtEn= 0.00D+00
 Coeff-Com: -0.140D-04 0.408D-04 0.440D-03-0.637D-02 0.274D-01-0.218D+00
 Coeff-Com:  0.120D+01
 Coeff:     -0.140D-04 0.408D-04 0.440D-03-0.637D-02 0.274D-01-0.218D+00
 Coeff:      0.120D+01
 Gap=     0.841 Goal=   None    Shift=    0.000
 RMSDP=7.49D-09 MaxDP=8.80D-08 DE=-3.62D-13 OVMax= 4.50D-08

 SCF Done:  E(RHF) =  -39.9768749251     A.U. after    7 cycles
             Convg  =    0.7492D-08             -V/T =  2.0024
             S**2   =   0.0000
 KE= 3.988230827510D+01 PE=-1.194103229626D+02 EE= 2.603986964771D+01
 Leave Link  502 at Wed Feb 27 22:45:32 2008, MaxMem=    6291456 cpu:       0.1
 (Enter /opt/Gaussian03/g03/l701.exe)
 Compute integral first derivatives.
 ... and contract with generalized density number  0.
 Leave Link  701 at Wed Feb 27 22:45:32 2008, MaxMem=    6291456 cpu:       0.1
 (Enter /opt/Gaussian03/g03/l702.exe)
 L702 exits ... SP integral derivatives will be done elsewhere.
 Leave Link  702 at Wed Feb 27 22:45:32 2008, MaxMem=    6291456 cpu:       0.0
 (Enter /opt/Gaussian03/g03/l703.exe)
 Compute integral first derivatives, UseDBF=F.
 Integral derivatives from FoFDir, PRISM(SPDF).
 Petite list used in FoFDir.
 MinBra= 0 MaxBra= 1 Meth= 1.
 IRaf=       0 NMat=   1 IRICut=       1 DoRegI=T DoRafI=F ISym2E= 1 JSym2E=1.
 Leave Link  703 at Wed Feb 27 22:45:32 2008, MaxMem=    6291456 cpu:       0.1
 (Enter /opt/Gaussian03/g03/l716.exe)
 Dipole        = 0.00000000D+00 0.00000000D+00 2.22044605D-16
 ***** Axes restored to original set *****
 -------------------------------------------------------------------
 Center     Atomic                   Forces (Hartrees/Bohr)
 Number     Number              X              Y              Z
 -------------------------------------------------------------------
    1          6           0.000000000    0.000000000    0.000000000
    2          1           0.000000000    0.000000000   -0.000713065
    3          1          -0.000672284    0.000000000    0.000237688
    4          1           0.000336142    0.000582215    0.000237688
    5          1           0.000336142   -0.000582215    0.000237688
 -------------------------------------------------------------------
 Cartesian Forces:  Max     0.000713065 RMS     0.000368225
 Leave Link  716 at Wed Feb 27 22:45:32 2008, MaxMem=    6291456 cpu:       0.0
 (Enter /opt/Gaussian03/g03/l103.exe)

 GradGradGradGradGradGradGradGradGradGradGradGradGradGradGradGradGradGrad
 Berny optimization.
 Internal  Forces:  Max     0.000713065 RMS     0.000450982
 Search for a local minimum.
 Step number   2 out of a maximum of  20
 All quantities printed in internal units (Hartrees-Bohrs-Radians)
 Update second derivatives using D2CorX and points  1  2
 Trust test= 9.11D-01 RLast= 5.25D-02 DXMaxT set to 3.00D-01
 The second derivative matrix:
                          R1        R2        R3        R4        A1
           R1           0.37936
           R2           0.00705   0.37936
           R3           0.00705   0.00705   0.37936
           R4           0.00705   0.00705   0.00705   0.37936
           A1           0.00000   0.00000   0.00000   0.00000   0.16000
           A2           0.00000   0.00000   0.00000   0.00000   0.00000
           A3           0.00000   0.00000   0.00000   0.00000   0.00000
           A4           0.00000   0.00000   0.00000   0.00000   0.00000
           A5           0.00000   0.00000   0.00000   0.00000   0.00000
           A6           0.00000   0.00000   0.00000   0.00000   0.00000
                          A2        A3        A4        A5        A6
           A2           0.16000
           A3           0.00000   0.16000
           A4           0.00000   0.00000   0.16000
           A5           0.00000   0.00000   0.00000   0.16000
           A6           0.00000   0.00000   0.00000   0.00000   0.16000
     Eigenvalues ---    0.16000   0.16000   0.16000   0.16000   0.16000
     Eigenvalues ---    0.37230   0.37230   0.37230   0.400521000.00000
 RFO step:  Lambda= 0.00000000D+00.
 Quartic linear search produced a step of -0.07040.
 Iteration  1 RMS(Cart)=  0.00116769 RMS(Int)=  0.00000000
 Iteration  2 RMS(Cart)=  0.00000000 RMS(Int)=  0.00000000
 Variable       Old X    -DE/DX   Delta X   Delta X   Delta X     New X
                                 (Linear)    (Quad)   (Total)
    R1        2.04823  -0.00071  -0.00185   0.00000  -0.00185   2.04639
    R2        2.04823  -0.00071  -0.00185   0.00000  -0.00185   2.04639
    R3        2.04823  -0.00071  -0.00185   0.00000  -0.00185   2.04639
    R4        2.04823  -0.00071  -0.00185   0.00000  -0.00185   2.04639
    A1        1.91063   0.00000   0.00000   0.00000   0.00000   1.91063
    A2        1.91063   0.00000   0.00000   0.00000   0.00000   1.91063
    A3        1.91063   0.00000   0.00000   0.00000   0.00000   1.91063
    A4        1.91063   0.00000   0.00000   0.00000   0.00000   1.91063
    A5        1.91063   0.00000   0.00000   0.00000   0.00000   1.91063
    A6        1.91063   0.00000   0.00000   0.00000   0.00000   1.91063
         Item               Value     Threshold  Converged?
 Maximum Force            0.000713     0.000450     NO 
 RMS     Force            0.000451     0.000300     NO 
 Maximum Displacement     0.001846     0.001800     NO 
 RMS     Displacement     0.001168     0.001200     YES
 Predicted change in Energy=-2.535545D-06
 GradGradGradGradGradGradGradGradGradGradGradGradGradGradGradGradGradGrad

 Leave Link  103 at Wed Feb 27 22:45:32 2008, MaxMem=    6291456 cpu:       0.0
 (Enter /opt/Gaussian03/g03/l202.exe)
                          Input orientation:                          
 ---------------------------------------------------------------------
 Center     Atomic     Atomic              Coordinates (Angstroms)
 Number     Number      Type              X           Y           Z
 ---------------------------------------------------------------------
    1          6             0        0.000000    0.000000    0.000000
    2          1             0        0.000000    0.000000    1.082901
    3          1             0        1.020969    0.000000   -0.360967
    4          1             0       -0.510485   -0.884185   -0.360967
    5          1             0       -0.510485    0.884185   -0.360967
 ---------------------------------------------------------------------
                    Distance matrix (angstroms):
                    1          2          3          4          5
     1  C    0.000000
     2  H    1.082901   0.000000
     3  H    1.082901   1.768371   0.000000
     4  H    1.082901   1.768371   1.768371   0.000000
     5  H    1.082901   1.768371   1.768371   1.768371   0.000000
 Stoichiometry    CH4
 Framework group  TD[O(C),4C3(H)]
 Deg. of freedom     1
 Full point group                 TD
 Largest Abelian subgroup         D2      NOp   4
 Largest concise Abelian subgroup D2      NOp   4
                         Standard orientation:                         
 ---------------------------------------------------------------------
 Center     Atomic     Atomic              Coordinates (Angstroms)
 Number     Number      Type              X           Y           Z
 ---------------------------------------------------------------------
    1          6             0        0.000000    0.000000    0.000000
    2          1             0        0.625213    0.625213    0.625213
    3          1             0       -0.625213   -0.625213    0.625213
    4          1             0       -0.625213    0.625213   -0.625213
    5          1             0        0.625213   -0.625213   -0.625213
 ---------------------------------------------------------------------
 Rotational constants (GHZ):    160.3560975    160.3560975    160.3560975
 Leave Link  202 at Wed Feb 27 22:45:32 2008, MaxMem=    6291456 cpu:       0.0
 (Enter /opt/Gaussian03/g03/l301.exe)
 Standard basis: 3-21G (6D, 7F)
 There are     5 symmetry adapted basis functions of A   symmetry.
 There are     4 symmetry adapted basis functions of B1  symmetry.
 There are     4 symmetry adapted basis functions of B2  symmetry.
 There are     4 symmetry adapted basis functions of B3  symmetry.
 Integral buffers will be    262144 words long.
 Raffenetti 1 integral format.
 Two-electron integral symmetry is turned on.
    17 basis functions,    27 primitive gaussians,    17 cartesian basis functions
     5 alpha electrons        5 beta electrons
       nuclear repulsion energy        13.5234602236 Hartrees.
 IExCor=   0 DFT=F Ex=HF Corr=None ExCW=0 ScaHFX=  1.000000
 ScaDFX=  1.000000  1.000000  1.000000  1.000000
 IRadAn=      0 IRanWt=     -1 IRanGd=            0 ICorTp=0
 NAtoms=    5 NActive=    5 NUniq=    2 SFac= 3.00D+00 NAtFMM=   80 NAOKFM=F Big=F
 Leave Link  301 at Wed Feb 27 22:45:32 2008, MaxMem=    6291456 cpu:       0.0
 (Enter /opt/Gaussian03/g03/l302.exe)
 NPDir=0 NMtPBC=     1 NCelOv=     1 NCel=       1 NClECP=     1 NCelD=      1
         NCelK=      1 NCelE2=     1 NClLst=     1 CellRange=     0.0.
 One-electron integrals computed using PRISM.
 One-electron integral symmetry used in STVInt
 NBasis=    17 RedAO= T  NBF=     5     4     4     4
 NBsUse=    17 1.00D-06 NBFU=     5     4     4     4
 Leave Link  302 at Wed Feb 27 22:45:33 2008, MaxMem=    6291456 cpu:       0.1
 (Enter /opt/Gaussian03/g03/l303.exe)
 DipDrv:  MaxL=1.
 Leave Link  303 at Wed Feb 27 22:45:33 2008, MaxMem=    6291456 cpu:       0.0
 (Enter /opt/Gaussian03/g03/l401.exe)
 Initial guess read from the read-write file:
 Guess basis will be translated and rotated to current coordinates.
 Initial guess orbital symmetries:
       Occupied  (A1) (A1) (T2) (T2) (T2)
       Virtual   (A1) (T2) (T2) (T2) (T2) (T2) (T2) (A1) (T2) (T2)
                 (T2) (A1)
 The electronic state of the initial guess is 1-A1.
 Leave Link  401 at Wed Feb 27 22:45:33 2008, MaxMem=    6291456 cpu:       0.0
 (Enter /opt/Gaussian03/g03/l502.exe)
 Closed shell SCF:
 Requested convergence on RMS density matrix=1.00D-08 within 128 cycles.
 Requested convergence on MAX density matrix=1.00D-06.
 Requested convergence on             energy=1.00D-06.
 No special actions if energy rises.
 Using DIIS extrapolation, IDIIS=  1040.
 Integral symmetry usage will be decided dynamically.
 Keep R1 integrals in memory in canonical form, NReq=      833467.
 IEnd=     18917 IEndB=     18917 NGot=   6291456 MDV=   6277847
 LenX=   6277847
 Symmetry not used in FoFDir.
 MinBra= 0 MaxBra= 1 Meth= 1.
 IRaf=       0 NMat=   1 IRICut=       1 DoRegI=T DoRafI=F ISym2E= 0 JSym2E=0.

 Cycle   1  Pass 1  IDiag  1:
 E= -39.9768768085271    
 DIIS: error= 1.62D-04 at cycle   1 NSaved=   1.
 NSaved= 1 IEnMin= 1 EnMin= -39.9768768085271     IErMin= 1 ErrMin= 1.62D-04
 ErrMax= 1.62D-04 EMaxC= 1.00D-01 BMatC= 6.88D-07 BMatP= 6.88D-07
 IDIUse=3 WtCom= 9.98D-01 WtEn= 1.62D-03
 Coeff-Com:  0.100D+01
 Coeff-En:   0.100D+01
 Coeff:      0.100D+01
 Gap=     0.842 Goal=   None    Shift=    0.000
 RMSDP=4.86D-05 MaxDP=1.76D-04              OVMax= 2.84D-04

 Cycle   2  Pass 1  IDiag  1:
 E= -39.9768774899672     Delta-E=       -0.000000681440 Rises=F Damp=F
 DIIS: error= 5.78D-05 at cycle   2 NSaved=   2.
 NSaved= 2 IEnMin= 2 EnMin= -39.9768774899672     IErMin= 2 ErrMin= 5.78D-05
 ErrMax= 5.78D-05 EMaxC= 1.00D-01 BMatC= 7.47D-08 BMatP= 6.88D-07
 IDIUse=1 WtCom= 1.00D+00 WtEn= 0.00D+00
 Coeff-Com:  0.176D+00 0.824D+00
 Coeff:      0.176D+00 0.824D+00
 Gap=     0.841 Goal=   None    Shift=    0.000
 RMSDP=1.08D-05 MaxDP=5.45D-05 DE=-6.81D-07 OVMax= 6.71D-05

 Cycle   3  Pass 1  IDiag  1:
 E= -39.9768775576037     Delta-E=       -0.000000067636 Rises=F Damp=F
 DIIS: error= 9.57D-06 at cycle   3 NSaved=   3.
 NSaved= 3 IEnMin= 3 EnMin= -39.9768775576037     IErMin= 3 ErrMin= 9.57D-06
 ErrMax= 9.57D-06 EMaxC= 1.00D-01 BMatC= 2.21D-09 BMatP= 7.47D-08
 IDIUse=1 WtCom= 1.00D+00 WtEn= 0.00D+00
 Coeff-Com: -0.497D-01 0.274D-01 0.102D+01
 Coeff:     -0.497D-01 0.274D-01 0.102D+01
 Gap=     0.842 Goal=   None    Shift=    0.000
 RMSDP=2.33D-06 MaxDP=8.49D-06 DE=-6.76D-08 OVMax= 1.41D-05

 Cycle   4  Pass 1  IDiag  1:
 E= -39.9768775601981     Delta-E=       -0.000000002594 Rises=F Damp=F
 DIIS: error= 7.09D-07 at cycle   4 NSaved=   4.
 NSaved= 4 IEnMin= 4 EnMin= -39.9768775601981     IErMin= 4 ErrMin= 7.09D-07
 ErrMax= 7.09D-07 EMaxC= 1.00D-01 BMatC= 1.11D-11 BMatP= 2.21D-09
 IDIUse=1 WtCom= 1.00D+00 WtEn= 0.00D+00
 Coeff-Com:  0.465D-02-0.402D-02-0.142D+00 0.114D+01
 Coeff:      0.465D-02-0.402D-02-0.142D+00 0.114D+01
 Gap=     0.842 Goal=   None    Shift=    0.000
 RMSDP=4.51D-07 MaxDP=2.15D-06 DE=-2.59D-09 OVMax= 1.80D-06

 Cycle   5  Pass 1  IDiag  1:
 E= -39.9768775602207     Delta-E=       -0.000000000023 Rises=F Damp=F
 DIIS: error= 1.08D-07 at cycle   5 NSaved=   5.
 NSaved= 5 IEnMin= 5 EnMin= -39.9768775602207     IErMin= 5 ErrMin= 1.08D-07
 ErrMax= 1.08D-07 EMaxC= 1.00D-01 BMatC= 3.79D-13 BMatP= 1.11D-11
 IDIUse=1 WtCom= 1.00D+00 WtEn= 0.00D+00
 Coeff-Com: -0.832D-03 0.191D-02 0.257D-01-0.332D+00 0.130D+01
 Coeff:     -0.832D-03 0.191D-02 0.257D-01-0.332D+00 0.130D+01
 Gap=     0.842 Goal=   None    Shift=    0.000
 RMSDP=1.02D-07 MaxDP=4.63D-07 DE=-2.26D-11 OVMax= 3.59D-07

 Cycle   6  Pass 1  IDiag  1:
 E= -39.9768775602214     Delta-E=       -0.000000000001 Rises=F Damp=F
 DIIS: error= 1.34D-08 at cycle   6 NSaved=   6.
 NSaved= 6 IEnMin= 6 EnMin= -39.9768775602214     IErMin= 6 ErrMin= 1.34D-08
 ErrMax= 1.34D-08 EMaxC= 1.00D-01 BMatC= 9.51D-16 BMatP= 3.79D-13
 IDIUse=1 WtCom= 1.00D+00 WtEn= 0.00D+00
 Coeff-Com:  0.157D-03-0.363D-03-0.498D-02 0.664D-01-0.275D+00 0.121D+01
 Coeff:      0.157D-03-0.363D-03-0.498D-02 0.664D-01-0.275D+00 0.121D+01
 Gap=     0.842 Goal=   None    Shift=    0.000
 RMSDP=3.21D-09 MaxDP=2.72D-08 DE=-6.89D-13 OVMax= 2.05D-08

 SCF Done:  E(RHF) =  -39.9768775602     A.U. after    6 cycles
             Convg  =    0.3210D-08             -V/T =  2.0022
             S**2   =   0.0000
 KE= 3.988790259588D+01 PE=-1.194388681288D+02 EE= 2.605062774909D+01
 Leave Link  502 at Wed Feb 27 22:45:33 2008, MaxMem=    6291456 cpu:       0.1
 (Enter /opt/Gaussian03/g03/l701.exe)
 Compute integral first derivatives.
 ... and contract with generalized density number  0.
 Leave Link  701 at Wed Feb 27 22:45:33 2008, MaxMem=    6291456 cpu:       0.1
 (Enter /opt/Gaussian03/g03/l702.exe)
 L702 exits ... SP integral derivatives will be done elsewhere.
 Leave Link  702 at Wed Feb 27 22:45:33 2008, MaxMem=    6291456 cpu:       0.0
 (Enter /opt/Gaussian03/g03/l703.exe)
 Compute integral first derivatives, UseDBF=F.
 Integral derivatives from FoFDir, PRISM(SPDF).
 Petite list used in FoFDir.
 MinBra= 0 MaxBra= 1 Meth= 1.
 IRaf=       0 NMat=   1 IRICut=       1 DoRegI=T DoRafI=F ISym2E= 1 JSym2E=1.
 Leave Link  703 at Wed Feb 27 22:45:33 2008, MaxMem=    6291456 cpu:       0.1
 (Enter /opt/Gaussian03/g03/l716.exe)
 Dipole        =-2.22044605D-16 0.00000000D+00-2.22044605D-16
 ***** Axes restored to original set *****
 -------------------------------------------------------------------
 Center     Atomic                   Forces (Hartrees/Bohr)
 Number     Number              X              Y              Z
 -------------------------------------------------------------------
    1          6           0.000000000    0.000000000    0.000000000
    2          1           0.000000000    0.000000000    0.000000097
    3          1           0.000000092    0.000000000   -0.000000032
    4          1          -0.000000046   -0.000000079   -0.000000032
    5          1          -0.000000046    0.000000079   -0.000000032
 -------------------------------------------------------------------
 Cartesian Forces:  Max     0.000000097 RMS     0.000000050
 Leave Link  716 at Wed Feb 27 22:45:33 2008, MaxMem=    6291456 cpu:       0.0
 (Enter /opt/Gaussian03/g03/l103.exe)

 GradGradGradGradGradGradGradGradGradGradGradGradGradGradGradGradGradGrad
 Berny optimization.
 Internal  Forces:  Max     0.000000097 RMS     0.000000061
 Search for a local minimum.
 Step number   3 out of a maximum of  20
 All quantities printed in internal units (Hartrees-Bohrs-Radians)
 Update second derivatives using D2CorX and points  1  2  3
 Trust test= 1.04D+00 RLast= 3.69D-03 DXMaxT set to 3.00D-01
 The second derivative matrix:
                          R1        R2        R3        R4        A1
           R1           0.37579
           R2           0.00349   0.37579
           R3           0.00349   0.00349   0.37579
           R4           0.00349   0.00349   0.00349   0.37579
           A1           0.00000   0.00000   0.00000   0.00000   0.16000
           A2           0.00000   0.00000   0.00000   0.00000   0.00000
           A3           0.00000   0.00000   0.00000   0.00000   0.00000
           A4           0.00000   0.00000   0.00000   0.00000   0.00000
           A5           0.00000   0.00000   0.00000   0.00000   0.00000
           A6           0.00000   0.00000   0.00000   0.00000   0.00000
                          A2        A3        A4        A5        A6
           A2           0.16000
           A3           0.00000   0.16000
           A4           0.00000   0.00000   0.16000
           A5           0.00000   0.00000   0.00000   0.16000
           A6           0.00000   0.00000   0.00000   0.00000   0.16000
     Eigenvalues ---    0.16000   0.16000   0.16000   0.16000   0.16000
     Eigenvalues ---    0.37230   0.37230   0.37230   0.386271000.00000
 RFO step:  Lambda= 0.00000000D+00.
 Quartic linear search produced a step of -0.00014.
 Iteration  1 RMS(Cart)=  0.00000016 RMS(Int)=  0.00000000
 Variable       Old X    -DE/DX   Delta X   Delta X   Delta X     New X
                                 (Linear)    (Quad)   (Total)
    R1        2.04639   0.00000   0.00000   0.00000   0.00000   2.04639
    R2        2.04639   0.00000   0.00000   0.00000   0.00000   2.04639
    R3        2.04639   0.00000   0.00000   0.00000   0.00000   2.04639
    R4        2.04639   0.00000   0.00000   0.00000   0.00000   2.04639
    A1        1.91063   0.00000   0.00000   0.00000   0.00000   1.91063
    A2        1.91063   0.00000   0.00000   0.00000   0.00000   1.91063
    A3        1.91063   0.00000   0.00000   0.00000   0.00000   1.91063
    A4        1.91063   0.00000   0.00000   0.00000   0.00000   1.91063
    A5        1.91063   0.00000   0.00000   0.00000   0.00000   1.91063
    A6        1.91063   0.00000   0.00000   0.00000   0.00000   1.91063
         Item               Value     Threshold  Converged?
 Maximum Force            0.000000     0.000450     YES
 RMS     Force            0.000000     0.000300     YES
 Maximum Displacement     0.000000     0.001800     YES
 RMS     Displacement     0.000000     0.001200     YES
 Predicted change in Energy=-4.880789D-14
 Optimization completed.
    -- Stationary point found.
                           ----------------------------
                           !   Optimized Parameters   !
                           ! (Angstroms and Degrees)  !
 --------------------------                            --------------------------
 ! Name  Definition              Value          Derivative Info.                !
 --------------------------------------------------------------------------------
 ! R1    R(1,2)                  1.0829         -DE/DX =    0.0                 !
 ! R2    R(1,3)                  1.0829         -DE/DX =    0.0                 !
 ! R3    R(1,4)                  1.0829         -DE/DX =    0.0                 !
 ! R4    R(1,5)                  1.0829         -DE/DX =    0.0                 !
 ! A1    A(2,1,3)              109.4712         -DE/DX =    0.0                 !
 ! A2    A(2,1,4)              109.4712         -DE/DX =    0.0                 !
 ! A3    A(2,1,5)              109.4712         -DE/DX =    0.0                 !
 ! A4    A(3,1,4)              109.4712         -DE/DX =    0.0                 !
 ! A5    A(3,1,5)              109.4712         -DE/DX =    0.0                 !
 ! A6    A(4,1,5)              109.4712         -DE/DX =    0.0                 !
 --------------------------------------------------------------------------------
 GradGradGradGradGradGradGradGradGradGradGradGradGradGradGradGradGradGrad

 Largest change from initial coordinates is atom    3       0.013 Angstoms.
 Leave Link  103 at Wed Feb 27 22:45:33 2008, MaxMem=    6291456 cpu:       0.0
 (Enter /opt/Gaussian03/g03/l202.exe)
                          Input orientation:                          
 ---------------------------------------------------------------------
 Center     Atomic     Atomic              Coordinates (Angstroms)
 Number     Number      Type              X           Y           Z
 ---------------------------------------------------------------------
    1          6             0        0.000000    0.000000    0.000000
    2          1             0        0.000000    0.000000    1.082901
    3          1             0        1.020969    0.000000   -0.360967
    4          1             0       -0.510485   -0.884185   -0.360967
    5          1             0       -0.510485    0.884185   -0.360967
 ---------------------------------------------------------------------
                    Distance matrix (angstroms):
                    1          2          3          4          5
     1  C    0.000000
     2  H    1.082901   0.000000
     3  H    1.082901   1.768371   0.000000
     4  H    1.082901   1.768371   1.768371   0.000000
     5  H    1.082901   1.768371   1.768371   1.768371   0.000000
 Stoichiometry    CH4
 Framework group  TD[O(C),4C3(H)]
 Deg. of freedom     1
 Full point group                 TD
 Largest Abelian subgroup         D2      NOp   4
 Largest concise Abelian subgroup D2      NOp   4
                         Standard orientation:                         
 ---------------------------------------------------------------------
 Center     Atomic     Atomic              Coordinates (Angstroms)
 Number     Number      Type              X           Y           Z
 ---------------------------------------------------------------------
    1          6             0        0.000000    0.000000    0.000000
    2          1             0        0.625213    0.625213    0.625213
    3          1             0       -0.625213   -0.625213    0.625213
    4          1             0       -0.625213    0.625213   -0.625213
    5          1             0        0.625213   -0.625213   -0.625213
 ---------------------------------------------------------------------
 Rotational constants (GHZ):    160.3560975    160.3560975    160.3560975
 Leave Link  202 at Wed Feb 27 22:45:34 2008, MaxMem=    6291456 cpu:       0.0
 (Enter /opt/Gaussian03/g03/l601.exe)
 Copying SCF densities to generalized density rwf, ISCF=0 IROHF=0.

 **********************************************************************

            Population analysis using the SCF density.

 **********************************************************************

 Orbital symmetries:
       Occupied  (A1) (A1) (T2) (T2) (T2)
       Virtual   (A1) (T2) (T2) (T2) (T2) (T2) (T2) (A1) (T2) (T2)
                 (T2) (A1)
 The electronic state is 1-A1.
 Alpha  occ. eigenvalues --  -11.14446  -0.94588  -0.54484  -0.54484  -0.54484
 Alpha virt. eigenvalues --    0.29668   0.35257   0.35257   0.35257   0.92309
 Alpha virt. eigenvalues --    0.92309   0.92309   1.33329   1.35898   1.35898
 Alpha virt. eigenvalues --    1.35898   1.95586
          Condensed to atoms (all electrons):
              1          2          3          4          5
     1  C    5.310653   0.370831   0.370831   0.370831   0.370831
     2  H    0.370831   0.507841  -0.025722  -0.025722  -0.025722
     3  H    0.370831  -0.025722   0.507841  -0.025722  -0.025722
     4  H    0.370831  -0.025722  -0.025722   0.507841  -0.025722
     5  H    0.370831  -0.025722  -0.025722  -0.025722   0.507841
 Mulliken atomic charges:
              1
     1  C   -0.793976
     2  H    0.198494
     3  H    0.198494
     4  H    0.198494
     5  H    0.198494
 Sum of Mulliken charges=   0.00000
 Atomic charges with hydrogens summed into heavy atoms:
              1
     1  C    0.000000
     2  H    0.000000
     3  H    0.000000
     4  H    0.000000
     5  H    0.000000
 Sum of Mulliken charges=   0.00000
 Electronic spatial extent (au):  <R**2>=    35.4787
 Charge=     0.0000 electrons
 Dipole moment (field-independent basis, Debye):
    X=     0.0000    Y=     0.0000    Z=     0.0000  Tot=     0.0000
 Quadrupole moment (field-independent basis, Debye-Ang):
   XX=    -8.3966   YY=    -8.3966   ZZ=    -8.3966
   XY=     0.0000   XZ=     0.0000   YZ=     0.0000
 Traceless Quadrupole moment (field-independent basis, Debye-Ang):
   XX=     0.0000   YY=     0.0000   ZZ=     0.0000
   XY=     0.0000   XZ=     0.0000   YZ=     0.0000
 Octapole moment (field-independent basis, Debye-Ang**2):
  XXX=     0.0000  YYY=     0.0000  ZZZ=     0.0000  XYY=     0.0000
  XXY=     0.0000  XXZ=     0.0000  XZZ=     0.0000  YZZ=     0.0000
  YYZ=     0.0000  XYZ=     0.7204
 Hexadecapole moment (field-independent basis, Debye-Ang**3):
 XXXX=   -15.3377 YYYY=   -15.3377 ZZZZ=   -15.3377 XXXY=     0.0000
 XXXZ=     0.0000 YYYX=     0.0000 YYYZ=     0.0000 ZZZX=     0.0000
 ZZZY=     0.0000 XXYY=    -4.6685 XXZZ=    -4.6685 YYZZ=    -4.6685
 XXYZ=     0.0000 YYXZ=     0.0000 ZZXY=     0.0000
 N-N= 1.352346022364D+01 E-N=-1.194388681302D+02  KE= 3.988790259588D+01
 Symmetry A    KE= 3.423400799512D+01
 Symmetry B1   KE= 1.884631533586D+00
 Symmetry B2   KE= 1.884631533586D+00
 Symmetry B3   KE= 1.884631533586D+00
 No NMR shielding tensors so no spin-rotation constants.
 Leave Link  601 at Wed Feb 27 22:45:34 2008, MaxMem=    6291456 cpu:       0.2
 (Enter /opt/Gaussian03/g03/l9999.exe)
 Final structure in terms of initial Z-matrix:
 C
 H,1,B1
 H,1,B2,2,A1
 H,1,B3,2,A2,3,D1,0
 H,1,B4,2,A3,4,D2,0
      Variables:
 B1=1.08290142
 B2=1.08290142
 B3=1.08290142
 B4=1.08290142
 A1=109.47122063
 A2=109.47122063
 A3=109.47122063
 D1=120.
 D2=120.
 1\1\GINC-SHYUE-LAPTOP\FOpt\RHF\3-21G\C1H4\SHYUE\27-Feb-2008\0\\#p hf/3
 -21G opt\\Title Card Required\\0,1\C,0.,0.,0.\H,0.,0.,1.0829014152\H,1
 .0209692454,0.,-0.3609671384\H,-0.5104846227,-0.884185303,-0.360967138
 4\H,-0.5104846227,0.884185303,-0.3609671384\\Version=IA32L-G03RevD.01\
 State=1-A1\HF=-39.9768776\RMSD=3.210e-09\RMSF=5.014e-08\Thermal=0.\Dip
 ole=0.,0.,0.\PG=TD [O(C1),4C3(H1)]\\@


 WE HAVE SEEN THAT MAN ON THE AVERAGE DOES NOT LIVE ABOVE
 TWO-AND-TWENTY YEARS.  DURING THESE TWO AND TWENTY
 YEARS HE IS LIABLE TO TWO AND TWENTY THOUSAND EVILS,
 MANY OF WHICH ARE INCURABLE.  YET EVEN IN THIS DREADFUL STATE
 MEN STILL STRUT AND POSE ON THE STAGE OF LIFE.
 THEY MAKE LOVE AT THE RISK OF DESTRUCTION,
 INTRIGUE, CARRY ON WAR, AND FORM PROJECTS, JUST AS IF THEY
 WERE TO LIVE IN LUXURY AND HAPPINESS FOR A THOUSAND
 AGES.

                                              -- VOLTAIRE
 Job cpu time:  0 days  0 hours  0 minutes  4.7 seconds.
 File lengths (MBytes):  RWF=     12 Int=      0 D2E=      0 Chk=      7 Scr=      1
 Normal termination of Gaussian 03 at Wed Feb 27 22:45:34 2008.
