   4    4    1    1
  3.3219929e+01   5.0663869e-10   5.0663869e-10   5.0663873e-10   5.0000000e-16
            1.000000e-04
  CAR
 DOS and projected DOS file by LOBSTER. Energy is shifted such that the Fermi level lies at 0 eV.
     14.15373685      -5.89638847   401       4.12867419       1.00000000
-10.02506   0.00000   5.98638
 -9.97494   0.00000   5.98638
 -9.92481   0.00000   5.98638
 -9.87469   0.00000   5.98638
 -9.82456   0.00000   5.98638
 -9.77444   0.00000   5.98638
 -9.72431   0.00000   5.98638
 -9.67419   0.00000   5.98638
 -9.62406   0.00000   5.98638
 -9.57393   0.00000   5.98638
 -9.52381   0.00000   5.98638
 -9.47368   0.00000   5.98638
 -9.42356   0.00000   5.98638
 -9.37343   0.00000   5.98638
 -9.32331   0.00000   5.98638
 -9.27318   0.00000   5.98638
 -9.22306   0.00000   5.98638
 -9.17293   0.00000   5.98638
 -9.12281   0.00000   5.98638
 -9.07268   0.00000   5.98638
 -9.02256   0.00000   5.98638
 -8.97243   0.00000   5.98638
 -8.92231   0.00000   5.98638
 -8.87218   0.00000   5.98638
 -8.82206   0.00000   5.98638
 -8.77193   0.00000   5.98638
 -8.72180   0.00000   5.98638
 -8.67168   0.00000   5.98638
 -8.62155   0.00000   5.98638
 -8.57143   0.00000   5.98638
 -8.52130   0.00000   5.98638
 -8.47118   0.00000   5.98638
 -8.42105   0.00000   5.98638
 -8.37093   0.00000   5.98638
 -8.32080   0.00000   5.98638
 -8.27068   0.00000   5.98638
 -8.22055   0.00000   5.98638
 -8.17043   0.00000   5.98638
 -8.12030   0.00000   5.98638
 -8.07018   0.00000   5.98638
 -8.02005   0.00000   5.98638
 -7.96992   0.00000   5.98638
 -7.91980   0.00000   5.98638
 -7.86967   0.00000   5.98638
 -7.81955   0.00000   5.98638
 -7.76942   0.00000   5.98638
 -7.71930   0.00000   5.98638
 -7.66917   0.00000   5.98638
 -7.61905   0.00000   5.98638
 -7.56892   0.00000   5.98638
 -7.51880   0.00000   5.98638
 -7.46867   0.00000   5.98638
 -7.41855   0.00000   5.98638
 -7.36842   0.00000   5.98638
 -7.31830   0.00000   5.98638
 -7.26817   0.00000   5.98638
 -7.21805   0.00000   5.98638
 -7.16792   0.00000   5.98638
 -7.11779   0.00000   5.98638
 -7.06767   0.00000   5.98638
 -7.01754   0.00000   5.98638
 -6.96742   0.00000   5.98638
 -6.91729   0.00000   5.98638
 -6.86717   0.00000   5.98638
 -6.81704   0.00000   5.98638
 -6.76692   0.00000   5.98638
 -6.71679   0.00000   5.98638
 -6.66667   0.00000   5.98638
 -6.61654   0.00000   5.98638
 -6.56642   0.00000   5.98638
 -6.51629   0.00000   5.98638
 -6.46617   0.00000   5.98638
 -6.41604   0.00000   5.98638
 -6.36591   0.00000   5.98638
 -6.31579   0.00000   5.98638
 -6.26566   0.00000   5.98638
 -6.21554   0.00000   5.98638
 -6.16541   0.00000   5.98638
 -6.11529   0.00000   5.98638
 -6.06516   0.00000   5.98638
 -6.01504   0.00000   5.98638
 -5.96491   0.00000   5.98638
 -5.91479   0.00000   5.98638
 -5.86466   0.00000   5.98638
 -5.81454   0.00000   5.98638
 -5.76441   0.24310   5.99857
 -5.71429   0.53979   6.02562
 -5.66416   0.89541   6.07051
 -5.61404   0.98037   6.11965
 -5.56391   1.03119   6.17134
 -5.51378   1.03692   6.22331
 -5.46366   1.07091   6.27699
 -5.41353   1.10189   6.33223
 -5.36341   1.13891   6.38931
 -5.31328   1.18300   6.44861
 -5.26316   1.25372   6.51145
 -5.21303   1.41369   6.58232
 -5.16291   1.71097   6.66808
 -5.11278   1.81656   6.75914
 -5.06266   1.87552   6.85315
 -5.01253   1.94535   6.95066
 -4.96241   1.92848   7.04732
 -4.91228   1.61966   7.12851
 -4.86216   1.67302   7.21237
 -4.81203   1.83559   7.30438
 -4.76190   1.98373   7.40381
 -4.71178   2.16724   7.51245
 -4.66165   2.43586   7.63455
 -4.61153   2.87238   7.77853
 -4.56140   3.18693   7.93827
 -4.51128   3.30913   8.10414
 -4.46115   3.68790   8.28900
 -4.41103   3.85973   8.48247
 -4.36090   3.67801   8.66683
 -4.31078   2.87467   8.81093
 -4.26065   1.96519   8.90943
 -4.21053   1.59128   8.98919
 -4.16040   1.55331   9.06705
 -4.11028   1.49254   9.14187
 -4.06015   1.41023   9.21256
 -4.01003   1.35253   9.28035
 -3.95990   1.30146   9.34559
 -3.90977   1.27845   9.40967
 -3.85965   1.29707   9.47469
 -3.80952   1.34068   9.54189
 -3.75940   0.89862   9.58693
 -3.70927   0.85144   9.62961
 -3.65915   0.85185   9.67231
 -3.60902   0.86106   9.71547
 -3.55890   0.86107   9.75863
 -3.50877   0.87534   9.80251
 -3.45865   0.89378   9.84731
 -3.40852   0.91665   9.89326
 -3.35840   0.94306   9.94053
 -3.30827   0.96356   9.98883
 -3.25815   0.97858  10.03788
 -3.20802   0.99483  10.08775
 -3.15789   1.00666  10.13821
 -3.10777   1.02815  10.18974
 -3.05764   1.13676  10.24672
 -3.00752   1.38964  10.31638
 -2.95739   1.44227  10.38867
 -2.90727   1.49511  10.46362
 -2.85714   1.59156  10.54339
 -2.80702   1.74942  10.63108
 -2.75689   1.76720  10.71966
 -2.70677   1.77261  10.80852
 -2.65664   1.78806  10.89814
 -2.60652   1.81915  10.98933
 -2.55639   1.85345  11.08223
 -2.50627   1.86852  11.17589
 -2.45614   1.86223  11.26924
 -2.40602   1.86264  11.36260
 -2.35589   1.87473  11.45658
 -2.30576   1.93254  11.55345
 -2.25564   2.07040  11.65722
 -2.20551   2.15255  11.76512
 -2.15539   2.08843  11.86981
 -2.10526   2.02538  11.97133
 -2.05514   2.44828  12.09405
 -2.00501   3.09443  12.24916
 -1.95489   2.84779  12.39190
 -1.90476   2.80705  12.53261
 -1.85464   3.02197  12.68409
 -1.80451   3.41835  12.85543
 -1.75439   2.78715  12.99514
 -1.70426   2.30226  13.11054
 -1.65414   2.41986  13.23184
 -1.60401   2.60615  13.36247
 -1.55388   2.88597  13.50713
 -1.50376   3.38533  13.67682
 -1.45363   3.76124  13.86536
 -1.40351   3.80159  14.05591
 -1.35338   3.85528  14.24916
 -1.30326   3.83319  14.44130
 -1.25313   3.01547  14.59245
 -1.20301   2.39516  14.71251
 -1.15288   2.88076  14.85691
 -1.10276   4.14553  15.06470
 -1.05263   4.80335  15.30547
 -1.00251   4.83439  15.54780
 -0.95238   4.68345  15.78256
 -0.90226   4.52362  16.00930
 -0.85213   4.28320  16.22400
 -0.80201   3.97295  16.42315
 -0.75188   3.82084  16.61467
 -0.70175   3.70105  16.80018
 -0.65163   3.20404  16.96079
 -0.60150   2.91374  17.10684
 -0.55138   2.77332  17.24585
 -0.50125   2.58775  17.37556
 -0.45113   2.48644  17.50020
 -0.40100   2.44657  17.62283
 -0.35088   2.30828  17.73854
 -0.30075   1.93072  17.83531
 -0.25063   1.22061  17.89650
 -0.20050   0.92470  17.94285
 -0.15038   0.67668  17.97677
 -0.10025   0.00000  17.97677
 -0.05013   0.00000  17.97677
  0.00000   0.00000  17.97677
  0.05013   0.00000  17.97677
  0.10025   0.00000  17.97677
  0.15038   0.00000  17.97677
  0.20050   0.00000  17.97677
  0.25063   0.00000  17.97677
  0.30075   0.00000  17.97677
  0.35088   0.00000  17.97677
  0.40100   0.00000  17.97677
  0.45113   0.00000  17.97677
  0.50125   0.00000  17.97677
  0.55138   0.00000  17.97677
  0.60150   0.00000  17.97677
  0.65163   0.00000  17.97677
  0.70175   0.00000  17.97677
  0.75188   0.00000  17.97677
  0.80201   0.00000  17.97677
  0.85213   0.00000  17.97677
  0.90226   0.00000  17.97677
  0.95238   0.00000  17.97677
  1.00251   0.00000  17.97677
  1.05263   0.00000  17.97677
  1.10276   0.00000  17.97677
  1.15288   0.00000  17.97677
  1.20301   0.00000  17.97677
  1.25313   0.00000  17.97677
  1.30326   0.00000  17.97677
  1.35338   0.00000  17.97677
  1.40351   0.00000  17.97677
  1.45363   0.00000  17.97677
  1.50376   0.00000  17.97677
  1.55388   0.00000  17.97677
  1.60401   0.00000  17.97677
  1.65414   0.00000  17.97677
  1.70426   0.00000  17.97677
  1.75439   0.00000  17.97677
  1.80451   0.00000  17.97677
  1.85464   0.00000  17.97677
  1.90476   0.00000  17.97677
  1.95489   0.00000  17.97677
  2.00501   0.00000  17.97677
  2.05514   0.00000  17.97677
  2.10526   0.00000  17.97677
  2.15539   0.00000  17.97677
  2.20551   0.00000  17.97677
  2.25564   0.00000  17.97677
  2.30576   0.00000  17.97677
  2.35589   0.00000  17.97677
  2.40602   0.00000  17.97677
  2.45614   0.00000  17.97677
  2.50627   0.00000  17.97677
  2.55639   0.00000  17.97677
  2.60652   0.00000  17.97677
  2.65664   0.00000  17.97677
  2.70677   0.00000  17.97677
  2.75689   0.00000  17.97677
  2.80702   0.00000  17.97677
  2.85714   0.00000  17.97677
  2.90727   0.00000  17.97677
  2.95739   0.00000  17.97677
  3.00752   0.00000  17.97677
  3.05764   0.00000  17.97677
  3.10777   0.00000  17.97677
  3.15789   0.00000  17.97677
  3.20802   0.00000  17.97677
  3.25815   0.00000  17.97677
  3.30827   0.00000  17.97677
  3.35840   0.00000  17.97677
  3.40852   0.00000  17.97677
  3.45865   0.00000  17.97677
  3.50877   0.00000  17.97677
  3.55890   0.00000  17.97677
  3.60902   0.00000  17.97677
  3.65915   0.00000  17.97677
  3.70927   0.00000  17.97677
  3.75940   0.00000  17.97677
  3.80952   0.00000  17.97677
  3.85965   0.00000  17.97677
  3.90977   0.00000  17.97677
  3.95990   0.00000  17.97677
  4.01003   0.00000  17.97677
  4.06015   0.00000  17.97677
  4.11028   0.00000  17.97677
  4.16040   0.00000  17.97677
  4.21053   0.00000  17.97677
  4.26065   0.00000  17.97677
  4.31078   0.00000  17.97677
  4.36090   0.00000  17.97677
  4.41103   0.00000  17.97677
  4.46115   0.00000  17.97677
  4.51128   0.00000  17.97677
  4.56140   0.00000  17.97677
  4.61153   0.00000  17.97677
  4.66165   0.00000  17.97677
  4.71178   0.00000  17.97677
  4.76190   0.00000  17.97677
  4.81203   0.00000  17.97677
  4.86216   0.00000  17.97677
  4.91228   0.00000  17.97677
  4.96241   0.00000  17.97677
  5.01253   0.00000  17.97677
  5.06266   0.00000  17.97677
  5.11278   0.00000  17.97677
  5.16291   0.00000  17.97677
  5.21303   0.00000  17.97677
  5.26316   0.00000  17.97677
  5.31328   0.00000  17.97677
  5.36341   0.00000  17.97677
  5.41353   0.00000  17.97677
  5.46366   0.00000  17.97677
  5.51378   0.00000  17.97677
  5.56391   0.00000  17.97677
  5.61404   0.00000  17.97677
  5.66416   0.00000  17.97677
  5.71429   0.00000  17.97677
  5.76441   0.00000  17.97677
  5.81454   0.00000  17.97677
  5.86466   0.00000  17.97677
  5.91479   0.00000  17.97677
  5.96491   0.00000  17.97677
  6.01504   0.00198  17.97687
  6.06516   0.01158  17.97745
  6.11529   0.02588  17.97874
  6.16541   0.03502  17.98050
  6.21554   0.03905  17.98246
  6.26566   0.04524  17.98473
  6.31579   0.05127  17.98730
  6.36591   0.05798  17.99020
  6.41604   0.06466  17.99344
  6.46617   0.07086  17.99699
  6.51629   0.07672  18.00084
  6.56642   0.08249  18.00498
  6.61654   0.08864  18.00942
  6.66667   0.09513  18.01419
  6.71679   0.10193  18.01930
  6.76692   0.10910  18.02477
  6.81704   0.11652  18.03061
  6.86717   0.12446  18.03684
  6.91729   0.13348  18.04353
  6.96742   0.14360  18.05073
  7.01754   0.15697  18.05860
  7.06767   0.17010  18.06713
  7.11779   0.17935  18.07612
  7.16792   0.18021  18.08515
  7.21805   0.18383  18.09437
  7.26817   0.18977  18.10388
  7.31830   0.19562  18.11368
  7.36842   0.20166  18.12379
  7.41855   0.20887  18.13426
  7.46867   0.21606  18.14509
  7.51880   0.22313  18.15627
  7.56892   0.23076  18.16784
  7.61905   0.23920  18.17983
  7.66917   0.24854  18.19229
  7.71930   0.25832  18.20524
  7.76942   0.26848  18.21870
  7.81955   0.27967  18.23271
  7.86967   0.30245  18.24787
  7.91980   0.38958  18.26740
  7.96992   0.53122  18.29403
  8.02005   0.67098  18.32766
  8.07018   0.71376  18.36344
  8.12030   0.70407  18.39873
  8.17043   0.72678  18.43516
  8.22055   0.75012  18.47276
  8.27068   0.77631  18.51168
  8.32080   0.79996  18.55177
  8.37093   0.82727  18.59324
  8.42105   0.85847  18.63627
  8.47118   0.87472  18.68012
  8.52130   0.86668  18.72356
  8.57143   0.87503  18.76742
  8.62155   0.88568  18.81182
  8.67168   0.89722  18.85679
  8.72180   0.90738  18.90227
  8.77193   0.91623  18.94820
  8.82206   0.92794  18.99471
  8.87218   0.93681  19.04167
  8.92231   0.94586  19.08908
  8.97243   0.96117  19.13726
  9.02256   0.97870  19.18632
  9.07268   0.99681  19.23628
  9.12281   1.01920  19.28737
  9.17293   1.05346  19.34018
  9.22306   1.10172  19.39540
  9.27318   1.16374  19.45373
  9.32331   1.20556  19.51416
  9.37343   1.23748  19.57619
  9.42356   1.25208  19.63895
  9.47368   1.28102  19.70316
  9.52381   1.23902  19.76527
  9.57393   1.15827  19.82333
  9.62406   1.09889  19.87841
  9.67419   1.20318  19.93872
  9.72431   1.28326  20.00304
  9.77444   1.35263  20.07085
  9.82456   1.35255  20.13864
  9.87469   1.39040  20.20834
  9.92481   1.48504  20.28277
  9.97494   1.54345  20.36014
 10.02506   1.60328  20.44051
     10.02506266     -10.02506266   401       4.12867419       1.00000000; Z=  3; 1s 2s
-10.02506   0.00000   0.00000
 -9.97494   0.00000   0.00000
 -9.92481   0.00000   0.00000
 -9.87469   0.00000   0.00000
 -9.82456   0.00000   0.00000
 -9.77444   0.00000   0.00000
 -9.72431   0.00000   0.00000
 -9.67419   0.00000   0.00000
 -9.62406   0.00000   0.00000
 -9.57393   0.00000   0.00000
 -9.52381   0.00000   0.00000
 -9.47368   0.00000   0.00000
 -9.42356   0.00000   0.00000
 -9.37343   0.00000   0.00000
 -9.32331   0.00000   0.00000
 -9.27318   0.00000   0.00000
 -9.22306   0.00000   0.00000
 -9.17293   0.00000   0.00000
 -9.12281   0.00000   0.00000
 -9.07268   0.00000   0.00000
 -9.02256   0.00000   0.00000
 -8.97243   0.00000   0.00000
 -8.92231   0.00000   0.00000
 -8.87218   0.00000   0.00000
 -8.82206   0.00000   0.00000
 -8.77193   0.00000   0.00000
 -8.72180   0.00000   0.00000
 -8.67168   0.00000   0.00000
 -8.62155   0.00000   0.00000
 -8.57143   0.00000   0.00000
 -8.52130   0.00000   0.00000
 -8.47118   0.00000   0.00000
 -8.42105   0.00000   0.00000
 -8.37093   0.00000   0.00000
 -8.32080   0.00000   0.00000
 -8.27068   0.00000   0.00000
 -8.22055   0.00000   0.00000
 -8.17043   0.00000   0.00000
 -8.12030   0.00000   0.00000
 -8.07018   0.00000   0.00000
 -8.02005   0.00000   0.00000
 -7.96992   0.00000   0.00000
 -7.91980   0.00000   0.00000
 -7.86967   0.00000   0.00000
 -7.81955   0.00000   0.00000
 -7.76942   0.00000   0.00000
 -7.71930   0.00000   0.00000
 -7.66917   0.00000   0.00000
 -7.61905   0.00000   0.00000
 -7.56892   0.00000   0.00000
 -7.51880   0.00000   0.00000
 -7.46867   0.00000   0.00000
 -7.41855   0.00000   0.00000
 -7.36842   0.00000   0.00000
 -7.31830   0.00000   0.00000
 -7.26817   0.00000   0.00000
 -7.21805   0.00000   0.00000
 -7.16792   0.00000   0.00000
 -7.11779   0.00000   0.00000
 -7.06767   0.00000   0.00000
 -7.01754   0.00000   0.00000
 -6.96742   0.00000   0.00000
 -6.91729   0.00000   0.00000
 -6.86717   0.00000   0.00000
 -6.81704   0.00000   0.00000
 -6.76692   0.00000   0.00000
 -6.71679   0.00000   0.00000
 -6.66667   0.00000   0.00000
 -6.61654   0.00000   0.00000
 -6.56642   0.00000   0.00000
 -6.51629   0.00000   0.00000
 -6.46617   0.00000   0.00000
 -6.41604   0.00000   0.00000
 -6.36591   0.00000   0.00000
 -6.31579   0.00000   0.00000
 -6.26566   0.00000   0.00000
 -6.21554   0.00000   0.00000
 -6.16541   0.00000   0.00000
 -6.11529   0.00000   0.00000
 -6.06516   0.00000   0.00000
 -6.01504   0.00000   0.00000
 -5.96491   0.00000   0.00000
 -5.91479   0.00000   0.00000
 -5.86466   0.00000   0.00000
 -5.81454   0.00000   0.00000
 -5.76441   0.00010   0.00797
 -5.71429   0.00011   0.01919
 -5.66416  -0.00008   0.01968
 -5.61404  -0.00015   0.01410
 -5.56391  -0.00018   0.01215
 -5.51378  -0.00014   0.01272
 -5.46366  -0.00013   0.01216
 -5.41353  -0.00011   0.01174
 -5.36341  -0.00010   0.01110
 -5.31328  -0.00011   0.01018
 -5.26316  -0.00011   0.00914
 -5.21303  -0.00012   0.00837
 -5.16291  -0.00015   0.00594
 -5.11278  -0.00017   0.00120
 -5.06266  -0.00022  -0.00450
 -5.01253  -0.00032  -0.01146
 -4.96241  -0.00047  -0.02223
 -4.91228  -0.00068  -0.03403
 -4.86216  -0.00124  -0.03793
 -4.81203  -0.00191  -0.03631
 -4.76190  -0.00296  -0.03092
 -4.71178  -0.00410  -0.02114
 -4.66165  -0.00530  -0.00564
 -4.61153  -0.00641   0.01050
 -4.56140  -0.00698   0.00676
 -4.51128  -0.00603   0.00907
 -4.46115  -0.00493   0.00882
 -4.41103  -0.00615  -0.00692
 -4.36090  -0.00918  -0.01924
 -4.31078  -0.01054  -0.02824
 -4.26065  -0.00397  -0.00629
 -4.21053  -0.00059   0.00986
 -4.16040  -0.00089   0.00084
 -4.11028  -0.00098  -0.00192
 -4.06015  -0.00102  -0.00343
 -4.01003  -0.00109  -0.00351
 -3.95990  -0.00120  -0.00552
 -3.90977  -0.00132  -0.00754
 -3.85965  -0.00143  -0.01032
 -3.80952  -0.00154  -0.01359
 -3.75940  -0.00165  -0.01791
 -3.70927  -0.00165  -0.01689
 -3.65915  -0.00156  -0.01454
 -3.60902  -0.00152  -0.01110
 -3.55890  -0.00148  -0.00895
 -3.50877  -0.00143  -0.00656
 -3.45865  -0.00139  -0.00349
 -3.40852  -0.00134   0.00039
 -3.35840  -0.00128   0.00489
 -3.30827  -0.00120   0.00901
 -3.25815  -0.00109   0.01274
 -3.20802  -0.00091   0.01627
 -3.15789  -0.00083   0.01984
 -3.10777  -0.00082   0.02313
 -3.05764  -0.00083   0.02763
 -3.00752  -0.00087   0.03376
 -2.95739  -0.00086   0.04052
 -2.90727  -0.00084   0.04696
 -2.85714  -0.00082   0.05816
 -2.80702  -0.00079   0.07694
 -2.75689  -0.00088   0.07703
 -2.70677  -0.00097   0.07563
 -2.65664  -0.00107   0.07555
 -2.60652  -0.00117   0.07572
 -2.55639  -0.00125   0.07537
 -2.50627  -0.00132   0.07359
 -2.45614  -0.00137   0.06842
 -2.40602  -0.00140   0.06302
 -2.35589  -0.00144   0.05834
 -2.30576  -0.00144   0.05402
 -2.25564  -0.00135   0.04981
 -2.20551  -0.00121   0.04555
 -2.15539  -0.00103   0.04232
 -2.10526  -0.00089   0.04138
 -2.05514  -0.00079   0.05182
 -2.00501  -0.00079   0.06041
 -1.95489  -0.00059   0.05588
 -1.90476  -0.00029   0.05272
 -1.85464  -0.00022   0.04859
 -1.80451  -0.00030   0.04240
 -1.75439  -0.00042   0.04606
 -1.70426  -0.00058   0.05175
 -1.65414  -0.00101   0.05996
 -1.60401  -0.00191   0.06674
 -1.55388  -0.00387   0.07616
 -1.50376  -0.00694   0.08864
 -1.45363  -0.00721   0.08709
 -1.40351  -0.00693   0.08043
 -1.35338  -0.00641   0.07106
 -1.30326  -0.00533   0.06216
 -1.25313  -0.00172   0.04475
 -1.20301  -0.00050   0.03257
 -1.15288  -0.00203   0.02731
 -1.10276  -0.00362   0.04110
 -1.05263  -0.00261   0.05902
 -1.00251  -0.00169   0.08021
 -0.95238  -0.00100   0.08809
 -0.90226  -0.00058   0.06833
 -0.85213  -0.00037   0.05266
 -0.80201  -0.00024   0.04064
 -0.75188  -0.00016   0.03372
 -0.70175  -0.00010   0.02810
 -0.65163  -0.00006   0.02311
 -0.60150  -0.00003   0.01984
 -0.55138  -0.00001   0.01659
 -0.50125  -0.00000   0.01383
 -0.45113   0.00001   0.01198
 -0.40100   0.00001   0.00959
 -0.35088   0.00001   0.00681
 -0.30075   0.00001   0.00479
 -0.25063   0.00001   0.00324
 -0.20050   0.00000   0.00172
 -0.15038   0.00000   0.00047
 -0.10025   0.00000   0.00000
 -0.05013   0.00000   0.00000
  0.00000   0.00000   0.00000
  0.05013   0.00000   0.00000
  0.10025   0.00000   0.00000
  0.15038   0.00000   0.00000
  0.20050   0.00000   0.00000
  0.25063   0.00000   0.00000
  0.30075   0.00000   0.00000
  0.35088   0.00000   0.00000
  0.40100   0.00000   0.00000
  0.45113   0.00000   0.00000
  0.50125   0.00000   0.00000
  0.55138   0.00000   0.00000
  0.60150   0.00000   0.00000
  0.65163   0.00000   0.00000
  0.70175   0.00000   0.00000
  0.75188   0.00000   0.00000
  0.80201   0.00000   0.00000
  0.85213   0.00000   0.00000
  0.90226   0.00000   0.00000
  0.95238   0.00000   0.00000
  1.00251   0.00000   0.00000
  1.05263   0.00000   0.00000
  1.10276   0.00000   0.00000
  1.15288   0.00000   0.00000
  1.20301   0.00000   0.00000
  1.25313   0.00000   0.00000
  1.30326   0.00000   0.00000
  1.35338   0.00000   0.00000
  1.40351   0.00000   0.00000
  1.45363   0.00000   0.00000
  1.50376   0.00000   0.00000
  1.55388   0.00000   0.00000
  1.60401   0.00000   0.00000
  1.65414   0.00000   0.00000
  1.70426   0.00000   0.00000
  1.75439   0.00000   0.00000
  1.80451   0.00000   0.00000
  1.85464   0.00000   0.00000
  1.90476   0.00000   0.00000
  1.95489   0.00000   0.00000
  2.00501   0.00000   0.00000
  2.05514   0.00000   0.00000
  2.10526   0.00000   0.00000
  2.15539   0.00000   0.00000
  2.20551   0.00000   0.00000
  2.25564   0.00000   0.00000
  2.30576   0.00000   0.00000
  2.35589   0.00000   0.00000
  2.40602   0.00000   0.00000
  2.45614   0.00000   0.00000
  2.50627   0.00000   0.00000
  2.55639   0.00000   0.00000
  2.60652   0.00000   0.00000
  2.65664   0.00000   0.00000
  2.70677   0.00000   0.00000
  2.75689   0.00000   0.00000
  2.80702   0.00000   0.00000
  2.85714   0.00000   0.00000
  2.90727   0.00000   0.00000
  2.95739   0.00000   0.00000
  3.00752   0.00000   0.00000
  3.05764   0.00000   0.00000
  3.10777   0.00000   0.00000
  3.15789   0.00000   0.00000
  3.20802   0.00000   0.00000
  3.25815   0.00000   0.00000
  3.30827   0.00000   0.00000
  3.35840   0.00000   0.00000
  3.40852   0.00000   0.00000
  3.45865   0.00000   0.00000
  3.50877   0.00000   0.00000
  3.55890   0.00000   0.00000
  3.60902   0.00000   0.00000
  3.65915   0.00000   0.00000
  3.70927   0.00000   0.00000
  3.75940   0.00000   0.00000
  3.80952   0.00000   0.00000
  3.85965   0.00000   0.00000
  3.90977   0.00000   0.00000
  3.95990   0.00000   0.00000
  4.01003   0.00000   0.00000
  4.06015   0.00000   0.00000
  4.11028   0.00000   0.00000
  4.16040   0.00000   0.00000
  4.21053   0.00000   0.00000
  4.26065   0.00000   0.00000
  4.31078   0.00000   0.00000
  4.36090   0.00000   0.00000
  4.41103   0.00000   0.00000
  4.46115   0.00000   0.00000
  4.51128   0.00000   0.00000
  4.56140   0.00000   0.00000
  4.61153   0.00000   0.00000
  4.66165   0.00000   0.00000
  4.71178   0.00000   0.00000
  4.76190   0.00000   0.00000
  4.81203   0.00000   0.00000
  4.86216   0.00000   0.00000
  4.91228   0.00000   0.00000
  4.96241   0.00000   0.00000
  5.01253   0.00000   0.00000
  5.06266   0.00000   0.00000
  5.11278   0.00000   0.00000
  5.16291   0.00000   0.00000
  5.21303   0.00000   0.00000
  5.26316   0.00000   0.00000
  5.31328   0.00000   0.00000
  5.36341   0.00000   0.00000
  5.41353   0.00000   0.00000
  5.46366   0.00000   0.00000
  5.51378   0.00000   0.00000
  5.56391   0.00000   0.00000
  5.61404   0.00000   0.00000
  5.66416   0.00000   0.00000
  5.71429   0.00000   0.00000
  5.76441   0.00000   0.00000
  5.81454   0.00000   0.00000
  5.86466   0.00000   0.00000
  5.91479   0.00000   0.00000
  5.96491   0.00000   0.00000
  6.01504  -0.00000   0.00088
  6.06516  -0.00001   0.00516
  6.11529  -0.00002   0.01153
  6.16541  -0.00003   0.01558
  6.21554  -0.00003   0.01733
  6.26566  -0.00004   0.02004
  6.31579  -0.00004   0.02268
  6.36591  -0.00004   0.02561
  6.41604  -0.00005   0.02849
  6.46617  -0.00005   0.03114
  6.51629  -0.00005   0.03367
  6.56642  -0.00005   0.03611
  6.61654  -0.00005   0.03865
  6.66667  -0.00005   0.04140
  6.71679  -0.00005   0.04423
  6.76692  -0.00005   0.04704
  6.81704  -0.00005   0.04994
  6.86717  -0.00005   0.05286
  6.91729  -0.00004   0.05601
  6.96742  -0.00004   0.05923
  7.01754  -0.00004   0.06230
  7.06767  -0.00004   0.06500
  7.11779  -0.00004   0.06743
  7.16792  -0.00004   0.06976
  7.21805  -0.00003   0.07232
  7.26817  -0.00003   0.07493
  7.31830  -0.00003   0.07756
  7.36842  -0.00003   0.08061
  7.41855  -0.00002   0.08508
  7.46867  -0.00002   0.08960
  7.51880  -0.00001   0.09426
  7.56892  -0.00001   0.09901
  7.61905  -0.00001   0.10368
  7.66917  -0.00000   0.10840
  7.71930  -0.00000   0.11320
  7.76942   0.00000   0.11810
  7.81955   0.00001   0.12343
  7.86967   0.00001   0.13396
  7.91980  -0.00001   0.14501
  7.96992  -0.00008   0.15737
  8.02005  -0.00011   0.17522
  8.07018  -0.00010   0.18562
  8.12030  -0.00009   0.18468
  8.17043  -0.00011   0.18470
  8.22055  -0.00015   0.18505
  8.27068  -0.00022   0.18528
  8.32080  -0.00030   0.18289
  8.37093  -0.00046   0.17652
  8.42105  -0.00070   0.16271
  8.47118  -0.00085   0.15679
  8.52130  -0.00083   0.16444
  8.57143  -0.00091   0.16400
  8.62155  -0.00100   0.16379
  8.67168  -0.00108   0.16407
  8.72180  -0.00120   0.16709
  8.77193  -0.00148   0.17214
  8.82206  -0.00184   0.17609
  8.87218  -0.00220   0.17888
  8.92231  -0.00261   0.18175
  8.97243  -0.00330   0.18560
  9.02256  -0.00504   0.19257
  9.07268  -0.00770   0.20554
  9.12281  -0.01035   0.21804
  9.17293  -0.01419   0.23056
  9.22306  -0.02031   0.24404
  9.27318  -0.02818   0.26497
  9.32331  -0.03375   0.29267
  9.37343  -0.03367   0.32128
  9.42356  -0.03047   0.33742
  9.47368  -0.02864   0.35456
  9.52381  -0.02783   0.35075
  9.57393  -0.02758   0.31847
  9.62406  -0.02744   0.28906
  9.67419  -0.02985   0.28538
  9.72431  -0.03460   0.28886
  9.77444  -0.03915   0.29179
  9.82456  -0.04185   0.28903
  9.87469  -0.04500   0.29149
  9.92481  -0.05088   0.30449
  9.97494  -0.06281   0.33196
 10.02506  -0.08218   0.38151
     10.02506266     -10.02506266   401       4.12867419       1.00000000; Z= 13; 3s 3p_y 3p_z 3p_x
-10.02506   0.00000   0.00000   0.00000   0.00000
 -9.97494   0.00000   0.00000   0.00000   0.00000
 -9.92481   0.00000   0.00000   0.00000   0.00000
 -9.87469   0.00000   0.00000   0.00000   0.00000
 -9.82456   0.00000   0.00000   0.00000   0.00000
 -9.77444   0.00000   0.00000   0.00000   0.00000
 -9.72431   0.00000   0.00000   0.00000   0.00000
 -9.67419   0.00000   0.00000   0.00000   0.00000
 -9.62406   0.00000   0.00000   0.00000   0.00000
 -9.57393   0.00000   0.00000   0.00000   0.00000
 -9.52381   0.00000   0.00000   0.00000   0.00000
 -9.47368   0.00000   0.00000   0.00000   0.00000
 -9.42356   0.00000   0.00000   0.00000   0.00000
 -9.37343   0.00000   0.00000   0.00000   0.00000
 -9.32331   0.00000   0.00000   0.00000   0.00000
 -9.27318   0.00000   0.00000   0.00000   0.00000
 -9.22306   0.00000   0.00000   0.00000   0.00000
 -9.17293   0.00000   0.00000   0.00000   0.00000
 -9.12281   0.00000   0.00000   0.00000   0.00000
 -9.07268   0.00000   0.00000   0.00000   0.00000
 -9.02256   0.00000   0.00000   0.00000   0.00000
 -8.97243   0.00000   0.00000   0.00000   0.00000
 -8.92231   0.00000   0.00000   0.00000   0.00000
 -8.87218   0.00000   0.00000   0.00000   0.00000
 -8.82206   0.00000   0.00000   0.00000   0.00000
 -8.77193   0.00000   0.00000   0.00000   0.00000
 -8.72180   0.00000   0.00000   0.00000   0.00000
 -8.67168   0.00000   0.00000   0.00000   0.00000
 -8.62155   0.00000   0.00000   0.00000   0.00000
 -8.57143   0.00000   0.00000   0.00000   0.00000
 -8.52130   0.00000   0.00000   0.00000   0.00000
 -8.47118   0.00000   0.00000   0.00000   0.00000
 -8.42105   0.00000   0.00000   0.00000   0.00000
 -8.37093   0.00000   0.00000   0.00000   0.00000
 -8.32080   0.00000   0.00000   0.00000   0.00000
 -8.27068   0.00000   0.00000   0.00000   0.00000
 -8.22055   0.00000   0.00000   0.00000   0.00000
 -8.17043   0.00000   0.00000   0.00000   0.00000
 -8.12030   0.00000   0.00000   0.00000   0.00000
 -8.07018   0.00000   0.00000   0.00000   0.00000
 -8.02005   0.00000   0.00000   0.00000   0.00000
 -7.96992   0.00000   0.00000   0.00000   0.00000
 -7.91980   0.00000   0.00000   0.00000   0.00000
 -7.86967   0.00000   0.00000   0.00000   0.00000
 -7.81955   0.00000   0.00000   0.00000   0.00000
 -7.76942   0.00000   0.00000   0.00000   0.00000
 -7.71930   0.00000   0.00000   0.00000   0.00000
 -7.66917   0.00000   0.00000   0.00000   0.00000
 -7.61905   0.00000   0.00000   0.00000   0.00000
 -7.56892   0.00000   0.00000   0.00000   0.00000
 -7.51880   0.00000   0.00000   0.00000   0.00000
 -7.46867   0.00000   0.00000   0.00000   0.00000
 -7.41855   0.00000   0.00000   0.00000   0.00000
 -7.36842   0.00000   0.00000   0.00000   0.00000
 -7.31830   0.00000   0.00000   0.00000   0.00000
 -7.26817   0.00000   0.00000   0.00000   0.00000
 -7.21805   0.00000   0.00000   0.00000   0.00000
 -7.16792   0.00000   0.00000   0.00000   0.00000
 -7.11779   0.00000   0.00000   0.00000   0.00000
 -7.06767   0.00000   0.00000   0.00000   0.00000
 -7.01754   0.00000   0.00000   0.00000   0.00000
 -6.96742   0.00000   0.00000   0.00000   0.00000
 -6.91729   0.00000   0.00000   0.00000   0.00000
 -6.86717   0.00000   0.00000   0.00000   0.00000
 -6.81704   0.00000   0.00000   0.00000   0.00000
 -6.76692   0.00000   0.00000   0.00000   0.00000
 -6.71679   0.00000   0.00000   0.00000   0.00000
 -6.66667   0.00000   0.00000   0.00000   0.00000
 -6.61654   0.00000   0.00000   0.00000   0.00000
 -6.56642   0.00000   0.00000   0.00000   0.00000
 -6.51629   0.00000   0.00000   0.00000   0.00000
 -6.46617   0.00000   0.00000   0.00000   0.00000
 -6.41604   0.00000   0.00000   0.00000   0.00000
 -6.36591   0.00000   0.00000   0.00000   0.00000
 -6.31579   0.00000   0.00000   0.00000   0.00000
 -6.26566   0.00000   0.00000   0.00000   0.00000
 -6.21554   0.00000   0.00000   0.00000   0.00000
 -6.16541   0.00000   0.00000   0.00000   0.00000
 -6.11529   0.00000   0.00000   0.00000   0.00000
 -6.06516   0.00000   0.00000   0.00000   0.00000
 -6.01504   0.00000   0.00000   0.00000   0.00000
 -5.96491   0.00000   0.00000   0.00000   0.00000
 -5.91479   0.00000   0.00000   0.00000   0.00000
 -5.86466   0.00000   0.00000   0.00000   0.00000
 -5.81454   0.00000   0.00000   0.00000   0.00000
 -5.76441   0.05046   0.00143   0.00148   0.00011
 -5.71429   0.10957   0.00458   0.00451   0.00033
 -5.66416   0.18021   0.00891   0.00865   0.00194
 -5.61404   0.19434   0.01222   0.01165   0.00357
 -5.56391   0.20233   0.01464   0.01380   0.00457
 -5.51378   0.20241   0.01616   0.01517   0.00513
 -5.46366   0.20884   0.01760   0.01653   0.00569
 -5.41353   0.21503   0.01857   0.01736   0.00630
 -5.36341   0.22299   0.01926   0.01790   0.00706
 -5.31328   0.23300   0.01974   0.01830   0.00805
 -5.26316   0.24840   0.02035   0.01888   0.00907
 -5.21303   0.28272   0.02141   0.02000   0.01020
 -5.16291   0.31387   0.03005   0.02964   0.04053
 -5.11278   0.30864   0.03593   0.03665   0.06651
 -5.06266   0.30168   0.04033   0.04151   0.08529
 -5.01253   0.30381   0.04459   0.04563   0.10042
 -4.96241   0.27955   0.05018   0.05098   0.11903
 -4.91228   0.18112   0.05491   0.05552   0.13675
 -4.86216   0.16264   0.06190   0.06225   0.15345
 -4.81203   0.16030   0.06995   0.07031   0.17018
 -4.76190   0.15499   0.07718   0.07749   0.18362
 -4.71178   0.15183   0.08567   0.08577   0.19486
 -4.66165   0.15422   0.09751   0.09709   0.20732