  COHP#  atomMU  atomNU     distance     translation      ICOHP (at) eF   for spin  1
      1     Li1     Li1      2.82808       1   0  -1           -0.04785
      2     Li1     Li1      2.82808       0   1  -1           -0.04785
      3     Li1     Li1      2.82808       1  -1   0           -0.04785
      4     Li1     Li1      2.82808      -1   1   0           -0.04785
      5     Li1     Li1      2.82808       0  -1   1           -0.04785
      6     Li1     Li1      2.82808      -1   0   1           -0.04785
      7     Li1     Al2      2.90113       1   0   0           -0.14622
      8     Li1     Al2      2.90113       0   1   0           -0.14625
      9     Li1     Al2      2.90113       1   1   0           -0.14465
     10     Li1     Al2      2.90113       0   0   1           -0.14650
     11     Li1     Al2      2.90113       1   0   1           -0.14441
     12     Li1     Al2      2.90113       0   1   1           -0.14435
     13     Li1      O3      2.13140       1   0   0           -0.45145
     14     Li1      O3      2.13140       0   1   0           -0.45150
     15     Li1      O3      2.13140       0   0   1           -0.45212
     16     Li1      O4      2.13140       1   1   0           -0.45749
     17     Li1      O4      2.13140       1   0   1           -0.45685
     18     Li1      O4      2.13140       0   1   1           -0.45682
     19     Al2     Al2      2.82808       1   0  -1           -0.60194
     20     Al2     Al2      2.82808       0   1  -1           -0.60372
     21     Al2     Al2      2.82808       1  -1   0           -0.56179
     22     Al2     Al2      2.82808      -1   1   0           -0.56179
     23     Al2     Al2      2.82808       0  -1   1           -0.60372
     24     Al2     Al2      2.82808      -1   0   1           -0.60194
     25     Al2      O3      1.92948       0   0  -1           -4.36671
     26     Al2      O3      1.92948       0  -1   0           -4.33730
     27     Al2      O3      1.92948      -1   0   0           -4.33584
     28     Al2      O4      1.92948       1   0   0           -4.33857
     29     Al2      O4      1.92948       0   1   0           -4.33891
     30     Al2      O4      1.92948       0   0   1           -4.37145
     31      O3      O3      2.82808       1   0  -1           -0.11134
     32      O3      O3      2.82808       0   1  -1           -0.11128
     33      O3      O3      2.82808       1  -1   0           -0.11301
     34      O3      O3      2.82808      -1   1   0           -0.11301
     35      O3      O3      2.82808       0  -1   1           -0.11128
     36      O3      O3      2.82808      -1   0   1           -0.11134
     37      O3      O4      2.62557       1   1   0           -0.20926
     38      O3      O4      2.62557       1   0   1           -0.20930
     39      O3      O4      2.62557       0   1   1           -0.20932
     40      O4      O4      2.82808       1   0  -1           -0.11124
     41      O4      O4      2.82808       0   1  -1           -0.11113
     42      O4      O4      2.82808       1  -1   0           -0.11279
     43      O4      O4      2.82808      -1   1   0           -0.11279
     44      O4      O4      2.82808       0  -1   1           -0.11113
     45      O4      O4      2.82808      -1   0   1           -0.11124
