  COHP#  atomMU  atomNU     distance     translation      ICOHP (at) eF   for spin  1
      1      F1      K2      2.71199       0  -1  -1           -0.40075 
      2      F1      K2      2.71199      -1   0  -1           -0.40074 
      3      F1      K2      2.71199       0   0  -1           -0.40079 
      4      F1      K2      2.71199      -1  -1   0           -0.40079 
      5      F1      K2      2.71199       0  -1   0           -0.40074 
      6      F1      K2      2.71199      -1   0   0           -0.40075 
