 vasp.5.4.4.18Apr17-6-g9f103f2a35 (build Sep 10 2019 12:14:21) complex          
  
 executed on             LinuxIFC date 2020.07.30  15:30:23
 running on    1 total cores
 distrk:  each k-point on    1 cores,    1 groups
 distr:  one band on NCORES_PER_BAND=   1 cores,    1 groups


--------------------------------------------------------------------------------------------------------


 INCAR:
 POTCAR:    PAW_PBE Li_sv 10Sep2004               
 POTCAR:    PAW_PBE H 15Jun2001                   
 POTCAR:    PAW_PBE Li_sv 10Sep2004               
   SHA256 =  7e51fe1804c037e1dccc81a9c376d94d693a7559600c847f4b41960edb8ab895 Li
   COPYR  = (c) Copyright 10Sep2004 Georg Kresse                                
   COPYR  = This file is part of the software VASP. Any use, copying, and all ot
   COPYR  = If you do not have a valid VASP license, you may not use, copy or di
   VRHFIN =Li: 1s2s2p                                                           
   LEXCH  = PE                                                                  
   EATOM  =   202.7858 eV,   14.9043 Ry                                         
                                                                                
   TITEL  = PAW_PBE Li_sv 10Sep2004                                             
   LULTRA =        F    use ultrasoft PP ?                                      
   IUNSCR =        0    unscreen: 0-lin 1-nonlin 2-no                           
   RPACOR =    0.000    partial core radius                                     
   POMASS =    7.010; ZVAL   =    3.000    mass and valenz                      
   RCORE  =    1.700    outmost cutoff radius                                   
   RWIGS  =    2.050; RWIGS  =    1.085    wigner-seitz radius (au A)           
   ENMAX  =  499.034; ENMIN  =  374.276 eV                                      
   ICORE  =        2    local potential                                         
   LCOR   =        T    correct aug charges                                     
   LPAW   =        T    paw PP                                                  
   EAUG   =  628.945                                                            
   RMAX   =    1.732    core radius for proj-oper                               
   RAUG   =    1.300    factor for augmentation sphere                          
   RDEP   =    1.728    radius for radial grids                                 
   RDEPT  =    1.329    core radius for aug-charge                              
                                                                                
   Atomic configuration                                                         
    4 entries                                                                   
     n  l   j            E        occ.                                          
     1  0  0.50       -51.8549   2.0000                                         
     2  0  0.50        -2.8742   1.0000                                         
     2  1  0.50        -1.3606   0.0000                                         
     3  2  1.50        -1.3606   0.0000                                         
   Description                                                                  
     l       E           TYP  RCUT    TYP  RCUT                                 
     0    -51.8548813     23  1.400                                             
     0     -2.8742052     23  1.700                                             
     1     -1.3605826     23  1.400                                             
     2     -1.3605826     23  1.400                                             
  local pseudopotential read in
  atomic valenz-charges read in
  non local Contribution for L=           0  read in
    real space projection operators read in
  non local Contribution for L=           0  read in
    real space projection operators read in
  non local Contribution for L=           1  read in
    real space projection operators read in
    PAW grid and wavefunctions read in
 
   number of l-projection  operators is LMAX  =           3
   number of lm-projection operators is LMMAX =           5
 
 POTCAR:    PAW_PBE H 15Jun2001                   
   SHA256 =  030f79b5d3ab3cf0e668861823c8fb652ff669f3e15e46930bd03bfd63a607b6 H/
   COPYR  = (c) Copyright 15Jun2001 Georg Kresse                                
   COPYR  = This file is part of the software VASP. Any use, copying, and all ot
   COPYR  = If you do not have a valid VASP license, you may not use, copy or di
   VRHFIN =H: ultrasoft test                                                    
   LEXCH  = PE                                                                  
   EATOM  =    12.4884 eV,    0.9179 Ry                                         
                                                                                
   TITEL  = PAW_PBE H 15Jun2001                                                 
   LULTRA =        F    use ultrasoft PP ?                                      
   IUNSCR =        0    unscreen: 0-lin 1-nonlin 2-no                           
   RPACOR =    0.000    partial core radius                                     
   POMASS =    1.000; ZVAL   =    1.000    mass and valenz                      
   RCORE  =    1.100    outmost cutoff radius                                   
   RWIGS  =    0.700; RWIGS  =    0.370    wigner-seitz radius (au A)           
   ENMAX  =  250.000; ENMIN  =  200.000 eV                                      
   RCLOC  =    0.701    cutoff for local pot                                    
   LCOR   =        T    correct aug charges                                     
   LPAW   =        T    paw PP                                                  
   EAUG   =  400.000                                                            
   RMAX   =    1.123    core radius for proj-oper                               
   RAUG   =    1.200    factor for augmentation sphere                          
   RDEP   =    1.112    radius for radial grids                                 
   RDEPT  =    0.926    core radius for aug-charge                              
                                                                                
   Atomic configuration                                                         
    2 entries                                                                   
     n  l   j            E        occ.                                          
     1  0  0.50        -6.4927   1.0000                                         
     2  1  0.50        -3.4015   0.0000                                         
   Description                                                                  
     l       E           TYP  RCUT    TYP  RCUT                                 
     0     -6.4927494     23  1.100                                             
     0      6.8029130     23  1.100                                             
     1     -4.0817478     23  1.100                                             
  local pseudopotential read in
  atomic valenz-charges read in
  non local Contribution for L=           0  read in
    real space projection operators read in
  non local Contribution for L=           0  read in
    real space projection operators read in
  non local Contribution for L=           1  read in
    real space projection operators read in
    PAW grid and wavefunctions read in
 
   number of l-projection  operators is LMAX  =           3
   number of lm-projection operators is LMMAX =           5
 
  PAW_PBE Li_sv 10Sep2004               :
 energy of atom  1       EATOM= -202.7858
 kinetic energy error for atom=    0.0055 (will be added to EATOM!!)
  PAW_PBE H 15Jun2001                   :
 energy of atom  2       EATOM=  -12.4884
 kinetic energy error for atom=    0.0002 (will be added to EATOM!!)
 
 
 POSCAR: Li1 H1                                  
  positions in direct lattice
  No initial velocities read in

 METAGGA = SCAN     LMAXTAU =  6    LMIXTAU =  T

 exchange correlation table for  LEXCH =        8
   RHO(1)=    0.500       N(1)  =     2000
   RHO(2)=  100.500       N(2)  =     4000
 


--------------------------------------------------------------------------------------------------------


 ion  position               nearest neighbor table
   1  0.000  0.000  0.000-
   2  0.500  0.500  0.500-
 
  LATTYP: Found a face centered cubic cell.
 ALAT       =     4.0001740000
  
  Lattice vectors:
  
 A1 = (   0.0000000000,   2.0000870000,   2.0000870000)
 A2 = (   2.0000870000,   0.0000000000,   2.0000870000)
 A3 = (   2.0000870000,   2.0000870000,   0.0000000000)


Analysis of symmetry for initial positions (statically):
=====================================================================
 Subroutine PRICEL returns:
 Original cell was already a primitive cell.
 

 Routine SETGRP: Setting up the symmetry group for a 
 face centered cubic supercell.


 Subroutine GETGRP returns: Found 48 space group operations
 (whereof 48 operations were pure point group operations)
 out of a pool of 48 trial point group operations.


The static configuration has the point symmetry O_h .


Analysis of symmetry for dynamics (positions and initial velocities):
=====================================================================
 Subroutine PRICEL returns:
 Original cell was already a primitive cell.
 

 Routine SETGRP: Setting up the symmetry group for a 
 face centered cubic supercell.


 Subroutine GETGRP returns: Found 48 space group operations
 (whereof 48 operations were pure point group operations)
 out of a pool of 48 trial point group operations.


The dynamic configuration has the point symmetry O_h .


Analysis of structural, dynamic, and magnetic symmetry:
=====================================================================
 Subroutine PRICEL returns:
 Original cell was already a primitive cell.
 

 Routine SETGRP: Setting up the symmetry group for a 
 face centered cubic supercell.


 Subroutine GETGRP returns: Found 48 space group operations
 (whereof 48 operations were pure point group operations)
 out of a pool of 48 trial point group operations.


The magnetic configuration has the point symmetry O_h .


 Subroutine INISYM returns: Found 48 space group operations
 (whereof 48 operations are pure point group operations),
 and found     1 'primitive' translations

 
 

Automatic generation of k-mesh.
 generate k-points for:    8    8    8
Space group operators:
 irot       det(A)        alpha          n_x          n_y          n_z        tau_x        tau_y        tau_z
    1     1.000000     0.000000     1.000000     0.000000     0.000000     0.000000     0.000000     0.000000
    2    -1.000000     0.000000     1.000000     0.000000     0.000000     0.000000     0.000000     0.000000
    3     1.000000   120.000000    -0.577350    -0.577350    -0.577350     0.000000     0.000000     0.000000
    4    -1.000000   120.000000    -0.577350    -0.577350    -0.577350     0.000000     0.000000     0.000000
    5     1.000000   120.000000     0.577350     0.577350     0.577350     0.000000     0.000000     0.000000
    6    -1.000000   120.000000     0.577350     0.577350     0.577350     0.000000     0.000000     0.000000
    7     1.000000    90.000000     0.000000     0.000000    -1.000000     0.000000     0.000000     0.000000
    8    -1.000000    90.000000     0.000000     0.000000    -1.000000     0.000000     0.000000     0.000000
    9     1.000000   180.000000     0.000000     0.707107     0.707107     0.000000     0.000000     0.000000
   10    -1.000000   180.000000     0.000000     0.707107     0.707107     0.000000     0.000000     0.000000
   11     1.000000    90.000000     0.000000     1.000000     0.000000     0.000000     0.000000     0.000000
   12    -1.000000    90.000000     0.000000     1.000000     0.000000     0.000000     0.000000     0.000000
   13     1.000000   180.000000     0.000000     0.000000     1.000000     0.000000     0.000000     0.000000
   14    -1.000000   180.000000     0.000000     0.000000     1.000000     0.000000     0.000000     0.000000
   15     1.000000   120.000000    -0.577350     0.577350     0.577350     0.000000     0.000000     0.000000
   16    -1.000000   120.000000    -0.577350     0.577350     0.577350     0.000000     0.000000     0.000000
   17     1.000000   120.000000    -0.577350     0.577350    -0.577350     0.000000     0.000000     0.000000
   18    -1.000000   120.000000    -0.577350     0.577350    -0.577350     0.000000     0.000000     0.000000
   19     1.000000    90.000000     0.000000     0.000000     1.000000     0.000000     0.000000     0.000000
   20    -1.000000    90.000000     0.000000     0.000000     1.000000     0.000000     0.000000     0.000000
   21     1.000000    90.000000    -1.000000     0.000000     0.000000     0.000000     0.000000     0.000000
   22    -1.000000    90.000000    -1.000000     0.000000     0.000000     0.000000     0.000000     0.000000
   23     1.000000   180.000000     0.707107     0.000000     0.707107     0.000000     0.000000     0.000000
   24    -1.000000   180.000000     0.707107     0.000000     0.707107     0.000000     0.000000     0.000000
   25     1.000000   120.000000     0.577350    -0.577350     0.577350     0.000000     0.000000     0.000000
   26    -1.000000   120.000000     0.577350    -0.577350     0.577350     0.000000     0.000000     0.000000
   27     1.000000   120.000000    -0.577350    -0.577350     0.577350     0.000000     0.000000     0.000000
   28    -1.000000   120.000000    -0.577350    -0.577350     0.577350     0.000000     0.000000     0.000000
   29     1.000000   180.000000     1.000000     0.000000     0.000000     0.000000     0.000000     0.000000
   30    -1.000000   180.000000     1.000000     0.000000     0.000000     0.000000     0.000000     0.000000
   31     1.000000    90.000000     0.000000    -1.000000     0.000000     0.000000     0.000000     0.000000
   32    -1.000000    90.000000     0.000000    -1.000000     0.000000     0.000000     0.000000     0.000000
   33     1.000000   180.000000     0.707107     0.707107     0.000000     0.000000     0.000000     0.000000
   34    -1.000000   180.000000     0.707107     0.707107     0.000000     0.000000     0.000000     0.000000
   35     1.000000    90.000000     1.000000     0.000000     0.000000     0.000000     0.000000     0.000000
   36    -1.000000    90.000000     1.000000     0.000000     0.000000     0.000000     0.000000     0.000000
   37     1.000000   120.000000     0.577350    -0.577350    -0.577350     0.000000     0.000000     0.000000
   38    -1.000000   120.000000     0.577350    -0.577350    -0.577350     0.000000     0.000000     0.000000
   39     1.000000   180.000000     0.000000     1.000000     0.000000     0.000000     0.000000     0.000000
   40    -1.000000   180.000000     0.000000     1.000000     0.000000     0.000000     0.000000     0.000000
   41     1.000000   120.000000     0.577350     0.577350    -0.577350     0.000000     0.000000     0.000000
   42    -1.000000   120.000000     0.577350     0.577350    -0.577350     0.000000     0.000000     0.000000
   43     1.000000   180.000000     0.000000    -0.707107     0.707107     0.000000     0.000000     0.000000
   44    -1.000000   180.000000     0.000000    -0.707107     0.707107     0.000000     0.000000     0.000000
   45     1.000000   180.000000     0.707107    -0.707107     0.000000     0.000000     0.000000     0.000000
   46    -1.000000   180.000000     0.707107    -0.707107     0.000000     0.000000     0.000000     0.000000
   47     1.000000   180.000000     0.707107     0.000000    -0.707107     0.000000     0.000000     0.000000
   48    -1.000000   180.000000     0.707107     0.000000    -0.707107     0.000000     0.000000     0.000000
 
 Subroutine IBZKPT returns following result:
 ===========================================
 
 Found     29 irreducible k-points:
 
 Following reciprocal coordinates:
            Coordinates               Weight
  0.000000  0.000000  0.000000      1.000000
  0.125000  0.000000  0.000000      8.000000
  0.250000  0.000000  0.000000      8.000000
  0.375000  0.000000  0.000000      8.000000
  0.500000  0.000000  0.000000      4.000000
  0.125000  0.125000  0.000000      6.000000
  0.250000  0.125000  0.000000     24.000000
  0.375000  0.125000  0.000000     24.000000
  0.500000  0.125000  0.000000     24.000000
 -0.375000  0.125000  0.000000     24.000000
 -0.250000  0.125000  0.000000     24.000000
 -0.125000  0.125000  0.000000     12.000000
  0.250000  0.250000  0.000000      6.000000
  0.375000  0.250000  0.000000     24.000000
  0.500000  0.250000  0.000000     24.000000
 -0.375000  0.250000  0.000000     24.000000
 -0.250000  0.250000  0.000000     12.000000
  0.375000  0.375000  0.000000      6.000000
  0.500000  0.375000  0.000000     24.000000
 -0.375000  0.375000  0.000000     12.000000
  0.500000  0.500000  0.000000      3.000000
  0.375000  0.250000  0.125000     24.000000
  0.500000  0.250000  0.125000     48.000000
 -0.375000  0.250000  0.125000     24.000000
  0.500000  0.375000  0.125000     24.000000
 -0.375000  0.375000  0.125000     48.000000
 -0.250000  0.375000  0.125000     24.000000
 -0.375000  0.500000  0.125000     12.000000
 -0.250000  0.500000  0.250000      6.000000
 
 Following cartesian coordinates:
            Coordinates               Weight
  0.000000  0.000000  0.000000      1.000000
 -0.031249  0.031249  0.031249      8.000000
 -0.062497  0.062497  0.062497      8.000000
 -0.093746  0.093746  0.093746      8.000000
 -0.124995  0.124995  0.124995      4.000000
  0.000000  0.000000  0.062497      6.000000
 -0.031249  0.031249  0.093746     24.000000
 -0.062497  0.062497  0.124995     24.000000
 -0.093746  0.093746  0.156243     24.000000
  0.124995 -0.124995 -0.062497     24.000000
  0.093746 -0.093746 -0.031249     24.000000
  0.062497 -0.062497  0.000000     12.000000
  0.000000  0.000000  0.124995      6.000000
 -0.031249  0.031249  0.156243     24.000000
 -0.062497  0.062497  0.187492     24.000000
  0.156243 -0.156243 -0.031249     24.000000
  0.124995 -0.124995  0.000000     12.000000
  0.000000  0.000000  0.187492      6.000000
 -0.031249  0.031249  0.218740     24.000000
  0.187492 -0.187492  0.000000     12.000000
  0.000000  0.000000  0.249989      3.000000
  0.000000  0.062497  0.124995     24.000000
 -0.031249  0.093746  0.156243     48.000000
  0.187492 -0.124995 -0.062497     24.000000
 -0.000000  0.062497  0.187492     24.000000
  0.218740 -0.156243 -0.031249     48.000000
  0.187492 -0.124995 -0.000000     24.000000
  0.249989 -0.187492  0.000000     12.000000
  0.249989 -0.124995  0.000000      6.000000
 
 TETIRR: Found     76 inequivalent tetrahedra from     3072


--------------------------------------------------------------------------------------------------------




 Dimension of arrays:
   k-points           NKPTS =     29   k-points in BZ     NKDIM =     29   number of bands    NBANDS=      7
   number of dos      NEDOS =    301   number of ions     NIONS =      2
   non local maximal  LDIM  =      3   non local SUM 2l+1 LMDIM =      5
   total plane-waves  NPLWV =  13824
   max r-space proj   IRMAX =      1   max aug-charges    IRDMAX=  84864
   dimension x,y,z NGX =    24 NGY =   24 NGZ =   24
   dimension x,y,z NGXF=    48 NGYF=   48 NGZF=   48
   support grid    NGXF=    96 NGYF=   96 NGZF=   96
   ions per type =               1   1
   NGX,Y,Z   is equivalent  to a cutoff of  14.11, 14.11, 14.11 a.u.
   NGXF,Y,Z  is equivalent  to a cutoff of  28.21, 28.21, 28.21 a.u.

 SYSTEM =  unknown system                          
 POSCAR =  Li1 H1                                  

 Startparameter for this run:
   NWRITE =      2    write-flag & timer
   PREC   = accura    normal or accurate (medium, high low for compatibility)
   ISTART =      0    job   : 0-new  1-cont  2-samecut
   ICHARG =      1    charge: 1-file 2-atom 10-const
   ISPIN  =      2    spin polarized calculation?
   LNONCOLLINEAR =      F non collinear calculations
   LSORBIT =      F    spin-orbit coupling
   INIWAV =      1    electr: 0-lowe 1-rand  2-diag
   LASPH  =      T    aspherical Exc in radial PAW
   METAGGA=      F    non-selfconsistent MetaGGA calc.

 Electronic Relaxation 1
   ENCUT  =  680.0 eV  49.98 Ry    7.07 a.u.   6.01  6.01  6.01*2*pi/ulx,y,z
   ENINI  =  680.0     initial cutoff
   ENAUG  =  628.9 eV  augmentation charge cutoff
   NELM   =    200;   NELMIN=  2; NELMDL= -5     # of ELM steps 
   EDIFF  = 0.1E-04   stopping-criterion for ELM
   LREAL  =      F    real-space projection
   NLSPLINE    = F    spline interpolate recip. space projectors
   LCOMPAT=      F    compatible to vasp.4.4
   GGA_COMPAT  = T    GGA compatible to vasp.4.4-vasp.4.6
   LMAXPAW     = -100 max onsite density
   LMAXMIX     =    2 max onsite mixed and CHGCAR
   VOSKOWN=      0    Vosko Wilk Nusair interpolation
   ROPT   =    0.00000   0.00000
 Ionic relaxation
   EDIFFG = -.2E-01   stopping-criterion for IOM
   NSW    =      0    number of steps for IOM
   NBLOCK =      1;   KBLOCK =      1    inner block; outer block 
   IBRION =     -1    ionic relax: 0-MD 1-quasi-New 2-CG
   NFREE  =      1    steps in history (QN), initial steepest desc. (CG)
   ISIF   =      3    stress and relaxation
   IWAVPR =     10    prediction:  0-non 1-charg 2-wave 3-comb
   ISYM   =      2    0-nonsym 1-usesym 2-fastsym
   LCORR  =      T    Harris-Foulkes like correction to forces

   POTIM  = 0.5000    time-step for ionic-motion
   TEIN   =    0.0    initial temperature
   TEBEG  =    0.0;   TEEND  =   0.0 temperature during run
   SMASS  =  -3.00    Nose mass-parameter (am)
   estimated Nose-frequenzy (Omega)   =  0.10E-29 period in steps =****** mass=  -0.183E-27a.u.
   SCALEE = 1.0000    scale energy and forces
   NPACO  =    256;   APACO  = 16.0  distance and # of slots for P.C.
   PSTRESS=    0.0 pullay stress

  Mass of Ions in am
   POMASS =   7.01  1.00
  Ionic Valenz
   ZVAL   =   3.00  1.00
  Atomic Wigner-Seitz radii
   RWIGS  =  -1.00 -1.00
  virtual crystal weights 
   VCA    =   1.00  1.00
   NELECT =       4.0000    total number of electrons
   NUPDOWN=      -1.0000    fix difference up-down

 DOS related values:
   EMIN   =  10.00;   EMAX   =-10.00  energy-range for DOS
   EFERMI =   0.00
   ISMEAR =    -5;   SIGMA  =   0.05  broadening in eV -4-tet -1-fermi 0-gaus

 Electronic relaxation 2 (details)
   IALGO  =     58    algorithm
   LDIAG  =      T    sub-space diagonalisation (order eigenvalues)
   LSUBROT=      F    optimize rotation matrix (better conditioning)
   TURBO    =      0    0=normal 1=particle mesh
   IRESTART =      0    0=no restart 2=restart with 2 vectors
   NREBOOT  =      0    no. of reboots
   NMIN     =      0    reboot dimension
   EREF     =   0.00    reference energy to select bands
   IMIX   =      4    mixing-type and parameters
     AMIX     =   0.40;   BMIX     =  1.00
     AMIX_MAG =   1.60;   BMIX_MAG =  1.00
     AMIN     =   0.10
     WC   =   100.;   INIMIX=   1;  MIXPRE=   1;  MAXMIX= -45

 Intra band minimization:
   WEIMIN = 0.0000     energy-eigenvalue tresh-hold
   EBREAK =  0.36E-06  absolut break condition
   DEPER  =   0.30     relativ break condition  

   TIME   =   0.40     timestep for ELM

  volume/ion in A,a.u.               =       8.00        53.99
  Fermi-wavevector in a.u.,A,eV,Ry     =   1.031263  1.948804 14.469831  1.063503
  Thomas-Fermi vector in A             =   2.165402
 
 Write flags
   LWAVE        =      F    write WAVECAR
   LDOWNSAMPLE  =      F    k-point downsampling of WAVECAR
   LCHARG       =      T    write CHGCAR
   LVTOT        =      T    write LOCPOT, total local potential
   LVHAR        =      F    write LOCPOT, Hartree potential only
   LELF         =      T    write electronic localiz. function (ELF)
   LORBIT       =     11    0 simple, 1 ext, 2 COOP (PROOUT), +10 PAW based schemes


 Dipole corrections
   LMONO  =      F    monopole corrections only (constant potential shift)
   LDIPOL =      F    correct potential (dipole corrections)
   IDIPOL =      0    1-x, 2-y, 3-z, 4-all directions 
   EPSILON=  1.0000000 bulk dielectric constant

 Exchange correlation treatment:
   GGA     =    --    GGA type
   LEXCH   =     8    internal setting for exchange type
   VOSKOWN=      0    Vosko Wilk Nusair interpolation
   LHFCALC =     F    Hartree Fock is set to
   LHFONE  =     F    Hartree Fock one center treatment
   AEXX    =    0.0000 exact exchange contribution

 Linear response parameters
   LEPSILON=     F    determine dielectric tensor
   LRPA    =     F    only Hartree local field effects (RPA)
   LNABLA  =     F    use nabla operator in PAW spheres
   LVEL    =     F    velocity operator in full k-point grid
   LINTERFAST=   F  fast interpolation
   KINTER  =     0    interpolate to denser k-point grid
   CSHIFT  =0.1000    complex shift for real part using Kramers Kronig
   OMEGAMAX=  -1.0    maximum frequency
   DEG_THRESHOLD= 0.2000000E-02 threshold for treating states as degnerate
   RTIME   =   -0.100 relaxation time in fs
  (WPLASMAI=    0.000 imaginary part of plasma frequency in eV, 0.658/RTIME)
   DFIELD  = 0.0000000 0.0000000 0.0000000 field for delta impulse in time
 
 Orbital magnetization related:
   ORBITALMAG=     F  switch on orbital magnetization
   LCHIMAG   =     F  perturbation theory with respect to B field
   DQ        =  0.001000  dq finite difference perturbation B field
   LLRAUG    =     F  two centre corrections for induced B field



--------------------------------------------------------------------------------------------------------


 Static calculation
 charge density and potential will be updated during run
 spin polarized calculation
 Conjugate gradient for all bands (Freysoldt, et al. PRB 79, 241103 (2009))
 preconditioned conjugated gradient                                        
 perform sub-space diagonalisation
    before iterative eigenvector-optimisation
 modified Broyden-mixing scheme, WC =      100.0
 initial mixing is a Kerker type mixing with AMIX =  0.4000 and BMIX =      1.0000
 Hartree-type preconditioning will be used
 using additional bands            5
 reciprocal scheme for non local part
 no Harris-corrections to forces 
 use gradient corrections 
 use of overlap-Matrix (Vanderbilt PP)
 Fermi weights with tetrahedron method with Bloechl corrections


--------------------------------------------------------------------------------------------------------


  energy-cutoff  :      680.00
  volume of cell :       16.00
      direct lattice vectors                 reciprocal lattice vectors
     0.000000000  2.000087000  2.000087000    -0.249989125  0.249989125  0.249989125
     2.000087000  0.000000000  2.000087000     0.249989125 -0.249989125  0.249989125
     2.000087000  2.000087000  0.000000000     0.249989125  0.249989125 -0.249989125

  length of vectors
     2.828550161  2.828550161  2.828550161     0.432993867  0.432993867  0.432993867


 
 k-points in units of 2pi/SCALE and weight: read from INCAR                         
   0.00000000  0.00000000  0.00000000       0.002
  -0.03124864  0.03124864  0.03124864       0.016
  -0.06249728  0.06249728  0.06249728       0.016
  -0.09374592  0.09374592  0.09374592       0.016
  -0.12499456  0.12499456  0.12499456       0.008
   0.00000000  0.00000000  0.06249728       0.012
  -0.03124864  0.03124864  0.09374592       0.047
  -0.06249728  0.06249728  0.12499456       0.047
  -0.09374592  0.09374592  0.15624320       0.047
   0.12499456 -0.12499456 -0.06249728       0.047
   0.09374592 -0.09374592 -0.03124864       0.047
   0.06249728 -0.06249728  0.00000000       0.023
   0.00000000  0.00000000  0.12499456       0.012
  -0.03124864  0.03124864  0.15624320       0.047
  -0.06249728  0.06249728  0.18749184       0.047
   0.15624320 -0.15624320 -0.03124864       0.047
   0.12499456 -0.12499456  0.00000000       0.023
   0.00000000  0.00000000  0.18749184       0.012
  -0.03124864  0.03124864  0.21874048       0.047
   0.18749184 -0.18749184  0.00000000       0.023
   0.00000000  0.00000000  0.24998913       0.006
   0.00000000  0.06249728  0.12499456       0.047
  -0.03124864  0.09374592  0.15624320       0.094
   0.18749184 -0.12499456 -0.06249728       0.047
  -0.00000000  0.06249728  0.18749184       0.047
   0.21874048 -0.15624320 -0.03124864       0.094
   0.18749184 -0.12499456 -0.00000000       0.047
   0.24998913 -0.18749184  0.00000000       0.023
   0.24998913 -0.12499456  0.00000000       0.012
 
 k-points in reciprocal lattice and weights: read from INCAR                         
   0.00000000  0.00000000  0.00000000       0.002
   0.12500000  0.00000000  0.00000000       0.016
   0.25000000  0.00000000  0.00000000       0.016
   0.37500000  0.00000000  0.00000000       0.016
   0.50000000  0.00000000  0.00000000       0.008
   0.12500000  0.12500000  0.00000000       0.012
   0.25000000  0.12500000  0.00000000       0.047
   0.37500000  0.12500000  0.00000000       0.047
   0.50000000  0.12500000  0.00000000       0.047
  -0.37500000  0.12500000  0.00000000       0.047
  -0.25000000  0.12500000  0.00000000       0.047
  -0.12500000  0.12500000  0.00000000       0.023
   0.25000000  0.25000000  0.00000000       0.012
   0.37500000  0.25000000  0.00000000       0.047
   0.50000000  0.25000000  0.00000000       0.047
  -0.37500000  0.25000000  0.00000000       0.047
  -0.25000000  0.25000000  0.00000000       0.023
   0.37500000  0.37500000  0.00000000       0.012
   0.50000000  0.37500000  0.00000000       0.047
  -0.37500000  0.37500000  0.00000000       0.023
   0.50000000  0.50000000  0.00000000       0.006
   0.37500000  0.25000000  0.12500000       0.047
   0.50000000  0.25000000  0.12500000       0.094
  -0.37500000  0.25000000  0.12500000       0.047
   0.50000000  0.37500000  0.12500000       0.047
  -0.37500000  0.37500000  0.12500000       0.094
  -0.25000000  0.37500000  0.12500000       0.047
  -0.37500000  0.50000000  0.12500000       0.023
  -0.25000000  0.50000000  0.25000000       0.012
 
 position of ions in fractional coordinates (direct lattice) 
   0.00000000  0.00000000  0.00000000
   0.50000000  0.50000000  0.50000000
 
 position of ions in cartesian coordinates  (Angst):
   0.00000000  0.00000000  0.00000000
   2.00008700  2.00008700  2.00008700
 


--------------------------------------------------------------------------------------------------------


 k-point  1 :   0.0000 0.0000 0.0000  plane waves:     645
 k-point  2 :   0.1250 0.0000 0.0000  plane waves:     643
 k-point  3 :   0.2500 0.0000 0.0000  plane waves:     637
 k-point  4 :   0.3750 0.0000 0.0000  plane waves:     628
 k-point  5 :   0.5000 0.0000 0.0000  plane waves:     628
 k-point  6 :   0.1250 0.1250 0.0000  plane waves:     637
 k-point  7 :   0.2500 0.1250 0.0000  plane waves:     640
 k-point  8 :   0.3750 0.1250 0.0000  plane waves:     629
 k-point  9 :   0.5000 0.1250 0.0000  plane waves:     645
 k-point 10 :  -0.3750 0.1250 0.0000  plane waves:     636
 k-point 11 :  -0.2500 0.1250 0.0000  plane waves:     637
 k-point 12 :  -0.1250 0.1250 0.0000  plane waves:     648
 k-point 13 :   0.2500 0.2500 0.0000  plane waves:     649
 k-point 14 :   0.3750 0.2500 0.0000  plane waves:     639
 k-point 15 :   0.5000 0.2500 0.0000  plane waves:     649
 k-point 16 :  -0.3750 0.2500 0.0000  plane waves:     649
 k-point 17 :  -0.2500 0.2500 0.0000  plane waves:     636
 k-point 18 :   0.3750 0.3750 0.0000  plane waves:     640
 k-point 19 :   0.5000 0.3750 0.0000  plane waves:     650
 k-point 20 :  -0.3750 0.3750 0.0000  plane waves:     660
 k-point 21 :   0.5000 0.5000 0.0000  plane waves:     636
 k-point 22 :   0.3750 0.2500 0.1250  plane waves:     642
 k-point 23 :   0.5000 0.2500 0.1250  plane waves:     648
 k-point 24 :  -0.3750 0.2500 0.1250  plane waves:     648
 k-point 25 :   0.5000 0.3750 0.1250  plane waves:     652
 k-point 26 :  -0.3750 0.3750 0.1250  plane waves:     652
 k-point 27 :  -0.2500 0.3750 0.1250  plane waves:     653
 k-point 28 :  -0.3750 0.5000 0.1250  plane waves:     642
 k-point 29 :  -0.2500 0.5000 0.2500  plane waves:     648

 maximum and minimum number of plane-waves per node :       660      628

 maximum number of plane-waves:       660
 maximum index in each direction: 
   IXMAX=    6   IYMAX=    6   IZMAX=    6
   IXMIN=   -6   IYMIN=   -6   IZMIN=   -6


 serial   3D FFT for wavefunctions
 parallel 3D FFT for charge:
    minimum data exchange during FFTs selected (reduces bandwidth)


 total amount of memory used by VASP MPI-rank0    74129. kBytes
=======================================================================

   base      :      30000. kBytes
   nonl-proj :       1552. kBytes
   fftplans  :      16524. kBytes
   grid      :      12993. kBytes
   one-center:          4. kBytes
   wavefun   :      13056. kBytes
 
     INWAV:  cpu time    0.0001: real time    0.0004
 Broyden mixing: mesh for mixing (old mesh)
   NGX = 13   NGY = 13   NGZ = 13
  (NGX  = 48   NGY  = 48   NGZ  = 48)
  gives a total of   2197 points

 initial charge density was supplied:
 number of electron       4.0000000 magnetization      -0.0000000
 keeping initial charge density in first step


--------------------------------------------------------------------------------------------------------


 BZINTS: Fermi energy: 38.950999;  4.000000 electrons
         Band energy:  61.442964;  BLOECHL correction:-33.086098
 Maximum index for augmentation-charges        82369 (set IRDMAX)


--------------------------------------------------------------------------------------------------------


 First call to EWALD:  gamma=   0.703
 Maximum number of real-space cells 3x 3x 3
 Maximum number of reciprocal cells 3x 3x 3

    FEWALD:  cpu time    0.0010: real time    0.0016

 ----------------------------------------------------------------------------- 
|                                                                             |
|           W    W    AA    RRRRR   N    N  II  N    N   GGGG   !!!           |
|           W    W   A  A   R    R  NN   N  II  NN   N  G    G  !!!           |
|           W    W  A    A  R    R  N N  N  II  N N  N  G       !!!           |
|           W WW W  AAAAAA  RRRRR   N  N N  II  N  N N  G  GGG   !            |
|           WW  WW  A    A  R   R   N   NN  II  N   NN  G    G                |
|           W    W  A    A  R    R  N    N  II  N    N   GGGG   !!!           |
|                                                                             |
|      ALGO=A and IALGO=5X tend to fail with the tetrahedron method           |
|      (e.g. Bloechls method ISMEAR=-5 is not variational)                    |
|      please switch to IMSEAR=0-n, except for DOS calculations               |
|      For DOS calculations use IALGO=53 after preconverging with ISMEAR>=0   |
|          I HOPE YOU KNOW, WHAT YOU ARE  DOING                               |
|                                                                             |
 ----------------------------------------------------------------------------- 



--------------------------------------- Iteration      1(   1)  ---------------------------------------


    POTLOK:  cpu time    0.1330: real time    0.1344
    SETDIJ:  cpu time    0.5427: real time    0.5484
 BZINTS: Fermi energy:  3.234132;  4.000000 electrons
         Band energy: -92.967249;  BLOECHL correction: -0.000575
    TRIAL :  cpu time    1.4540: real time    1.4694
 BZINTS: Fermi energy:  3.234132;  4.000000 electrons
         Band energy: -92.967249;  BLOECHL correction: -0.000575
    CORREC:  cpu time    0.0010: real time    0.0014
    --------------------------------------------
      LOOP:  cpu time    2.1326: real time    2.1582

 eigenvalue-minimisations  :   826
 total energy-change (2. order) :-0.2851236E+01  (-0.2649901E+03)
 number of electron       4.0000000 magnetization      -0.0000000
 augmentation part        4.0000000 magnetization      -0.0000000

 Free energy of the ion-electron system (eV)
  ---------------------------------------------------
  alpha Z        PSCENC =         2.52703488
  Ewald energy   TEWEN  =       -94.29113762
  -Hartree energ DENC   =       -36.40038319
  -exchange      EXHF   =         0.00000000
  -V(xc)+E(xc)   XCENC  =        17.69212515
  PAW double counting   =        83.53052238      -98.21058332
  entropy T*S    EENTRO =         0.00000000
  eigenvalues    EBANDS =       -92.96724915
  atomic energy  EATOM  =       215.26843501
  ---------------------------------------------------
  free energy    TOTEN  =        -2.85123587 eV

  energy without entropy =       -2.85123587  energy(sigma->0) =       -2.85123587


--------------------------------------------------------------------------------------------------------




--------------------------------------- Iteration      1(   2)  ---------------------------------------


 BZINTS: Fermi energy: -0.204677;  4.000000 electrons
         Band energy: -97.350671;  BLOECHL correction:  0.000000
    TRIAL :  cpu time    1.8202: real time    1.8403
 BZINTS: Fermi energy: -0.204677;  4.000000 electrons
         Band energy: -97.350671;  BLOECHL correction:  0.000000
    CORREC:  cpu time    0.0005: real time    0.0010
    --------------------------------------------
      LOOP:  cpu time    1.8224: real time    1.8479

 eigenvalue-minimisations  :  1085
 total energy-change (2. order) :-0.4383422E+01  (-0.4383500E+01)
 number of electron       4.0000000 magnetization      -0.0000000
 augmentation part        4.0000000 magnetization      -0.0000000

 Free energy of the ion-electron system (eV)
  ---------------------------------------------------
  alpha Z        PSCENC =         2.52703488
  Ewald energy   TEWEN  =       -94.29113762
  -Hartree energ DENC   =       -36.40038319
  -exchange      EXHF   =         0.00000000
  -V(xc)+E(xc)   XCENC  =        17.69212515
  PAW double counting   =        83.53052238      -98.21058332
  entropy T*S    EENTRO =         0.00000000
  eigenvalues    EBANDS =       -97.35067107
  atomic energy  EATOM  =       215.26843501
  ---------------------------------------------------
  free energy    TOTEN  =        -7.23465779 eV

  energy without entropy =       -7.23465779  energy(sigma->0) =       -7.23465779


--------------------------------------------------------------------------------------------------------




--------------------------------------- Iteration      1(   3)  ---------------------------------------


 BZINTS: Fermi energy: -0.202252;  4.000000 electrons
         Band energy: -97.466210;  BLOECHL correction:  0.000000
    TRIAL :  cpu time    1.7172: real time    1.7356
 BZINTS: Fermi energy: -0.202252;  4.000000 electrons
         Band energy: -97.466210;  BLOECHL correction:  0.000000
    CORREC:  cpu time    0.0004: real time    0.0007
    --------------------------------------------
      LOOP:  cpu time    1.7186: real time    1.7402

 eigenvalue-minimisations  :  1008
 total energy-change (2. order) :-0.1155390E+00  (-0.1155390E+00)
 number of electron       4.0000000 magnetization      -0.0000000
 augmentation part        4.0000000 magnetization      -0.0000000

 Free energy of the ion-electron system (eV)
  ---------------------------------------------------
  alpha Z        PSCENC =         2.52703488
  Ewald energy   TEWEN  =       -94.29113762
  -Hartree energ DENC   =       -36.40038319
  -exchange      EXHF   =         0.00000000
  -V(xc)+E(xc)   XCENC  =        17.69212515
  PAW double counting   =        83.53052238      -98.21058332
  entropy T*S    EENTRO =         0.00000000
  eigenvalues    EBANDS =       -97.46621003
  atomic energy  EATOM  =       215.26843501
  ---------------------------------------------------
  free energy    TOTEN  =        -7.35019674 eV

  energy without entropy =       -7.35019674  energy(sigma->0) =       -7.35019674


--------------------------------------------------------------------------------------------------------




--------------------------------------- Iteration      1(   4)  ---------------------------------------


 BZINTS: Fermi energy: -0.328957;  4.000000 electrons
         Band energy: -97.467331;  BLOECHL correction:  0.000000
    TRIAL :  cpu time    1.6414: real time    1.6559
 BZINTS: Fermi energy: -0.328957;  4.000000 electrons
         Band energy: -97.467331;  BLOECHL correction:  0.000000
    CORREC:  cpu time    0.0005: real time    0.0009
    --------------------------------------------
      LOOP:  cpu time    1.6429: real time    1.6611

 eigenvalue-minimisations  :  1057
 total energy-change (2. order) :-0.1121168E-02  (-0.1121168E-02)
 number of electron       4.0000000 magnetization      -0.0000000
 augmentation part        4.0000000 magnetization      -0.0000000

 Free energy of the ion-electron system (eV)
  ---------------------------------------------------
  alpha Z        PSCENC =         2.52703488
  Ewald energy   TEWEN  =       -94.29113762
  -Hartree energ DENC   =       -36.40038319
  -exchange      EXHF   =         0.00000000
  -V(xc)+E(xc)   XCENC  =        17.69212515
  PAW double counting   =        83.53052238      -98.21058332
  entropy T*S    EENTRO =         0.00000000
  eigenvalues    EBANDS =       -97.46733120
  atomic energy  EATOM  =       215.26843501
  ---------------------------------------------------
  free energy    TOTEN  =        -7.35131791 eV

  energy without entropy =       -7.35131791  energy(sigma->0) =       -7.35131791


--------------------------------------------------------------------------------------------------------




--------------------------------------- Iteration      1(   5)  ---------------------------------------


 BZINTS: Fermi energy: -0.394786;  4.000000 electrons
         Band energy: -97.467340;  BLOECHL correction:  0.000000
    TRIAL :  cpu time    1.6182: real time    1.6341
 BZINTS: Fermi energy: -0.394786;  4.000000 electrons
         Band energy: -97.467340;  BLOECHL correction:  0.000000
    CORREC:  cpu time    0.0005: real time    0.0009
    CHARGE:  cpu time    0.3136: real time    0.3162
    --------------------------------------------
      LOOP:  cpu time    1.9338: real time    1.9568

 eigenvalue-minimisations  :  1050
 total energy-change (2. order) :-0.8399558E-05  (-0.8399558E-05)
 number of electron       4.0000000 magnetization      -0.0000000
 augmentation part        0.9591682 magnetization      -0.0000058

 Free energy of the ion-electron system (eV)
  ---------------------------------------------------
  alpha Z        PSCENC =         2.52703488
  Ewald energy   TEWEN  =       -94.29113762
  -Hartree energ DENC   =       -36.40038319
  -exchange      EXHF   =         0.00000000
  -V(xc)+E(xc)   XCENC  =        17.69212515
  PAW double counting   =        83.53052238      -98.21058332
  entropy T*S    EENTRO =         0.00000000
  eigenvalues    EBANDS =       -97.46733960
  atomic energy  EATOM  =       215.26843501
  ---------------------------------------------------
  free energy    TOTEN  =        -7.35132631 eV

  energy without entropy =       -7.35132631  energy(sigma->0) =       -7.35132631


--------------------------------------------------------------------------------------------------------




--------------------------------------- Iteration      1(   6)  ---------------------------------------


    POTLOK:  cpu time    0.1315: real time    0.1326
    SETDIJ:  cpu time    0.5215: real time    0.5262
    TRIAL :  cpu time    1.2954: real time    1.3160
 BZINTS: Fermi energy: -0.281689;  4.000000 electrons
         Band energy: -97.319904;  BLOECHL correction:  0.000000
 BZINTS: Fermi energy: -0.212497;  4.000000 electrons
         Band energy: -96.893004;  BLOECHL correction:  0.000000
    CORREC:  cpu time    1.2998: real time    1.3116
    CHARGE:  cpu time    0.3172: real time    0.3199
    --------------------------------------------
      LOOP:  cpu time    3.5667: real time    3.6118

 eigenvalue-minimisations  :     0
 total energy-change (2. order) : 0.5232734E+00  (-0.2305998E-01)
 number of electron       4.0000000 magnetization       0.0000000
 augmentation part        0.9785301 magnetization       0.0000055

 Free energy of the ion-electron system (eV)
  ---------------------------------------------------
  alpha Z        PSCENC =         2.52703488
  Ewald energy   TEWEN  =       -94.29113762
  -Hartree energ DENC   =       -36.46768756
  -exchange      EXHF   =         0.00000000
  -V(xc)+E(xc)   XCENC  =        17.56632833
  PAW double counting   =        81.37838129      -96.26579594
  entropy T*S    EENTRO =         0.00000000
  eigenvalues    EBANDS =       -96.54361127
  atomic energy  EATOM  =       215.26843501
  ---------------------------------------------------
  free energy    TOTEN  =        -6.82805287 eV

  energy without entropy =       -6.82805287  energy(sigma->0) =       -6.82805287


--------------------------------------------------------------------------------------------------------




--------------------------------------- Iteration      1(   7)  ---------------------------------------


    POTLOK:  cpu time    0.1349: real time    0.1363
    SETDIJ:  cpu time    0.5202: real time    0.5250
    TRIAL :  cpu time    1.2999: real time    1.3122
 BZINTS: Fermi energy: -0.101518;  4.000000 electrons
         Band energy: -96.759728;  BLOECHL correction:  0.000000
 BZINTS: Fermi energy: -0.271444;  4.000000 electrons
         Band energy: -96.687313;  BLOECHL correction:  0.000000
    CORREC:  cpu time    1.2998: real time    1.3129
    CHARGE:  cpu time    0.3285: real time    0.3317
    --------------------------------------------
      LOOP:  cpu time    3.5845: real time    3.6231

 eigenvalue-minimisations  :     0
 total energy-change (2. order) :-0.1817620E-01  (-0.4122263E-02)
 number of electron       4.0000000 magnetization       0.0000000
 augmentation part        0.9847626 magnetization       0.0000052

 Free energy of the ion-electron system (eV)
  ---------------------------------------------------
  alpha Z        PSCENC =         2.52703488
  Ewald energy   TEWEN  =       -94.29113762
  -Hartree energ DENC   =       -36.34153165
  -exchange      EXHF   =         0.00000000
  -V(xc)+E(xc)   XCENC  =        17.57667414
  PAW double counting   =        80.13245998      -95.06824459
  entropy T*S    EENTRO =         0.00000000
  eigenvalues    EBANDS =       -96.64991923
  atomic energy  EATOM  =       215.26843501
  ---------------------------------------------------
  free energy    TOTEN  =        -6.84622908 eV

  energy without entropy =       -6.84622908  energy(sigma->0) =       -6.84622908


--------------------------------------------------------------------------------------------------------




--------------------------------------- Iteration      1(   8)  ---------------------------------------


    POTLOK:  cpu time    0.1324: real time    0.1334
    SETDIJ:  cpu time    0.5304: real time    0.5353
    TRIAL :  cpu time    1.4484: real time    1.4642
 BZINTS: Fermi energy: -0.224230;  4.000000 electrons
         Band energy: -96.650742;  BLOECHL correction:  0.000000
 BZINTS: Fermi energy: -0.189118;  4.000000 electrons
         Band energy: -96.623693;  BLOECHL correction:  0.000000
    CORREC:  cpu time    1.5274: real time    1.5495
    CHARGE:  cpu time    0.3413: real time    0.3492
    --------------------------------------------
      LOOP:  cpu time    3.9814: real time    4.0375

 eigenvalue-minimisations  :     0
 total energy-change (2. order) :-0.3952004E-02  (-0.2393819E-02)
 number of electron       4.0000000 magnetization       0.0000000
 augmentation part        0.9840435 magnetization       0.0000029

 Free energy of the ion-electron system (eV)
  ---------------------------------------------------
  alpha Z        PSCENC =         2.52703488
  Ewald energy   TEWEN  =       -94.29113762
  -Hartree energ DENC   =       -36.26020279
  -exchange      EXHF   =         0.00000000
  -V(xc)+E(xc)   XCENC  =        17.57151427
  PAW double counting   =        79.55757159      -94.44445702
  entropy T*S    EENTRO =         0.00000000
  eigenvalues    EBANDS =       -96.77893940
  atomic energy  EATOM  =       215.26843501
  ---------------------------------------------------
  free energy    TOTEN  =        -6.85018108 eV

  energy without entropy =       -6.85018108  energy(sigma->0) =       -6.85018108


--------------------------------------------------------------------------------------------------------




--------------------------------------- Iteration      1(   9)  ---------------------------------------


    POTLOK:  cpu time    0.1327: real time    0.1343
    SETDIJ:  cpu time    0.5203: real time    0.5256
    TRIAL :  cpu time    1.2848: real time    1.2964
 BZINTS: Fermi energy: -0.195130;  4.000000 electrons
         Band energy: -96.641910;  BLOECHL correction:  0.000000
 BZINTS: Fermi energy: -0.197238;  4.000000 electrons
         Band energy: -96.648302;  BLOECHL correction:  0.000000
    CORREC:  cpu time    1.3623: real time    1.3820
    CHARGE:  cpu time    0.3375: real time    0.3429
    --------------------------------------------
      LOOP:  cpu time    3.6391: real time    3.6881

 eigenvalue-minimisations  :     0
 total energy-change (2. order) :-0.2303931E-02  (-0.3389564E-03)
 number of electron       4.0000000 magnetization       0.0000000
 augmentation part        0.9821049 magnetization       0.0000004

 Free energy of the ion-electron system (eV)
  ---------------------------------------------------
  alpha Z        PSCENC =         2.52703488
  Ewald energy   TEWEN  =       -94.29113762
  -Hartree energ DENC   =       -36.28819911
  -exchange      EXHF   =         0.00000000
  -V(xc)+E(xc)   XCENC  =        17.57871000
  PAW double counting   =        79.38394582      -94.28027295
  entropy T*S    EENTRO =         0.00000000
  eigenvalues    EBANDS =       -96.75100104
  atomic energy  EATOM  =       215.26843501
  ---------------------------------------------------
  free energy    TOTEN  =        -6.85248501 eV

  energy without entropy =       -6.85248501  energy(sigma->0) =       -6.85248501


--------------------------------------------------------------------------------------------------------




--------------------------------------- Iteration      1(  10)  ---------------------------------------


    POTLOK:  cpu time    0.1311: real time    0.1321
    SETDIJ:  cpu time    0.5122: real time    0.5160
    TRIAL :  cpu time    1.3385: real time    1.3621
 BZINTS: Fermi energy:  0.021105;  4.000000 electrons
         Band energy: -96.660412;  BLOECHL correction:  0.000000
 BZINTS: Fermi energy:  0.014695;  4.000000 electrons
         Band energy: -96.666393;  BLOECHL correction:  0.000000
    CORREC:  cpu time    1.3204: real time    1.3365
    CHARGE:  cpu time    0.3449: real time    0.3483
    --------------------------------------------
      LOOP:  cpu time    3.6483: real time    3.7003

 eigenvalue-minimisations  :     0
 total energy-change (2. order) :-0.3318031E-03  (-0.8435121E-04)
 number of electron       4.0000000 magnetization      -0.0000000
 augmentation part        0.9810524 magnetization      -0.0000006

 Free energy of the ion-electron system (eV)
  ---------------------------------------------------
  alpha Z        PSCENC =         2.52703488
  Ewald energy   TEWEN  =       -94.29113762
  -Hartree energ DENC   =       -36.32181908
  -exchange      EXHF   =         0.00000000
  -V(xc)+E(xc)   XCENC  =        17.58404639
  PAW double counting   =        79.45447206      -94.38551656
  entropy T*S    EENTRO =         0.00000000
  eigenvalues    EBANDS =       -96.68833189
  atomic energy  EATOM  =       215.26843501
  ---------------------------------------------------
  free energy    TOTEN  =        -6.85281682 eV

  energy without entropy =       -6.85281682  energy(sigma->0) =       -6.85281682


--------------------------------------------------------------------------------------------------------




--------------------------------------- Iteration      1(  11)  ---------------------------------------


    POTLOK:  cpu time    0.1539: real time    0.1552
    SETDIJ:  cpu time    0.6058: real time    0.6115
    TRIAL :  cpu time    1.4968: real time    1.5186
 BZINTS: Fermi energy:  0.002218;  4.000000 electrons
         Band energy: -96.670518;  BLOECHL correction:  0.000000
 BZINTS: Fermi energy:  0.002193;  4.000000 electrons
         Band energy: -96.670526;  BLOECHL correction:  0.000000
    CORREC:  cpu time    1.4216: real time    1.4364
    CHARGE:  cpu time    0.3145: real time    0.3174
    --------------------------------------------
      LOOP:  cpu time    3.9940: real time    4.0447

 eigenvalue-minimisations  :     0
 total energy-change (2. order) :-0.8745231E-04  (-0.2515559E-04)
 number of electron       4.0000000 magnetization      -0.0000000
 augmentation part        0.9807365 magnetization      -0.0000005

 Free energy of the ion-electron system (eV)
  ---------------------------------------------------
  alpha Z        PSCENC =         2.52703488
  Ewald energy   TEWEN  =       -94.29113762
  -Hartree energ DENC   =       -36.33125144
  -exchange      EXHF   =         0.00000000
  -V(xc)+E(xc)   XCENC  =        17.58479187
  PAW double counting   =        79.51122703      -94.45679108
  entropy T*S    EENTRO =         0.00000000
  eigenvalues    EBANDS =       -96.66521291
  atomic energy  EATOM  =       215.26843501
  ---------------------------------------------------
  free energy    TOTEN  =        -6.85290427 eV

  energy without entropy =       -6.85290427  energy(sigma->0) =       -6.85290427


--------------------------------------------------------------------------------------------------------




--------------------------------------- Iteration      1(  12)  ---------------------------------------


    POTLOK:  cpu time    0.1334: real time    0.1349
    SETDIJ:  cpu time    0.5526: real time    0.5575
    TRIAL :  cpu time    1.3925: real time    1.4051
 BZINTS: Fermi energy: -0.007829;  4.000000 electrons
         Band energy: -96.670431;  BLOECHL correction:  0.000000
 BZINTS: Fermi energy: -0.005795;  4.000000 electrons
         Band energy: -96.670450;  BLOECHL correction:  0.000000
    CORREC:  cpu time    1.3763: real time    1.3887
    CHARGE:  cpu time    0.3326: real time    0.3346
    --------------------------------------------
      LOOP:  cpu time    3.7887: real time    3.8264

 eigenvalue-minimisations  :     0
 total energy-change (2. order) :-0.2517500E-04  (-0.9028238E-05)
 number of electron       4.0000000 magnetization      -0.0000000
 augmentation part        0.9806477 magnetization      -0.0000004

 Free energy of the ion-electron system (eV)
  ---------------------------------------------------
  alpha Z        PSCENC =         2.52703488
  Ewald energy   TEWEN  =       -94.29113762
  -Hartree energ DENC   =       -36.33162597
  -exchange      EXHF   =         0.00000000
  -V(xc)+E(xc)   XCENC  =        17.58420931
  PAW double counting   =        79.53198983      -94.47893203
  entropy T*S    EENTRO =         0.00000000
  eigenvalues    EBANDS =       -96.66290285
  atomic energy  EATOM  =       215.26843501
  ---------------------------------------------------
  free energy    TOTEN  =        -6.85292944 eV

  energy without entropy =       -6.85292944  energy(sigma->0) =       -6.85292944


--------------------------------------------------------------------------------------------------------




--------------------------------------- Iteration      1(  13)  ---------------------------------------


    POTLOK:  cpu time    0.1357: real time    0.1367
    SETDIJ:  cpu time    0.5484: real time    0.5521
    TRIAL :  cpu time    1.3986: real time    1.4152
 BZINTS: Fermi energy: -0.010114;  4.000000 electrons
         Band energy: -96.669180;  BLOECHL correction:  0.000000
 BZINTS: Fermi energy: -0.009706;  4.000000 electrons
         Band energy: -96.669299;  BLOECHL correction:  0.000000
    CORREC:  cpu time    1.4599: real time    1.4902
    EDDIAG:  cpu time    0.3846: real time    0.3926
    CHARGE:  cpu time    0.3574: real time    0.3644
    --------------------------------------------
      LOOP:  cpu time    4.2859: real time    4.3571

 eigenvalue-minimisations  :     0
 total energy-change (2. order) :-0.7956705E-05  (-0.2502074E-05)
 number of electron       4.0000000 magnetization      -0.0000000
 augmentation part        0.9806580 magnetization      -0.0000003

 Free energy of the ion-electron system (eV)
  ---------------------------------------------------
  alpha Z        PSCENC =         2.52703488
  Ewald energy   TEWEN  =       -94.29113762
  -Hartree energ DENC   =       -36.33096356
  -exchange      EXHF   =         0.00000000
  -V(xc)+E(xc)   XCENC  =        17.58368206
  PAW double counting   =        79.54050763      -94.48634587
  entropy T*S    EENTRO =         0.00000000
  eigenvalues    EBANDS =       -96.66414992
  atomic energy  EATOM  =       215.26843501
  ---------------------------------------------------
  free energy    TOTEN  =        -6.85293740 eV

  energy without entropy =       -6.85293740  energy(sigma->0) =       -6.85293740


--------------------------------------------------------------------------------------------------------


  average scaling for gradient   1.0513


 average (electrostatic) potential at core
  the test charge radii are     0.7079  0.5201
  (the norm of the test charge is              1.0000)
       1 -67.5611       2 -35.5786
 
 
 
 E-fermi :  -0.0097     XC(G=0):  -8.8628     alpha+bet :-11.0731


 spin component 1

 k-point     1 :       0.0000    0.0000    0.0000
  band No.  band energies     occupation 
      1     -45.8595      1.00000
      2      -5.6486      1.00000
      3      17.4758      0.00000
      4      19.2018      0.00000
      5      19.2019      0.00000
      6      19.2022      0.00000
      7      23.6652      0.00000

 k-point     2 :       0.1250    0.0000    0.0000
  band No.  band energies     occupation 
      1     -45.8528      1.00000
      2      -5.3676      1.00000
      3      14.8586      0.00000
      4      17.8697      0.00000
      5      18.5717      0.00000
      6      18.5719      0.00000
      7      23.6127      0.00000

 k-point     3 :       0.2500    0.0000    0.0000
  band No.  band energies     occupation 
      1     -45.8366      1.00000
      2      -4.5660      1.00000
      3      10.4368      0.00000
      4      16.2800      0.00000
      5      17.8391      0.00000
      6      17.8393      0.00000
      7      23.2146      0.00000

 k-point     4 :       0.3750    0.0000    0.0000
  band No.  band energies     occupation 
      1     -45.8203      1.00000
      2      -3.4657      1.00000
      3       6.9303      0.00000
      4      15.1645      0.00000
      5      17.7135      0.00000
      6      17.7138      0.00000
      7      20.7675      0.00000

 k-point     5 :       0.5000    0.0000    0.0000
  band No.  band energies     occupation 
      1     -45.8135      1.00000
      2      -2.8330      1.00000
      3       5.4749      0.00000
      4      14.7709      0.00000
      5      17.9511      0.00000
      6      17.9516      0.00000
      7      19.6566      0.00000

 k-point     6 :       0.1250    0.1250    0.0000
  band No.  band energies     occupation 
      1     -45.8506      1.00000
      2      -5.2663      1.00000
      3      15.3608      0.00000
      4      16.7033      0.00000
      5      16.7035      0.00000
      6      20.2803      0.00000
      7      20.4080      0.00000

 k-point     7 :       0.2500    0.1250    0.0000
  band No.  band energies     occupation 
      1     -45.8376      1.00000
      2      -4.6122      1.00000
      3      11.8398      0.00000
      4      14.8913      0.00000
      5      15.4802      0.00000
      6      19.6218      0.00000
      7      21.3402      0.00000

 k-point     8 :       0.3750    0.1250    0.0000
  band No.  band energies     occupation 
      1     -45.8214      1.00000
      2      -3.5373      1.00000
      3       7.9792      0.00000
      4      13.3255      0.00000
      5      15.0834      0.00000
      6      18.4132      0.00000
      7      23.1562      0.00000

 k-point     9 :       0.5000    0.1250    0.0000
  band No.  band energies     occupation 
      1     -45.8116      1.00000
      2      -2.5914      1.00000
      3       5.6960      0.00000
      4      12.3824      0.00000
      5      15.5496      0.00000
      6      17.3990      0.00000
      7      22.9325      0.00000

 k-point    10 :      -0.3750    0.1250    0.0000
  band No.  band energies     occupation 
      1     -45.8138      1.00000
      2      -2.8405      1.00000
      3       6.2358      0.00000
      4      12.1365      0.00000
      5      16.8699      0.00000
      6      16.9788      0.00000
      7      21.8129      0.00000

 k-point    11 :      -0.2500    0.1250    0.0000
  band No.  band energies     occupation 
      1     -45.8268      1.00000
      2      -3.9444      1.00000
      3       9.2474      0.00000
      4      12.5611      0.00000
      5      17.2933      0.00000
      6      18.8956      0.00000
      7      21.5748      0.00000

 k-point    12 :      -0.1250    0.1250    0.0000
  band No.  band energies     occupation 
      1     -45.8430      1.00000
      2      -4.9025      1.00000
      3      13.2225      0.00000
      4      13.9338      0.00000
      5      18.0730      0.00000
      6      20.0774      0.00000
      7      23.0292      0.00000

 k-point    13 :       0.2500    0.2500    0.0000
  band No.  band energies     occupation 
      1     -45.8293      1.00000
      2      -4.0817      1.00000
      3      11.1216      0.00000
      4      13.8920      0.00000
      5      13.8921      0.00000
      6      17.2884      0.00000
      7      19.4087      0.00000

 k-point    14 :       0.3750    0.2500    0.0000
  band No.  band energies     occupation 
      1     -45.8165      1.00000
      2      -3.0511      1.00000
      3       8.3285      0.00000
      4      11.4940      0.00000
      5      13.1713      0.00000
      6      18.0796      0.00000
      7      19.6328      0.00000

 k-point    15 :       0.5000    0.2500    0.0000
  band No.  band energies     occupation 
      1     -45.8068      1.00000
      2      -1.8981      1.00000
      3       5.9346      0.00000
      4       9.5852      0.00000
      5      13.3375      0.00000
      6      17.7332      0.00000
      7      22.9460      0.00000

 k-point    16 :      -0.3750    0.2500    0.0000
  band No.  band energies     occupation 
      1     -45.8057      1.00000
      2      -1.7651      1.00000
      3       5.7861      0.00000
      4       8.7352      0.00000
      5      14.3936      0.00000
      6      17.2912      0.00000
      7      26.1878      0.00000

 k-point    17 :      -0.2500    0.2500    0.0000
  band No.  band energies     occupation 
      1     -45.8140      1.00000
      2      -2.8480      1.00000
      3       8.1449      0.00000
      4       8.9384      0.00000
      5      16.3221      0.00000
      6      17.1895      0.00000
      7      24.3630      0.00000

 k-point    18 :       0.3750    0.3750    0.0000
  band No.  band energies     occupation 
      1     -45.8084      1.00000
      2      -2.0615      1.00000
      3       6.3063      0.00000
      4      12.1349      0.00000
      5      12.1350      0.00000
      6      15.4790      0.00000
      7      18.9854      0.00000

 k-point    19 :       0.5000    0.3750    0.0000
  band No.  band energies     occupation 
      1     -45.8019      1.00000
      2      -0.8797      1.00000
      3       4.5198      0.00000
      4       9.9906      0.00000
      5      11.9929      0.00000
      6      17.1502      0.00000
      7      19.2890      0.00000

 k-point    20 :      -0.3750    0.3750    0.0000
  band No.  band energies     occupation 
      1     -45.8008      1.00000
      2      -0.6991      1.00000
      3       4.5724      0.00000
      4       8.2034      0.00000
      5      12.7481      0.00000
      6      17.6631      0.00000
      7      22.5999      0.00000

 k-point    21 :       0.5000    0.5000    0.0000
  band No.  band energies     occupation 
      1     -45.7998      1.00000
      2      -0.1761      1.00000
      3       3.3748      0.00000
      4      11.5435      0.00000
      5      11.5436      0.00000
      6      14.8749      0.00000
      7      18.9906      0.00000

 k-point    22 :       0.3750    0.2500    0.1250
  band No.  band energies     occupation 
      1     -45.8248      1.00000
      2      -3.7766      1.00000
      3      10.2380      0.00000
      4      11.0488      0.00000
      5      15.2356      0.00000
      6      19.2591      0.00000
      7      21.3225      0.00000

 k-point    23 :       0.5000    0.2500    0.1250
  band No.  band energies     occupation 
      1     -45.8119      1.00000
      2      -2.6018      1.00000
      3       7.1144      0.00000
      4       9.7856      0.00000
      5      14.5399      0.00000
      6      18.2790      0.00000
      7      23.5811      0.00000

 k-point    24 :      -0.3750    0.2500    0.1250
  band No.  band energies     occupation 
      1     -45.8066      1.00000
      2      -1.8997      1.00000
      3       5.6192      0.00000
      4       9.4706      0.00000
      5      14.2800      0.00000
      6      17.8162      0.00000
      7      24.2498      0.00000

 k-point    25 :       0.5000    0.3750    0.1250
  band No.  band energies     occupation 
      1     -45.8070      1.00000
      2      -1.8979      1.00000
      3       6.4298      0.00000
      4       9.2696      0.00000
      5      12.8246      0.00000
      6      18.9915      0.00000
      7      19.5492      0.00000

 k-point    26 :      -0.3750    0.3750    0.1250
  band No.  band energies     occupation 
      1     -45.8016      1.00000
      2      -0.9474      1.00000
      3       5.2949      0.00000
      4       7.5529      0.00000
      5      12.9215      0.00000
      6      18.5343      0.00000
      7      23.0694      0.00000

 k-point    27 :      -0.2500    0.3750    0.1250
  band No.  band energies     occupation 
      1     -45.8037      1.00000
      2      -1.4052      1.00000
      3       6.3595      0.00000
      4       7.1022      0.00000
      5      13.5890      0.00000
      6      18.3090      0.00000
      7      26.0583      0.00000

 k-point    28 :      -0.3750    0.5000    0.1250
  band No.  band energies     occupation 
      1     -45.7996      1.00000
      2      -0.3026      1.00000
      3       3.9738      0.00000
      4       8.6729      0.00000
      5      12.1247      0.00000
      6      18.9528      0.00000
      7      19.0748      0.00000

 k-point    29 :      -0.2500    0.5000    0.2500
  band No.  band energies     occupation 
      1     -45.7995      1.00000
      2      -0.4232      1.00000
      3       5.7612      0.00000
      4       5.7614      0.00000
      5      12.7502      0.00000
      6      19.1944      0.00000
      7      25.4777      0.00000

 spin component 2

 k-point     1 :       0.0000    0.0000    0.0000
  band No.  band energies     occupation 
      1     -45.8595      1.00000
      2      -5.6486      1.00000
      3      17.4758      0.00000
      4      19.2018      0.00000
      5      19.2019      0.00000
      6      19.2022      0.00000
      7      23.6651      0.00000

 k-point     2 :       0.1250    0.0000    0.0000
  band No.  band energies     occupation 
      1     -45.8528      1.00000
      2      -5.3676      1.00000
      3      14.8586      0.00000
      4      17.8697      0.00000
      5      18.5717      0.00000
      6      18.5719      0.00000
      7      23.6127      0.00000

 k-point     3 :       0.2500    0.0000    0.0000
  band No.  band energies     occupation 
      1     -45.8366      1.00000
      2      -4.5660      1.00000
      3      10.4368      0.00000
      4      16.2800      0.00000
      5      17.8392      0.00000
      6      17.8392      0.00000
      7      23.2146      0.00000

 k-point     4 :       0.3750    0.0000    0.0000
  band No.  band energies     occupation 
      1     -45.8203      1.00000
      2      -3.4657      1.00000
      3       6.9303      0.00000
      4      15.1645      0.00000
      5      17.7132      0.00000
      6      17.7140      0.00000
      7      20.7676      0.00000

 k-point     5 :       0.5000    0.0000    0.0000
  band No.  band energies     occupation 
      1     -45.8135      1.00000
      2      -2.8330      1.00000
      3       5.4749      0.00000
      4      14.7709      0.00000
      5      17.9511      0.00000
      6      17.9516      0.00000
      7      19.6566      0.00000

 k-point     6 :       0.1250    0.1250    0.0000
  band No.  band energies     occupation 
      1     -45.8506      1.00000
      2      -5.2663      1.00000
      3      15.3608      0.00000
      4      16.7033      0.00000
      5      16.7035      0.00000
      6      20.2803      0.00000
      7      20.4080      0.00000

 k-point     7 :       0.2500    0.1250    0.0000
  band No.  band energies     occupation 
      1     -45.8376      1.00000
      2      -4.6122      1.00000
      3      11.8398      0.00000
      4      14.8914      0.00000
      5      15.4802      0.00000
      6      19.6218      0.00000
      7      21.3402      0.00000

 k-point     8 :       0.3750    0.1250    0.0000
  band No.  band energies     occupation 
      1     -45.8214      1.00000
      2      -3.5373      1.00000
      3       7.9792      0.00000
      4      13.3255      0.00000
      5      15.0834      0.00000
      6      18.4132      0.00000
      7      23.1557      0.00000

 k-point     9 :       0.5000    0.1250    0.0000
  band No.  band energies     occupation 
      1     -45.8116      1.00000
      2      -2.5914      1.00000
      3       5.6960      0.00000
      4      12.3824      0.00000
      5      15.5496      0.00000
      6      17.3990      0.00000
      7      22.9325      0.00000

 k-point    10 :      -0.3750    0.1250    0.0000
  band No.  band energies     occupation 
      1     -45.8138      1.00000
      2      -2.8405      1.00000
      3       6.2358      0.00000
      4      12.1365      0.00000
      5      16.8699      0.00000
      6      16.9788      0.00000
      7      21.8129      0.00000

 k-point    11 :      -0.2500    0.1250    0.0000
  band No.  band energies     occupation 
      1     -45.8268      1.00000
      2      -3.9444      1.00000
      3       9.2474      0.00000
      4      12.5611      0.00000
      5      17.2933      0.00000
      6      18.8956      0.00000
      7      21.5748      0.00000

 k-point    12 :      -0.1250    0.1250    0.0000
  band No.  band energies     occupation 
      1     -45.8430      1.00000
      2      -4.9025      1.00000
      3      13.2225      0.00000
      4      13.9338      0.00000
      5      18.0730      0.00000
      6      20.0774      0.00000
      7      23.0292      0.00000

 k-point    13 :       0.2500    0.2500    0.0000
  band No.  band energies     occupation 
      1     -45.8293      1.00000
      2      -4.0817      1.00000
      3      11.1216      0.00000
      4      13.8920      0.00000
      5      13.8921      0.00000
      6      17.2884      0.00000
      7      19.4087      0.00000

 k-point    14 :       0.3750    0.2500    0.0000
  band No.  band energies     occupation 
      1     -45.8165      1.00000
      2      -3.0511      1.00000
      3       8.3285      0.00000
      4      11.4940      0.00000
      5      13.1713      0.00000
      6      18.0796      0.00000
      7      19.6328      0.00000

 k-point    15 :       0.5000    0.2500    0.0000
  band No.  band energies     occupation 
      1     -45.8068      1.00000
      2      -1.8981      1.00000
      3       5.9346      0.00000
      4       9.5852      0.00000
      5      13.3375      0.00000
      6      17.7332      0.00000
      7      22.9460      0.00000

 k-point    16 :      -0.3750    0.2500    0.0000
  band No.  band energies     occupation 
      1     -45.8057      1.00000
      2      -1.7651      1.00000
      3       5.7861      0.00000
      4       8.7352      0.00000
      5      14.3936      0.00000
      6      17.2912      0.00000
      7      26.0717      0.00000

 k-point    17 :      -0.2500    0.2500    0.0000
  band No.  band energies     occupation 
      1     -45.8140      1.00000
      2      -2.8480      1.00000
      3       8.1449      0.00000
      4       8.9384      0.00000
      5      16.3221      0.00000
      6      17.1895      0.00000
      7      24.3630      0.00000

 k-point    18 :       0.3750    0.3750    0.0000
  band No.  band energies     occupation 
      1     -45.8084      1.00000
      2      -2.0615      1.00000
      3       6.3063      0.00000
      4      12.1349      0.00000
      5      12.1350      0.00000
      6      15.4790      0.00000
      7      18.9854      0.00000

 k-point    19 :       0.5000    0.3750    0.0000
  band No.  band energies     occupation 
      1     -45.8019      1.00000
      2      -0.8797      1.00000
      3       4.5198      0.00000
      4       9.9906      0.00000
      5      11.9929      0.00000
      6      17.1502      0.00000
      7      19.2890      0.00000

 k-point    20 :      -0.3750    0.3750    0.0000
  band No.  band energies     occupation 
      1     -45.8008      1.00000
      2      -0.6991      1.00000
      3       4.5724      0.00000
      4       8.2034      0.00000
      5      12.7481      0.00000
      6      17.6631      0.00000
      7      22.5999      0.00000

 k-point    21 :       0.5000    0.5000    0.0000
  band No.  band energies     occupation 
      1     -45.7998      1.00000
      2      -0.1761      1.00000
      3       3.3748      0.00000
      4      11.5435      0.00000
      5      11.5436      0.00000
      6      14.8749      0.00000
      7      18.9906      0.00000

 k-point    22 :       0.3750    0.2500    0.1250
  band No.  band energies     occupation 
      1     -45.8248      1.00000
      2      -3.7766      1.00000
      3      10.2380      0.00000
      4      11.0488      0.00000
      5      15.2356      0.00000
      6      19.2591      0.00000
      7      21.3225      0.00000

 k-point    23 :       0.5000    0.2500    0.1250
  band No.  band energies     occupation 
      1     -45.8119      1.00000
      2      -2.6018      1.00000
      3       7.1144      0.00000
      4       9.7856      0.00000
      5      14.5399      0.00000
      6      18.2790      0.00000
      7      23.5811      0.00000

 k-point    24 :      -0.3750    0.2500    0.1250
  band No.  band energies     occupation 
      1     -45.8066      1.00000
      2      -1.8997      1.00000
      3       5.6192      0.00000
      4       9.4706      0.00000
      5      14.2800      0.00000
      6      17.8162      0.00000
      7      24.2498      0.00000

 k-point    25 :       0.5000    0.3750    0.1250
  band No.  band energies     occupation 
      1     -45.8070      1.00000
      2      -1.8979      1.00000
      3       6.4299      0.00000
      4       9.2696      0.00000
      5      12.8246      0.00000
      6      18.9915      0.00000
      7      19.5492      0.00000

 k-point    26 :      -0.3750    0.3750    0.1250
  band No.  band energies     occupation 
      1     -45.8016      1.00000
      2      -0.9474      1.00000
      3       5.2949      0.00000
      4       7.5529      0.00000
      5      12.9215      0.00000
      6      18.5343      0.00000
      7      23.0694      0.00000

 k-point    27 :      -0.2500    0.3750    0.1250
  band No.  band energies     occupation 
      1     -45.8037      1.00000
      2      -1.4052      1.00000
      3       6.3595      0.00000
      4       7.1022      0.00000
      5      13.5890      0.00000
      6      18.3090      0.00000
      7      26.0581      0.00000

 k-point    28 :      -0.3750    0.5000    0.1250
  band No.  band energies     occupation 
      1     -45.7996      1.00000
      2      -0.3026      1.00000
      3       3.9738      0.00000
      4       8.6729      0.00000
      5      12.1247      0.00000
      6      18.9528      0.00000
      7      19.0748      0.00000

 k-point    29 :      -0.2500    0.5000    0.2500
  band No.  band energies     occupation 
      1     -45.7995      1.00000
      2      -0.4232      1.00000
      3       5.7612      0.00000
      4       5.7614      0.00000
      5      12.7502      0.00000
      6      19.1944      0.00000
      7      25.4777      0.00000


--------------------------------------------------------------------------------------------------------


 soft charge-density along one line, spin component           1
         0         1         2         3         4         5         6         7         8         9
 total charge-density along one line
 
 soft charge-density along one line, spin component           2
         0         1         2         3         4         5         6         7         8         9
 total charge-density along one line
 
 pseudopotential strength for first ion, spin component:           1
-40.903   2.858  -0.000   0.000   0.000
  2.858  -9.153  -0.000   0.000   0.000
 -0.000  -0.000   1.328   0.000   0.000
  0.000   0.000   0.000   1.328   0.000
  0.000   0.000   0.000   0.000   1.328
 pseudopotential strength for first ion, spin component:           2
-40.903   2.858  -0.000   0.000   0.000
  2.858  -9.153  -0.000   0.000   0.000
 -0.000  -0.000   1.328   0.000   0.000
  0.000   0.000   0.000   1.328   0.000
  0.000   0.000   0.000   0.000   1.328
 total augmentation occupancy for first ion, spin component:           1
  1.999  -0.035   0.000   0.000   0.000
 -0.035   0.626   0.000   0.000   0.000
  0.000   0.000   0.009   0.000   0.000
  0.000   0.000   0.000   0.009   0.000
  0.000   0.000   0.000  -0.000   0.009
 total augmentation occupancy for first ion, spin component:           2
 -0.000  -0.000   0.000   0.000   0.000
 -0.000   0.000   0.000   0.000   0.000
  0.000   0.000  -0.000   0.000   0.000
  0.000   0.000   0.000  -0.000   0.000
  0.000   0.000   0.000   0.000  -0.000


------------------------ aborting loop because EDIFF is reached ----------------------------------------


 


 total charge     
 
# of ion       s       p       d       tot
------------------------------------------
    1        2.017   0.020   0.000   2.037
    2        0.556   0.002   0.000   0.558
--------------------------------------------------
tot          2.574   0.022   0.000   2.595
 


 magnetization (x)
 
# of ion       s       p       d       tot
------------------------------------------
    1       -0.000  -0.000   0.000  -0.000
    2        0.000   0.000   0.000   0.000
--------------------------------------------------
tot          0.000  -0.000   0.000   0.000
 
    FORLOC:  cpu time    0.0027: real time    0.0027
    FORNL :  cpu time    0.1822: real time    0.1873
    STRESS:  cpu time    5.7385: real time    5.8360
    OFIELD:  cpu time    0.0004: real time    0.0006

  FORCE on cell =-STRESS in cart. coord.  units (eV):
  Direction    XX          YY          ZZ          XY          YZ          ZX
  --------------------------------------------------------------------------------------
  Alpha Z     2.52703     2.52703     2.52703
  Ewald     -31.43039   -31.43039   -31.43039    -0.00000    -0.00000    -0.00000
  Hartree    12.11020    12.11020    12.11020     0.00000     0.00000     0.00000
  E(xc)     -19.43722   -19.43722   -19.43722    -0.00023    -0.00023    -0.00023
  Local     -15.18609   -15.18609   -15.18609    -0.00004    -0.00004    -0.00004
  n-local   -18.32733   -18.15811   -17.20895    -0.09952     0.17351    -0.09675
  augment    18.31773    18.31773    18.31773     0.00013     0.00011     0.00011
  Kinetic    48.51154    47.50934    50.60127    -3.86324     3.77170    -2.58007
  Fock        0.00000     0.00000     0.00000     0.00000     0.00000     0.00000
  -------------------------------------------------------------------------------------
  Total      -2.12281    -2.12281    -2.12281     0.00000     0.00000     0.00000
  in kB    -212.54240  -212.54240  -212.54240     0.00000     0.00000     0.00000
  external pressure =     -212.54 kB  Pullay stress =        0.00 kB


 VOLUME and BASIS-vectors are now :
 -----------------------------------------------------------------------------
  energy-cutoff  :      680.00
  volume of cell :       16.00
      direct lattice vectors                 reciprocal lattice vectors
     0.000000000  2.000087000  2.000087000    -0.249989125  0.249989125  0.249989125
     2.000087000  0.000000000  2.000087000     0.249989125 -0.249989125  0.249989125
     2.000087000  2.000087000  0.000000000     0.249989125  0.249989125 -0.249989125

  length of vectors
     2.828550161  2.828550161  2.828550161     0.432993867  0.432993867  0.432993867


 FORCES acting on ions:
    Electron-Ion                     Ewald-Force                    Non-Local-Force
 -----------------------------------------------------------------------------------------------
   -.157E-14 -.334E-14 0.136E-14   0.831E-16 -.117E-17 0.250E-16   -.165E-23 -.165E-23 0.662E-23
   0.322E-13 -.536E-13 -.218E-13   -.526E-16 0.230E-16 -.885E-16   -.414E-24 -.993E-23 0.194E-22
 -----------------------------------------------------------------------------------------------
   0.306E-13 -.569E-13 -.205E-13   0.305E-16 0.218E-16 -.635E-16   -.207E-23 -.116E-22 0.261E-22
 
 
 POSITION                                       TOTAL-FORCE (eV/Angst)
 -----------------------------------------------------------------------------------
      0.00000      0.00000      0.00000        -0.000000      0.000000      0.000000
      2.00009      2.00009      2.00009         0.000000     -0.000000     -0.000000
 -----------------------------------------------------------------------------------
    total drift:                                0.000000     -0.000000     -0.000000


--------------------------------------------------------------------------------------------------------



  FREE ENERGIE OF THE ION-ELECTRON SYSTEM (eV)
  ---------------------------------------------------
  free  energy   TOTEN  =        -6.85293740 eV

  energy  without entropy=       -6.85293740  energy(sigma->0) =       -6.85293740
 


--------------------------------------------------------------------------------------------------------


    POTLOK:  cpu time    0.6972: real time    0.7083


--------------------------------------------------------------------------------------------------------


     LOOP+:  cpu time   47.7156: real time   50.0355
    4ORBIT:  cpu time    0.0000: real time    0.0000
 


 total charge     
 
# of ion       s       p       d       tot
------------------------------------------
    1        2.017   0.020   0.000   2.037
    2        0.556   0.002   0.000   0.558
--------------------------------------------------
tot          2.574   0.022   0.000   2.595
 


 magnetization (x)
 
# of ion       s       p       d       tot
------------------------------------------
    1       -0.000  -0.000   0.000  -0.000
    2        0.000   0.000   0.000   0.000
--------------------------------------------------
tot          0.000  -0.000   0.000   0.000
 
 BZINTS: Fermi energy: -0.028421;  4.000000 electrons
         Band energy: -96.665403;  BLOECHL correction:  0.000000

 total amount of memory used by VASP MPI-rank0    74129. kBytes
=======================================================================

   base      :      30000. kBytes
   nonl-proj :       1552. kBytes
   fftplans  :      16524. kBytes
   grid      :      12993. kBytes
   one-center:          4. kBytes
   wavefun   :      13056. kBytes
 
  
  
 General timing and accounting informations for this job:
 ========================================================
  
                  Total CPU time used (sec):       53.186
                            User time (sec):       48.712
                          System time (sec):        4.474
                         Elapsed time (sec):       67.926
  
                   Maximum memory used (kb):   113844224.
                   Average memory used (kb):           0.
  
                          Minor page faults:       236697
                          Major page faults:          229
                 Voluntary context switches:       192580
