<?xml version="1.0" encoding="ISO-8859-1"?>
<modeling>
 <generator>
  <i name="program" type="string">vasp </i>
  <i name="version" type="string">5.4.4.18Apr17-6-g9f103f2a35  </i>
  <i name="subversion" type="string">(build Sep 10 2019 12:14:21) complex            parallel </i>
  <i name="platform" type="string">LinuxIFC </i>
  <i name="date" type="string">2020 07 30 </i>
  <i name="time" type="string">15:30:23 </i>
 </generator>
 <incar>
  <i type="string" name="PREC">accurate</i>
  <i type="string" name="ALGO"> All</i>
  <i type="logical" name="ADDGRID"> T  </i>
  <i type="int" name="ISPIN">     2</i>
  <i type="int" name="ICHARG">     1</i>
  <i type="int" name="NELM">   200</i>
  <i type="int" name="IBRION">     2</i>
  <i name="EDIFF">      0.00001000</i>
  <i name="EDIFFG">     -0.02000000</i>
  <i type="int" name="NSW">     0</i>
  <i type="int" name="ISIF">     3</i>
  <i name="ENCUT">    680.00000000</i>
  <v name="MAGMOM">      0.60000000      0.60000000</v>
  <i type="logical" name="LREAL"> F  </i>
  <i type="int" name="ISMEAR">    -5</i>
  <i name="SIGMA">      0.05000000</i>
  <i name="KSPACING">      0.35099344</i>
  <i type="logical" name="LWAVE"> F  </i>
  <i type="logical" name="LCHARG"> T  </i>
  <i type="logical" name="LVTOT"> T  </i>
  <i type="int" name="LORBIT">    11</i>
  <i type="logical" name="LELF"> T  </i>
  <i type="logical" name="LASPH"> T  </i>
  <i type="logical" name="LAECHG"> T  </i>
  <v type="int" name="KPOINT_BSE">    -1     0     0     0</v>
  <i type="int" name="NELM">   200</i>
  <i type="string" name="METAGGA"> Scan</i>
  <i type="logical" name="LASPH"> T  </i>
  <i type="int" name="LMIXTAU">    -1</i>
 </incar>
 <structure name="primitive_cell" >
  <crystal>
   <varray name="basis" >
    <v>       0.00000000       2.00008700       2.00008700 </v>
    <v>       2.00008700       0.00000000       2.00008700 </v>
    <v>       2.00008700       2.00008700       0.00000000 </v>
   </varray>
   <i name="volume">     16.00208809 </i>
   <varray name="rec_basis" >
    <v>      -0.24998913       0.24998913       0.24998913 </v>
    <v>       0.24998913      -0.24998913       0.24998913 </v>
    <v>       0.24998913       0.24998913      -0.24998913 </v>
   </varray>
  </crystal>
  <varray name="positions" >
   <v>       0.00000000       0.00000000       0.00000000 </v>
   <v>      -0.50000000      -0.50000000      -0.50000000 </v>
  </varray>
 </structure>
 <varray name="primitive_index" >
  <v type="int" >        1 </v>
  <v type="int" >        2 </v>
 </varray>
 <kpoints>
  <generation param="Gamma">
   <v type="int" name="divisions">       8        8        8 </v>
   <v name="usershift">      0.00000000       0.00000000       0.00000000 </v>
   <v name="genvec1">      0.12500000       0.00000000       0.00000000 </v>
   <v name="genvec2">      0.00000000       0.12500000       0.00000000 </v>
   <v name="genvec3">      0.00000000       0.00000000       0.12500000 </v>
   <v name="shift">      0.00000000       0.00000000       0.00000000 </v>
  </generation>
  <varray name="kpointlist" >
   <v>       0.00000000       0.00000000       0.00000000 </v>
   <v>       0.12500000       0.00000000       0.00000000 </v>
   <v>       0.25000000       0.00000000       0.00000000 </v>
   <v>       0.37500000       0.00000000       0.00000000 </v>
   <v>       0.50000000       0.00000000       0.00000000 </v>
   <v>       0.12500000       0.12500000       0.00000000 </v>
   <v>       0.25000000       0.12500000       0.00000000 </v>
   <v>       0.37500000       0.12500000       0.00000000 </v>
   <v>       0.50000000       0.12500000       0.00000000 </v>
   <v>      -0.37500000       0.12500000       0.00000000 </v>
   <v>      -0.25000000       0.12500000       0.00000000 </v>
   <v>      -0.12500000       0.12500000       0.00000000 </v>
   <v>       0.25000000       0.25000000       0.00000000 </v>
   <v>       0.37500000       0.25000000       0.00000000 </v>
   <v>       0.50000000       0.25000000       0.00000000 </v>
   <v>      -0.37500000       0.25000000       0.00000000 </v>
   <v>      -0.25000000       0.25000000       0.00000000 </v>
   <v>       0.37500000       0.37500000       0.00000000 </v>
   <v>       0.50000000       0.37500000       0.00000000 </v>
   <v>      -0.37500000       0.37500000       0.00000000 </v>
   <v>       0.50000000       0.50000000       0.00000000 </v>
   <v>       0.37500000       0.25000000       0.12500000 </v>
   <v>       0.50000000       0.25000000       0.12500000 </v>
   <v>      -0.37500000       0.25000000       0.12500000 </v>
   <v>       0.50000000       0.37500000       0.12500000 </v>
   <v>      -0.37500000       0.37500000       0.12500000 </v>
   <v>      -0.25000000       0.37500000       0.12500000 </v>
   <v>      -0.37500000       0.50000000       0.12500000 </v>
   <v>      -0.25000000       0.50000000       0.25000000 </v>
  </varray>
  <varray name="weights" >
   <v>       0.00195312 </v>
   <v>       0.01562500 </v>
   <v>       0.01562500 </v>
   <v>       0.01562500 </v>
   <v>       0.00781250 </v>
   <v>       0.01171875 </v>
   <v>       0.04687500 </v>
   <v>       0.04687500 </v>
   <v>       0.04687500 </v>
   <v>       0.04687500 </v>
   <v>       0.04687500 </v>
   <v>       0.02343750 </v>
   <v>       0.01171875 </v>
   <v>       0.04687500 </v>
   <v>       0.04687500 </v>
   <v>       0.04687500 </v>
   <v>       0.02343750 </v>
   <v>       0.01171875 </v>
   <v>       0.04687500 </v>
   <v>       0.02343750 </v>
   <v>       0.00585938 </v>
   <v>       0.04687500 </v>
   <v>       0.09375000 </v>
   <v>       0.04687500 </v>
   <v>       0.04687500 </v>
   <v>       0.09375000 </v>
   <v>       0.04687500 </v>
   <v>       0.02343750 </v>
   <v>       0.01171875 </v>
  </varray>
  <varray name="tetrahedronlist"  type="int" >
   <v type="int" >       24        1        2        2        6 </v>
   <v type="int" >       48        2        6        7       12 </v>
   <v type="int" >       48        2        3        7       12 </v>
   <v type="int" >       24        2        2        6       12 </v>
   <v type="int" >       48        3        7        8       11 </v>
   <v type="int" >       48        3        4        8       11 </v>
   <v type="int" >       48        3        7       11       12 </v>
   <v type="int" >       48        4        8        9       10 </v>
   <v type="int" >       48        4        5        9       10 </v>
   <v type="int" >       48        4        8       10       11 </v>
   <v type="int" >       48        5        9        9       10 </v>
   <v type="int" >       24        6        7        7       13 </v>
   <v type="int" >       24        6        7        7       12 </v>
   <v type="int" >       48        7       13       14       22 </v>
   <v type="int" >       48        7        8       14       22 </v>
   <v type="int" >       48        7        8       11       22 </v>
   <v type="int" >       24        7        7       13       22 </v>
   <v type="int" >       24        7        7       12       22 </v>
   <v type="int" >       48        7       11       12       22 </v>
   <v type="int" >       48        8       14       15       23 </v>
   <v type="int" >       48        8        9       15       23 </v>
   <v type="int" >       48        8        9       10       23 </v>
   <v type="int" >       48        8       14       22       23 </v>
   <v type="int" >       48        8       11       22       23 </v>
   <v type="int" >       48        8       10       11       23 </v>
   <v type="int" >       48        9       15       16       24 </v>
   <v type="int" >       48        9       10       16       24 </v>
   <v type="int" >       48        9        9       10       24 </v>
   <v type="int" >       48        9       15       23       24 </v>
   <v type="int" >       48        9       10       23       24 </v>
   <v type="int" >       48       10       16       17       23 </v>
   <v type="int" >       48       10       11       17       23 </v>
   <v type="int" >       48       10       16       23       24 </v>
   <v type="int" >       24       11       11       17       22 </v>
   <v type="int" >       24       11       11       12       22 </v>
   <v type="int" >       48       11       17       22       23 </v>
   <v type="int" >       24       13       14       14       18 </v>
   <v type="int" >       24       13       14       14       22 </v>
   <v type="int" >       48       14       18       19       25 </v>
   <v type="int" >       48       14       15       19       25 </v>
   <v type="int" >       48       14       15       23       25 </v>
   <v type="int" >       24       14       14       18       25 </v>
   <v type="int" >       24       14       14       22       25 </v>
   <v type="int" >       48       14       22       23       25 </v>
   <v type="int" >       48       15       19       20       26 </v>
   <v type="int" >       48       15       16       20       26 </v>
   <v type="int" >       48       15       16       24       26 </v>
   <v type="int" >       48       15       19       25       26 </v>
   <v type="int" >       48       15       23       25       26 </v>
   <v type="int" >       48       15       23       24       26 </v>
   <v type="int" >       24       16       16       20       27 </v>
   <v type="int" >       24       16       16       17       27 </v>
   <v type="int" >       48       16       17       23       27 </v>
   <v type="int" >       48       16       20       26       27 </v>
   <v type="int" >       48       16       24       26       27 </v>
   <v type="int" >       48       16       23       24       27 </v>
   <v type="int" >       24       17       23       23       27 </v>
   <v type="int" >       24       17       22       23       23 </v>
   <v type="int" >       24       18       19       19       21 </v>
   <v type="int" >       24       18       19       19       25 </v>
   <v type="int" >       48       19       19       21       28 </v>
   <v type="int" >       24       19       19       20       28 </v>
   <v type="int" >       48       19       20       26       28 </v>
   <v type="int" >       24       19       19       25       28 </v>
   <v type="int" >       48       19       25       26       28 </v>
   <v type="int" >       24       20       26       26       28 </v>
   <v type="int" >       24       20       26       26       27 </v>
   <v type="int" >       24       22       23       23       25 </v>
   <v type="int" >       48       23       25       26       27 </v>
   <v type="int" >       48       23       24       26       27 </v>
   <v type="int" >       24       23       23       25       27 </v>
   <v type="int" >       48       24       26       26       27 </v>
   <v type="int" >       24       25       26       26       28 </v>
   <v type="int" >       24       25       26       26       27 </v>
   <v type="int" >       48       26       26       28       29 </v>
   <v type="int" >       96       26       26       27       29 </v>
  </varray>
  <i name="volumeweight">      0.00032552 </i>
 </kpoints>
 <parameters>
  <separator name="general" >
   <i type="string" name="SYSTEM">unknown system</i>
   <i type="logical" name="LCOMPAT"> F  </i>
  </separator>
  <separator name="electronic" >
   <i type="string" name="PREC">accura</i>
   <i name="ENMAX">    680.00000000</i>
   <i name="ENAUG">    628.94500000</i>
   <i name="EDIFF">      0.00001000</i>
   <i type="int" name="IALGO">    58</i>
   <i type="int" name="IWAVPR">    10</i>
   <i type="int" name="NBANDS">     7</i>
   <i name="NELECT">      4.00000000</i>
   <i type="int" name="TURBO">     0</i>
   <i type="int" name="IRESTART">     0</i>
   <i type="int" name="NREBOOT">     0</i>
   <i type="int" name="NMIN">     0</i>
   <i name="EREF">      0.00000000</i>
   <separator name="electronic smearing" >
    <i type="int" name="ISMEAR">    -5</i>
    <i name="SIGMA">      0.05000000</i>
    <i name="KSPACING">      0.35099344</i>
    <i type="logical" name="KGAMMA"> T  </i>
   </separator>
   <separator name="electronic projectors" >
    <i type="logical" name="LREAL"> F  </i>
    <v name="ROPT">      0.00000000      0.00000000</v>
    <i type="int" name="LMAXPAW">  -100</i>
    <i type="int" name="LMAXMIX">     2</i>
    <i type="logical" name="NLSPLINE"> F  </i>
   </separator>
   <separator name="electronic startup" >
    <i type="int" name="ISTART">     0</i>
    <i type="int" name="ICHARG">     1</i>
    <i type="int" name="INIWAV">     1</i>
   </separator>
   <separator name="electronic spin" >
    <i type="int" name="ISPIN">     2</i>
    <i type="logical" name="LNONCOLLINEAR"> F  </i>
    <v name="MAGMOM">      0.60000000      0.60000000</v>
    <i name="NUPDOWN">     -1.00000000</i>
    <i type="logical" name="LSORBIT"> F  </i>
    <v name="SAXIS">      0.00000000      0.00000000      1.00000000</v>
    <i type="logical" name="LSPIRAL"> F  </i>
    <v name="QSPIRAL">      0.00000000      0.00000000      0.00000000</v>
    <i type="logical" name="LZEROZ"> F  </i>
   </separator>
   <separator name="electronic exchange-correlation" >
    <i type="logical" name="LASPH"> T  </i>
    <i type="logical" name="LMETAGGA"> F  </i>
   </separator>
   <separator name="electronic convergence" >
    <i type="int" name="NELM">   200</i>
    <i type="int" name="NELMDL">    -5</i>
    <i type="int" name="NELMIN">     2</i>
    <i name="ENINI">    680.00000000</i>
    <separator name="electronic convergence detail" >
     <i type="logical" name="LDIAG"> T  </i>
     <i type="logical" name="LSUBROT"> F  </i>
     <i name="WEIMIN">      0.00000000</i>
     <i name="EBREAK">      0.00000036</i>
     <i name="DEPER">      0.30000000</i>
     <i type="int" name="NRMM">     4</i>
     <i name="TIME">      0.40000000</i>
    </separator>
   </separator>
   <separator name="electronic mixer" >
    <i name="AMIX">      0.40000000</i>
    <i name="BMIX">      1.00000000</i>
    <i name="AMIN">      0.10000000</i>
    <i name="AMIX_MAG">      1.60000000</i>
    <i name="BMIX_MAG">      1.00000000</i>
    <separator name="electronic mixer details" >
     <i type="int" name="IMIX">     4</i>
     <i type="logical" name="MIXFIRST"> F  </i>
     <i type="int" name="MAXMIX">   -45</i>
     <i name="WC">    100.00000000</i>
     <i type="int" name="INIMIX">     1</i>
     <i type="int" name="MIXPRE">     1</i>
     <i type="int" name="MREMOVE">     5</i>
    </separator>
   </separator>
   <separator name="electronic dipolcorrection" >
    <i type="logical" name="LDIPOL"> F  </i>
    <i type="logical" name="LMONO"> F  </i>
    <i type="int" name="IDIPOL">     0</i>
    <i name="EPSILON">      1.00000000</i>
    <v name="DIPOL">   -100.00000000   -100.00000000   -100.00000000</v>
    <i name="EFIELD">      0.00000000</i>
   </separator>
  </separator>
  <separator name="grids" >
   <i type="int" name="NGX">    24</i>
   <i type="int" name="NGY">    24</i>
   <i type="int" name="NGZ">    24</i>
   <i type="int" name="NGXF">    48</i>
   <i type="int" name="NGYF">    48</i>
   <i type="int" name="NGZF">    48</i>
   <i type="logical" name="ADDGRID"> T  </i>
  </separator>
  <separator name="ionic" >
   <i type="int" name="NSW">     0</i>
   <i type="int" name="IBRION">    -1</i>
   <i type="int" name="MDALGO">     0</i>
   <i type="int" name="ISIF">     3</i>
   <i name="PSTRESS">      0.00000000</i>
   <i name="EDIFFG">     -0.02000000</i>
   <i type="int" name="NFREE">     1</i>
   <i name="POTIM">      0.50000000</i>
   <i name="SMASS">     -3.00000000</i>
   <i name="SCALEE">      1.00000000</i>
  </separator>
  <separator name="ionic md" >
   <i name="TEBEG">      0.00010000</i>
   <i name="TEEND">      0.00010000</i>
   <i type="int" name="NBLOCK">     1</i>
   <i type="int" name="KBLOCK">     1</i>
   <i type="int" name="NPACO">   256</i>
   <i name="APACO">     16.00000000</i>
  </separator>
  <separator name="symmetry" >
   <i type="int" name="ISYM">     2</i>
   <i name="SYMPREC">      0.00001000</i>
  </separator>
  <separator name="dos" >
   <i type="int" name="LORBIT">    11</i>
   <v name="RWIGS">     -1.00000000     -1.00000000</v>
   <i type="int" name="NEDOS">   301</i>
   <i name="EMIN">     10.00000000</i>
   <i name="EMAX">    -10.00000000</i>
   <i name="EFERMI">      0.00000000</i>
  </separator>
  <separator name="writing" >
   <i type="int" name="NWRITE">     2</i>
   <i type="logical" name="LWAVE"> F  </i>
   <i type="logical" name="LDOWNSAMPLE"> F  </i>
   <i type="logical" name="LCHARG"> T  </i>
   <i type="logical" name="LPARD"> F  </i>
   <i type="logical" name="LVTOT"> T  </i>
   <i type="logical" name="LVHAR"> F  </i>
   <i type="logical" name="LELF"> T  </i>
   <i type="logical" name="LOPTICS"> F  </i>
   <v name="STM">      0.00000000      0.00000000      0.00000000      0.00000000      0.00000000      0.00000000      0.00000000</v>
  </separator>
  <separator name="performance" >
   <i type="int" name="NPAR">     1</i>
   <i type="int" name="NSIM">     4</i>
   <i type="int" name="NBLK">    -1</i>
   <i type="logical" name="LPLANE"> T  </i>
   <i type="logical" name="LSCALAPACK"> F  </i>
   <i type="logical" name="LSCAAWARE"> F  </i>
   <i type="logical" name="LSCALU"> F  </i>
   <i type="logical" name="LASYNC"> F  </i>
   <i type="logical" name="LORBITALREAL"> F  </i>
  </separator>
  <separator name="miscellaneous" >
   <i type="int" name="IDIOT">     3</i>
   <i type="int" name="ISPECIAL">     0</i>
   <i type="logical" name="LMUSIC"> F  </i>
   <v name="POMASS">      7.01000000      1.00000000</v>
   <v name="DARWINR">      0.00000000      0.00000000</v>
   <v name="DARWINV">      1.00000000      1.00000000</v>
   <i type="logical" name="LCORR"> T  </i>
  </separator>
  <i type="logical" name="GGA_COMPAT"> T  </i>
  <i type="logical" name="LBERRY"> F  </i>
  <i type="int" name="ICORELEVEL">     0</i>
  <i type="logical" name="LDAU"> F  </i>
  <i type="int" name="I_CONSTRAINED_M">     0</i>
  <separator name="electronic exchange-correlation" >
   <i type="string" name="GGA">--</i>
   <i type="int" name="VOSKOWN">     0</i>
   <i type="logical" name="LHFCALC"> F  </i>
   <i type="string" name="PRECFOCK"></i>
   <i type="logical" name="LSYMGRAD"> F  </i>
   <i type="logical" name="LHFONE"> F  </i>
   <i type="logical" name="LRHFCALC"> F  </i>
   <i type="logical" name="LTHOMAS"> F  </i>
   <i type="logical" name="LMODELHF"> F  </i>
   <i name="ENCUT4O">     -1.00000000</i>
   <i type="int" name="EXXOEP">     0</i>
   <i type="int" name="FOURORBIT">     0</i>
   <i name="AEXX">      0.00000000</i>
   <i name="HFALPHA">      0.00000000</i>
   <i name="MCALPHA">      0.00000000</i>
   <i name="ALDAX">      1.00000000</i>
   <i name="AGGAX">      1.00000000</i>
   <i name="ALDAC">      1.00000000</i>
   <i name="AGGAC">      1.00000000</i>
   <i type="int" name="NKREDX">     1</i>
   <i type="int" name="NKREDY">     1</i>
   <i type="int" name="NKREDZ">     1</i>
   <i type="logical" name="SHIFTRED"> F  </i>
   <i type="logical" name="ODDONLY"> F  </i>
   <i type="logical" name="EVENONLY"> F  </i>
   <i type="int" name="LMAXFOCK">     0</i>
   <i type="int" name="NMAXFOCKAE">     0</i>
   <i type="logical" name="LFOCKAEDFT"> F  </i>
   <i name="HFSCREEN">      0.00000000</i>
   <i name="HFSCREENC">      0.00000000</i>
   <i type="int" name="NBANDSGWLOW">     0</i>
  </separator>
  <separator name="vdW DFT" >
   <i type="logical" name="LUSE_VDW"> F  </i>
   <i name="Zab_VDW">     -0.84910000</i>
   <i name="PARAM1">      0.12340000</i>
   <i name="PARAM2">      1.00000000</i>
   <i name="PARAM3">      0.00000000</i>
  </separator>
  <separator name="model GW" >
   <i type="int" name="MODEL_GW">     0</i>
   <i name="MODEL_EPS0">      4.80062643</i>
   <i name="MODEL_ALPHA">      1.00000000</i>
  </separator>
  <separator name="linear response parameters" >
   <i type="logical" name="LEPSILON"> F  </i>
   <i type="logical" name="LRPA"> F  </i>
   <i type="logical" name="LNABLA"> F  </i>
   <i type="logical" name="LVEL"> F  </i>
   <i type="int" name="KINTER">     0</i>
   <i name="CSHIFT">      0.10000000</i>
   <i name="OMEGAMAX">     -1.00000000</i>
   <i name="DEG_THRESHOLD">      0.00200000</i>
   <i name="RTIME">     -0.10000000</i>
   <i name="WPLASMAI">      0.00000000</i>
   <v name="DFIELD">      0.00000000      0.00000000      0.00000000</v>
   <v name="WPLASMA">      0.00000000      0.00000000      0.00000000      0.00000000      0.00000000      0.00000000      0.00000000      0.00000000      0.00000000</v>
  </separator>
  <separator name="orbital magnetization" >
   <i type="logical" name="NUCIND"> F  </i>
   <v name="MAGPOS">      0.00000000      0.00000000      0.00000000</v>
   <i type="logical" name="LNICSALL"> T  </i>
   <i type="logical" name="ORBITALMAG"> F  </i>
   <i type="logical" name="LMAGBLOCH"> F  </i>
   <i type="logical" name="LCHIMAG"> F  </i>
   <i type="logical" name="LGAUGE"> T  </i>
   <i type="int" name="MAGATOM">     0</i>
   <v name="MAGDIPOL">      0.00000000      0.00000000      0.00000000</v>
   <v name="AVECCONST">      0.00000000      0.00000000      0.00000000</v>
  </separator>
  <separator name="response functions" >
   <i type="logical" name="LADDER"> F  </i>
   <i type="logical" name="LRPAFORCE"> F  </i>
   <i type="logical" name="LFXC"> F  </i>
   <i type="logical" name="LHARTREE"> T  </i>
   <i type="int" name="IBSE">     0</i>
   <v type="int" name="KPOINT">    -1     0     0     0</v>
   <i type="logical" name="LTCTE"> F  </i>
   <i type="logical" name="LTETE"> F  </i>
   <i type="logical" name="LTRIPLET"> F  </i>
   <i type="logical" name="LFXCEPS"> F  </i>
   <i type="logical" name="LFXHEG"> F  </i>
   <i type="int" name="NATURALO">     2</i>
   <i type="logical" name="L2ORDER"> F  </i>
   <i type="logical" name="LMP2LT"> F  </i>
   <i type="logical" name="LUSEW"> F  </i>
   <i name="ENCUTGW">     -2.00000000</i>
   <i name="ENCUTGWSOFT">     -2.00000000</i>
   <i name="ENCUTLF">     -1.00000000</i>
   <i type="int" name="LMAXMP2">    -1</i>
   <i name="SCISSOR">      0.00000000</i>
   <i type="int" name="NOMEGA">     0</i>
   <i type="int" name="NOMEGAR">     0</i>
   <i type="int" name="NBANDSGW">    -1</i>
   <i type="int" name="NBANDSO">    -1</i>
   <i type="int" name="NBANDSV">    -1</i>
   <i type="int" name="NELM">   200</i>
   <i type="int" name="NELMHF">     1</i>
   <i type="int" name="DIM">     3</i>
   <i type="int" name="ANTIRES">     0</i>
   <i name="OMEGAMAX">    -30.00000000</i>
   <i name="OMEGAMIN">    -30.00000000</i>
   <i name="OMEGATL">   -200.00000000</i>
   <i type="int" name="OMEGAGRID">   140</i>
   <i name="CSHIFT">     -0.10000000</i>
   <i type="logical" name="SELFENERGY"> F  </i>
   <i type="logical" name="LSPECTRAL"> F  </i>
   <i type="logical" name="LSPECTRALGW"> F  </i>
   <i type="logical" name="LSINGLES"> F  </i>
   <i type="logical" name="LFERMIGW"> F  </i>
   <i type="logical" name="ODDONLYGW"> F  </i>
   <i type="logical" name="EVENONLYGW"> F  </i>
   <i type="int" name="NKREDLFX">     1</i>
   <i type="int" name="NKREDLFY">     1</i>
   <i type="int" name="NKREDLFZ">     1</i>
   <i type="int" name="MAXMEM">  2800</i>
   <i type="int" name="TELESCOPE">     0</i>
   <i type="int" name="TAUPAR">     1</i>
   <i type="int" name="OMEGAPAR">    -1</i>
   <i name="LAMBDA">      1.00000000</i>
  </separator>
  <separator name="External order field" >
   <i name="OFIELD_KAPPA">      0.00000000</i>
   <v name="OFIELD_K">      0.00000000      0.00000000      0.00000000</v>
   <i name="OFIELD_Q6_NEAR">      0.00000000</i>
   <i name="OFIELD_Q6_FAR">      0.00000000</i>
   <i name="OFIELD_A">      0.00000000</i>
  </separator>
 </parameters>
 <atominfo>
  <atoms>       2 </atoms>
  <types>       2 </types>
  <array name="atoms" >
   <dimension dim="1">ion</dimension>
   <field type="string">element</field>
   <field type="int">atomtype</field>
   <set>
    <rc><c>Li</c><c>   1</c></rc>
    <rc><c>H </c><c>   2</c></rc>
   </set>
  </array>
  <array name="atomtypes" >
   <dimension dim="1">type</dimension>
   <field type="int">atomspertype</field>
   <field type="string">element</field>
   <field>mass</field>
   <field>valence</field>
   <field type="string">pseudopotential</field>
   <set>
    <rc><c>   1</c><c>Li</c><c>      7.01000000</c><c>      3.00000000</c><c>  PAW_PBE Li_sv 10Sep2004               </c></rc>
    <rc><c>   1</c><c>H </c><c>      1.00000000</c><c>      1.00000000</c><c>  PAW_PBE H 15Jun2001                   </c></rc>
   </set>
  </array>
 </atominfo>
 <structure name="initialpos" >
  <crystal>
   <varray name="basis" >
    <v>       0.00000000       2.00008700       2.00008700 </v>
    <v>       2.00008700       0.00000000       2.00008700 </v>
    <v>       2.00008700       2.00008700       0.00000000 </v>
   </varray>
   <i name="volume">     16.00208809 </i>
   <varray name="rec_basis" >
    <v>      -0.24998913       0.24998913       0.24998913 </v>
    <v>       0.24998913      -0.24998913       0.24998913 </v>
    <v>       0.24998913       0.24998913      -0.24998913 </v>
   </varray>
  </crystal>
  <varray name="positions" >
   <v>       0.00000000       0.00000000       0.00000000 </v>
   <v>       0.50000000       0.50000000       0.50000000 </v>
  </varray>
 </structure>
 <calculation>
  <scstep>
   <time name="total">    2.13    2.16</time>
   <energy>
    <i name="alphaZ">      2.52703488 </i>
    <i name="ewald">    -94.29113762 </i>
    <i name="hartreedc">    -36.40038319 </i>
    <i name="XCdc">     17.69212515 </i>
    <i name="pawpsdc">     83.53052238 </i>
    <i name="pawaedc">    -98.21058332 </i>
    <i name="eentropy">      0.00000000 </i>
    <i name="bandstr">    -92.96724915 </i>
    <i name="atom">    215.26843501 </i>
    <i name="e_fr_energy">     -2.85123587 </i>
    <i name="e_wo_entrp">     -2.85123587 </i>
    <i name="e_0_energy">     -2.85123587 </i>
   </energy>
  </scstep>
  <scstep>
   <time name="total">    1.82    1.85</time>
   <energy>
    <i name="e_fr_energy">     -7.23465779 </i>
    <i name="e_wo_entrp">     -7.23465779 </i>
    <i name="e_0_energy">     -7.23465779 </i>
   </energy>
  </scstep>
  <scstep>
   <time name="total">    1.72    1.74</time>
   <energy>
    <i name="e_fr_energy">     -7.35019674 </i>
    <i name="e_wo_entrp">     -7.35019674 </i>
    <i name="e_0_energy">     -7.35019674 </i>
   </energy>
  </scstep>
  <scstep>
   <time name="total">    1.64    1.66</time>
   <energy>
    <i name="e_fr_energy">     -7.35131791 </i>
    <i name="e_wo_entrp">     -7.35131791 </i>
    <i name="e_0_energy">     -7.35131791 </i>
   </energy>
  </scstep>
  <scstep>
   <time name="total">    1.93    1.96</time>
   <energy>
    <i name="e_fr_energy">     -7.35132631 </i>
    <i name="e_wo_entrp">     -7.35132631 </i>
    <i name="e_0_energy">     -7.35132631 </i>
   </energy>
  </scstep>
  <scstep>
   <time name="total">    3.57    3.61</time>
   <energy>
    <i name="e_fr_energy">     -6.82805287 </i>
    <i name="e_wo_entrp">     -6.82805287 </i>
    <i name="e_0_energy">     -6.82805287 </i>
   </energy>
  </scstep>
  <scstep>
   <time name="total">    3.58    3.62</time>
   <energy>
    <i name="e_fr_energy">     -6.84622908 </i>
    <i name="e_wo_entrp">     -6.84622908 </i>
    <i name="e_0_energy">     -6.84622908 </i>
   </energy>
  </scstep>
  <scstep>
   <time name="total">    3.98    4.04</time>
   <energy>
    <i name="e_fr_energy">     -6.85018108 </i>
    <i name="e_wo_entrp">     -6.85018108 </i>
    <i name="e_0_energy">     -6.85018108 </i>
   </energy>
  </scstep>
  <scstep>
   <time name="total">    3.64    3.69</time>
   <energy>
    <i name="e_fr_energy">     -6.85248501 </i>
    <i name="e_wo_entrp">     -6.85248501 </i>
    <i name="e_0_energy">     -6.85248501 </i>
   </energy>
  </scstep>
  <scstep>
   <time name="total">    3.65    3.70</time>
   <energy>
    <i name="e_fr_energy">     -6.85281682 </i>
    <i name="e_wo_entrp">     -6.85281682 </i>
    <i name="e_0_energy">     -6.85281682 </i>
   </energy>
  </scstep>
  <scstep>
   <time name="total">    3.99    4.04</time>
   <energy>
    <i name="e_fr_energy">     -6.85290427 </i>
    <i name="e_wo_entrp">     -6.85290427 </i>
    <i name="e_0_energy">     -6.85290427 </i>
   </energy>
  </scstep>
  <scstep>
   <time name="total">    3.79    3.83</time>
   <energy>
    <i name="e_fr_energy">     -6.85292944 </i>
    <i name="e_wo_entrp">     -6.85292944 </i>
    <i name="e_0_energy">     -6.85292944 </i>
   </energy>
  </scstep>
  <scstep>
   <time name="total">    4.29    4.36</time>
   <energy>
    <i name="alphaZ">      2.52703488 </i>
    <i name="ewald">    -94.29113762 </i>
    <i name="hartreedc">    -36.33096356 </i>
    <i name="XCdc">     17.58368206 </i>
    <i name="pawpsdc">     79.54050763 </i>
    <i name="pawaedc">    -94.48634587 </i>
    <i name="eentropy">      0.00000000 </i>
    <i name="bandstr">    -96.66414992 </i>
    <i name="atom">    215.26843501 </i>
    <i name="e_fr_energy">     -6.85293740 </i>
    <i name="e_wo_entrp">     -6.85293740 </i>
    <i name="e_0_energy">     -6.85293740 </i>
   </energy>
  </scstep>
  <structure>
   <crystal>
    <varray name="basis" >
     <v>       0.00000000       2.00008700       2.00008700 </v>
     <v>       2.00008700       0.00000000       2.00008700 </v>
     <v>       2.00008700       2.00008700       0.00000000 </v>
    </varray>
    <i name="volume">     16.00208809 </i>
    <varray name="rec_basis" >
     <v>      -0.24998913       0.24998913       0.24998913 </v>
     <v>       0.24998913      -0.24998913       0.24998913 </v>
     <v>       0.24998913       0.24998913      -0.24998913 </v>
    </varray>
   </crystal>
   <varray name="positions" >
    <v>       0.00000000       0.00000000       0.00000000 </v>
    <v>       0.50000000       0.50000000       0.50000000 </v>
   </varray>
  </structure>
  <varray name="forces" >
   <v>      -0.00000000       0.00000000       0.00000000 </v>
   <v>       0.00000000      -0.00000000      -0.00000000 </v>
  </varray>
  <varray name="stress" >
   <v>    -212.54239633      -0.00000000       0.00000000 </v>
   <v>       0.00000000    -212.54239633       0.00000000 </v>
   <v>       0.00000000       0.00000000    -212.54239633 </v>
  </varray>
  <energy>
   <i name="e_fr_energy">     -6.85293740 </i>
   <i name="e_wo_entrp">     -6.85293740 </i>
   <i name="e_0_energy">      0.00000000 </i>
  </energy>
  <time name="totalsc">   47.72   50.04</time>
  <eigenvalues>
   <array>
    <dimension dim="1">band</dimension>
    <dimension dim="2">kpoint</dimension>
    <dimension dim="3">spin</dimension>
    <field>eigene</field>
    <field>occ</field>
    <set>
     <set comment="spin 1">
      <set comment="kpoint 1">
       <r>  -45.8595    1.0000 </r>
       <r>   -5.6486    1.0000 </r>
       <r>   17.4758    0.0000 </r>
       <r>   19.2018    0.0000 </r>
       <r>   19.2019    0.0000 </r>
       <r>   19.2022    0.0000 </r>
       <r>   23.6652    0.0000 </r>
      </set>
      <set comment="kpoint 2">
       <r>  -45.8528    1.0000 </r>
       <r>   -5.3676    1.0000 </r>
       <r>   14.8586    0.0000 </r>
       <r>   17.8697    0.0000 </r>
       <r>   18.5717    0.0000 </r>
       <r>   18.5719    0.0000 </r>
       <r>   23.6127    0.0000 </r>
      </set>
      <set comment="kpoint 3">
       <r>  -45.8366    1.0000 </r>
       <r>   -4.5660    1.0000 </r>
       <r>   10.4368    0.0000 </r>
       <r>   16.2800    0.0000 </r>
       <r>   17.8391    0.0000 </r>
       <r>   17.8393    0.0000 </r>
       <r>   23.2146    0.0000 </r>
      </set>
      <set comment="kpoint 4">
       <r>  -45.8203    1.0000 </r>
       <r>   -3.4657    1.0000 </r>
       <r>    6.9303    0.0000 </r>
       <r>   15.1645    0.0000 </r>
       <r>   17.7135    0.0000 </r>
       <r>   17.7138    0.0000 </r>
       <r>   20.7675    0.0000 </r>
      </set>
      <set comment="kpoint 5">
       <r>  -45.8135    1.0000 </r>
       <r>   -2.8330    1.0000 </r>
       <r>    5.4749    0.0000 </r>
       <r>   14.7709    0.0000 </r>
       <r>   17.9511    0.0000 </r>
       <r>   17.9516    0.0000 </r>
       <r>   19.6566    0.0000 </r>
      </set>
      <set comment="kpoint 6">
       <r>  -45.8506    1.0000 </r>
       <r>   -5.2663    1.0000 </r>
       <r>   15.3608    0.0000 </r>
       <r>   16.7033    0.0000 </r>
       <r>   16.7035    0.0000 </r>
       <r>   20.2803    0.0000 </r>
       <r>   20.4080    0.0000 </r>
      </set>
      <set comment="kpoint 7">
       <r>  -45.8376    1.0000 </r>
       <r>   -4.6122    1.0000 </r>
       <r>   11.8398    0.0000 </r>
       <r>   14.8913    0.0000 </r>
       <r>   15.4802    0.0000 </r>
       <r>   19.6218    0.0000 </r>
       <r>   21.3402    0.0000 </r>
      </set>
      <set comment="kpoint 8">
       <r>  -45.8214    1.0000 </r>
       <r>   -3.5373    1.0000 </r>
       <r>    7.9792    0.0000 </r>
       <r>   13.3255    0.0000 </r>
       <r>   15.0834    0.0000 </r>
       <r>   18.4132    0.0000 </r>
       <r>   23.1562    0.0000 </r>
      </set>
      <set comment="kpoint 9">
       <r>  -45.8116    1.0000 </r>
       <r>   -2.5914    1.0000 </r>
       <r>    5.6960    0.0000 </r>
       <r>   12.3824    0.0000 </r>
       <r>   15.5496    0.0000 </r>
       <r>   17.3990    0.0000 </r>
       <r>   22.9325    0.0000 </r>
      </set>
      <set comment="kpoint 10">
       <r>  -45.8138    1.0000 </r>
       <r>   -2.8405    1.0000 </r>
       <r>    6.2358    0.0000 </r>
       <r>   12.1365    0.0000 </r>
       <r>   16.8699    0.0000 </r>
       <r>   16.9788    0.0000 </r>
       <r>   21.8129    0.0000 </r>
      </set>
      <set comment="kpoint 11">
       <r>  -45.8268    1.0000 </r>
       <r>   -3.9444    1.0000 </r>
       <r>    9.2474    0.0000 </r>
       <r>   12.5611    0.0000 </r>
       <r>   17.2933    0.0000 </r>
       <r>   18.8956    0.0000 </r>
       <r>   21.5748    0.0000 </r>
      </set>
      <set comment="kpoint 12">
       <r>  -45.8430    1.0000 </r>
       <r>   -4.9025    1.0000 </r>
       <r>   13.2225    0.0000 </r>
       <r>   13.9338    0.0000 </r>
       <r>   18.0730    0.0000 </r>
       <r>   20.0774    0.0000 </r>
       <r>   23.0292    0.0000 </r>
      </set>
      <set comment="kpoint 13">
       <r>  -45.8293    1.0000 </r>
       <r>   -4.0817    1.0000 </r>
       <r>   11.1216    0.0000 </r>
       <r>   13.8920    0.0000 </r>
       <r>   13.8921    0.0000 </r>
       <r>   17.2884    0.0000 </r>
       <r>   19.4087    0.0000 </r>
      </set>
      <set comment="kpoint 14">
       <r>  -45.8165    1.0000 </r>
       <r>   -3.0511    1.0000 </r>
       <r>    8.3285    0.0000 </r>
       <r>   11.4940    0.0000 </r>
       <r>   13.1713    0.0000 </r>
       <r>   18.0796    0.0000 </r>
       <r>   19.6328    0.0000 </r>
      </set>
      <set comment="kpoint 15">
       <r>  -45.8068    1.0000 </r>
       <r>   -1.8981    1.0000 </r>
       <r>    5.9346    0.0000 </r>
       <r>    9.5852    0.0000 </r>
       <r>   13.3375    0.0000 </r>
       <r>   17.7332    0.0000 </r>
       <r>   22.9460    0.0000 </r>
      </set>
      <set comment="kpoint 16">
       <r>  -45.8057    1.0000 </r>
       <r>   -1.7651    1.0000 </r>
       <r>    5.7861    0.0000 </r>
       <r>    8.7352    0.0000 </r>
       <r>   14.3936    0.0000 </r>
       <r>   17.2912    0.0000 </r>
       <r>   26.1878    0.0000 </r>
      </set>
      <set comment="kpoint 17">
       <r>  -45.8140    1.0000 </r>
       <r>   -2.8480    1.0000 </r>
       <r>    8.1449    0.0000 </r>
       <r>    8.9384    0.0000 </r>
       <r>   16.3221    0.0000 </r>
       <r>   17.1895    0.0000 </r>
       <r>   24.3630    0.0000 </r>
      </set>
      <set comment="kpoint 18">
       <r>  -45.8084    1.0000 </r>
       <r>   -2.0615    1.0000 </r>
       <r>    6.3063    0.0000 </r>
       <r>   12.1349    0.0000 </r>
       <r>   12.1350    0.0000 </r>
       <r>   15.4790    0.0000 </r>
       <r>   18.9854    0.0000 </r>
      </set>
      <set comment="kpoint 19">
       <r>  -45.8019    1.0000 </r>
       <r>   -0.8797    1.0000 </r>
       <r>    4.5198    0.0000 </r>
       <r>    9.9906    0.0000 </r>
       <r>   11.9929    0.0000 </r>
       <r>   17.1502    0.0000 </r>
       <r>   19.2890    0.0000 </r>
      </set>
      <set comment="kpoint 20">
       <r>  -45.8008    1.0000 </r>
       <r>   -0.6991    1.0000 </r>
       <r>    4.5724    0.0000 </r>
       <r>    8.2034    0.0000 </r>
       <r>   12.7481    0.0000 </r>
       <r>   17.6631    0.0000 </r>
       <r>   22.5999    0.0000 </r>
      </set>
      <set comment="kpoint 21">
       <r>  -45.7998    1.0000 </r>
       <r>   -0.1761    1.0000 </r>
       <r>    3.3748    0.0000 </r>
       <r>   11.5435    0.0000 </r>
       <r>   11.5436    0.0000 </r>
       <r>   14.8749    0.0000 </r>
       <r>   18.9906    0.0000 </r>
      </set>
      <set comment="kpoint 22">
       <r>  -45.8248    1.0000 </r>
       <r>   -3.7766    1.0000 </r>
       <r>   10.2380    0.0000 </r>
       <r>   11.0488    0.0000 </r>
       <r>   15.2356    0.0000 </r>
       <r>   19.2591    0.0000 </r>
       <r>   21.3225    0.0000 </r>
      </set>
      <set comment="kpoint 23">
       <r>  -45.8119    1.0000 </r>
       <r>   -2.6018    1.0000 </r>
       <r>    7.1144    0.0000 </r>
       <r>    9.7856    0.0000 </r>
       <r>   14.5399    0.0000 </r>
       <r>   18.2790    0.0000 </r>
       <r>   23.5811    0.0000 </r>
      </set>
      <set comment="kpoint 24">
       <r>  -45.8066    1.0000 </r>
       <r>   -1.8997    1.0000 </r>
       <r>    5.6192    0.0000 </r>
       <r>    9.4706    0.0000 </r>
       <r>   14.2800    0.0000 </r>
       <r>   17.8162    0.0000 </r>
       <r>   24.2498    0.0000 </r>
      </set>
      <set comment="kpoint 25">
       <r>  -45.8070    1.0000 </r>
       <r>   -1.8979    1.0000 </r>
       <r>    6.4298    0.0000 </r>
       <r>    9.2696    0.0000 </r>
       <r>   12.8246    0.0000 </r>
       <r>   18.9915    0.0000 </r>
       <r>   19.5492    0.0000 </r>
      </set>
      <set comment="kpoint 26">
       <r>  -45.8016    1.0000 </r>
       <r>   -0.9474    1.0000 </r>
       <r>    5.2949    0.0000 </r>
       <r>    7.5529    0.0000 </r>
       <r>   12.9215    0.0000 </r>
       <r>   18.5343    0.0000 </r>
       <r>   23.0694    0.0000 </r>
      </set>
      <set comment="kpoint 27">
       <r>  -45.8037    1.0000 </r>
       <r>   -1.4052    1.0000 </r>
       <r>    6.3595    0.0000 </r>
       <r>    7.1022    0.0000 </r>
       <r>   13.5890    0.0000 </r>
       <r>   18.3090    0.0000 </r>
       <r>   26.0583    0.0000 </r>
      </set>
      <set comment="kpoint 28">
       <r>  -45.7996    1.0000 </r>
       <r>   -0.3026    1.0000 </r>
       <r>    3.9738    0.0000 </r>
       <r>    8.6729    0.0000 </r>
       <r>   12.1247    0.0000 </r>
       <r>   18.9528    0.0000 </r>
       <r>   19.0748    0.0000 </r>
      </set>
      <set comment="kpoint 29">
       <r>  -45.7995    1.0000 </r>
       <r>   -0.4232    1.0000 </r>
       <r>    5.7612    0.0000 </r>
       <r>    5.7614    0.0000 </r>
       <r>   12.7502    0.0000 </r>
       <r>   19.1944    0.0000 </r>
       <r>   25.4777    0.0000 </r>
      </set>
     </set>
     <set comment="spin 2">
      <set comment="kpoint 1">
       <r>  -45.8595    1.0000 </r>
       <r>   -5.6486    1.0000 </r>
       <r>   17.4758    0.0000 </r>
       <r>   19.2018    0.0000 </r>
       <r>   19.2019    0.0000 </r>
       <r>   19.2022    0.0000 </r>
       <r>   23.6651    0.0000 </r>
      </set>
      <set comment="kpoint 2">
       <r>  -45.8528    1.0000 </r>
       <r>   -5.3676    1.0000 </r>
       <r>   14.8586    0.0000 </r>
       <r>   17.8697    0.0000 </r>
       <r>   18.5717    0.0000 </r>
       <r>   18.5719    0.0000 </r>
       <r>   23.6127    0.0000 </r>
      </set>
      <set comment="kpoint 3">
       <r>  -45.8366    1.0000 </r>
       <r>   -4.5660    1.0000 </r>
       <r>   10.4368    0.0000 </r>
       <r>   16.2800    0.0000 </r>
       <r>   17.8392    0.0000 </r>
       <r>   17.8392    0.0000 </r>
       <r>   23.2146    0.0000 </r>
      </set>
      <set comment="kpoint 4">
       <r>  -45.8203    1.0000 </r>
       <r>   -3.4657    1.0000 </r>
       <r>    6.9303    0.0000 </r>
       <r>   15.1645    0.0000 </r>
       <r>   17.7132    0.0000 </r>
       <r>   17.7140    0.0000 </r>
       <r>   20.7676    0.0000 </r>
      </set>
      <set comment="kpoint 5">
       <r>  -45.8135    1.0000 </r>
       <r>   -2.8330    1.0000 </r>
       <r>    5.4749    0.0000 </r>
       <r>   14.7709    0.0000 </r>
       <r>   17.9511    0.0000 </r>
       <r>   17.9516    0.0000 </r>
       <r>   19.6566    0.0000 </r>
      </set>
      <set comment="kpoint 6">
       <r>  -45.8506    1.0000 </r>
       <r>   -5.2663    1.0000 </r>
       <r>   15.3608    0.0000 </r>
       <r>   16.7033    0.0000 </r>
       <r>   16.7035    0.0000 </r>
       <r>   20.2803    0.0000 </r>
       <r>   20.4080    0.0000 </r>
      </set>
      <set comment="kpoint 7">
       <r>  -45.8376    1.0000 </r>
       <r>   -4.6122    1.0000 </r>
       <r>   11.8398    0.0000 </r>
       <r>   14.8914    0.0000 </r>
       <r>   15.4802    0.0000 </r>
       <r>   19.6218    0.0000 </r>
       <r>   21.3402    0.0000 </r>
      </set>
      <set comment="kpoint 8">
       <r>  -45.8214    1.0000 </r>
       <r>   -3.5373    1.0000 </r>
       <r>    7.9792    0.0000 </r>
       <r>   13.3255    0.0000 </r>
       <r>   15.0834    0.0000 </r>
       <r>   18.4132    0.0000 </r>
       <r>   23.1557    0.0000 </r>
      </set>
      <set comment="kpoint 9">
       <r>  -45.8116    1.0000 </r>
       <r>   -2.5914    1.0000 </r>
       <r>    5.6960    0.0000 </r>
       <r>   12.3824    0.0000 </r>
       <r>   15.5496    0.0000 </r>
       <r>   17.3990    0.0000 </r>
       <r>   22.9325    0.0000 </r>
      </set>
      <set comment="kpoint 10">
       <r>  -45.8138    1.0000 </r>
       <r>   -2.8405    1.0000 </r>
       <r>    6.2358    0.0000 </r>
       <r>   12.1365    0.0000 </r>
       <r>   16.8699    0.0000 </r>
       <r>   16.9788    0.0000 </r>
       <r>   21.8129    0.0000 </r>
      </set>
      <set comment="kpoint 11">
       <r>  -45.8268    1.0000 </r>
       <r>   -3.9444    1.0000 </r>
       <r>    9.2474    0.0000 </r>
       <r>   12.5611    0.0000 </r>
       <r>   17.2933    0.0000 </r>
       <r>   18.8956    0.0000 </r>
       <r>   21.5748    0.0000 </r>
      </set>
      <set comment="kpoint 12">
       <r>  -45.8430    1.0000 </r>
       <r>   -4.9025    1.0000 </r>
       <r>   13.2225    0.0000 </r>
       <r>   13.9338    0.0000 </r>
       <r>   18.0730    0.0000 </r>
       <r>   20.0774    0.0000 </r>
       <r>   23.0292    0.0000 </r>
      </set>
      <set comment="kpoint 13">
       <r>  -45.8293    1.0000 </r>
       <r>   -4.0817    1.0000 </r>
       <r>   11.1216    0.0000 </r>
       <r>   13.8920    0.0000 </r>
       <r>   13.8921    0.0000 </r>
       <r>   17.2884    0.0000 </r>
       <r>   19.4087    0.0000 </r>
      </set>
      <set comment="kpoint 14">
       <r>  -45.8165    1.0000 </r>
       <r>   -3.0511    1.0000 </r>
       <r>    8.3285    0.0000 </r>
       <r>   11.4940    0.0000 </r>
       <r>   13.1713    0.0000 </r>
       <r>   18.0796    0.0000 </r>
       <r>   19.6328    0.0000 </r>
      </set>
      <set comment="kpoint 15">
       <r>  -45.8068    1.0000 </r>
       <r>   -1.8981    1.0000 </r>
       <r>    5.9346    0.0000 </r>
       <r>    9.5852    0.0000 </r>
       <r>   13.3375    0.0000 </r>
       <r>   17.7332    0.0000 </r>
       <r>   22.9460    0.0000 </r>
      </set>
      <set comment="kpoint 16">
       <r>  -45.8057    1.0000 </r>
       <r>   -1.7651    1.0000 </r>
       <r>    5.7861    0.0000 </r>
       <r>    8.7352    0.0000 </r>
       <r>   14.3936    0.0000 </r>
       <r>   17.2912    0.0000 </r>
       <r>   26.0717    0.0000 </r>
      </set>
      <set comment="kpoint 17">
       <r>  -45.8140    1.0000 </r>
       <r>   -2.8480    1.0000 </r>
       <r>    8.1449    0.0000 </r>
       <r>    8.9384    0.0000 </r>
       <r>   16.3221    0.0000 </r>
       <r>   17.1895    0.0000 </r>
       <r>   24.3630    0.0000 </r>
      </set>
      <set comment="kpoint 18">
       <r>  -45.8084    1.0000 </r>
       <r>   -2.0615    1.0000 </r>
       <r>    6.3063    0.0000 </r>
       <r>   12.1349    0.0000 </r>
       <r>   12.1350    0.0000 </r>
       <r>   15.4790    0.0000 </r>
       <r>   18.9854    0.0000 </r>
      </set>
      <set comment="kpoint 19">
       <r>  -45.8019    1.0000 </r>
       <r>   -0.8797    1.0000 </r>
       <r>    4.5198    0.0000 </r>
       <r>    9.9906    0.0000 </r>
       <r>   11.9929    0.0000 </r>
       <r>   17.1502    0.0000 </r>
       <r>   19.2890    0.0000 </r>
      </set>
      <set comment="kpoint 20">
       <r>  -45.8008    1.0000 </r>
       <r>   -0.6991    1.0000 </r>
       <r>    4.5724    0.0000 </r>
       <r>    8.2034    0.0000 </r>
       <r>   12.7481    0.0000 </r>
       <r>   17.6631    0.0000 </r>
       <r>   22.5999    0.0000 </r>
      </set>
      <set comment="kpoint 21">
       <r>  -45.7998    1.0000 </r>
       <r>   -0.1761    1.0000 </r>
       <r>    3.3748    0.0000 </r>
       <r>   11.5435    0.0000 </r>
       <r>   11.5436    0.0000 </r>
       <r>   14.8749    0.0000 </r>
       <r>   18.9906    0.0000 </r>
      </set>
      <set comment="kpoint 22">
       <r>  -45.8248    1.0000 </r>
       <r>   -3.7766    1.0000 </r>
       <r>   10.2380    0.0000 </r>
       <r>   11.0488    0.0000 </r>
       <r>   15.2356    0.0000 </r>
       <r>   19.2591    0.0000 </r>
       <r>   21.3225    0.0000 </r>
      </set>
      <set comment="kpoint 23">
       <r>  -45.8119    1.0000 </r>
       <r>   -2.6018    1.0000 </r>
       <r>    7.1144    0.0000 </r>
       <r>    9.7856    0.0000 </r>
       <r>   14.5399    0.0000 </r>
       <r>   18.2790    0.0000 </r>
       <r>   23.5811    0.0000 </r>
      </set>
      <set comment="kpoint 24">
       <r>  -45.8066    1.0000 </r>
       <r>   -1.8997    1.0000 </r>
       <r>    5.6192    0.0000 </r>
       <r>    9.4706    0.0000 </r>
       <r>   14.2800    0.0000 </r>
       <r>   17.8162    0.0000 </r>
       <r>   24.2498    0.0000 </r>
      </set>
      <set comment="kpoint 25">
       <r>  -45.8070    1.0000 </r>
       <r>   -1.8979    1.0000 </r>
       <r>    6.4299    0.0000 </r>
       <r>    9.2696    0.0000 </r>
       <r>   12.8246    0.0000 </r>
       <r>   18.9915    0.0000 </r>
       <r>   19.5492    0.0000 </r>
      </set>
      <set comment="kpoint 26">
       <r>  -45.8016    1.0000 </r>
       <r>   -0.9474    1.0000 </r>
       <r>    5.2949    0.0000 </r>
       <r>    7.5529    0.0000 </r>
       <r>   12.9215    0.0000 </r>
       <r>   18.5343    0.0000 </r>
       <r>   23.0694    0.0000 </r>
      </set>
      <set comment="kpoint 27">
       <r>  -45.8037    1.0000 </r>
       <r>   -1.4052    1.0000 </r>
       <r>    6.3595    0.0000 </r>
       <r>    7.1022    0.0000 </r>
       <r>   13.5890    0.0000 </r>
       <r>   18.3090    0.0000 </r>
       <r>   26.0581    0.0000 </r>
      </set>
      <set comment="kpoint 28">
       <r>  -45.7996    1.0000 </r>
       <r>   -0.3026    1.0000 </r>
       <r>    3.9738    0.0000 </r>
       <r>    8.6729    0.0000 </r>
       <r>   12.1247    0.0000 </r>
       <r>   18.9528    0.0000 </r>
       <r>   19.0748    0.0000 </r>
      </set>
      <set comment="kpoint 29">
       <r>  -45.7995    1.0000 </r>
       <r>   -0.4232    1.0000 </r>
       <r>    5.7612    0.0000 </r>
       <r>    5.7614    0.0000 </r>
       <r>   12.7502    0.0000 </r>
       <r>   19.1944    0.0000 </r>
       <r>   25.4777    0.0000 </r>
      </set>
     </set>
    </set>
   </array>
  </eigenvalues>
  <separator name="orbital magnetization" >
   <v name="MAGDIPOLOUT">      0.00000000      0.00000000      0.00000000</v>
  </separator>
  <dos>
   <i name="efermi">     -0.02842138 </i>
   <total>
    <array>
     <dimension dim="1">gridpoints</dimension>
     <dimension dim="2">spin</dimension>
     <field>energy</field>
     <field>total</field>
     <field>integrated</field>
     <set>
      <set comment="spin 1">
       <r>   -49.4619     0.0000     0.0000 </r>
       <r>   -49.1977     0.0000     0.0000 </r>
       <r>   -48.9336     0.0000     0.0000 </r>
       <r>   -48.6694     0.0000     0.0000 </r>
       <r>   -48.4052     0.0000     0.0000 </r>
       <r>   -48.1410     0.0000     0.0000 </r>
       <r>   -47.8769     0.0000     0.0000 </r>
       <r>   -47.6127     0.0000     0.0000 </r>
       <r>   -47.3485     0.0000     0.0000 </r>
       <r>   -47.0844     0.0000     0.0000 </r>
       <r>   -46.8202     0.0000     0.0000 </r>
       <r>   -46.5560     0.0000     0.0000 </r>
       <r>   -46.2918     0.0000     0.0000 </r>
       <r>   -46.0277     0.0000     0.0000 </r>
       <r>   -45.7635     0.0000     1.0000 </r>
       <r>   -45.4993     0.0000     1.0000 </r>
       <r>   -45.2351     0.0000     1.0000 </r>
       <r>   -44.9710     0.0000     1.0000 </r>
       <r>   -44.7068     0.0000     1.0000 </r>
       <r>   -44.4426     0.0000     1.0000 </r>
       <r>   -44.1784     0.0000     1.0000 </r>
       <r>   -43.9143     0.0000     1.0000 </r>
       <r>   -43.6501     0.0000     1.0000 </r>
       <r>   -43.3859     0.0000     1.0000 </r>
       <r>   -43.1217     0.0000     1.0000 </r>
       <r>   -42.8576     0.0000     1.0000 </r>
       <r>   -42.5934     0.0000     1.0000 </r>
       <r>   -42.3292     0.0000     1.0000 </r>
       <r>   -42.0651     0.0000     1.0000 </r>
       <r>   -41.8009     0.0000     1.0000 </r>
       <r>   -41.5367     0.0000     1.0000 </r>
       <r>   -41.2725     0.0000     1.0000 </r>
       <r>   -41.0084     0.0000     1.0000 </r>
       <r>   -40.7442     0.0000     1.0000 </r>
       <r>   -40.4800     0.0000     1.0000 </r>
       <r>   -40.2158     0.0000     1.0000 </r>
       <r>   -39.9517     0.0000     1.0000 </r>
       <r>   -39.6875     0.0000     1.0000 </r>
       <r>   -39.4233     0.0000     1.0000 </r>
       <r>   -39.1591     0.0000     1.0000 </r>
       <r>   -38.8950     0.0000     1.0000 </r>
       <r>   -38.6308     0.0000     1.0000 </r>
       <r>   -38.3666     0.0000     1.0000 </r>
       <r>   -38.1024     0.0000     1.0000 </r>
       <r>   -37.8383     0.0000     1.0000 </r>
       <r>   -37.5741     0.0000     1.0000 </r>
       <r>   -37.3099     0.0000     1.0000 </r>
       <r>   -37.0458     0.0000     1.0000 </r>
       <r>   -36.7816     0.0000     1.0000 </r>
       <r>   -36.5174     0.0000     1.0000 </r>
       <r>   -36.2532     0.0000     1.0000 </r>
       <r>   -35.9891     0.0000     1.0000 </r>
       <r>   -35.7249     0.0000     1.0000 </r>
       <r>   -35.4607     0.0000     1.0000 </r>
       <r>   -35.1965     0.0000     1.0000 </r>
       <r>   -34.9324     0.0000     1.0000 </r>
       <r>   -34.6682     0.0000     1.0000 </r>
       <r>   -34.4040     0.0000     1.0000 </r>
       <r>   -34.1398     0.0000     1.0000 </r>
       <r>   -33.8757     0.0000     1.0000 </r>
       <r>   -33.6115     0.0000     1.0000 </r>
       <r>   -33.3473     0.0000     1.0000 </r>
       <r>   -33.0831     0.0000     1.0000 </r>
       <r>   -32.8190     0.0000     1.0000 </r>
       <r>   -32.5548     0.0000     1.0000 </r>
       <r>   -32.2906     0.0000     1.0000 </r>
       <r>   -32.0265     0.0000     1.0000 </r>
       <r>   -31.7623     0.0000     1.0000 </r>
       <r>   -31.4981     0.0000     1.0000 </r>
       <r>   -31.2339     0.0000     1.0000 </r>
       <r>   -30.9698     0.0000     1.0000 </r>
       <r>   -30.7056     0.0000     1.0000 </r>
       <r>   -30.4414     0.0000     1.0000 </r>
       <r>   -30.1772     0.0000     1.0000 </r>
       <r>   -29.9131     0.0000     1.0000 </r>
       <r>   -29.6489     0.0000     1.0000 </r>
       <r>   -29.3847     0.0000     1.0000 </r>
       <r>   -29.1205     0.0000     1.0000 </r>
       <r>   -28.8564     0.0000     1.0000 </r>
       <r>   -28.5922     0.0000     1.0000 </r>
       <r>   -28.3280     0.0000     1.0000 </r>
       <r>   -28.0638     0.0000     1.0000 </r>
       <r>   -27.7997     0.0000     1.0000 </r>
       <r>   -27.5355     0.0000     1.0000 </r>
       <r>   -27.2713     0.0000     1.0000 </r>
       <r>   -27.0072     0.0000     1.0000 </r>
       <r>   -26.7430     0.0000     1.0000 </r>
       <r>   -26.4788     0.0000     1.0000 </r>
       <r>   -26.2146     0.0000     1.0000 </r>
       <r>   -25.9505     0.0000     1.0000 </r>
       <r>   -25.6863     0.0000     1.0000 </r>
       <r>   -25.4221     0.0000     1.0000 </r>
       <r>   -25.1579     0.0000     1.0000 </r>
       <r>   -24.8938     0.0000     1.0000 </r>
       <r>   -24.6296     0.0000     1.0000 </r>
       <r>   -24.3654     0.0000     1.0000 </r>
       <r>   -24.1012     0.0000     1.0000 </r>
       <r>   -23.8371     0.0000     1.0000 </r>
       <r>   -23.5729     0.0000     1.0000 </r>
       <r>   -23.3087     0.0000     1.0000 </r>
       <r>   -23.0446     0.0000     1.0000 </r>
       <r>   -22.7804     0.0000     1.0000 </r>
       <r>   -22.5162     0.0000     1.0000 </r>
       <r>   -22.2520     0.0000     1.0000 </r>
       <r>   -21.9879     0.0000     1.0000 </r>
       <r>   -21.7237     0.0000     1.0000 </r>
       <r>   -21.4595     0.0000     1.0000 </r>
       <r>   -21.1953     0.0000     1.0000 </r>
       <r>   -20.9312     0.0000     1.0000 </r>
       <r>   -20.6670     0.0000     1.0000 </r>
       <r>   -20.4028     0.0000     1.0000 </r>
       <r>   -20.1386     0.0000     1.0000 </r>
       <r>   -19.8745     0.0000     1.0000 </r>
       <r>   -19.6103     0.0000     1.0000 </r>
       <r>   -19.3461     0.0000     1.0000 </r>
       <r>   -19.0819     0.0000     1.0000 </r>
       <r>   -18.8178     0.0000     1.0000 </r>
       <r>   -18.5536     0.0000     1.0000 </r>
       <r>   -18.2894     0.0000     1.0000 </r>
       <r>   -18.0253     0.0000     1.0000 </r>
       <r>   -17.7611     0.0000     1.0000 </r>
       <r>   -17.4969     0.0000     1.0000 </r>
       <r>   -17.2327     0.0000     1.0000 </r>
       <r>   -16.9686     0.0000     1.0000 </r>
       <r>   -16.7044     0.0000     1.0000 </r>
       <r>   -16.4402     0.0000     1.0000 </r>
       <r>   -16.1760     0.0000     1.0000 </r>
       <r>   -15.9119     0.0000     1.0000 </r>
       <r>   -15.6477     0.0000     1.0000 </r>
       <r>   -15.3835     0.0000     1.0000 </r>
       <r>   -15.1193     0.0000     1.0000 </r>
       <r>   -14.8552     0.0000     1.0000 </r>
       <r>   -14.5910     0.0000     1.0000 </r>
       <r>   -14.3268     0.0000     1.0000 </r>
       <r>   -14.0626     0.0000     1.0000 </r>
       <r>   -13.7985     0.0000     1.0000 </r>
       <r>   -13.5343     0.0000     1.0000 </r>
       <r>   -13.2701     0.0000     1.0000 </r>
       <r>   -13.0060     0.0000     1.0000 </r>
       <r>   -12.7418     0.0000     1.0000 </r>
       <r>   -12.4776     0.0000     1.0000 </r>
       <r>   -12.2134     0.0000     1.0000 </r>
       <r>   -11.9493     0.0000     1.0000 </r>
       <r>   -11.6851     0.0000     1.0000 </r>
       <r>   -11.4209     0.0000     1.0000 </r>
       <r>   -11.1567     0.0000     1.0000 </r>
       <r>   -10.8926     0.0000     1.0000 </r>
       <r>   -10.6284     0.0000     1.0000 </r>
       <r>   -10.3642     0.0000     1.0000 </r>
       <r>   -10.1000     0.0000     1.0000 </r>
       <r>    -9.8359     0.0000     1.0000 </r>
       <r>    -9.5717     0.0000     1.0000 </r>
       <r>    -9.3075     0.0000     1.0000 </r>
       <r>    -9.0433     0.0000     1.0000 </r>
       <r>    -8.7792     0.0000     1.0000 </r>
       <r>    -8.5150     0.0000     1.0000 </r>
       <r>    -8.2508     0.0000     1.0000 </r>
       <r>    -7.9867     0.0000     1.0000 </r>
       <r>    -7.7225     0.0000     1.0000 </r>
       <r>    -7.4583     0.0000     1.0000 </r>
       <r>    -7.1941     0.0000     1.0000 </r>
       <r>    -6.9300     0.0000     1.0000 </r>
       <r>    -6.6658     0.0000     1.0000 </r>
       <r>    -6.4016     0.0000     1.0000 </r>
       <r>    -6.1374     0.0000     1.0000 </r>
       <r>    -5.8733     0.0000     1.0000 </r>
       <r>    -5.6091     0.0012     1.0000 </r>
       <r>    -5.3449     0.0572     1.0071 </r>
       <r>    -5.0807     0.0714     1.0230 </r>
       <r>    -4.8166     0.0975     1.0454 </r>
       <r>    -4.5524     0.1083     1.0728 </r>
       <r>    -4.2882     0.1264     1.1037 </r>
       <r>    -4.0240     0.1461     1.1397 </r>
       <r>    -3.7599     0.1625     1.1806 </r>
       <r>    -3.4957     0.1819     1.2260 </r>
       <r>    -3.2315     0.2120     1.2778 </r>
       <r>    -2.9674     0.2504     1.3387 </r>
       <r>    -2.7032     0.3491     1.4160 </r>
       <r>    -2.4390     0.2927     1.4980 </r>
       <r>    -2.1748     0.2855     1.5743 </r>
       <r>    -1.9107     0.2771     1.6487 </r>
       <r>    -1.6465     0.2579     1.7181 </r>
       <r>    -1.3823     0.2487     1.7852 </r>
       <r>    -1.1181     0.2496     1.8505 </r>
       <r>    -0.8540     0.2597     1.9180 </r>
       <r>    -0.5898     0.1538     1.9785 </r>
       <r>    -0.3256     0.0176     1.9991 </r>
       <r>    -0.0614     0.0000     2.0000 </r>
       <r>     0.2027     0.0000     2.0000 </r>
       <r>     0.4669     0.0000     2.0000 </r>
       <r>     0.7311     0.0000     2.0000 </r>
       <r>     0.9953     0.0000     2.0000 </r>
       <r>     1.2594     0.0000     2.0000 </r>
       <r>     1.5236     0.0000     2.0000 </r>
       <r>     1.7878     0.0000     2.0000 </r>
       <r>     2.0519     0.0000     2.0000 </r>
       <r>     2.3161     0.0000     2.0000 </r>
       <r>     2.5803     0.0000     2.0000 </r>
       <r>     2.8445     0.0000     2.0000 </r>
       <r>     3.1086     0.0000     2.0000 </r>
       <r>     3.3728     0.0000     2.0000 </r>
       <r>     3.6370     0.0045     2.0004 </r>
       <r>     3.9012     0.0182     2.0032 </r>
       <r>     4.1653     0.0440     2.0110 </r>
       <r>     4.4295     0.0896     2.0282 </r>
       <r>     4.6937     0.0863     2.0517 </r>
       <r>     4.9579     0.1095     2.0775 </r>
       <r>     5.2220     0.1382     2.1101 </r>
       <r>     5.4862     0.2544     2.1592 </r>
       <r>     5.7504     0.6439     2.2666 </r>
       <r>     6.0146     0.3270     2.3847 </r>
       <r>     6.2787     0.2478     2.4586 </r>
       <r>     6.5429     0.2190     2.5199 </r>
       <r>     6.8071     0.2006     2.5752 </r>
       <r>     7.0712     0.1898     2.6266 </r>
       <r>     7.3354     0.1940     2.6768 </r>
       <r>     7.5996     0.2112     2.7303 </r>
       <r>     7.8638     0.2233     2.7877 </r>
       <r>     8.1279     0.2381     2.8485 </r>
       <r>     8.3921     0.2525     2.9135 </r>
       <r>     8.6563     0.2566     2.9810 </r>
       <r>     8.9205     0.2442     3.0473 </r>
       <r>     9.1846     0.2418     3.1115 </r>
       <r>     9.4488     0.2336     3.1744 </r>
       <r>     9.7130     0.2224     3.2346 </r>
       <r>     9.9772     0.2115     3.2922 </r>
       <r>    10.2413     0.2005     3.3466 </r>
       <r>    10.5055     0.1909     3.3983 </r>
       <r>    10.7697     0.1817     3.4475 </r>
       <r>    11.0339     0.1730     3.4943 </r>
       <r>    11.2980     0.1640     3.5389 </r>
       <r>    11.5622     0.1532     3.5808 </r>
       <r>    11.8264     0.1886     3.6241 </r>
       <r>    12.0905     0.2284     3.6839 </r>
       <r>    12.3547     0.2690     3.7488 </r>
       <r>    12.6189     0.3195     3.8265 </r>
       <r>    12.8831     0.3981     3.9190 </r>
       <r>    13.1472     0.3557     4.0224 </r>
       <r>    13.4114     0.3149     4.1099 </r>
       <r>    13.6756     0.3052     4.1914 </r>
       <r>    13.9398     0.2984     4.2712 </r>
       <r>    14.2039     0.2874     4.3487 </r>
       <r>    14.4681     0.2495     4.4209 </r>
       <r>    14.7323     0.2387     4.4849 </r>
       <r>    14.9965     0.2289     4.5470 </r>
       <r>    15.2606     0.2171     4.6058 </r>
       <r>    15.5248     0.2041     4.6614 </r>
       <r>    15.7890     0.1920     4.7137 </r>
       <r>    16.0531     0.1825     4.7631 </r>
       <r>    16.3173     0.1762     4.8104 </r>
       <r>    16.5815     0.1705     4.8563 </r>
       <r>    16.8457     0.1623     4.9003 </r>
       <r>    17.1098     0.1906     4.9435 </r>
       <r>    17.3740     0.4799     5.0275 </r>
       <r>    17.6382     0.5936     5.1737 </r>
       <r>    17.9024     0.5792     5.3284 </r>
       <r>    18.1665     0.6177     5.4872 </r>
       <r>    18.4307     0.5551     5.6424 </r>
       <r>    18.6949     0.4549     5.7799 </r>
       <r>    18.9591     0.2377     5.8732 </r>
       <r>    19.2232     0.3314     5.9462 </r>
       <r>    19.4874     0.2373     6.0199 </r>
       <r>    19.7516     0.1512     6.0693 </r>
       <r>    20.0158     0.1077     6.1036 </r>
       <r>    20.2799     0.0810     6.1271 </r>
       <r>    20.5441     0.0911     6.1498 </r>
       <r>    20.8083     0.1020     6.1753 </r>
       <r>    21.0724     0.1155     6.2039 </r>
       <r>    21.3366     0.1362     6.2367 </r>
       <r>    21.6008     0.2262     6.2866 </r>
       <r>    21.8650     0.2380     6.3481 </r>
       <r>    22.1291     0.2435     6.4118 </r>
       <r>    22.3933     0.2445     6.4763 </r>
       <r>    22.6575     0.2409     6.5406 </r>
       <r>    22.9217     0.2338     6.6033 </r>
       <r>    23.1858     0.2718     6.6756 </r>
       <r>    23.4500     0.2057     6.7380 </r>
       <r>    23.7142     0.1630     6.7864 </r>
       <r>    23.9784     0.1408     6.8264 </r>
       <r>    24.2425     0.1251     6.8614 </r>
       <r>    24.5067     0.1126     6.8928 </r>
       <r>    24.7709     0.0989     6.9208 </r>
       <r>    25.0351     0.0839     6.9449 </r>
       <r>    25.2992     0.0676     6.9650 </r>
       <r>    25.5634     0.0502     6.9806 </r>
       <r>    25.8276     0.0343     6.9917 </r>
       <r>    26.0917     0.0198     6.9989 </r>
       <r>    26.3559     0.0000     7.0000 </r>
       <r>    26.6201     0.0000     7.0000 </r>
       <r>    26.8843     0.0000     7.0000 </r>
       <r>    27.1484     0.0000     7.0000 </r>
       <r>    27.4126     0.0000     7.0000 </r>
       <r>    27.6768     0.0000     7.0000 </r>
       <r>    27.9410     0.0000     7.0000 </r>
       <r>    28.2051     0.0000     7.0000 </r>
       <r>    28.4693     0.0000     7.0000 </r>
       <r>    28.7335     0.0000     7.0000 </r>
       <r>    28.9977     0.0000     7.0000 </r>
       <r>    29.2618     0.0000     7.0000 </r>
       <r>    29.5260     0.0000     7.0000 </r>
       <r>    29.7902     0.0000     7.0000 </r>
      </set>
      <set comment="spin 2">
       <r>   -49.4619     0.0000     0.0000 </r>
       <r>   -49.1977     0.0000     0.0000 </r>
       <r>   -48.9336     0.0000     0.0000 </r>
       <r>   -48.6694     0.0000     0.0000 </r>
       <r>   -48.4052     0.0000     0.0000 </r>
       <r>   -48.1410     0.0000     0.0000 </r>
       <r>   -47.8769     0.0000     0.0000 </r>
       <r>   -47.6127     0.0000     0.0000 </r>
       <r>   -47.3485     0.0000     0.0000 </r>
       <r>   -47.0844     0.0000     0.0000 </r>
       <r>   -46.8202     0.0000     0.0000 </r>
       <r>   -46.5560     0.0000     0.0000 </r>
       <r>   -46.2918     0.0000     0.0000 </r>
       <r>   -46.0277     0.0000     0.0000 </r>
       <r>   -45.7635     0.0000     1.0000 </r>
       <r>   -45.4993     0.0000     1.0000 </r>
       <r>   -45.2351     0.0000     1.0000 </r>
       <r>   -44.9710     0.0000     1.0000 </r>
       <r>   -44.7068     0.0000     1.0000 </r>
       <r>   -44.4426     0.0000     1.0000 </r>
       <r>   -44.1784     0.0000     1.0000 </r>
       <r>   -43.9143     0.0000     1.0000 </r>
       <r>   -43.6501     0.0000     1.0000 </r>
       <r>   -43.3859     0.0000     1.0000 </r>
       <r>   -43.1217     0.0000     1.0000 </r>
       <r>   -42.8576     0.0000     1.0000 </r>
       <r>   -42.5934     0.0000     1.0000 </r>
       <r>   -42.3292     0.0000     1.0000 </r>
       <r>   -42.0651     0.0000     1.0000 </r>
       <r>   -41.8009     0.0000     1.0000 </r>
       <r>   -41.5367     0.0000     1.0000 </r>
       <r>   -41.2725     0.0000     1.0000 </r>
       <r>   -41.0084     0.0000     1.0000 </r>
       <r>   -40.7442     0.0000     1.0000 </r>
       <r>   -40.4800     0.0000     1.0000 </r>
       <r>   -40.2158     0.0000     1.0000 </r>
       <r>   -39.9517     0.0000     1.0000 </r>
       <r>   -39.6875     0.0000     1.0000 </r>
       <r>   -39.4233     0.0000     1.0000 </r>
       <r>   -39.1591     0.0000     1.0000 </r>
       <r>   -38.8950     0.0000     1.0000 </r>
       <r>   -38.6308     0.0000     1.0000 </r>
       <r>   -38.3666     0.0000     1.0000 </r>
       <r>   -38.1024     0.0000     1.0000 </r>
       <r>   -37.8383     0.0000     1.0000 </r>
       <r>   -37.5741     0.0000     1.0000 </r>
       <r>   -37.3099     0.0000     1.0000 </r>
       <r>   -37.0458     0.0000     1.0000 </r>
       <r>   -36.7816     0.0000     1.0000 </r>
       <r>   -36.5174     0.0000     1.0000 </r>
       <r>   -36.2532     0.0000     1.0000 </r>
       <r>   -35.9891     0.0000     1.0000 </r>
       <r>   -35.7249     0.0000     1.0000 </r>
       <r>   -35.4607     0.0000     1.0000 </r>
       <r>   -35.1965     0.0000     1.0000 </r>
       <r>   -34.9324     0.0000     1.0000 </r>
       <r>   -34.6682     0.0000     1.0000 </r>
       <r>   -34.4040     0.0000     1.0000 </r>
       <r>   -34.1398     0.0000     1.0000 </r>
       <r>   -33.8757     0.0000     1.0000 </r>
       <r>   -33.6115     0.0000     1.0000 </r>
       <r>   -33.3473     0.0000     1.0000 </r>
       <r>   -33.0831     0.0000     1.0000 </r>
       <r>   -32.8190     0.0000     1.0000 </r>
       <r>   -32.5548     0.0000     1.0000 </r>
       <r>   -32.2906     0.0000     1.0000 </r>
       <r>   -32.0265     0.0000     1.0000 </r>
       <r>   -31.7623     0.0000     1.0000 </r>
       <r>   -31.4981     0.0000     1.0000 </r>
       <r>   -31.2339     0.0000     1.0000 </r>
       <r>   -30.9698     0.0000     1.0000 </r>
       <r>   -30.7056     0.0000     1.0000 </r>
       <r>   -30.4414     0.0000     1.0000 </r>
       <r>   -30.1772     0.0000     1.0000 </r>
       <r>   -29.9131     0.0000     1.0000 </r>
       <r>   -29.6489     0.0000     1.0000 </r>
       <r>   -29.3847     0.0000     1.0000 </r>
       <r>   -29.1205     0.0000     1.0000 </r>
       <r>   -28.8564     0.0000     1.0000 </r>
       <r>   -28.5922     0.0000     1.0000 </r>
       <r>   -28.3280     0.0000     1.0000 </r>
       <r>   -28.0638     0.0000     1.0000 </r>
       <r>   -27.7997     0.0000     1.0000 </r>
       <r>   -27.5355     0.0000     1.0000 </r>
       <r>   -27.2713     0.0000     1.0000 </r>
       <r>   -27.0072     0.0000     1.0000 </r>
       <r>   -26.7430     0.0000     1.0000 </r>
       <r>   -26.4788     0.0000     1.0000 </r>
       <r>   -26.2146     0.0000     1.0000 </r>
       <r>   -25.9505     0.0000     1.0000 </r>
       <r>   -25.6863     0.0000     1.0000 </r>
       <r>   -25.4221     0.0000     1.0000 </r>
       <r>   -25.1579     0.0000     1.0000 </r>
       <r>   -24.8938     0.0000     1.0000 </r>
       <r>   -24.6296     0.0000     1.0000 </r>
       <r>   -24.3654     0.0000     1.0000 </r>
       <r>   -24.1012     0.0000     1.0000 </r>
       <r>   -23.8371     0.0000     1.0000 </r>
       <r>   -23.5729     0.0000     1.0000 </r>
       <r>   -23.3087     0.0000     1.0000 </r>
       <r>   -23.0446     0.0000     1.0000 </r>
       <r>   -22.7804     0.0000     1.0000 </r>
       <r>   -22.5162     0.0000     1.0000 </r>
       <r>   -22.2520     0.0000     1.0000 </r>
       <r>   -21.9879     0.0000     1.0000 </r>
       <r>   -21.7237     0.0000     1.0000 </r>
       <r>   -21.4595     0.0000     1.0000 </r>
       <r>   -21.1953     0.0000     1.0000 </r>
       <r>   -20.9312     0.0000     1.0000 </r>
       <r>   -20.6670     0.0000     1.0000 </r>
       <r>   -20.4028     0.0000     1.0000 </r>
       <r>   -20.1386     0.0000     1.0000 </r>
       <r>   -19.8745     0.0000     1.0000 </r>
       <r>   -19.6103     0.0000     1.0000 </r>
       <r>   -19.3461     0.0000     1.0000 </r>
       <r>   -19.0819     0.0000     1.0000 </r>
       <r>   -18.8178     0.0000     1.0000 </r>
       <r>   -18.5536     0.0000     1.0000 </r>
       <r>   -18.2894     0.0000     1.0000 </r>
       <r>   -18.0253     0.0000     1.0000 </r>
       <r>   -17.7611     0.0000     1.0000 </r>
       <r>   -17.4969     0.0000     1.0000 </r>
       <r>   -17.2327     0.0000     1.0000 </r>
       <r>   -16.9686     0.0000     1.0000 </r>
       <r>   -16.7044     0.0000     1.0000 </r>
       <r>   -16.4402     0.0000     1.0000 </r>
       <r>   -16.1760     0.0000     1.0000 </r>
       <r>   -15.9119     0.0000     1.0000 </r>
       <r>   -15.6477     0.0000     1.0000 </r>
       <r>   -15.3835     0.0000     1.0000 </r>
       <r>   -15.1193     0.0000     1.0000 </r>
       <r>   -14.8552     0.0000     1.0000 </r>
       <r>   -14.5910     0.0000     1.0000 </r>
       <r>   -14.3268     0.0000     1.0000 </r>
       <r>   -14.0626     0.0000     1.0000 </r>
       <r>   -13.7985     0.0000     1.0000 </r>
       <r>   -13.5343     0.0000     1.0000 </r>
       <r>   -13.2701     0.0000     1.0000 </r>
       <r>   -13.0060     0.0000     1.0000 </r>
       <r>   -12.7418     0.0000     1.0000 </r>
       <r>   -12.4776     0.0000     1.0000 </r>
       <r>   -12.2134     0.0000     1.0000 </r>
       <r>   -11.9493     0.0000     1.0000 </r>
       <r>   -11.6851     0.0000     1.0000 </r>
       <r>   -11.4209     0.0000     1.0000 </r>
       <r>   -11.1567     0.0000     1.0000 </r>
       <r>   -10.8926     0.0000     1.0000 </r>
       <r>   -10.6284     0.0000     1.0000 </r>
       <r>   -10.3642     0.0000     1.0000 </r>
       <r>   -10.1000     0.0000     1.0000 </r>
       <r>    -9.8359     0.0000     1.0000 </r>
       <r>    -9.5717     0.0000     1.0000 </r>
       <r>    -9.3075     0.0000     1.0000 </r>
       <r>    -9.0433     0.0000     1.0000 </r>
       <r>    -8.7792     0.0000     1.0000 </r>
       <r>    -8.5150     0.0000     1.0000 </r>
       <r>    -8.2508     0.0000     1.0000 </r>
       <r>    -7.9867     0.0000     1.0000 </r>
       <r>    -7.7225     0.0000     1.0000 </r>
       <r>    -7.4583     0.0000     1.0000 </r>
       <r>    -7.1941     0.0000     1.0000 </r>
       <r>    -6.9300     0.0000     1.0000 </r>
       <r>    -6.6658     0.0000     1.0000 </r>
       <r>    -6.4016     0.0000     1.0000 </r>
       <r>    -6.1374     0.0000     1.0000 </r>
       <r>    -5.8733     0.0000     1.0000 </r>
       <r>    -5.6091     0.0012     1.0000 </r>
       <r>    -5.3449     0.0572     1.0071 </r>
       <r>    -5.0807     0.0714     1.0230 </r>
       <r>    -4.8166     0.0975     1.0454 </r>
       <r>    -4.5524     0.1083     1.0728 </r>
       <r>    -4.2882     0.1264     1.1037 </r>
       <r>    -4.0240     0.1461     1.1397 </r>
       <r>    -3.7599     0.1625     1.1806 </r>
       <r>    -3.4957     0.1819     1.2260 </r>
       <r>    -3.2315     0.2120     1.2778 </r>
       <r>    -2.9674     0.2504     1.3387 </r>
       <r>    -2.7032     0.3491     1.4160 </r>
       <r>    -2.4390     0.2927     1.4980 </r>
       <r>    -2.1748     0.2855     1.5743 </r>
       <r>    -1.9107     0.2771     1.6487 </r>
       <r>    -1.6465     0.2579     1.7181 </r>
       <r>    -1.3823     0.2487     1.7852 </r>
       <r>    -1.1181     0.2496     1.8505 </r>
       <r>    -0.8540     0.2597     1.9180 </r>
       <r>    -0.5898     0.1538     1.9785 </r>
       <r>    -0.3256     0.0176     1.9991 </r>
       <r>    -0.0614     0.0000     2.0000 </r>
       <r>     0.2027     0.0000     2.0000 </r>
       <r>     0.4669     0.0000     2.0000 </r>
       <r>     0.7311     0.0000     2.0000 </r>
       <r>     0.9953     0.0000     2.0000 </r>
       <r>     1.2594     0.0000     2.0000 </r>
       <r>     1.5236     0.0000     2.0000 </r>
       <r>     1.7878     0.0000     2.0000 </r>
       <r>     2.0519     0.0000     2.0000 </r>
       <r>     2.3161     0.0000     2.0000 </r>
       <r>     2.5803     0.0000     2.0000 </r>
       <r>     2.8445     0.0000     2.0000 </r>
       <r>     3.1086     0.0000     2.0000 </r>
       <r>     3.3728     0.0000     2.0000 </r>
       <r>     3.6370     0.0045     2.0004 </r>
       <r>     3.9012     0.0182     2.0032 </r>
       <r>     4.1653     0.0440     2.0110 </r>
       <r>     4.4295     0.0896     2.0282 </r>
       <r>     4.6937     0.0863     2.0517 </r>
       <r>     4.9579     0.1095     2.0775 </r>
       <r>     5.2220     0.1382     2.1101 </r>
       <r>     5.4862     0.2544     2.1592 </r>
       <r>     5.7504     0.6440     2.2666 </r>
       <r>     6.0146     0.3270     2.3847 </r>
       <r>     6.2787     0.2478     2.4586 </r>
       <r>     6.5429     0.2190     2.5199 </r>
       <r>     6.8071     0.2006     2.5752 </r>
       <r>     7.0712     0.1898     2.6266 </r>
       <r>     7.3354     0.1940     2.6768 </r>
       <r>     7.5996     0.2112     2.7303 </r>
       <r>     7.8638     0.2233     2.7877 </r>
       <r>     8.1279     0.2381     2.8485 </r>
       <r>     8.3921     0.2525     2.9135 </r>
       <r>     8.6563     0.2566     2.9810 </r>
       <r>     8.9205     0.2442     3.0473 </r>
       <r>     9.1846     0.2418     3.1115 </r>
       <r>     9.4488     0.2336     3.1744 </r>
       <r>     9.7130     0.2224     3.2346 </r>
       <r>     9.9772     0.2115     3.2922 </r>
       <r>    10.2413     0.2005     3.3466 </r>
       <r>    10.5055     0.1909     3.3983 </r>
       <r>    10.7697     0.1817     3.4475 </r>
       <r>    11.0339     0.1730     3.4943 </r>
       <r>    11.2980     0.1640     3.5389 </r>
       <r>    11.5622     0.1532     3.5808 </r>
       <r>    11.8264     0.1886     3.6241 </r>
       <r>    12.0905     0.2284     3.6839 </r>
       <r>    12.3547     0.2690     3.7488 </r>
       <r>    12.6189     0.3195     3.8265 </r>
       <r>    12.8831     0.3981     3.9190 </r>
       <r>    13.1472     0.3557     4.0224 </r>
       <r>    13.4114     0.3149     4.1099 </r>
       <r>    13.6756     0.3052     4.1914 </r>
       <r>    13.9398     0.2984     4.2712 </r>
       <r>    14.2039     0.2874     4.3487 </r>
       <r>    14.4681     0.2495     4.4209 </r>
       <r>    14.7323     0.2387     4.4849 </r>
       <r>    14.9965     0.2289     4.5470 </r>
       <r>    15.2606     0.2171     4.6058 </r>
       <r>    15.5248     0.2041     4.6614 </r>
       <r>    15.7890     0.1920     4.7137 </r>
       <r>    16.0531     0.1825     4.7631 </r>
       <r>    16.3173     0.1762     4.8104 </r>
       <r>    16.5815     0.1705     4.8563 </r>
       <r>    16.8457     0.1623     4.9003 </r>
       <r>    17.1098     0.1906     4.9435 </r>
       <r>    17.3740     0.4798     5.0275 </r>
       <r>    17.6382     0.5936     5.1737 </r>
       <r>    17.9024     0.5792     5.3284 </r>
       <r>    18.1665     0.6177     5.4872 </r>
       <r>    18.4307     0.5551     5.6424 </r>
       <r>    18.6949     0.4549     5.7799 </r>
       <r>    18.9591     0.2377     5.8732 </r>
       <r>    19.2232     0.3314     5.9462 </r>
       <r>    19.4874     0.2373     6.0199 </r>
       <r>    19.7516     0.1512     6.0693 </r>
       <r>    20.0158     0.1077     6.1036 </r>
       <r>    20.2799     0.0810     6.1271 </r>
       <r>    20.5441     0.0911     6.1498 </r>
       <r>    20.8083     0.1020     6.1753 </r>
       <r>    21.0724     0.1155     6.2039 </r>
       <r>    21.3366     0.1362     6.2367 </r>
       <r>    21.6008     0.2262     6.2866 </r>
       <r>    21.8650     0.2380     6.3481 </r>
       <r>    22.1291     0.2436     6.4118 </r>
       <r>    22.3933     0.2446     6.4764 </r>
       <r>    22.6575     0.2411     6.5406 </r>
       <r>    22.9217     0.2344     6.6035 </r>
       <r>    23.1858     0.2729     6.6760 </r>
       <r>    23.4500     0.2072     6.7387 </r>
       <r>    23.7142     0.1646     6.7876 </r>
       <r>    23.9784     0.1424     6.8280 </r>
       <r>    24.2425     0.1264     6.8633 </r>
       <r>    24.5067     0.1135     6.8950 </r>
       <r>    24.7709     0.0994     6.9232 </r>
       <r>    25.0351     0.0839     6.9474 </r>
       <r>    25.2992     0.0672     6.9674 </r>
       <r>    25.5634     0.0494     6.9828 </r>
       <r>    25.8276     0.0331     6.9936 </r>
       <r>    26.0917     0.0000     7.0000 </r>
       <r>    26.3559     0.0000     7.0000 </r>
       <r>    26.6201     0.0000     7.0000 </r>
       <r>    26.8843     0.0000     7.0000 </r>
       <r>    27.1484     0.0000     7.0000 </r>
       <r>    27.4126     0.0000     7.0000 </r>
       <r>    27.6768     0.0000     7.0000 </r>
       <r>    27.9410     0.0000     7.0000 </r>
       <r>    28.2051     0.0000     7.0000 </r>
       <r>    28.4693     0.0000     7.0000 </r>
       <r>    28.7335     0.0000     7.0000 </r>
       <r>    28.9977     0.0000     7.0000 </r>
       <r>    29.2618     0.0000     7.0000 </r>
       <r>    29.5260     0.0000     7.0000 </r>
       <r>    29.7902     0.0000     7.0000 </r>
      </set>
     </set>
    </array>
   </total>
   <partial>
    <array>
     <dimension dim="1">gridpoints</dimension>
     <dimension dim="2">spin</dimension>
     <dimension dim="3">ion</dimension>
     <field>energy</field>
     <field>    s</field>
     <field>   py</field>
     <field>   pz</field>
     <field>   px</field>
     <field>  dxy</field>
     <field>  dyz</field>
     <field>  dz2</field>
     <field>  dxz</field>
     <field>x2-y2</field>
     <set>
      <set comment="ion 1">
       <set comment="spin 1">
        <r>   -49.4619     0.0000     0.0000     0.0000     0.0000     0.0000     0.0000     0.0000     0.0000     0.0000 </r>
        <r>   -49.1977     0.0000     0.0000     0.0000     0.0000     0.0000     0.0000     0.0000     0.0000     0.0000 </r>
        <r>   -48.9336     0.0000     0.0000     0.0000     0.0000     0.0000     0.0000     0.0000     0.0000     0.0000 </r>
        <r>   -48.6694     0.0000     0.0000     0.0000     0.0000     0.0000     0.0000     0.0000     0.0000     0.0000 </r>
        <r>   -48.4052     0.0000     0.0000     0.0000     0.0000     0.0000     0.0000     0.0000     0.0000     0.0000 </r>
        <r>   -48.1410     0.0000     0.0000     0.0000     0.0000     0.0000     0.0000     0.0000     0.0000     0.0000 </r>
        <r>   -47.8769     0.0000     0.0000     0.0000     0.0000     0.0000     0.0000     0.0000     0.0000     0.0000 </r>
        <r>   -47.6127     0.0000     0.0000     0.0000     0.0000     0.0000     0.0000     0.0000     0.0000     0.0000 </r>
        <r>   -47.3485     0.0000     0.0000     0.0000     0.0000     0.0000     0.0000     0.0000     0.0000     0.0000 </r>
        <r>   -47.0844     0.0000     0.0000     0.0000     0.0000     0.0000     0.0000     0.0000     0.0000     0.0000 </r>
[...]
       <set comment="band 1">
        <r>  0.9904  0.0000  0.0000  0.0000  0.0000  0.0000  0.0000  0.0000  0.0000 </r>
        <r>  0.0000  0.0000  0.0000  0.0000  0.0000  0.0000  0.0000  0.0000  0.0000 </r>
       </set>
       <set comment="band 2">
        <r>  0.0254  0.0000  0.0082  0.0000  0.0000  0.0000  0.0000  0.0000  0.0000 </r>
        <r>  0.2686  0.0000  0.0021  0.0000  0.0000  0.0000  0.0000  0.0000  0.0000 </r>
       </set>
       <set comment="band 3">
        <r>  0.0021  0.0000  0.0380  0.0000  0.0000  0.0000  0.0000  0.0000  0.0000 </r>
        <r>  0.1333  0.0000  0.0204  0.0000  0.0000  0.0000  0.0000  0.0000  0.0000 </r>
       </set>
       <set comment="band 4">
        <r>  0.0000  0.0560  0.0000  0.0562  0.0000  0.0000  0.0000  0.0000  0.0000 </r>
        <r>  0.0000  0.0187  0.0000  0.0187  0.0000  0.0000  0.0000  0.0000  0.0000 </r>
       </set>
       <set comment="band 5">
        <r>  0.0000  0.0562  0.0000  0.0560  0.0000  0.0000  0.0000  0.0000  0.0000 </r>
        <r>  0.0000  0.0187  0.0000  0.0187  0.0000  0.0000  0.0000  0.0000  0.0000 </r>
       </set>
       <set comment="band 6">
        <r>  0.0000  0.0000  0.0000  0.0000  0.0000  0.0000  0.0000  0.0000  0.0000 </r>
        <r>  0.0000  0.0000  0.0000  0.0000  0.0000  0.0000  0.0000  0.0000  0.0000 </r>
       </set>
       <set comment="band 7">
        <r>  0.3049  0.0000  0.0382  0.0000  0.0000  0.0000  0.0000  0.0000  0.0000 </r>
        <r>  0.0858  0.0000  0.0001  0.0000  0.0000  0.0000  0.0000  0.0000  0.0000 </r>
       </set>
      </set>
      <set comment="kpoint 19">
       <set comment="band 1">
        <r>  0.9908  0.0000  0.0000  0.0000  0.0000  0.0000  0.0000  0.0000  0.0000 </r>
        <r>  0.0000  0.0000  0.0000  0.0000  0.0000  0.0000  0.0000  0.0000  0.0000 </r>
       </set>
       <set comment="band 2">
        <r>  0.0135  0.0010  0.0048  0.0010  0.0000  0.0000  0.0000  0.0000  0.0000 </r>
        <r>  0.3280  0.0000  0.0013  0.0000  0.0000  0.0000  0.0000  0.0000  0.0000 </r>
       </set>
       <set comment="band 3">
        <r>  0.0009  0.0005  0.0444  0.0005  0.0000  0.0000  0.0000  0.0000  0.0000 </r>
        <r>  0.0568  0.0001  0.0199  0.0001  0.0000  0.0000  0.0000  0.0000  0.0000 </r>
       </set>
       <set comment="band 4">
        <r>  0.0237  0.0307  0.0010  0.0307  0.0000  0.0000  0.0000  0.0000  0.0000 </r>
        <r>  0.0049  0.0136  0.0001  0.0136  0.0000  0.0000  0.0000  0.0000  0.0000 </r>
       </set>
       <set comment="band 5">
        <r>  0.0000  0.0556  0.0000  0.0556  0.0000  0.0000  0.0000  0.0000  0.0000 </r>
        <r>  0.0000  0.0186  0.0000  0.0186  0.0000  0.0000  0.0000  0.0000  0.0000 </r>
       </set>
       <set comment="band 6">
        <r>  0.0746  0.0045  0.0021  0.0045  0.0000  0.0000  0.0000  0.0000  0.0000 </r>
        <r>  0.0100  0.0044  0.0000  0.0044  0.0000  0.0000  0.0000  0.0000  0.0000 </r>
       </set>
       <set comment="band 7">
        <r>  0.2149  0.0309  0.0072  0.0309  0.0000  0.0000  0.0000  0.0000  0.0000 </r>
        <r>  0.0957  0.0006  0.0000  0.0006  0.0000  0.0000  0.0000  0.0000  0.0000 </r>
       </set>
      </set>
      <set comment="kpoint 20">
       <set comment="band 1">
        <r>  0.9908  0.0000  0.0000  0.0000  0.0000  0.0000  0.0000  0.0000  0.0000 </r>
        <r>  0.0000  0.0000  0.0000  0.0000  0.0000  0.0000  0.0000  0.0000  0.0000 </r>
       </set>
       <set comment="band 2">
        <r>  0.0013  0.0045  0.0000  0.0045  0.0000  0.0000  0.0000  0.0000  0.0000 </r>
        <r>  0.3557  0.0001  0.0000  0.0001  0.0000  0.0000  0.0000  0.0000  0.0000 </r>
       </set>
       <set comment="band 3">
        <r>  0.0000  0.0000  0.0528  0.0000  0.0000  0.0000  0.0000  0.0000  0.0000 </r>
        <r>  0.0000  0.0000  0.0212  0.0000  0.0000  0.0000  0.0000  0.0000  0.0000 </r>
       </set>
       <set comment="band 4">
        <r>  0.0611  0.0143  0.0000  0.0143  0.0000  0.0000  0.0000  0.0000  0.0000 </r>
        <r>  0.0289  0.0124  0.0000  0.0124  0.0000  0.0000  0.0000  0.0000  0.0000 </r>
       </set>
       <set comment="band 5">
        <r>  0.0000  0.0573  0.0000  0.0573  0.0000  0.0000  0.0000  0.0000  0.0000 </r>
        <r>  0.0000  0.0183  0.0000  0.0183  0.0000  0.0000  0.0000  0.0000  0.0000 </r>
       </set>
       <set comment="band 6">
        <r>  0.2070  0.0156  0.0000  0.0156  0.0000  0.0000  0.0000  0.0000  0.0000 </r>
        <r>  0.0762  0.0024  0.0000  0.0024  0.0000  0.0000  0.0000  0.0000  0.0000 </r>
       </set>
       <set comment="band 7">
        <r>  0.0048  0.0610  0.0000  0.0610  0.0000  0.0000  0.0000  0.0000  0.0000 </r>
        <r>  0.0545  0.0031  0.0000  0.0031  0.0000  0.0000  0.0000  0.0000  0.0000 </r>
       </set>
      </set>
      <set comment="kpoint 21">
       <set comment="band 1">
        <r>  0.9909  0.0000  0.0000  0.0000  0.0000  0.0000  0.0000  0.0000  0.0000 </r>
        <r>  0.0000  0.0000  0.0000  0.0000  0.0000  0.0000  0.0000  0.0000  0.0000 </r>
       </set>
       <set comment="band 2">
        <r>  0.0152  0.0000  0.0000  0.0000  0.0000  0.0000  0.0000  0.0000  0.0000 </r>
        <r>  0.3882  0.0000  0.0000  0.0000  0.0000  0.0000  0.0000  0.0000  0.0000 </r>
       </set>
       <set comment="band 3">
        <r>  0.0000  0.0000  0.0504  0.0000  0.0000  0.0000  0.0000  0.0000  0.0000 </r>
        <r>  0.0000  0.0000  0.0207  0.0000  0.0000  0.0000  0.0000  0.0000  0.0000 </r>
       </set>
       <set comment="band 4">
        <r>  0.0000  0.0546  0.0000  0.0546  0.0000  0.0000  0.0000  0.0000  0.0000 </r>
        <r>  0.0000  0.0186  0.0000  0.0186  0.0000  0.0000  0.0000  0.0000  0.0000 </r>
       </set>
       <set comment="band 5">
        <r>  0.0000  0.0546  0.0000  0.0546  0.0000  0.0000  0.0000  0.0000  0.0000 </r>
        <r>  0.0000  0.0186  0.0000  0.0186  0.0000  0.0000  0.0000  0.0000  0.0000 </r>
       </set>
       <set comment="band 6">
        <r>  0.0000  0.0000  0.0000  0.0000  0.0000  0.0000  0.0000  0.0000  0.0000 </r>
        <r>  0.0000  0.0000  0.0000  0.0000  0.0000  0.0000  0.0000  0.0000  0.0000 </r>
       </set>
       <set comment="band 7">
        <r>  0.3526  0.0000  0.0000  0.0000  0.0000  0.0000  0.0000  0.0000  0.0000 </r>
        <r>  0.1025  0.0000  0.0000  0.0000  0.0000  0.0000  0.0000  0.0000  0.0000 </r>
       </set>
      </set>
      <set comment="kpoint 22">
       <set comment="band 1">
        <r>  0.9895  0.0000  0.0000  0.0000  0.0000  0.0000  0.0000  0.0000  0.0000 </r>
        <r>  0.0000  0.0000  0.0000  0.0000  0.0000  0.0000  0.0000  0.0000  0.0000 </r>
       </set>
       <set comment="band 2">
        <r>  0.0370  0.0019  0.0056  0.0000  0.0000  0.0000  0.0000  0.0000  0.0000 </r>
        <r>  0.2341  0.0001  0.0009  0.0000  0.0000  0.0000  0.0000  0.0000  0.0000 </r>
       </set>
       <set comment="band 3">
        <r>  0.0609  0.0089  0.0064  0.0000  0.0000  0.0000  0.0000  0.0000  0.0000 </r>
        <r>  0.1693  0.0078  0.0196  0.0000  0.0000  0.0000  0.0000  0.0000  0.0000 </r>
       </set>
       <set comment="band 4">
        <r>  0.0000  0.0000  0.0000  0.0758  0.0000  0.0000  0.0000  0.0000  0.0000 </r>
        <r>  0.0000  0.0000  0.0000  0.0260  0.0000  0.0000  0.0000  0.0000  0.0000 </r>
       </set>
       <set comment="band 5">
        <r>  0.0234  0.0614  0.0466  0.0000  0.0000  0.0000  0.0000  0.0000  0.0000 </r>
        <r>  0.0536  0.0267  0.0029  0.0000  0.0000  0.0000  0.0000  0.0000  0.0000 </r>
       </set>
       <set comment="band 6">
        <r>  0.0681  0.1163  0.0958  0.0000  0.0000  0.0000  0.0000  0.0000  0.0000 </r>
        <r>  0.0506  0.0000  0.0001  0.0000  0.0000  0.0000  0.0000  0.0000  0.0000 </r>
       </set>
       <set comment="band 7">
        <r>  0.0000  0.0000  0.0000  0.0549  0.0000  0.0000  0.0000  0.0000  0.0000 </r>
        <r>  0.0000  0.0000  0.0000  0.0123  0.0000  0.0000  0.0000  0.0000  0.0000 </r>
       </set>
      </set>
      <set comment="kpoint 23">
       <set comment="band 1">
        <r>  0.9902  0.0000  0.0000  0.0000  0.0000  0.0000  0.0000  0.0000  0.0000 </r>
        <r>  0.0000  0.0000  0.0000  0.0000  0.0000  0.0000  0.0000  0.0000  0.0000 </r>
       </set>
       <set comment="band 2">
        <r>  0.0159  0.0043  0.0069  0.0008  0.0000  0.0000  0.0000  0.0000  0.0000 </r>
        <r>  0.2655  0.0001  0.0009  0.0000  0.0000  0.0000  0.0000  0.0000  0.0000 </r>
       </set>
       <set comment="band 3">
        <r>  0.0548  0.0024  0.0057  0.0196  0.0000  0.0000  0.0000  0.0000  0.0000 </r>
        <r>  0.0428  0.0049  0.0102  0.0094  0.0000  0.0000  0.0000  0.0000  0.0000 </r>
       </set>
       <set comment="band 4">
        <r>  0.0062  0.0009  0.0123  0.0386  0.0000  0.0000  0.0000  0.0000  0.0000 </r>
        <r>  0.0883  0.0008  0.0093  0.0134  0.0000  0.0000  0.0000  0.0000  0.0000 </r>
       </set>
       <set comment="band 5">
        <r>  0.0744  0.0169  0.0506  0.0122  0.0000  0.0000  0.0000  0.0000  0.0000 </r>
        <r>  0.0163  0.0288  0.0024  0.0012  0.0000  0.0000  0.0000  0.0000  0.0000 </r>
       </set>
       <set comment="band 6">
        <r>  0.0208  0.1662  0.0263  0.0005  0.0000  0.0000  0.0000  0.0000  0.0000 </r>
        <r>  0.0882  0.0002  0.0012  0.0011  0.0000  0.0000  0.0000  0.0000  0.0000 </r>
       </set>
       <set comment="band 7">
        <r>  0.0308  0.0124  0.0115  0.0265  0.0000  0.0000  0.0000  0.0000  0.0000 </r>
        <r>  0.0155  0.0082  0.0086  0.0100  0.0000  0.0000  0.0000  0.0000  0.0000 </r>
       </set>
      </set>
      <set comment="kpoint 24">
       <set comment="band 1">
        <r>  0.9905  0.0000  0.0000  0.0000  0.0000  0.0000  0.0000  0.0000  0.0000 </r>
        <r>  0.0000  0.0000  0.0000  0.0000  0.0000  0.0000  0.0000  0.0000  0.0000 </r>
       </set>
       <set comment="band 2">
        <r>  0.0000  0.0062  0.0044  0.0044  0.0000  0.0000  0.0000  0.0000  0.0000 </r>
        <r>  0.2964  0.0000  0.0003  0.0003  0.0000  0.0000  0.0000  0.0000  0.0000 </r>
       </set>
       <set comment="band 3">
        <r>  0.0680  0.0000  0.0120  0.0120  0.0000  0.0000  0.0000  0.0000  0.0000 </r>
        <r>  0.0000  0.0047  0.0097  0.0097  0.0000  0.0000  0.0000  0.0000  0.0000 </r>
       </set>
       <set comment="band 4">
        <r>  0.0000  0.0004  0.0254  0.0254  0.0000  0.0000  0.0000  0.0000  0.0000 </r>
        <r>  0.1006  0.0000  0.0111  0.0111  0.0000  0.0000  0.0000  0.0000  0.0000 </r>
       </set>
       <set comment="band 5">
        <r>  0.0974  0.0000  0.0338  0.0338  0.0000  0.0000  0.0000  0.0000  0.0000 </r>
        <r>  0.0000  0.0304  0.0020  0.0020  0.0000  0.0000  0.0000  0.0000  0.0000 </r>
       </set>
       <set comment="band 6">
        <r>  0.0000  0.1818  0.0050  0.0050  0.0000  0.0000  0.0000  0.0000  0.0000 </r>
        <r>  0.1002  0.0000  0.0016  0.0016  0.0000  0.0000  0.0000  0.0000  0.0000 </r>
       </set>
       <set comment="band 7">
        <r>  0.0989  0.0000  0.0075  0.0074  0.0000  0.0000  0.0000  0.0000  0.0000 </r>
        <r>  0.0000  0.0302  0.0124  0.0124  0.0000  0.0000  0.0000  0.0000  0.0000 </r>
       </set>
      </set>
      <set comment="kpoint 25">
       <set comment="band 1">
        <r>  0.9905  0.0000  0.0000  0.0000  0.0000  0.0000  0.0000  0.0000  0.0000 </r>
        <r>  0.0000  0.0000  0.0000  0.0000  0.0000  0.0000  0.0000  0.0000  0.0000 </r>
       </set>
       <set comment="band 2">
        <r>  0.0174  0.0026  0.0074  0.0000  0.0000  0.0000  0.0000  0.0000  0.0000 </r>
        <r>  0.2810  0.0000  0.0016  0.0000  0.0000  0.0000  0.0000  0.0000  0.0000 </r>
       </set>
       <set comment="band 3">
        <r>  0.0105  0.0029  0.0350  0.0000  0.0000  0.0000  0.0000  0.0000  0.0000 </r>
        <r>  0.1099  0.0011  0.0203  0.0000  0.0000  0.0000  0.0000  0.0000  0.0000 </r>
       </set>
       <set comment="band 4">
        <r>  0.0000  0.0000  0.0000  0.0693  0.0000  0.0000  0.0000  0.0000  0.0000 </r>
        <r>  0.0000  0.0000  0.0000  0.0250  0.0000  0.0000  0.0000  0.0000  0.0000 </r>
       </set>
       <set comment="band 5">
        <r>  0.0728  0.0613  0.0112  0.0000  0.0000  0.0000  0.0000  0.0000  0.0000 </r>
        <r>  0.0055  0.0359  0.0005  0.0000  0.0000  0.0000  0.0000  0.0000  0.0000 </r>
       </set>
       <set comment="band 6">
        <r>  0.1627  0.1001  0.0281  0.0000  0.0000  0.0000  0.0000  0.0000  0.0000 </r>
        <r>  0.1028  0.0000  0.0000  0.0000  0.0000  0.0000  0.0000  0.0000  0.0000 </r>
       </set>
       <set comment="band 7">
        <r>  0.0000  0.0000  0.0000  0.0468  0.0000  0.0000  0.0000  0.0000  0.0000 </r>
        <r>  0.0000  0.0000  0.0000  0.0122  0.0000  0.0000  0.0000  0.0000  0.0000 </r>
       </set>
      </set>
      <set comment="kpoint 26">
       <set comment="band 1">
        <r>  0.9908  0.0000  0.0000  0.0000  0.0000  0.0000  0.0000  0.0000  0.0000 </r>
        <r>  0.0000  0.0000  0.0000  0.0000  0.0000  0.0000  0.0000  0.0000  0.0000 </r>
       </set>
       <set comment="band 2">
        <r>  0.0023  0.0060  0.0030  0.0016  0.0000  0.0000  0.0000  0.0000  0.0000 </r>
        <r>  0.3367  0.0000  0.0005  0.0001  0.0000  0.0000  0.0000  0.0000  0.0000 </r>
       </set>
       <set comment="band 3">
        <r>  0.0109  0.0009  0.0433  0.0029  0.0000  0.0000  0.0000  0.0000  0.0000 </r>
        <r>  0.0210  0.0008  0.0195  0.0013  0.0000  0.0000  0.0000  0.0000  0.0000 </r>
       </set>
       <set comment="band 4">
        <r>  0.0127  0.0000  0.0046  0.0469  0.0000  0.0000  0.0000  0.0000  0.0000 </r>
        <r>  0.0242  0.0012  0.0015  0.0203  0.0000  0.0000  0.0000  0.0000  0.0000 </r>
       </set>
       <set comment="band 5">
        <r>  0.1243  0.0234  0.0049  0.0160  0.0000  0.0000  0.0000  0.0000  0.0000 </r>
        <r>  0.0008  0.0348  0.0002  0.0019  0.0000  0.0000  0.0000  0.0000  0.0000 </r>
       </set>
       <set comment="band 6">
        <r>  0.0777  0.1460  0.0052  0.0006  0.0000  0.0000  0.0000  0.0000  0.0000 </r>
        <r>  0.1082  0.0000  0.0001  0.0021  0.0000  0.0000  0.0000  0.0000  0.0000 </r>
       </set>
       <set comment="band 7">
        <r>  0.0015  0.0356  0.0001  0.0506  0.0000  0.0000  0.0000  0.0000  0.0000 </r>
        <r>  0.0234  0.0000  0.0002  0.0110  0.0000  0.0000  0.0000  0.0000  0.0000 </r>
       </set>
      </set>
      <set comment="kpoint 27">
       <set comment="band 1">
        <r>  0.9907  0.0000  0.0000  0.0000  0.0000  0.0000  0.0000  0.0000  0.0000 </r>
        <r>  0.0000  0.0000  0.0000  0.0000  0.0000  0.0000  0.0000  0.0000  0.0000 </r>
       </set>
       <set comment="band 2">
        <r>  0.0033  0.0066  0.0000  0.0058  0.0000  0.0000  0.0000  0.0000  0.0000 </r>
        <r>  0.3131  0.0001  0.0000  0.0007  0.0000  0.0000  0.0000  0.0000  0.0000 </r>
       </set>
       <set comment="band 3">
        <r>  0.0000  0.0000  0.0573  0.0000  0.0000  0.0000  0.0000  0.0000  0.0000 </r>
        <r>  0.0000  0.0000  0.0221  0.0000  0.0000  0.0000  0.0000  0.0000  0.0000 </r>
       </set>
       <set comment="band 4">
        <r>  0.0430  0.0005  0.0000  0.0288  0.0000  0.0000  0.0000  0.0000  0.0000 </r>
        <r>  0.0688  0.0037  0.0000  0.0196  0.0000  0.0000  0.0000  0.0000  0.0000 </r>
       </set>
       <set comment="band 5">
        <r>  0.1324  0.0014  0.0000  0.0411  0.0000  0.0000  0.0000  0.0000  0.0000 </r>
        <r>  0.0016  0.0325  0.0000  0.0029  0.0000  0.0000  0.0000  0.0000  0.0000 </r>
       </set>
       <set comment="band 6">
        <r>  0.0122  0.1906  0.0000  0.0016  0.0000  0.0000  0.0000  0.0000  0.0000 </r>
        <r>  0.1162  0.0000  0.0000  0.0023  0.0000  0.0000  0.0000  0.0000  0.0000 </r>
       </set>
       <set comment="band 7">
        <r>  0.0008  0.0002  0.0758  0.0000  0.0000  0.0000  0.0000  0.0000  0.0000 </r>
        <r>  0.0001  0.0002  0.0138  0.0001  0.0000  0.0000  0.0000  0.0000  0.0000 </r>
       </set>
      </set>
      <set comment="kpoint 28">
       <set comment="band 1">
        <r>  0.9909  0.0000  0.0000  0.0000  0.0000  0.0000  0.0000  0.0000  0.0000 </r>
        <r>  0.0000  0.0000  0.0000  0.0000  0.0000  0.0000  0.0000  0.0000  0.0000 </r>
       </set>
       <set comment="band 2">
        <r>  0.0072  0.0041  0.0000  0.0000  0.0000  0.0000  0.0000  0.0000  0.0000 </r>
        <r>  0.3816  0.0000  0.0000  0.0000  0.0000  0.0000  0.0000  0.0000  0.0000 </r>
       </set>
       <set comment="band 3">
        <r>  0.0000  0.0000  0.0517  0.0000  0.0000  0.0000  0.0000  0.0000  0.0000 </r>
        <r>  0.0000  0.0000  0.0209  0.0000  0.0000  0.0000  0.0000  0.0000  0.0000 </r>
       </set>
       <set comment="band 4">
        <r>  0.0000  0.0000  0.0000  0.0675  0.0000  0.0000  0.0000  0.0000  0.0000 </r>
        <r>  0.0000  0.0000  0.0000  0.0247  0.0000  0.0000  0.0000  0.0000  0.0000 </r>
       </set>
       <set comment="band 5">
        <r>  0.0848  0.0636  0.0000  0.0000  0.0000  0.0000  0.0000  0.0000  0.0000 </r>
        <r>  0.0016  0.0374  0.0000  0.0000  0.0000  0.0000  0.0000  0.0000  0.0000 </r>
       </set>
       <set comment="band 6">
        <r>  0.0000  0.0000  0.0000  0.0449  0.0000  0.0000  0.0000  0.0000  0.0000 </r>
        <r>  0.0000  0.0000  0.0000  0.0122  0.0000  0.0000  0.0000  0.0000  0.0000 </r>
       </set>
       <set comment="band 7">
        <r>  0.2105  0.0933  0.0000  0.0000  0.0000  0.0000  0.0000  0.0000  0.0000 </r>
        <r>  0.1179  0.0001  0.0000  0.0000  0.0000  0.0000  0.0000  0.0000  0.0000 </r>
       </set>
      </set>
      <set comment="kpoint 29">
       <set comment="band 1">
        <r>  0.9909  0.0000  0.0000  0.0000  0.0000  0.0000  0.0000  0.0000  0.0000 </r>
        <r>  0.0000  0.0000  0.0000  0.0000  0.0000  0.0000  0.0000  0.0000  0.0000 </r>
       </set>
       <set comment="band 2">
        <r>  0.0000  0.0077  0.0000  0.0000  0.0000  0.0000  0.0000  0.0000  0.0000 </r>
        <r>  0.3758  0.0000  0.0000  0.0000  0.0000  0.0000  0.0000  0.0000  0.0000 </r>
       </set>
       <set comment="band 3">
        <r>  0.0000  0.0000  0.0279  0.0281  0.0000  0.0000  0.0000  0.0000  0.0000 </r>
        <r>  0.0000  0.0000  0.0109  0.0110  0.0000  0.0000  0.0000  0.0000  0.0000 </r>
       </set>
       <set comment="band 4">
        <r>  0.0000  0.0000  0.0281  0.0279  0.0000  0.0000  0.0000  0.0000  0.0000 </r>
        <r>  0.0000  0.0000  0.0110  0.0109  0.0000  0.0000  0.0000  0.0000  0.0000 </r>
       </set>
       <set comment="band 5">
        <r>  0.2012  0.0000  0.0000  0.0000  0.0000  0.0000  0.0000  0.0000  0.0000 </r>
        <r>  0.0000  0.0375  0.0000  0.0000  0.0000  0.0000  0.0000  0.0000  0.0000 </r>
       </set>
       <set comment="band 6">
        <r>  0.0000  0.2317  0.0000  0.0000  0.0000  0.0000  0.0000  0.0000  0.0000 </r>
        <r>  0.1409  0.0000  0.0000  0.0000  0.0000  0.0000  0.0000  0.0000  0.0000 </r>
       </set>
       <set comment="band 7">
        <r>  0.0000  0.0000  0.0157  0.0540  0.0000  0.0000  0.0000  0.0000  0.0000 </r>
        <r>  0.0000  0.0000  0.0031  0.0108  0.0000  0.0000  0.0000  0.0000  0.0000 </r>
       </set>
      </set>
     </set>
    </set>
   </array>
  </projected>
 </calculation>
 <structure name="finalpos" >
  <crystal>
   <varray name="basis" >
    <v>       0.00000000       2.00008700       2.00008700 </v>
    <v>       2.00008700       0.00000000       2.00008700 </v>
    <v>       2.00008700       2.00008700       0.00000000 </v>
   </varray>
   <i name="volume">     16.00208809 </i>
   <varray name="rec_basis" >
    <v>      -0.24998913       0.24998913       0.24998913 </v>
    <v>       0.24998913      -0.24998913       0.24998913 </v>
    <v>       0.24998913       0.24998913      -0.24998913 </v>
   </varray>
  </crystal>
  <varray name="positions" >
   <v>       0.00000000       0.00000000       0.00000000 </v>
   <v>       0.50000000       0.50000000       0.50000000 </v>
  </varray>
 </structure>
</modeling>
