<?xml version="1.0" encoding="ISO-8859-1"?>
<modeling>
 <generator>
  <i name="program" type="string">vasp </i>
  <i name="version" type="string">6.1.1  </i>
  <i name="subversion" type="string">19Jun20 (build Sep 03 2020 17:30:48) complex                          parallel </i>
  <i name="platform" type="string">VASP6.1.1-r2SCAN-MP </i>
  <i name="date" type="string">2020 09 11 </i>
  <i name="time" type="string">19:33:14 </i>
 </generator>
 <incar>
  <i type="string" name="PREC"> Accurate</i>
  <i type="string" name="ALGO"> All</i>
  <i type="int" name="ISPIN">     2</i>
  <i type="int" name="ICHARG">     1</i>
  <i type="int" name="NELM">   200</i>
  <i type="int" name="IBRION">     2</i>
  <i name="EDIFF">      0.00001000</i>
  <i name="EDIFFG">     -0.02000000</i>
  <i type="int" name="NSW">    99</i>
  <i type="int" name="ISIF">     3</i>
  <i name="ENCUT">    680.00000000</i>
  <i name="ENAUG">   1360.00000000</i>
  <v name="MAGMOM">      0.60000000      0.60000000</v>
  <i type="string" name="LREAL"> Auto</i>
  <i type="int" name="ISMEAR">    -5</i>
  <i name="SIGMA">      0.05000000</i>
  <i name="KSPACING">      0.34292842</i>
  <i type="logical" name="LWAVE"> F  </i>
  <i type="logical" name="LCHARG"> T  </i>
  <i type="logical" name="LVTOT"> T  </i>
  <i type="logical" name="LELF"> T  </i>
  <i type="logical" name="LASPH"> T  </i>
  <i type="logical" name="LAECHG"> T  </i>
  <i type="string" name="ALGO"> All</i>
  <i type="int" name="NELM">   200</i>
  <i name="EDIFF">      0.00001000</i>
  <i type="string" name="METAGGA"> R2scan</i>
  <i type="logical" name="LASPH"> T  </i>
  <i type="logical" name="LMIXTAU"> T  </i>
  <i type="int" name="ISPIN">     2</i>
 </incar>
 <structure name="primitive_cell" >
  <crystal>
   <varray name="basis" >
    <v>      -2.00008700      -2.00008700       0.00000000 </v>
    <v>      -2.00008700       0.00000000      -2.00008700 </v>
    <v>       0.00000000      -2.00008700      -2.00008700 </v>
   </varray>
   <i name="volume">     16.00208809 </i>
   <varray name="rec_basis" >
    <v>      -0.24998913      -0.24998913       0.24998913 </v>
    <v>      -0.24998913       0.24998913      -0.24998913 </v>
    <v>       0.24998913      -0.24998913      -0.24998913 </v>
   </varray>
  </crystal>
  <varray name="positions" >
   <v>       0.00000000       0.00000000       0.00000000 </v>
   <v>       0.50000000       0.50000000       0.50000000 </v>
  </varray>
 </structure>
 <varray name="primitive_index" >
  <v type="int" >        1 </v>
  <v type="int" >        2 </v>
 </varray>
 <kpoints>
  <generation param="Gamma">
   <v type="int" name="divisions">       8        8        8 </v>
   <v name="usershift">      0.00000000       0.00000000       0.00000000 </v>
   <v name="genvec1">      0.12500000      -0.00000000      -0.00000000 </v>
   <v name="genvec2">      0.00000000       0.12500000       0.00000000 </v>
   <v name="genvec3">     -0.00000000       0.00000000       0.12500000 </v>
   <v name="shift">      0.00000000       0.00000000       0.00000000 </v>
  </generation>
  <varray name="kpointlist" >
   <v>       0.00000000       0.00000000       0.00000000 </v>
   <v>       0.12500000      -0.00000000      -0.00000000 </v>
   <v>       0.25000000      -0.00000000      -0.00000000 </v>
   <v>       0.37500000       0.00000000       0.00000000 </v>
   <v>       0.50000000      -0.00000000      -0.00000000 </v>
   <v>       0.12500000       0.12500000      -0.00000000 </v>
   <v>       0.25000000       0.12500000      -0.00000000 </v>
   <v>       0.37500000       0.12500000       0.00000000 </v>
   <v>       0.50000000       0.12500000       0.00000000 </v>
   <v>      -0.37500000       0.12500000       0.00000000 </v>
   <v>      -0.25000000       0.12500000      -0.00000000 </v>
   <v>      -0.12500000       0.12500000       0.00000000 </v>
   <v>       0.25000000       0.25000000      -0.00000000 </v>
   <v>       0.37500000       0.25000000      -0.00000000 </v>
   <v>       0.50000000       0.25000000      -0.00000000 </v>
   <v>      -0.37500000       0.25000000      -0.00000000 </v>
   <v>      -0.25000000       0.25000000       0.00000000 </v>
   <v>       0.37500000       0.37500000      -0.00000000 </v>
   <v>       0.50000000       0.37500000      -0.00000000 </v>
   <v>      -0.37500000       0.37500000      -0.00000000 </v>
   <v>       0.50000000       0.50000000      -0.00000000 </v>
   <v>       0.37500000       0.25000000       0.12500000 </v>
   <v>       0.50000000       0.25000000       0.12500000 </v>
   <v>      -0.37500000       0.25000000       0.12500000 </v>
   <v>       0.50000000       0.37500000       0.12500000 </v>
   <v>      -0.37500000       0.37500000       0.12500000 </v>
   <v>      -0.25000000       0.37500000       0.12500000 </v>
   <v>      -0.37500000       0.50000000       0.12500000 </v>
   <v>      -0.25000000       0.50000000       0.25000000 </v>
  </varray>
  <varray name="weights" >
   <v>       0.00195312 </v>
   <v>       0.01562500 </v>
   <v>       0.01562500 </v>
   <v>       0.01562500 </v>
   <v>       0.00781250 </v>
   <v>       0.01171875 </v>
   <v>       0.04687500 </v>
   <v>       0.04687500 </v>
   <v>       0.04687500 </v>
   <v>       0.04687500 </v>
   <v>       0.04687500 </v>
   <v>       0.02343750 </v>
   <v>       0.01171875 </v>
   <v>       0.04687500 </v>
   <v>       0.04687500 </v>
   <v>       0.04687500 </v>
   <v>       0.02343750 </v>
   <v>       0.01171875 </v>
   <v>       0.04687500 </v>
   <v>       0.02343750 </v>
   <v>       0.00585938 </v>
   <v>       0.04687500 </v>
   <v>       0.09375000 </v>
   <v>       0.04687500 </v>
   <v>       0.04687500 </v>
   <v>       0.09375000 </v>
   <v>       0.04687500 </v>
   <v>       0.02343750 </v>
   <v>       0.01171875 </v>
  </varray>
  <varray name="tetrahedronlist"  type="int" >
   <v type="int" >       24        1        2        2        6 </v>
   <v type="int" >       48        2        6        7       12 </v>
   <v type="int" >       48        2        3        7       12 </v>
   <v type="int" >       24        2        2        6       12 </v>
   <v type="int" >       48        3        7        8       11 </v>
   <v type="int" >       48        3        4        8       11 </v>
   <v type="int" >       48        3        7       11       12 </v>
   <v type="int" >       48        4        8        9       10 </v>
   <v type="int" >       48        4        5        9       10 </v>
   <v type="int" >       48        4        8       10       11 </v>
   <v type="int" >       48        5        9        9       10 </v>
   <v type="int" >       24        6        7        7       13 </v>
   <v type="int" >       24        6        7        7       12 </v>
   <v type="int" >       48        7       13       14       22 </v>
   <v type="int" >       48        7        8       14       22 </v>
   <v type="int" >       48        7        8       11       22 </v>
   <v type="int" >       24        7        7       13       22 </v>
   <v type="int" >       24        7        7       12       22 </v>
   <v type="int" >       48        7       11       12       22 </v>
   <v type="int" >       48        8       14       15       23 </v>
   <v type="int" >       48        8        9       15       23 </v>
   <v type="int" >       48        8        9       10       23 </v>
   <v type="int" >       48        8       14       22       23 </v>
   <v type="int" >       48        8       11       22       23 </v>
   <v type="int" >       48        8       10       11       23 </v>
   <v type="int" >       48        9       15       16       24 </v>
   <v type="int" >       48        9       10       16       24 </v>
   <v type="int" >       48        9        9       10       24 </v>
   <v type="int" >       48        9       15       23       24 </v>
   <v type="int" >       48        9       10       23       24 </v>
   <v type="int" >       48       10       16       17       23 </v>
   <v type="int" >       48       10       11       17       23 </v>
   <v type="int" >       48       10       16       23       24 </v>
   <v type="int" >       24       11       11       17       22 </v>
   <v type="int" >       24       11       11       12       22 </v>
   <v type="int" >       48       11       17       22       23 </v>
   <v type="int" >       24       13       14       14       18 </v>
   <v type="int" >       24       13       14       14       22 </v>
   <v type="int" >       48       14       18       19       25 </v>
   <v type="int" >       48       14       15       19       25 </v>
   <v type="int" >       48       14       15       23       25 </v>
   <v type="int" >       24       14       14       18       25 </v>
   <v type="int" >       24       14       14       22       25 </v>
   <v type="int" >       48       14       22       23       25 </v>
   <v type="int" >       48       15       19       20       26 </v>
   <v type="int" >       48       15       16       20       26 </v>
   <v type="int" >       48       15       16       24       26 </v>
   <v type="int" >       48       15       19       25       26 </v>
   <v type="int" >       48       15       23       25       26 </v>
   <v type="int" >       48       15       23       24       26 </v>
   <v type="int" >       24       16       16       20       27 </v>
   <v type="int" >       24       16       16       17       27 </v>
   <v type="int" >       48       16       17       23       27 </v>
   <v type="int" >       48       16       20       26       27 </v>
   <v type="int" >       48       16       24       26       27 </v>
   <v type="int" >       48       16       23       24       27 </v>
   <v type="int" >       24       17       23       23       27 </v>
   <v type="int" >       24       17       22       23       23 </v>
   <v type="int" >       24       18       19       19       21 </v>
   <v type="int" >       24       18       19       19       25 </v>
   <v type="int" >       48       19       19       21       28 </v>
   <v type="int" >       24       19       19       20       28 </v>
   <v type="int" >       48       19       20       26       28 </v>
   <v type="int" >       24       19       19       25       28 </v>
   <v type="int" >       48       19       25       26       28 </v>
   <v type="int" >       24       20       26       26       28 </v>
   <v type="int" >       24       20       26       26       27 </v>
   <v type="int" >       24       22       23       23       25 </v>
   <v type="int" >       48       23       25       26       27 </v>
   <v type="int" >       48       23       24       26       27 </v>
   <v type="int" >       24       23       23       25       27 </v>
   <v type="int" >       48       24       26       26       27 </v>
   <v type="int" >       24       25       26       26       28 </v>
   <v type="int" >       24       25       26       26       27 </v>
   <v type="int" >       48       26       26       28       29 </v>
   <v type="int" >       96       26       26       27       29 </v>
  </varray>
  <i name="volumeweight">      0.00032552 </i>
 </kpoints>
 <parameters>
  <separator name="general" >
   <i type="string" name="SYSTEM">unknown system</i>
   <i type="logical" name="LCOMPAT"> F  </i>
  </separator>
  <separator name="electronic" >
   <i type="string" name="PREC">accura</i>
   <i name="ENMAX">    680.00000000</i>
   <i name="ENAUG">   1360.00000000</i>
   <i name="EDIFF">      0.00001000</i>
   <i type="int" name="IALGO">    58</i>
   <i type="int" name="IWAVPR">    11</i>
   <i type="int" name="NBANDS">     8</i>
   <i type="int" name="NBANDSLOW">    -1</i>
   <i type="int" name="NBANDSHIGH">    -1</i>
   <i name="NELECT">      4.00000000</i>
   <i type="int" name="TURBO">     0</i>
   <i type="int" name="IRESTART">     0</i>
   <i type="int" name="NREBOOT">     0</i>
   <i type="int" name="NMIN">     0</i>
   <i name="EREF">      0.00000000</i>
   <separator name="electronic smearing" >
    <i type="int" name="ISMEAR">    -5</i>
    <i name="SIGMA">      0.05000000</i>
    <i name="KSPACING">      0.34292842</i>
    <i type="logical" name="KGAMMA"> T  </i>
    <i type="logical" name="KBLOWUP"> T  </i>
   </separator>
   <separator name="electronic projectors" >
    <i type="logical" name="LREAL"> T  </i>
    <v name="ROPT">     -0.00025000     -0.00025000</v>
    <i type="int" name="LMAXPAW">  -100</i>
    <i type="int" name="LMAXMIX">     2</i>
    <i type="logical" name="NLSPLINE"> F  </i>
   </separator>
   <separator name="electronic startup" >
    <i type="int" name="ISTART">     0</i>
    <i type="int" name="ICHARG">     1</i>
    <i type="int" name="INIWAV">     1</i>
   </separator>
   <separator name="electronic spin" >
    <i type="int" name="ISPIN">     2</i>
    <i type="logical" name="LNONCOLLINEAR"> F  </i>
    <v name="MAGMOM">      0.60000000      0.60000000</v>
    <i name="NUPDOWN">     -1.00000000</i>
    <i type="logical" name="LSORBIT"> F  </i>
    <v name="SAXIS">      0.00000000      0.00000000      1.00000000</v>
    <i type="logical" name="LSPIRAL"> F  </i>
    <v name="QSPIRAL">      0.00000000      0.00000000      0.00000000</v>
    <i type="logical" name="LZEROZ"> F  </i>
   </separator>
   <separator name="electronic exchange-correlation" >
    <i type="logical" name="LASPH"> T  </i>
    <i type="logical" name="LMETAGGA"> F  </i>
   </separator>
   <separator name="electronic convergence" >
    <i type="int" name="NELM">   200</i>
    <i type="int" name="NELMDL">    -5</i>
    <i type="int" name="NELMIN">     2</i>
    <i name="ENINI">    680.00000000</i>
    <separator name="electronic convergence detail" >
     <i type="logical" name="LDIAG"> T  </i>
     <i type="logical" name="LSUBROT"> F  </i>
     <i name="WEIMIN">      0.00100000</i>
     <i name="EBREAK">      0.00000031</i>
     <i name="DEPER">      0.30000000</i>
     <i type="int" name="NRMM">     4</i>
     <i name="TIME">      0.40000000</i>
    </separator>
   </separator>
   <separator name="electronic mixer" >
    <i name="AMIX">      0.40000000</i>
    <i name="BMIX">      1.00000000</i>
    <i name="AMIN">      0.10000000</i>
    <i name="AMIX_MAG">      1.60000000</i>
    <i name="BMIX_MAG">      1.00000000</i>
    <separator name="electronic mixer details" >
     <i type="int" name="IMIX">     4</i>
     <i type="logical" name="MIXFIRST"> F  </i>
     <i type="int" name="MAXMIX">   -45</i>
     <i name="WC">    100.00000000</i>
     <i type="int" name="INIMIX">     1</i>
     <i type="int" name="MIXPRE">     1</i>
     <i type="int" name="MREMOVE">     5</i>
    </separator>
   </separator>
   <separator name="electronic dipolcorrection" >
    <i type="logical" name="LDIPOL"> F  </i>
    <i type="logical" name="LMONO"> F  </i>
    <i type="int" name="IDIPOL">     0</i>
    <i name="EPSILON">      1.00000000</i>
    <v name="DIPOL">   -100.00000000   -100.00000000   -100.00000000</v>
    <i name="EFIELD">      0.00000000</i>
   </separator>
  </separator>
  <separator name="grids" >
   <i type="int" name="NGX">    24</i>
   <i type="int" name="NGY">    24</i>
   <i type="int" name="NGZ">    24</i>
   <i type="int" name="NGXF">    48</i>
   <i type="int" name="NGYF">    48</i>
   <i type="int" name="NGZF">    48</i>
   <i type="logical" name="ADDGRID"> F  </i>
  </separator>
  <separator name="ionic" >
   <i type="int" name="NSW">    99</i>
   <i type="int" name="IBRION">     2</i>
   <i type="int" name="MDALGO">     0</i>
   <i type="int" name="ISIF">     3</i>
   <i name="PSTRESS">      0.00000000</i>
   <i name="EDIFFG">     -0.02000000</i>
   <i type="int" name="NFREE">     1</i>
   <i name="POTIM">      0.50000000</i>
   <i name="SMASS">     -3.00000000</i>
   <i name="SCALEE">      1.00000000</i>
  </separator>
  <separator name="ionic md" >
   <i name="TEBEG">      0.00010000</i>
   <i name="TEEND">      0.00010000</i>
   <i type="int" name="NBLOCK">     1</i>
   <i type="int" name="KBLOCK">    99</i>
   <i type="int" name="NPACO">   256</i>
   <i name="APACO">     16.00000000</i>
  </separator>
  <separator name="symmetry" >
   <i type="int" name="ISYM">     2</i>
   <i name="SYMPREC">      0.00001000</i>
  </separator>
  <separator name="dos" >
   <i type="int" name="LORBIT">    11</i>
   <v name="RWIGS">     -1.00000000     -1.00000000</v>
   <i type="int" name="NEDOS">   301</i>
   <i name="EMIN">     10.00000000</i>
   <i name="EMAX">    -10.00000000</i>
   <i name="EFERMI">      0.00000000</i>
  </separator>
  <separator name="writing" >
   <i type="int" name="NWRITE">     2</i>
   <i type="logical" name="LWAVE"> F  </i>
   <i type="logical" name="LDOWNSAMPLE"> F  </i>
   <i type="logical" name="LCHARG"> T  </i>
   <i type="logical" name="LPARD"> F  </i>
   <i type="logical" name="LVTOT"> T  </i>
   <i type="logical" name="LVHAR"> F  </i>
   <i type="logical" name="LELF"> T  </i>
   <i type="logical" name="LOPTICS"> F  </i>
   <v name="STM">      0.00000000      0.00000000      0.00000000      0.00000000      0.00000000      0.00000000      0.00000000</v>
  </separator>
  <separator name="performance" >
   <i type="int" name="NPAR">     4</i>
   <i type="int" name="NSIM">     4</i>
   <i type="int" name="NBLK">    -1</i>
   <i type="logical" name="LPLANE"> T  </i>
   <i type="logical" name="LSCALAPACK"> T  </i>
   <i type="logical" name="LSCAAWARE"> F  </i>
   <i type="logical" name="LSCALU"> F  </i>
   <i type="logical" name="LASYNC"> F  </i>
   <i type="logical" name="LORBITALREAL"> F  </i>
  </separator>
  <separator name="miscellaneous" >
   <i type="int" name="IDIOT">     3</i>
   <i type="int" name="PHON_NSTRUCT">    -1</i>
   <i type="logical" name="LMUSIC"> F  </i>
   <v name="POMASS">      7.01000000      1.00000000</v>
   <v name="DARWINR">      0.00000000      0.00000000</v>
   <v name="DARWINV">      1.00000000      1.00000000</v>
   <i type="logical" name="LCORR"> T  </i>
  </separator>
  <i type="logical" name="GGA_COMPAT"> T  </i>
  <i type="logical" name="LBERRY"> F  </i>
  <i type="int" name="ICORELEVEL">     0</i>
  <i type="logical" name="LDAU"> F  </i>
  <i type="int" name="I_CONSTRAINED_M">     0</i>
  <separator name="electronic exchange-correlation" >
   <i type="string" name="GGA">--</i>
   <i type="int" name="VOSKOWN">     0</i>
   <i type="logical" name="LHFCALC"> F  </i>
   <i type="string" name="PRECFOCK"></i>
   <i type="logical" name="LSYMGRAD"> F  </i>
   <i type="logical" name="LHFONE"> F  </i>
   <i type="logical" name="LRHFCALC"> F  </i>
   <i type="logical" name="LTHOMAS"> F  </i>
   <i type="logical" name="LMODELHF"> F  </i>
   <i type="logical" name="LFOCKACE"> F  </i>
   <i name="ENCUT4O">     -1.00000000</i>
   <i type="int" name="EXXOEP">     0</i>
   <i type="int" name="FOURORBIT">     0</i>
   <i name="AEXX">      0.00000000</i>
   <i name="HFALPHA">      0.00000000</i>
   <i name="MCALPHA">      0.00000000</i>
   <i name="ALDAX">      1.00000000</i>
   <i name="AGGAX">      1.00000000</i>
   <i name="ALDAC">      1.00000000</i>
   <i name="AGGAC">      1.00000000</i>
   <i type="int" name="NKREDX">     1</i>
   <i type="int" name="NKREDY">     1</i>
   <i type="int" name="NKREDZ">     1</i>
   <i type="logical" name="SHIFTRED"> F  </i>
   <i type="logical" name="ODDONLY"> F  </i>
   <i type="logical" name="EVENONLY"> F  </i>
   <i type="int" name="LMAXFOCK">     0</i>
   <i type="int" name="NMAXFOCKAE">     0</i>
   <i type="logical" name="LFOCKAEDFT"> F  </i>
   <i name="HFSCREEN">      0.00000000</i>
   <i name="HFSCREENC">      0.00000000</i>
   <i type="int" name="NBANDSGWLOW">     0</i>
  </separator>
  <separator name="vdW DFT" >
   <i type="logical" name="LUSE_VDW"> F  </i>
   <i name="Zab_VDW">     -0.84910000</i>
   <i name="PARAM1">      0.12340000</i>
   <i name="PARAM2">      1.00000000</i>
   <i name="PARAM3">      0.00000000</i>
  </separator>
  <separator name="model GW" >
   <i type="int" name="MODEL_GW">     0</i>
   <i name="MODEL_EPS0">      4.80062643</i>
   <i name="MODEL_ALPHA">      1.00000000</i>
  </separator>
  <separator name="linear response parameters" >
   <i type="logical" name="LEPSILON"> F  </i>
   <i type="logical" name="LRPA"> F  </i>
   <i type="logical" name="LNABLA"> F  </i>
   <i type="logical" name="LVEL"> F  </i>
   <i type="int" name="KINTER">     0</i>
   <i name="CSHIFT">      0.10000000</i>
   <i name="OMEGAMAX">     -1.00000000</i>
   <i name="DEG_THRESHOLD">      0.00200000</i>
   <i name="RTIME">     -0.10000000</i>
   <i name="WPLASMAI">      0.00000000</i>
   <v name="DFIELD">      0.00000000      0.00000000      0.00000000</v>
   <v name="WPLASMA">      0.00000000      0.00000000      0.00000000      0.00000000      0.00000000      0.00000000      0.00000000      0.00000000      0.00000000</v>
  </separator>
  <separator name="orbital magnetization" >
   <i type="logical" name="NUCIND"> F  </i>
   <v name="MAGPOS">      0.00000000      0.00000000      0.00000000</v>
   <i type="logical" name="LNICSALL"> T  </i>
   <i type="logical" name="ORBITALMAG"> F  </i>
   <i type="logical" name="LMAGBLOCH"> F  </i>
   <i type="logical" name="LCHIMAG"> F  </i>
   <i type="logical" name="LGAUGE"> T  </i>
   <i type="int" name="MAGATOM">     0</i>
   <v name="MAGDIPOL">      0.00000000      0.00000000      0.00000000</v>
   <v name="AVECCONST">      0.00000000      0.00000000      0.00000000</v>
  </separator>
  <separator name="response functions" >
   <i type="logical" name="LFINITE_TEMPERATURE"> F  </i>
   <i type="logical" name="LADDER"> F  </i>
   <i type="logical" name="LRPAFORCE"> F  </i>
   <i type="logical" name="LFXC"> F  </i>
   <i type="logical" name="LHARTREE"> T  </i>
   <i type="int" name="IBSE">     0</i>
   <v type="int" name="KPOINT">    -1     0     0     0</v>
   <i type="logical" name="LTCTC"> F  </i>
   <i type="logical" name="LTCTE"> F  </i>
   <i type="logical" name="LTETE"> F  </i>
   <i type="logical" name="LTRIPLET"> F  </i>
   <i type="logical" name="LFXCEPS"> F  </i>
   <i type="logical" name="LFXHEG"> F  </i>
   <i type="int" name="NATURALO">     2</i>
   <i type="logical" name="LHOLEGF"> F  </i>
   <i type="logical" name="L2ORDER"> F  </i>
   <i type="logical" name="LDMP1"> F  </i>
   <i type="logical" name="LMP2LT"> F  </i>
   <i type="logical" name="LSMP2LT"> F  </i>
   <i type="logical" name="LGWLF"> F  </i>
   <i name="ENCUTGW">     -2.00000000</i>
   <i name="ENCUTGWSOFT">     -2.00000000</i>
   <i name="ENCUTLF">     -1.00000000</i>
   <i type="logical" name="LESF_SPLINES"> F  </i>
   <i type="int" name="LMAXMP2">    -1</i>
   <i name="SCISSOR">      0.00000000</i>
   <i type="int" name="NOMEGA">     0</i>
   <i type="int" name="NOMEGAR">     0</i>
   <i type="int" name="NBANDSGW">    -1</i>
   <i type="int" name="NBANDSO">    -1</i>
   <i type="int" name="NBANDSV">    -1</i>
   <i type="int" name="NELM">   200</i>
   <i type="int" name="NELMHF">     1</i>
   <i type="int" name="DIM">     3</i>
   <i type="int" name="IESPILON">     4</i>
   <i type="int" name="ANTIRES">     0</i>
   <i name="OMEGAMAX">    -30.00000000</i>
   <i name="OMEGAMIN">    -30.00000000</i>
   <i name="OMEGATL">   -200.00000000</i>
   <i type="int" name="OMEGAGRID">     0</i>
   <i name="CSHIFT">     -0.10000000</i>
   <i type="logical" name="LSELFENERGY"> F  </i>
   <i type="logical" name="LSPECTRAL"> F  </i>
   <i type="logical" name="LSPECTRALGW"> F  </i>
   <i type="logical" name="LSINGLES"> F  </i>
   <i type="logical" name="LFERMIGW"> F  </i>
   <i type="logical" name="ODDONLYGW"> F  </i>
   <i type="logical" name="EVENONLYGW"> F  </i>
   <i type="int" name="NKREDLFX">     1</i>
   <i type="int" name="NKREDLFY">     1</i>
   <i type="int" name="NKREDLFZ">     1</i>
   <i type="int" name="MAXMEM">  2800</i>
   <i type="int" name="TELESCOPE">     0</i>
   <i type="int" name="NTAUPAR">    -1</i>
   <i type="int" name="NOMEGAPAR">    -1</i>
   <i name="LAMBDA">      1.00000000</i>
  </separator>
  <separator name="External order field" >
   <i name="OFIELD_KAPPA">      0.00000000</i>
   <v name="OFIELD_K">      0.00000000      0.00000000      0.00000000</v>
   <i name="OFIELD_Q6_NEAR">      0.00000000</i>
   <i name="OFIELD_Q6_FAR">      0.00000000</i>
   <i name="OFIELD_A">      0.00000000</i>
  </separator>
 </parameters>
 <atominfo>
  <atoms>       2 </atoms>
  <types>       2 </types>
  <array name="atoms" >
   <dimension dim="1">ion</dimension>
   <field type="string">element</field>
   <field type="int">atomtype</field>
   <set>
    <rc><c>Li</c><c>   1</c></rc>
    <rc><c>H </c><c>   2</c></rc>
   </set>
  </array>
  <array name="atomtypes" >
   <dimension dim="1">type</dimension>
   <field type="int">atomspertype</field>
   <field type="string">element</field>
   <field>mass</field>
   <field>valence</field>
   <field type="string">pseudopotential</field>
   <set>
    <rc><c>   1</c><c>Li</c><c>      7.01000000</c><c>      3.00000000</c><c>  PAW_PBE Li_sv 10Sep2004               </c></rc>
    <rc><c>   1</c><c>H </c><c>      1.00000000</c><c>      1.00000000</c><c>  PAW_PBE H 15Jun2001                   </c></rc>
   </set>
  </array>
 </atominfo>
 <structure name="initialpos" >
  <crystal>
   <varray name="basis" >
    <v>      -2.00008700      -2.00008700       0.00000000 </v>
    <v>      -2.00008700       0.00000000      -2.00008700 </v>
    <v>       0.00000000      -2.00008700      -2.00008700 </v>
   </varray>
   <i name="volume">     16.00208809 </i>
   <varray name="rec_basis" >
    <v>      -0.24998913      -0.24998913       0.24998913 </v>
    <v>      -0.24998913       0.24998913      -0.24998913 </v>
    <v>       0.24998913      -0.24998913      -0.24998913 </v>
   </varray>
  </crystal>
  <varray name="positions" >
   <v>       0.00000000       0.00000000       0.00000000 </v>
   <v>       0.50000000       0.50000000       0.50000000 </v>
  </varray>
 </structure>
 <calculation>
  <scstep>
   <time name="total">    7.35   14.90</time>
   <energy>
    <i name="alphaZ">      2.52703488 </i>
    <i name="ewald">    -94.29113762 </i>
    <i name="hartreedc">    -36.15744450 </i>
    <i name="XCdc">     17.62619948 </i>
    <i name="pawpsdc">     83.80947636 </i>
    <i name="pawaedc">    -98.43192955 </i>
    <i name="eentropy">      0.00000000 </i>
    <i name="bandstr">    -92.73101439 </i>
    <i name="atom">    215.26843501 </i>
    <i name="e_fr_energy">     -2.38038032 </i>
    <i name="e_wo_entrp">     -2.38038032 </i>
    <i name="e_0_energy">     -2.38038032 </i>
   </energy>
  </scstep>
  <scstep>
   <time name="total">    4.47    8.94</time>
   <energy>
    <i name="e_fr_energy">     -7.25234972 </i>
    <i name="e_wo_entrp">     -7.25234972 </i>
    <i name="e_0_energy">     -7.25234972 </i>
   </energy>
  </scstep>
  <scstep>
   <time name="total">    3.38    6.77</time>
   <energy>
    <i name="e_fr_energy">     -7.31542298 </i>
    <i name="e_wo_entrp">     -7.31542298 </i>
    <i name="e_0_energy">     -7.31542298 </i>
   </energy>
  </scstep>
  <scstep>
   <time name="total">    4.82    9.65</time>
   <energy>
    <i name="e_fr_energy">     -7.31578630 </i>
    <i name="e_wo_entrp">     -7.31578630 </i>
    <i name="e_0_energy">     -7.31578630 </i>
   </energy>
  </scstep>
  <scstep>
   <time name="total">    4.54    9.10</time>
   <energy>
    <i name="e_fr_energy">     -7.31578721 </i>
    <i name="e_wo_entrp">     -7.31578721 </i>
    <i name="e_0_energy">     -7.31578721 </i>
   </energy>
  </scstep>
  <scstep>
   <time name="total">   12.70   25.40</time>
   <energy>
    <i name="e_fr_energy">     -6.79055882 </i>
    <i name="e_wo_entrp">     -6.79055882 </i>
    <i name="e_0_energy">     -6.79055882 </i>
   </energy>
  </scstep>
  <scstep>
   <time name="total">   12.00   24.01</time>
   <energy>
    <i name="e_fr_energy">     -6.81189037 </i>
    <i name="e_wo_entrp">     -6.81189037 </i>
    <i name="e_0_energy">     -6.81189037 </i>
   </energy>
  </scstep>
  <scstep>
   <time name="total">   11.62   23.25</time>
   <energy>
    <i name="e_fr_energy">     -6.81715917 </i>
    <i name="e_wo_entrp">     -6.81715917 </i>
    <i name="e_0_energy">     -6.81715917 </i>
   </energy>
  </scstep>
  <scstep>
   <time name="total">   12.25   24.49</time>
   <energy>
    <i name="e_fr_energy">     -6.82014658 </i>
    <i name="e_wo_entrp">     -6.82014658 </i>
    <i name="e_0_energy">     -6.82014658 </i>
   </energy>
  </scstep>
  <scstep>
   <time name="total">   11.90   23.70</time>
   <energy>
    <i name="e_fr_energy">     -6.82057134 </i>
    <i name="e_wo_entrp">     -6.82057134 </i>
    <i name="e_0_energy">     -6.82057134 </i>
   </energy>
  </scstep>
  <scstep>
   <time name="total">   11.94   23.60</time>
   <energy>
    <i name="e_fr_energy">     -6.82072632 </i>
    <i name="e_wo_entrp">     -6.82072632 </i>
    <i name="e_0_energy">     -6.82072632 </i>
   </energy>
  </scstep>
  <scstep>
   <time name="total">   10.97   15.00</time>
   <energy>
    <i name="e_fr_energy">     -6.82077424 </i>
    <i name="e_wo_entrp">     -6.82077424 </i>
    <i name="e_0_energy">     -6.82077424 </i>
   </energy>
  </scstep>
  <scstep>
   <time name="total">   11.24   11.35</time>
   <energy>
    <i name="alphaZ">      2.52703488 </i>
    <i name="ewald">    -94.29113762 </i>
    <i name="hartreedc">    -36.33123237 </i>
    <i name="XCdc">     17.58760748 </i>
    <i name="pawpsdc">     79.33292788 </i>
    <i name="pawaedc">    -94.25009126 </i>
    <i name="eentropy">      0.00000000 </i>
    <i name="bandstr">    -96.66432791 </i>
    <i name="atom">    215.26843501 </i>
    <i name="e_fr_energy">     -6.82078391 </i>
    <i name="e_wo_entrp">     -6.82078391 </i>
    <i name="e_0_energy">     -6.82078391 </i>
   </energy>
  </scstep>
  <structure>
   <crystal>
    <varray name="basis" >
     <v>      -2.00008700      -2.00008700       0.00000000 </v>
     <v>      -2.00008700       0.00000000      -2.00008700 </v>
     <v>       0.00000000      -2.00008700      -2.00008700 </v>
    </varray>
    <i name="volume">     16.00208809 </i>
    <varray name="rec_basis" >
     <v>      -0.24998913      -0.24998913       0.24998913 </v>
     <v>      -0.24998913       0.24998913      -0.24998913 </v>
     <v>       0.24998913      -0.24998913      -0.24998913 </v>
    </varray>
   </crystal>
   <varray name="positions" >
    <v>       0.00000000       0.00000000       0.00000000 </v>
    <v>       0.50000000       0.50000000       0.50000000 </v>
   </varray>
  </structure>
  <varray name="forces" >
   <v>      -0.00000000       0.00000000       0.00000000 </v>
   <v>       0.00000000      -0.00000000      -0.00000000 </v>
  </varray>
  <varray name="stress" >
   <v>      -1.75305867      -0.00000000      -0.00000000 </v>
   <v>       0.00000000      -1.75305867       0.00000000 </v>
   <v>       0.00000000      -0.00000000      -1.75305867 </v>
  </varray>
  <energy>
   <i name="e_fr_energy">     -6.82078391 </i>
   <i name="e_wo_entrp">     -6.82078391 </i>
   <i name="e_0_energy">     -6.82078391 </i>
  </energy>
  <time name="totalsc">  135.07  236.27</time>
  <eigenvalues>
   <array>
    <dimension dim="1">band</dimension>
    <dimension dim="2">kpoint</dimension>
    <dimension dim="3">spin</dimension>
    <field>eigene</field>
    <field>occ</field>
    <set>
     <set comment="spin 1">
      <set comment="kpoint 1">
       <r>  -45.8779    1.0000 </r>
       <r>   -5.6309    1.0000 </r>
       <r>   17.5500    0.0000 </r>
       <r>   19.2889    0.0000 </r>
       <r>   19.2889    0.0000 </r>
       <r>   19.2894    0.0000 </r>
       <r>   23.7397    0.0000 </r>
       <r>   23.7397    0.0000 </r>
      </set>
      <set comment="kpoint 2">
       <r>  -45.8712    1.0000 </r>
       <r>   -5.3498    1.0000 </r>
       <r>   14.9265    0.0000 </r>
       <r>   17.9430    0.0000 </r>
       <r>   18.6552    0.0000 </r>
       <r>   18.6556    0.0000 </r>
       <r>   23.6774    0.0000 </r>
       <r>   25.1583    0.0000 </r>
      </set>
      <set comment="kpoint 3">
       <r>  -45.8550    1.0000 </r>
       <r>   -4.5480    1.0000 </r>
       <r>   10.4951    0.0000 </r>
       <r>   16.3443    0.0000 </r>
       <r>   17.9207    0.0000 </r>
       <r>   17.9211    0.0000 </r>
       <r>   23.2921    0.0000 </r>
       <r>   23.2923    0.0000 </r>
      </set>
      <set comment="kpoint 4">
       <r>  -45.8387    1.0000 </r>
       <r>   -3.4481    1.0000 </r>
       <r>    6.9836    0.0000 </r>
       <r>   15.2243    0.0000 </r>
       <r>   17.7981    0.0000 </r>
       <r>   17.7986    0.0000 </r>
       <r>   20.8361    0.0000 </r>
       <r>   20.8362    0.0000 </r>
      </set>
      <set comment="kpoint 5">
       <r>  -45.8320    1.0000 </r>
       <r>   -2.8163    1.0000 </r>
       <r>    5.5275    0.0000 </r>
       <r>   14.8293    0.0000 </r>
       <r>   18.0443    0.0000 </r>
       <r>   18.0450    0.0000 </r>
       <r>   19.7152    0.0000 </r>
       <r>   19.7152    0.0000 </r>
      </set>
      <set comment="kpoint 6">
       <r>  -45.8690    1.0000 </r>
       <r>   -5.2484    1.0000 </r>
       <r>   15.4261    0.0000 </r>
       <r>   16.7798    0.0000 </r>
       <r>   16.7801    0.0000 </r>
       <r>   20.3337    0.0000 </r>
       <r>   20.5083    0.0000 </r>
       <r>   25.7894    0.0000 </r>
      </set>
      <set comment="kpoint 7">
       <r>  -45.8560    1.0000 </r>
       <r>   -4.5940    1.0000 </r>
       <r>   11.8989    0.0000 </r>
       <r>   14.9521    0.0000 </r>
       <r>   15.5537    0.0000 </r>
       <r>   19.7196    0.0000 </r>
       <r>   21.4102    0.0000 </r>
       <r>   24.5386    0.0000 </r>
      </set>
      <set comment="kpoint 8">
       <r>  -45.8398    1.0000 </r>
       <r>   -3.5191    1.0000 </r>
       <r>    8.0323    0.0000 </r>
       <r>   13.3802    0.0000 </r>
       <r>   15.1563    0.0000 </r>
       <r>   18.5096    0.0000 </r>
       <r>   23.2256    0.0000 </r>
       <r>   24.9485    0.0000 </r>
      </set>
      <set comment="kpoint 9">
       <r>  -45.8301    1.0000 </r>
       <r>   -2.5743    1.0000 </r>
       <r>    5.7476    0.0000 </r>
       <r>   12.4357    0.0000 </r>
       <r>   15.6243    0.0000 </r>
       <r>   17.4883    0.0000 </r>
       <r>   23.0114    0.0000 </r>
       <r>   23.4864    0.0000 </r>
      </set>
      <set comment="kpoint 10">
       <r>  -45.8322    1.0000 </r>
       <r>   -2.8230    1.0000 </r>
       <r>    6.2877    0.0000 </r>
       <r>   12.1913    0.0000 </r>
       <r>   16.9493    0.0000 </r>
       <r>   17.0622    0.0000 </r>
       <r>   21.8879    0.0000 </r>
       <r>   24.5708    0.0000 </r>
      </set>
      <set comment="kpoint 11">
       <r>  -45.8452    1.0000 </r>
       <r>   -3.9262    1.0000 </r>
       <r>    9.3026    0.0000 </r>
       <r>   12.6195    0.0000 </r>
       <r>   17.3737    0.0000 </r>
       <r>   18.9867    0.0000 </r>
       <r>   21.6425    0.0000 </r>
       <r>   25.5387    0.0000 </r>
      </set>
      <set comment="kpoint 12">
       <r>  -45.8614    1.0000 </r>
       <r>   -4.8845    1.0000 </r>
       <r>   13.2861    0.0000 </r>
       <r>   13.9969    0.0000 </r>
       <r>   18.1532    0.0000 </r>
       <r>   20.1757    0.0000 </r>
       <r>   23.0952    0.0000 </r>
       <r>   23.7626    0.0000 </r>
      </set>
      <set comment="kpoint 13">
       <r>  -45.8478    1.0000 </r>
       <r>   -4.0630    1.0000 </r>
       <r>   11.1714    0.0000 </r>
       <r>   13.9617    0.0000 </r>
       <r>   13.9619    0.0000 </r>
       <r>   17.3361    0.0000 </r>
       <r>   19.5201    0.0000 </r>
       <r>   28.0958    0.0000 </r>
      </set>
      <set comment="kpoint 14">
       <r>  -45.8350    1.0000 </r>
       <r>   -3.0321    1.0000 </r>
       <r>    8.3752    0.0000 </r>
       <r>   11.5516    0.0000 </r>
       <r>   13.2397    0.0000 </r>
       <r>   18.1570    0.0000 </r>
       <r>   19.7234    0.0000 </r>
       <r>   29.0769    0.0000 </r>
      </set>
      <set comment="kpoint 15">
       <r>  -45.8253    1.0000 </r>
       <r>   -1.8800    1.0000 </r>
       <r>    5.9814    0.0000 </r>
       <r>    9.6373    0.0000 </r>
       <r>   13.4063    0.0000 </r>
       <r>   17.8291    0.0000 </r>
       <r>   23.0220    0.0000 </r>
       <r>   27.8244    0.0000 </r>
      </set>
      <set comment="kpoint 16">
       <r>  -45.8242    1.0000 </r>
       <r>   -1.7477    1.0000 </r>
       <r>    5.8345    0.0000 </r>
       <r>    8.7867    0.0000 </r>
       <r>   14.4650    0.0000 </r>
       <r>   17.3826    0.0000 </r>
       <r>   26.1589    0.0000 </r>
       <r>   26.8437    0.0000 </r>
      </set>
      <set comment="kpoint 17">
       <r>  -45.8324    1.0000 </r>
       <r>   -2.8298    1.0000 </r>
       <r>    8.1951    0.0000 </r>
       <r>    8.9923    0.0000 </r>
       <r>   16.3988    0.0000 </r>
       <r>   17.2756    0.0000 </r>
       <r>   24.4479    0.0000 </r>
       <r>   27.2848    0.0000 </r>
      </set>
      <set comment="kpoint 18">
       <r>  -45.8269    1.0000 </r>
       <r>   -2.0420    1.0000 </r>
       <r>    6.3477    0.0000 </r>
       <r>   12.2011    0.0000 </r>
       <r>   12.2013    0.0000 </r>
       <r>   15.5239    0.0000 </r>
       <r>   19.1030    0.0000 </r>
       <r>   33.5259    0.0000 </r>
      </set>
      <set comment="kpoint 19">
       <r>  -45.8204    1.0000 </r>
       <r>   -0.8613    1.0000 </r>
       <r>    4.5610    0.0000 </r>
       <r>   10.0477    0.0000 </r>
       <r>   12.0589    0.0000 </r>
       <r>   17.2150    0.0000 </r>
       <r>   19.3953    0.0000 </r>
       <r>   33.2808    0.0000 </r>
      </set>
      <set comment="kpoint 20">
       <r>  -45.8193    1.0000 </r>
       <r>   -0.6824    1.0000 </r>
       <r>    4.6162    0.0000 </r>
       <r>    8.2570    0.0000 </r>
       <r>   12.8157    0.0000 </r>
       <r>   17.7594    0.0000 </r>
       <r>   22.6774    0.0000 </r>
       <r>   30.3974    0.0000 </r>
      </set>
      <set comment="kpoint 21">
       <r>  -45.8183    1.0000 </r>
       <r>   -0.1592    1.0000 </r>
       <r>    3.4165    0.0000 </r>
       <r>   11.6086    0.0000 </r>
       <r>   11.6088    0.0000 </r>
       <r>   14.9188    0.0000 </r>
       <r>   19.1112    0.0000 </r>
       <r>   37.6759    0.0000 </r>
      </set>
      <set comment="kpoint 22">
       <r>  -45.8432    1.0000 </r>
       <r>   -3.7581    1.0000 </r>
       <r>   10.2912    0.0000 </r>
       <r>   11.1054    0.0000 </r>
       <r>   15.3090    0.0000 </r>
       <r>   19.3603    0.0000 </r>
       <r>   21.3852    0.0000 </r>
       <r>   24.9656    0.0000 </r>
      </set>
      <set comment="kpoint 23">
       <r>  -45.8304    1.0000 </r>
       <r>   -2.5836    1.0000 </r>
       <r>    7.1647    0.0000 </r>
       <r>    9.8363    0.0000 </r>
       <r>   14.6168    0.0000 </r>
       <r>   18.3687    0.0000 </r>
       <r>   23.6548    0.0000 </r>
       <r>   25.7568    0.0000 </r>
      </set>
      <set comment="kpoint 24">
       <r>  -45.8251    1.0000 </r>
       <r>   -1.8825    1.0000 </r>
       <r>    5.6690    0.0000 </r>
       <r>    9.5196    0.0000 </r>
       <r>   14.3586    0.0000 </r>
       <r>   17.9017    0.0000 </r>
       <r>   24.3345    0.0000 </r>
       <r>   27.7623    0.0000 </r>
      </set>
      <set comment="kpoint 25">
       <r>  -45.8255    1.0000 </r>
       <r>   -1.8790    1.0000 </r>
       <r>    6.4731    0.0000 </r>
       <r>    9.3228    0.0000 </r>
       <r>   12.8975    0.0000 </r>
       <r>   19.0975    0.0000 </r>
       <r>   19.6089    0.0000 </r>
       <r>   29.1047    0.0000 </r>
      </set>
      <set comment="kpoint 26">
       <r>  -45.8201    1.0000 </r>
       <r>   -0.9302    1.0000 </r>
       <r>    5.3397    0.0000 </r>
       <r>    7.6021    0.0000 </r>
       <r>   12.9988    0.0000 </r>
       <r>   18.6283    0.0000 </r>
       <r>   23.1407    0.0000 </r>
       <r>   28.3780    0.0000 </r>
      </set>
      <set comment="kpoint 27">
       <r>  -45.8222    1.0000 </r>
       <r>   -1.3877    1.0000 </r>
       <r>    6.4065    0.0000 </r>
       <r>    7.1506    0.0000 </r>
       <r>   13.6684    0.0000 </r>
       <r>   18.3978    0.0000 </r>
       <r>   26.1283    0.0000 </r>
       <r>   26.3466    0.0000 </r>
      </set>
      <set comment="kpoint 28">
       <r>  -45.8182    1.0000 </r>
       <r>   -0.2860    1.0000 </r>
       <r>    4.0165    0.0000 </r>
       <r>    8.7250    0.0000 </r>
       <r>   12.1972    0.0000 </r>
       <r>   19.0116    0.0000 </r>
       <r>   19.1848    0.0000 </r>
       <r>   32.1917    0.0000 </r>
      </set>
      <set comment="kpoint 29">
       <r>  -45.8180    1.0000 </r>
       <r>   -0.4070    1.0000 </r>
       <r>    5.8072    0.0000 </r>
       <r>    5.8073    0.0000 </r>
       <r>   12.8328    0.0000 </r>
       <r>   19.2885    0.0000 </r>
       <r>   25.5482    0.0000 </r>
       <r>   25.5482    0.0000 </r>
      </set>
     </set>
     <set comment="spin 2">
      <set comment="kpoint 1">
       <r>  -45.8779    1.0000 </r>
       <r>   -5.6309    1.0000 </r>
       <r>   17.5500    0.0000 </r>
       <r>   19.2889    0.0000 </r>
       <r>   19.2889    0.0000 </r>
       <r>   19.2894    0.0000 </r>
       <r>   23.7397    0.0000 </r>
       <r>   23.7397    0.0000 </r>
      </set>
      <set comment="kpoint 2">
       <r>  -45.8712    1.0000 </r>
       <r>   -5.3498    1.0000 </r>
       <r>   14.9265    0.0000 </r>
       <r>   17.9430    0.0000 </r>
       <r>   18.6551    0.0000 </r>
       <r>   18.6556    0.0000 </r>
       <r>   23.6774    0.0000 </r>
       <r>   25.1584    0.0000 </r>
      </set>
      <set comment="kpoint 3">
       <r>  -45.8550    1.0000 </r>
       <r>   -4.5480    1.0000 </r>
       <r>   10.4951    0.0000 </r>
       <r>   16.3443    0.0000 </r>
       <r>   17.9207    0.0000 </r>
       <r>   17.9211    0.0000 </r>
       <r>   23.2921    0.0000 </r>
       <r>   23.2924    0.0000 </r>
      </set>
      <set comment="kpoint 4">
       <r>  -45.8387    1.0000 </r>
       <r>   -3.4481    1.0000 </r>
       <r>    6.9836    0.0000 </r>
       <r>   15.2243    0.0000 </r>
       <r>   17.7981    0.0000 </r>
       <r>   17.7986    0.0000 </r>
       <r>   20.8361    0.0000 </r>
       <r>   20.8362    0.0000 </r>
      </set>
      <set comment="kpoint 5">
       <r>  -45.8320    1.0000 </r>
       <r>   -2.8163    1.0000 </r>
       <r>    5.5275    0.0000 </r>
       <r>   14.8293    0.0000 </r>
       <r>   18.0443    0.0000 </r>
       <r>   18.0450    0.0000 </r>
       <r>   19.7152    0.0000 </r>
       <r>   19.7152    0.0000 </r>
      </set>
      <set comment="kpoint 6">
       <r>  -45.8690    1.0000 </r>
       <r>   -5.2484    1.0000 </r>
       <r>   15.4261    0.0000 </r>
       <r>   16.7798    0.0000 </r>
       <r>   16.7801    0.0000 </r>
       <r>   20.3337    0.0000 </r>
       <r>   20.5083    0.0000 </r>
       <r>   25.7894    0.0000 </r>
      </set>
      <set comment="kpoint 7">
       <r>  -45.8560    1.0000 </r>
       <r>   -4.5940    1.0000 </r>
       <r>   11.8989    0.0000 </r>
       <r>   14.9521    0.0000 </r>
       <r>   15.5537    0.0000 </r>
       <r>   19.7196    0.0000 </r>
       <r>   21.4102    0.0000 </r>
       <r>   24.5386    0.0000 </r>
      </set>
      <set comment="kpoint 8">
       <r>  -45.8398    1.0000 </r>
       <r>   -3.5191    1.0000 </r>
       <r>    8.0323    0.0000 </r>
       <r>   13.3802    0.0000 </r>
       <r>   15.1563    0.0000 </r>
       <r>   18.5096    0.0000 </r>
       <r>   23.2256    0.0000 </r>
       <r>   24.9485    0.0000 </r>
      </set>
      <set comment="kpoint 9">
       <r>  -45.8301    1.0000 </r>
       <r>   -2.5743    1.0000 </r>
       <r>    5.7476    0.0000 </r>
       <r>   12.4357    0.0000 </r>
       <r>   15.6243    0.0000 </r>
       <r>   17.4883    0.0000 </r>
       <r>   23.0114    0.0000 </r>
       <r>   23.4864    0.0000 </r>
      </set>
      <set comment="kpoint 10">
       <r>  -45.8322    1.0000 </r>
       <r>   -2.8230    1.0000 </r>
       <r>    6.2877    0.0000 </r>
       <r>   12.1913    0.0000 </r>
       <r>   16.9493    0.0000 </r>
       <r>   17.0622    0.0000 </r>
       <r>   21.8879    0.0000 </r>
       <r>   24.5707    0.0000 </r>
      </set>
      <set comment="kpoint 11">
       <r>  -45.8452    1.0000 </r>
       <r>   -3.9262    1.0000 </r>
       <r>    9.3026    0.0000 </r>
       <r>   12.6195    0.0000 </r>
       <r>   17.3737    0.0000 </r>
       <r>   18.9867    0.0000 </r>
       <r>   21.6425    0.0000 </r>
       <r>   25.5388    0.0000 </r>
      </set>
      <set comment="kpoint 12">
       <r>  -45.8614    1.0000 </r>
       <r>   -4.8845    1.0000 </r>
       <r>   13.2861    0.0000 </r>
       <r>   13.9969    0.0000 </r>
       <r>   18.1532    0.0000 </r>
       <r>   20.1757    0.0000 </r>
       <r>   23.0952    0.0000 </r>
       <r>   23.7626    0.0000 </r>
      </set>
      <set comment="kpoint 13">
       <r>  -45.8478    1.0000 </r>
       <r>   -4.0630    1.0000 </r>
       <r>   11.1714    0.0000 </r>
       <r>   13.9617    0.0000 </r>
       <r>   13.9619    0.0000 </r>
       <r>   17.3361    0.0000 </r>
       <r>   19.5201    0.0000 </r>
       <r>   28.0958    0.0000 </r>
      </set>
      <set comment="kpoint 14">
       <r>  -45.8350    1.0000 </r>
       <r>   -3.0321    1.0000 </r>
       <r>    8.3752    0.0000 </r>
       <r>   11.5516    0.0000 </r>
       <r>   13.2397    0.0000 </r>
       <r>   18.1570    0.0000 </r>
       <r>   19.7234    0.0000 </r>
       <r>   29.0782    0.0000 </r>
      </set>
      <set comment="kpoint 15">
       <r>  -45.8253    1.0000 </r>
       <r>   -1.8800    1.0000 </r>
       <r>    5.9814    0.0000 </r>
       <r>    9.6373    0.0000 </r>
       <r>   13.4063    0.0000 </r>
       <r>   17.8291    0.0000 </r>
       <r>   23.0220    0.0000 </r>
       <r>   27.8244    0.0000 </r>
      </set>
      <set comment="kpoint 16">
       <r>  -45.8242    1.0000 </r>
       <r>   -1.7477    1.0000 </r>
       <r>    5.8345    0.0000 </r>
       <r>    8.7867    0.0000 </r>
       <r>   14.4650    0.0000 </r>
       <r>   17.3826    0.0000 </r>
       <r>   26.1589    0.0000 </r>
       <r>   26.8437    0.0000 </r>
      </set>
      <set comment="kpoint 17">
       <r>  -45.8324    1.0000 </r>
       <r>   -2.8298    1.0000 </r>
       <r>    8.1951    0.0000 </r>
       <r>    8.9923    0.0000 </r>
       <r>   16.3988    0.0000 </r>
       <r>   17.2756    0.0000 </r>
       <r>   24.4479    0.0000 </r>
       <r>   27.2848    0.0000 </r>
      </set>
      <set comment="kpoint 18">
       <r>  -45.8269    1.0000 </r>
       <r>   -2.0420    1.0000 </r>
       <r>    6.3477    0.0000 </r>
       <r>   12.2011    0.0000 </r>
       <r>   12.2013    0.0000 </r>
       <r>   15.5239    0.0000 </r>
       <r>   19.1030    0.0000 </r>
       <r>   33.5266    0.0000 </r>
      </set>
      <set comment="kpoint 19">
       <r>  -45.8204    1.0000 </r>
       <r>   -0.8613    1.0000 </r>
       <r>    4.5610    0.0000 </r>
       <r>   10.0477    0.0000 </r>
       <r>   12.0589    0.0000 </r>
       <r>   17.2150    0.0000 </r>
       <r>   19.3953    0.0000 </r>
       <r>   33.2807    0.0000 </r>
      </set>
      <set comment="kpoint 20">
       <r>  -45.8193    1.0000 </r>
       <r>   -0.6824    1.0000 </r>
       <r>    4.6162    0.0000 </r>
       <r>    8.2570    0.0000 </r>
       <r>   12.8157    0.0000 </r>
       <r>   17.7594    0.0000 </r>
       <r>   22.6774    0.0000 </r>
       <r>   30.3974    0.0000 </r>
      </set>
      <set comment="kpoint 21">
       <r>  -45.8183    1.0000 </r>
       <r>   -0.1592    1.0000 </r>
       <r>    3.4165    0.0000 </r>
       <r>   11.6086    0.0000 </r>
       <r>   11.6088    0.0000 </r>
       <r>   14.9188    0.0000 </r>
       <r>   19.1112    0.0000 </r>
       <r>   37.5166    0.0000 </r>
      </set>
      <set comment="kpoint 22">
       <r>  -45.8432    1.0000 </r>
       <r>   -3.7581    1.0000 </r>
       <r>   10.2912    0.0000 </r>
       <r>   11.1054    0.0000 </r>
       <r>   15.3090    0.0000 </r>
       <r>   19.3603    0.0000 </r>
       <r>   21.3852    0.0000 </r>
       <r>   24.9656    0.0000 </r>
      </set>
      <set comment="kpoint 23">
       <r>  -45.8304    1.0000 </r>
       <r>   -2.5836    1.0000 </r>
       <r>    7.1647    0.0000 </r>
       <r>    9.8363    0.0000 </r>
       <r>   14.6168    0.0000 </r>
       <r>   18.3687    0.0000 </r>
       <r>   23.6549    0.0000 </r>
       <r>   25.7570    0.0000 </r>
      </set>
      <set comment="kpoint 24">
       <r>  -45.8251    1.0000 </r>
       <r>   -1.8825    1.0000 </r>
       <r>    5.6690    0.0000 </r>
       <r>    9.5196    0.0000 </r>
       <r>   14.3586    0.0000 </r>
       <r>   17.9017    0.0000 </r>
       <r>   24.3345    0.0000 </r>
       <r>   27.7622    0.0000 </r>
      </set>
      <set comment="kpoint 25">
       <r>  -45.8255    1.0000 </r>
       <r>   -1.8790    1.0000 </r>
       <r>    6.4731    0.0000 </r>
       <r>    9.3228    0.0000 </r>
       <r>   12.8975    0.0000 </r>
       <r>   19.0975    0.0000 </r>
       <r>   19.6089    0.0000 </r>
       <r>   29.1046    0.0000 </r>
      </set>
      <set comment="kpoint 26">
       <r>  -45.8201    1.0000 </r>
       <r>   -0.9302    1.0000 </r>
       <r>    5.3397    0.0000 </r>
       <r>    7.6021    0.0000 </r>
       <r>   12.9988    0.0000 </r>
       <r>   18.6283    0.0000 </r>
       <r>   23.1407    0.0000 </r>
       <r>   28.3781    0.0000 </r>
      </set>
      <set comment="kpoint 27">
       <r>  -45.8222    1.0000 </r>
       <r>   -1.3876    1.0000 </r>
       <r>    6.4065    0.0000 </r>
       <r>    7.1506    0.0000 </r>
       <r>   13.6684    0.0000 </r>
       <r>   18.3978    0.0000 </r>
       <r>   26.1283    0.0000 </r>
       <r>   26.3466    0.0000 </r>
      </set>
      <set comment="kpoint 28">
       <r>  -45.8182    1.0000 </r>
       <r>   -0.2860    1.0000 </r>
       <r>    4.0165    0.0000 </r>
       <r>    8.7250    0.0000 </r>
       <r>   12.1972    0.0000 </r>
       <r>   19.0116    0.0000 </r>
       <r>   19.1848    0.0000 </r>
       <r>   32.1916    0.0000 </r>
      </set>
      <set comment="kpoint 29">
       <r>  -45.8180    1.0000 </r>
       <r>   -0.4070    1.0000 </r>
       <r>    5.8072    0.0000 </r>
       <r>    5.8073    0.0000 </r>
       <r>   12.8328    0.0000 </r>
       <r>   19.2885    0.0000 </r>
       <r>   25.5482    0.0000 </r>
       <r>   25.5482    0.0000 </r>
      </set>
     </set>
    </set>
   </array>
  </eigenvalues>
  <separator name="orbital magnetization" >
   <v name="MAGDIPOLOUT">      0.00000000      0.00000000      0.00000000</v>
  </separator>
  <dos>
   <i name="efermi">      3.41628393 </i>
   <total>
    <array>
     <dimension dim="1">gridpoints</dimension>
     <dimension dim="2">spin</dimension>
     <field>energy</field>
     <field>total</field>
     <field>integrated</field>
     <set>
      <set comment="spin 1">
       <r>   -50.0556     0.0000     0.0000 </r>
       <r>   -49.7492     0.0000     0.0000 </r>
       <r>   -49.4429     0.0000     0.0000 </r>
       <r>   -49.1365     0.0000     0.0000 </r>
       <r>   -48.8302     0.0000     0.0000 </r>
       <r>   -48.5238     0.0000     0.0000 </r>
       <r>   -48.2174     0.0000     0.0000 </r>
       <r>   -47.9111     0.0000     0.0000 </r>
       <r>   -47.6047     0.0000     0.0000 </r>
       <r>   -47.2983     0.0000     0.0000 </r>
       <r>   -46.9920     0.0000     0.0000 </r>
       <r>   -46.6856     0.0000     0.0000 </r>
       <r>   -46.3792     0.0000     0.0000 </r>
       <r>   -46.0729     0.0000     0.0000 </r>
       <r>   -45.7665     3.2641     1.0000 </r>
       <r>   -45.4602     0.0000     1.0000 </r>
       <r>   -45.1538     0.0000     1.0000 </r>
       <r>   -44.8474     0.0000     1.0000 </r>
       <r>   -44.5411     0.0000     1.0000 </r>
       <r>   -44.2347     0.0000     1.0000 </r>
       <r>   -43.9283     0.0000     1.0000 </r>
       <r>   -43.6220     0.0000     1.0000 </r>
       <r>   -43.3156     0.0000     1.0000 </r>
       <r>   -43.0092     0.0000     1.0000 </r>
       <r>   -42.7029     0.0000     1.0000 </r>
       <r>   -42.3965     0.0000     1.0000 </r>
       <r>   -42.0902     0.0000     1.0000 </r>
       <r>   -41.7838     0.0000     1.0000 </r>
       <r>   -41.4774     0.0000     1.0000 </r>
       <r>   -41.1711     0.0000     1.0000 </r>
       <r>   -40.8647     0.0000     1.0000 </r>
       <r>   -40.5583     0.0000     1.0000 </r>
       <r>   -40.2520     0.0000     1.0000 </r>
       <r>   -39.9456     0.0000     1.0000 </r>
       <r>   -39.6392     0.0000     1.0000 </r>
       <r>   -39.3329     0.0000     1.0000 </r>
       <r>   -39.0265     0.0000     1.0000 </r>
       <r>   -38.7201     0.0000     1.0000 </r>
       <r>   -38.4138     0.0000     1.0000 </r>
       <r>   -38.1074     0.0000     1.0000 </r>
       <r>   -37.8011     0.0000     1.0000 </r>
       <r>   -37.4947     0.0000     1.0000 </r>
       <r>   -37.1883     0.0000     1.0000 </r>
       <r>   -36.8820     0.0000     1.0000 </r>
       <r>   -36.5756     0.0000     1.0000 </r>
       <r>   -36.2692     0.0000     1.0000 </r>
       <r>   -35.9629     0.0000     1.0000 </r>
       <r>   -35.6565     0.0000     1.0000 </r>
       <r>   -35.3501     0.0000     1.0000 </r>
       <r>   -35.0438     0.0000     1.0000 </r>
       <r>   -34.7374     0.0000     1.0000 </r>
       <r>   -34.4311     0.0000     1.0000 </r>
       <r>   -34.1247     0.0000     1.0000 </r>
       <r>   -33.8183     0.0000     1.0000 </r>
       <r>   -33.5120     0.0000     1.0000 </r>
       <r>   -33.2056     0.0000     1.0000 </r>
       <r>   -32.8992     0.0000     1.0000 </r>
       <r>   -32.5929     0.0000     1.0000 </r>
       <r>   -32.2865     0.0000     1.0000 </r>
       <r>   -31.9801     0.0000     1.0000 </r>
       <r>   -31.6738     0.0000     1.0000 </r>
       <r>   -31.3674     0.0000     1.0000 </r>
       <r>   -31.0610     0.0000     1.0000 </r>
       <r>   -30.7547     0.0000     1.0000 </r>
       <r>   -30.4483     0.0000     1.0000 </r>
       <r>   -30.1420     0.0000     1.0000 </r>
       <r>   -29.8356     0.0000     1.0000 </r>
       <r>   -29.5292     0.0000     1.0000 </r>
       <r>   -29.2229     0.0000     1.0000 </r>
       <r>   -28.9165     0.0000     1.0000 </r>
       <r>   -28.6101     0.0000     1.0000 </r>
       <r>   -28.3038     0.0000     1.0000 </r>
       <r>   -27.9974     0.0000     1.0000 </r>
       <r>   -27.6910     0.0000     1.0000 </r>
       <r>   -27.3847     0.0000     1.0000 </r>
       <r>   -27.0783     0.0000     1.0000 </r>
       <r>   -26.7720     0.0000     1.0000 </r>
       <r>   -26.4656     0.0000     1.0000 </r>
       <r>   -26.1592     0.0000     1.0000 </r>
       <r>   -25.8529     0.0000     1.0000 </r>
       <r>   -25.5465     0.0000     1.0000 </r>
       <r>   -25.2401     0.0000     1.0000 </r>
       <r>   -24.9338     0.0000     1.0000 </r>
       <r>   -24.6274     0.0000     1.0000 </r>
       <r>   -24.3210     0.0000     1.0000 </r>
       <r>   -24.0147     0.0000     1.0000 </r>
       <r>   -23.7083     0.0000     1.0000 </r>
       <r>   -23.4019     0.0000     1.0000 </r>
       <r>   -23.0956     0.0000     1.0000 </r>
       <r>   -22.7892     0.0000     1.0000 </r>
       <r>   -22.4829     0.0000     1.0000 </r>
       <r>   -22.1765     0.0000     1.0000 </r>
       <r>   -21.8701     0.0000     1.0000 </r>
       <r>   -21.5638     0.0000     1.0000 </r>
       <r>   -21.2574     0.0000     1.0000 </r>
       <r>   -20.9510     0.0000     1.0000 </r>
       <r>   -20.6447     0.0000     1.0000 </r>
       <r>   -20.3383     0.0000     1.0000 </r>
       <r>   -20.0319     0.0000     1.0000 </r>
       <r>   -19.7256     0.0000     1.0000 </r>
       <r>   -19.4192     0.0000     1.0000 </r>
       <r>   -19.1129     0.0000     1.0000 </r>
       <r>   -18.8065     0.0000     1.0000 </r>
       <r>   -18.5001     0.0000     1.0000 </r>
       <r>   -18.1938     0.0000     1.0000 </r>
       <r>   -17.8874     0.0000     1.0000 </r>
       <r>   -17.5810     0.0000     1.0000 </r>
       <r>   -17.2747     0.0000     1.0000 </r>
       <r>   -16.9683     0.0000     1.0000 </r>
       <r>   -16.6619     0.0000     1.0000 </r>
       <r>   -16.3556     0.0000     1.0000 </r>
       <r>   -16.0492     0.0000     1.0000 </r>
       <r>   -15.7429     0.0000     1.0000 </r>
       <r>   -15.4365     0.0000     1.0000 </r>
       <r>   -15.1301     0.0000     1.0000 </r>
       <r>   -14.8238     0.0000     1.0000 </r>
       <r>   -14.5174     0.0000     1.0000 </r>
       <r>   -14.2110     0.0000     1.0000 </r>
       <r>   -13.9047     0.0000     1.0000 </r>
       <r>   -13.5983     0.0000     1.0000 </r>
       <r>   -13.2919     0.0000     1.0000 </r>
       <r>   -12.9856     0.0000     1.0000 </r>
       <r>   -12.6792     0.0000     1.0000 </r>
       <r>   -12.3728     0.0000     1.0000 </r>
       <r>   -12.0665     0.0000     1.0000 </r>
       <r>   -11.7601     0.0000     1.0000 </r>
       <r>   -11.4538     0.0000     1.0000 </r>
       <r>   -11.1474     0.0000     1.0000 </r>
       <r>   -10.8410     0.0000     1.0000 </r>
       <r>   -10.5347     0.0000     1.0000 </r>
       <r>   -10.2283     0.0000     1.0000 </r>
       <r>    -9.9219     0.0000     1.0000 </r>
       <r>    -9.6156     0.0000     1.0000 </r>
       <r>    -9.3092     0.0000     1.0000 </r>
       <r>    -9.0028     0.0000     1.0000 </r>
       <r>    -8.6965     0.0000     1.0000 </r>
       <r>    -8.3901     0.0000     1.0000 </r>
       <r>    -8.0838     0.0000     1.0000 </r>
       <r>    -7.7774     0.0000     1.0000 </r>
       <r>    -7.4710     0.0000     1.0000 </r>
       <r>    -7.1647     0.0000     1.0000 </r>
       <r>    -6.8583     0.0000     1.0000 </r>
       <r>    -6.5519     0.0000     1.0000 </r>
       <r>    -6.2456     0.0000     1.0000 </r>
       <r>    -5.9392     0.0000     1.0000 </r>
       <r>    -5.6328     0.0000     1.0000 </r>
       <r>    -5.3265     0.0571     1.0071 </r>
       <r>    -5.0201     0.0755     1.0261 </r>
       <r>    -4.7137     0.1026     1.0539 </r>
       <r>    -4.4074     0.1168     1.0870 </r>
       <r>    -4.1010     0.1388     1.1261 </r>
       <r>    -3.7947     0.1591     1.1720 </r>
       <r>    -3.4883     0.1810     1.2240 </r>
       <r>    -3.1819     0.2162     1.2845 </r>
       <r>    -2.8756     0.2627     1.3576 </r>
       <r>    -2.5692     0.3472     1.4543 </r>
       <r>    -2.2628     0.2885     1.5439 </r>
       <r>    -1.9565     0.2793     1.6310 </r>
       <r>    -1.6501     0.2584     1.7125 </r>
       <r>    -1.3437     0.2480     1.7904 </r>
       <r>    -1.0374     0.2537     1.8664 </r>
       <r>    -0.7310     0.2550     1.9458 </r>
       <r>    -0.4247     0.0661     1.9946 </r>
       <r>    -0.1183     0.0000     2.0000 </r>
       <r>     0.1881     0.0000     2.0000 </r>
       <r>     0.4944     0.0000     2.0000 </r>
       <r>     0.8008     0.0000     2.0000 </r>
       <r>     1.1072     0.0000     2.0000 </r>
       <r>     1.4135     0.0000     2.0000 </r>
       <r>     1.7199     0.0000     2.0000 </r>
       <r>     2.0263     0.0000     2.0000 </r>
       <r>     2.3326     0.0000     2.0000 </r>
       <r>     2.6390     0.0000     2.0000 </r>
       <r>     2.9453     0.0000     2.0000 </r>
       <r>     3.2517     0.0000     2.0000 </r>
       <r>     3.5581     0.0013     2.0001 </r>
       <r>     3.8644     0.0132     2.0020 </r>
       <r>     4.1708     0.0393     2.0095 </r>
       <r>     4.4772     0.0906     2.0287 </r>
       <r>     4.7835     0.0898     2.0558 </r>
       <r>     5.0899     0.1182     2.0875 </r>
       <r>     5.3963     0.1802     2.1297 </r>
       <r>     5.7026     0.4064     2.2122 </r>
       <r>     6.0090     0.3547     2.3663 </r>
       <r>     6.3154     0.2494     2.4557 </r>
       <r>     6.6217     0.2163     2.5265 </r>
       <r>     6.9281     0.1967     2.5895 </r>
       <r>     7.2344     0.1891     2.6481 </r>
       <r>     7.5408     0.2038     2.7078 </r>
       <r>     7.8472     0.2196     2.7729 </r>
       <r>     8.1535     0.2362     2.8426 </r>
       <r>     8.4599     0.2527     2.9177 </r>
       <r>     8.7663     0.2556     2.9960 </r>
       <r>     9.0726     0.2429     3.0717 </r>
       <r>     9.3790     0.2379     3.1456 </r>
       <r>     9.6854     0.2245     3.2166 </r>
       <r>     9.9917     0.2131     3.2839 </r>
       <r>    10.2981     0.2000     3.3471 </r>
       <r>    10.6044     0.1890     3.4067 </r>
       <r>    10.9108     0.1786     3.4629 </r>
       <r>    11.2172     0.1686     3.5161 </r>
       <r>    11.5235     0.1569     3.5661 </r>
       <r>    11.8299     0.1720     3.6142 </r>
       <r>    12.1363     0.2295     3.6803 </r>
       <r>    12.4426     0.2713     3.7553 </r>
       <r>    12.7490     0.3285     3.8471 </r>
       <r>    13.0554     0.4037     3.9611 </r>
       <r>    13.3617     0.3274     4.0717 </r>
       <r>    13.6681     0.3057     4.1678 </r>
       <r>    13.9745     0.2989     4.2605 </r>
       <r>    14.2808     0.2868     4.3504 </r>
       <r>    14.5872     0.2441     4.4328 </r>
       <r>    14.8935     0.2363     4.5062 </r>
       <r>    15.1999     0.2219     4.5765 </r>
       <r>    15.5063     0.2081     4.6425 </r>
       <r>    15.8126     0.1939     4.7041 </r>
       <r>    16.1190     0.1824     4.7616 </r>
       <r>    16.4254     0.1753     4.8163 </r>
       <r>    16.7317     0.1680     4.8690 </r>
       <r>    17.0381     0.1577     4.9190 </r>
       <r>    17.3445     0.3260     4.9821 </r>
       <r>    17.6508     0.5719     5.1310 </r>
       <r>    17.9572     0.5750     5.3097 </r>
       <r>    18.2635     0.6140     5.4927 </r>
       <r>    18.5699     0.5436     5.6692 </r>
       <r>    18.8763     0.3919     5.8181 </r>
       <r>    19.1826     0.2518     5.9019 </r>
       <r>    19.4890     0.2694     5.9972 </r>
       <r>    19.7954     0.1603     6.0620 </r>
       <r>    20.1017     0.1099     6.1039 </r>
       <r>    20.4081     0.0848     6.1311 </r>
       <r>    20.7145     0.0986     6.1592 </r>
       <r>    21.0208     0.1143     6.1917 </r>
       <r>    21.3272     0.1350     6.2297 </r>
       <r>    21.6336     0.2319     6.2845 </r>
       <r>    21.9399     0.2507     6.3590 </r>
       <r>    22.2463     0.2598     6.4374 </r>
       <r>    22.5526     0.2631     6.5176 </r>
       <r>    22.8590     0.2611     6.5980 </r>
       <r>    23.1654     0.3203     6.6834 </r>
       <r>    23.4717     0.2515     6.7710 </r>
       <r>    23.7781     0.2222     6.8426 </r>
       <r>    24.0845     0.2330     6.9119 </r>
       <r>    24.3908     0.2620     6.9873 </r>
       <r>    24.6972     0.2840     7.0720 </r>
       <r>    25.0036     0.3124     7.1636 </r>
       <r>    25.3099     0.2692     7.2544 </r>
       <r>    25.6163     0.2005     7.3263 </r>
       <r>    25.9226     0.1809     7.3833 </r>
       <r>    26.2290     0.1657     7.4372 </r>
       <r>    26.5354     0.1864     7.4912 </r>
       <r>    26.8417     0.2003     7.5507 </r>
       <r>    27.1481     0.1617     7.6049 </r>
       <r>    27.4545     0.1652     7.6544 </r>
       <r>    27.7608     0.1748     7.7065 </r>
       <r>    28.0672     0.1299     7.7539 </r>
       <r>    28.3736     0.0859     7.7867 </r>
       <r>    28.6799     0.0713     7.8107 </r>
       <r>    28.9863     0.0600     7.8307 </r>
       <r>    29.2926     0.0532     7.8478 </r>
       <r>    29.5990     0.0489     7.8635 </r>
       <r>    29.9054     0.0451     7.8778 </r>
       <r>    30.2117     0.0418     7.8911 </r>
       <r>    30.5181     0.0390     7.9035 </r>
       <r>    30.8245     0.0364     7.9151 </r>
       <r>    31.1308     0.0338     7.9258 </r>
       <r>    31.4372     0.0313     7.9358 </r>
       <r>    31.7436     0.0288     7.9450 </r>
       <r>    32.0499     0.0264     7.9535 </r>
       <r>    32.3563     0.0239     7.9612 </r>
       <r>    32.6627     0.0211     7.9681 </r>
       <r>    32.9690     0.0180     7.9741 </r>
       <r>    33.2754     0.0145     7.9791 </r>
       <r>    33.5817     0.0123     7.9832 </r>
       <r>    33.8881     0.0105     7.9867 </r>
       <r>    34.1945     0.0089     7.9897 </r>
       <r>    34.5008     0.0074     7.9922 </r>
       <r>    34.8072     0.0060     7.9942 </r>
       <r>    35.1136     0.0048     7.9959 </r>
       <r>    35.4199     0.0037     7.9972 </r>
       <r>    35.7263     0.0028     7.9982 </r>
       <r>    36.0327     0.0020     7.9989 </r>
       <r>    36.3390     0.0013     7.9994 </r>
       <r>    36.6454     0.0008     7.9997 </r>
       <r>    36.9517     0.0004     7.9999 </r>
       <r>    37.2581     0.0001     8.0000 </r>
       <r>    37.5645     0.0000     8.0000 </r>
       <r>    37.8708     0.0000     8.0000 </r>
       <r>    38.1772     0.0000     8.0000 </r>
       <r>    38.4836     0.0000     8.0000 </r>
       <r>    38.7899     0.0000     8.0000 </r>
       <r>    39.0963     0.0000     8.0000 </r>
       <r>    39.4027     0.0000     8.0000 </r>
       <r>    39.7090     0.0000     8.0000 </r>
       <r>    40.0154     0.0000     8.0000 </r>
       <r>    40.3218     0.0000     8.0000 </r>
       <r>    40.6281     0.0000     8.0000 </r>
       <r>    40.9345     0.0000     8.0000 </r>
       <r>    41.2408     0.0000     8.0000 </r>
       <r>    41.5472     0.0000     8.0000 </r>
       <r>    41.8536     0.0000     8.0000 </r>
      </set>
      <set comment="spin 2">
       <r>   -50.0556     0.0000     0.0000 </r>
       <r>   -49.7492     0.0000     0.0000 </r>
       <r>   -49.4429     0.0000     0.0000 </r>
       <r>   -49.1365     0.0000     0.0000 </r>
       <r>   -48.8302     0.0000     0.0000 </r>
       <r>   -48.5238     0.0000     0.0000 </r>
       <r>   -48.2174     0.0000     0.0000 </r>
       <r>   -47.9111     0.0000     0.0000 </r>
       <r>   -47.6047     0.0000     0.0000 </r>
       <r>   -47.2983     0.0000     0.0000 </r>
       <r>   -46.9920     0.0000     0.0000 </r>
       <r>   -46.6856     0.0000     0.0000 </r>
       <r>   -46.3792     0.0000     0.0000 </r>
       <r>   -46.0729     0.0000     0.0000 </r>
       <r>   -45.7665     3.2641     1.0000 </r>
       <r>   -45.4602     0.0000     1.0000 </r>
       <r>   -45.1538     0.0000     1.0000 </r>
       <r>   -44.8474     0.0000     1.0000 </r>
       <r>   -44.5411     0.0000     1.0000 </r>
       <r>   -44.2347     0.0000     1.0000 </r>
       <r>   -43.9283     0.0000     1.0000 </r>
       <r>   -43.6220     0.0000     1.0000 </r>
       <r>   -43.3156     0.0000     1.0000 </r>
       <r>   -43.0092     0.0000     1.0000 </r>
       <r>   -42.7029     0.0000     1.0000 </r>
       <r>   -42.3965     0.0000     1.0000 </r>
       <r>   -42.0902     0.0000     1.0000 </r>
       <r>   -41.7838     0.0000     1.0000 </r>
       <r>   -41.4774     0.0000     1.0000 </r>
       <r>   -41.1711     0.0000     1.0000 </r>
       <r>   -40.8647     0.0000     1.0000 </r>
       <r>   -40.5583     0.0000     1.0000 </r>
       <r>   -40.2520     0.0000     1.0000 </r>
       <r>   -39.9456     0.0000     1.0000 </r>
       <r>   -39.6392     0.0000     1.0000 </r>
       <r>   -39.3329     0.0000     1.0000 </r>
       <r>   -39.0265     0.0000     1.0000 </r>
       <r>   -38.7201     0.0000     1.0000 </r>
       <r>   -38.4138     0.0000     1.0000 </r>
       <r>   -38.1074     0.0000     1.0000 </r>
       <r>   -37.8011     0.0000     1.0000 </r>
       <r>   -37.4947     0.0000     1.0000 </r>
       <r>   -37.1883     0.0000     1.0000 </r>
       <r>   -36.8820     0.0000     1.0000 </r>
       <r>   -36.5756     0.0000     1.0000 </r>
       <r>   -36.2692     0.0000     1.0000 </r>
       <r>   -35.9629     0.0000     1.0000 </r>
       <r>   -35.6565     0.0000     1.0000 </r>
       <r>   -35.3501     0.0000     1.0000 </r>
       <r>   -35.0438     0.0000     1.0000 </r>
       <r>   -34.7374     0.0000     1.0000 </r>
       <r>   -34.4311     0.0000     1.0000 </r>
       <r>   -34.1247     0.0000     1.0000 </r>
       <r>   -33.8183     0.0000     1.0000 </r>
       <r>   -33.5120     0.0000     1.0000 </r>
       <r>   -33.2056     0.0000     1.0000 </r>
       <r>   -32.8992     0.0000     1.0000 </r>
       <r>   -32.5929     0.0000     1.0000 </r>
       <r>   -32.2865     0.0000     1.0000 </r>
       <r>   -31.9801     0.0000     1.0000 </r>
       <r>   -31.6738     0.0000     1.0000 </r>
       <r>   -31.3674     0.0000     1.0000 </r>
       <r>   -31.0610     0.0000     1.0000 </r>
       <r>   -30.7547     0.0000     1.0000 </r>
       <r>   -30.4483     0.0000     1.0000 </r>
       <r>   -30.1420     0.0000     1.0000 </r>
       <r>   -29.8356     0.0000     1.0000 </r>
       <r>   -29.5292     0.0000     1.0000 </r>
       <r>   -29.2229     0.0000     1.0000 </r>
       <r>   -28.9165     0.0000     1.0000 </r>
       <r>   -28.6101     0.0000     1.0000 </r>
       <r>   -28.3038     0.0000     1.0000 </r>
       <r>   -27.9974     0.0000     1.0000 </r>
       <r>   -27.6910     0.0000     1.0000 </r>
       <r>   -27.3847     0.0000     1.0000 </r>
       <r>   -27.0783     0.0000     1.0000 </r>
       <r>   -26.7720     0.0000     1.0000 </r>
       <r>   -26.4656     0.0000     1.0000 </r>
       <r>   -26.1592     0.0000     1.0000 </r>
       <r>   -25.8529     0.0000     1.0000 </r>
       <r>   -25.5465     0.0000     1.0000 </r>
       <r>   -25.2401     0.0000     1.0000 </r>
       <r>   -24.9338     0.0000     1.0000 </r>
       <r>   -24.6274     0.0000     1.0000 </r>
       <r>   -24.3210     0.0000     1.0000 </r>
       <r>   -24.0147     0.0000     1.0000 </r>
       <r>   -23.7083     0.0000     1.0000 </r>
       <r>   -23.4019     0.0000     1.0000 </r>
       <r>   -23.0956     0.0000     1.0000 </r>
       <r>   -22.7892     0.0000     1.0000 </r>
       <r>   -22.4829     0.0000     1.0000 </r>
       <r>   -22.1765     0.0000     1.0000 </r>
       <r>   -21.8701     0.0000     1.0000 </r>
       <r>   -21.5638     0.0000     1.0000 </r>
       <r>   -21.2574     0.0000     1.0000 </r>
       <r>   -20.9510     0.0000     1.0000 </r>
       <r>   -20.6447     0.0000     1.0000 </r>
       <r>   -20.3383     0.0000     1.0000 </r>
       <r>   -20.0319     0.0000     1.0000 </r>
       <r>   -19.7256     0.0000     1.0000 </r>
       <r>   -19.4192     0.0000     1.0000 </r>
       <r>   -19.1129     0.0000     1.0000 </r>
       <r>   -18.8065     0.0000     1.0000 </r>
       <r>   -18.5001     0.0000     1.0000 </r>
       <r>   -18.1938     0.0000     1.0000 </r>
       <r>   -17.8874     0.0000     1.0000 </r>
       <r>   -17.5810     0.0000     1.0000 </r>
       <r>   -17.2747     0.0000     1.0000 </r>
       <r>   -16.9683     0.0000     1.0000 </r>
       <r>   -16.6619     0.0000     1.0000 </r>
       <r>   -16.3556     0.0000     1.0000 </r>
       <r>   -16.0492     0.0000     1.0000 </r>
       <r>   -15.7429     0.0000     1.0000 </r>
       <r>   -15.4365     0.0000     1.0000 </r>
       <r>   -15.1301     0.0000     1.0000 </r>
       <r>   -14.8238     0.0000     1.0000 </r>
       <r>   -14.5174     0.0000     1.0000 </r>
       <r>   -14.2110     0.0000     1.0000 </r>
       <r>   -13.9047     0.0000     1.0000 </r>
       <r>   -13.5983     0.0000     1.0000 </r>
       <r>   -13.2919     0.0000     1.0000 </r>
       <r>   -12.9856     0.0000     1.0000 </r>
       <r>   -12.6792     0.0000     1.0000 </r>
       <r>   -12.3728     0.0000     1.0000 </r>
       <r>   -12.0665     0.0000     1.0000 </r>
       <r>   -11.7601     0.0000     1.0000 </r>
       <r>   -11.4538     0.0000     1.0000 </r>
       <r>   -11.1474     0.0000     1.0000 </r>
       <r>   -10.8410     0.0000     1.0000 </r>
       <r>   -10.5347     0.0000     1.0000 </r>
       <r>   -10.2283     0.0000     1.0000 </r>
       <r>    -9.9219     0.0000     1.0000 </r>
       <r>    -9.6156     0.0000     1.0000 </r>
       <r>    -9.3092     0.0000     1.0000 </r>
       <r>    -9.0028     0.0000     1.0000 </r>
       <r>    -8.6965     0.0000     1.0000 </r>
       <r>    -8.3901     0.0000     1.0000 </r>
       <r>    -8.0838     0.0000     1.0000 </r>
       <r>    -7.7774     0.0000     1.0000 </r>
       <r>    -7.4710     0.0000     1.0000 </r>
       <r>    -7.1647     0.0000     1.0000 </r>
       <r>    -6.8583     0.0000     1.0000 </r>
       <r>    -6.5519     0.0000     1.0000 </r>
       <r>    -6.2456     0.0000     1.0000 </r>
       <r>    -5.9392     0.0000     1.0000 </r>
       <r>    -5.6328     0.0000     1.0000 </r>
       <r>    -5.3265     0.0571     1.0071 </r>
       <r>    -5.0201     0.0755     1.0261 </r>
       <r>    -4.7137     0.1026     1.0539 </r>
       <r>    -4.4074     0.1168     1.0870 </r>
       <r>    -4.1010     0.1388     1.1261 </r>
       <r>    -3.7947     0.1591     1.1720 </r>
       <r>    -3.4883     0.1810     1.2240 </r>
       <r>    -3.1819     0.2162     1.2845 </r>
       <r>    -2.8756     0.2627     1.3576 </r>
       <r>    -2.5692     0.3472     1.4543 </r>
       <r>    -2.2628     0.2885     1.5439 </r>
       <r>    -1.9565     0.2793     1.6310 </r>
       <r>    -1.6501     0.2584     1.7125 </r>
       <r>    -1.3437     0.2480     1.7904 </r>
       <r>    -1.0374     0.2537     1.8664 </r>
       <r>    -0.7310     0.2550     1.9458 </r>
       <r>    -0.4247     0.0661     1.9946 </r>
       <r>    -0.1183     0.0000     2.0000 </r>
       <r>     0.1881     0.0000     2.0000 </r>
       <r>     0.4944     0.0000     2.0000 </r>
       <r>     0.8008     0.0000     2.0000 </r>
       <r>     1.1072     0.0000     2.0000 </r>
       <r>     1.4135     0.0000     2.0000 </r>
       <r>     1.7199     0.0000     2.0000 </r>
       <r>     2.0263     0.0000     2.0000 </r>
       <r>     2.3326     0.0000     2.0000 </r>
       <r>     2.6390     0.0000     2.0000 </r>
       <r>     2.9453     0.0000     2.0000 </r>
       <r>     3.2517     0.0000     2.0000 </r>
       <r>     3.5581     0.0013     2.0001 </r>
       <r>     3.8644     0.0132     2.0020 </r>
       <r>     4.1708     0.0393     2.0095 </r>
       <r>     4.4772     0.0906     2.0287 </r>
       <r>     4.7835     0.0898     2.0558 </r>
       <r>     5.0899     0.1182     2.0875 </r>
       <r>     5.3963     0.1802     2.1297 </r>
       <r>     5.7026     0.4064     2.2122 </r>
       <r>     6.0090     0.3547     2.3663 </r>
       <r>     6.3154     0.2494     2.4557 </r>
       <r>     6.6217     0.2163     2.5265 </r>
       <r>     6.9281     0.1967     2.5895 </r>
       <r>     7.2344     0.1891     2.6481 </r>
       <r>     7.5408     0.2038     2.7078 </r>
       <r>     7.8472     0.2196     2.7729 </r>
       <r>     8.1535     0.2362     2.8426 </r>
       <r>     8.4599     0.2527     2.9177 </r>
       <r>     8.7663     0.2556     2.9960 </r>
       <r>     9.0726     0.2429     3.0717 </r>
       <r>     9.3790     0.2379     3.1456 </r>
       <r>     9.6854     0.2245     3.2166 </r>
       <r>     9.9917     0.2131     3.2839 </r>
       <r>    10.2981     0.2000     3.3471 </r>
       <r>    10.6044     0.1890     3.4067 </r>
       <r>    10.9108     0.1786     3.4629 </r>
       <r>    11.2172     0.1686     3.5161 </r>
       <r>    11.5235     0.1569     3.5661 </r>
       <r>    11.8299     0.1720     3.6142 </r>
       <r>    12.1363     0.2295     3.6803 </r>
       <r>    12.4426     0.2713     3.7553 </r>
       <r>    12.7490     0.3285     3.8471 </r>
       <r>    13.0554     0.4037     3.9611 </r>
       <r>    13.3617     0.3274     4.0717 </r>
       <r>    13.6681     0.3057     4.1678 </r>
       <r>    13.9745     0.2989     4.2605 </r>
       <r>    14.2808     0.2868     4.3504 </r>
       <r>    14.5872     0.2441     4.4328 </r>
       <r>    14.8935     0.2363     4.5062 </r>
       <r>    15.1999     0.2219     4.5765 </r>
       <r>    15.5063     0.2081     4.6425 </r>
       <r>    15.8126     0.1939     4.7041 </r>
       <r>    16.1190     0.1824     4.7616 </r>
       <r>    16.4254     0.1753     4.8163 </r>
       <r>    16.7317     0.1680     4.8690 </r>
       <r>    17.0381     0.1577     4.9190 </r>
       <r>    17.3445     0.3260     4.9821 </r>
       <r>    17.6508     0.5719     5.1310 </r>
       <r>    17.9572     0.5750     5.3097 </r>
       <r>    18.2635     0.6140     5.4927 </r>
       <r>    18.5699     0.5436     5.6692 </r>
       <r>    18.8763     0.3919     5.8181 </r>
       <r>    19.1826     0.2518     5.9019 </r>
       <r>    19.4890     0.2694     5.9972 </r>
       <r>    19.7954     0.1603     6.0620 </r>
       <r>    20.1017     0.1099     6.1039 </r>
       <r>    20.4081     0.0848     6.1311 </r>
       <r>    20.7145     0.0986     6.1592 </r>
       <r>    21.0208     0.1143     6.1917 </r>
       <r>    21.3272     0.1350     6.2297 </r>
       <r>    21.6336     0.2319     6.2845 </r>
       <r>    21.9399     0.2507     6.3590 </r>
       <r>    22.2463     0.2598     6.4374 </r>
       <r>    22.5526     0.2631     6.5176 </r>
       <r>    22.8590     0.2611     6.5980 </r>
       <r>    23.1654     0.3203     6.6834 </r>
       <r>    23.4717     0.2515     6.7710 </r>
       <r>    23.7781     0.2222     6.8426 </r>
       <r>    24.0845     0.2330     6.9119 </r>
       <r>    24.3908     0.2620     6.9873 </r>
       <r>    24.6972     0.2840     7.0720 </r>
       <r>    25.0036     0.3124     7.1636 </r>
       <r>    25.3099     0.2691     7.2544 </r>
       <r>    25.6163     0.2005     7.3263 </r>
       <r>    25.9226     0.1808     7.3833 </r>
       <r>    26.2290     0.1657     7.4372 </r>
       <r>    26.5354     0.1864     7.4912 </r>
       <r>    26.8417     0.2003     7.5507 </r>
       <r>    27.1481     0.1617     7.6049 </r>
       <r>    27.4545     0.1652     7.6544 </r>
       <r>    27.7608     0.1748     7.7065 </r>
       <r>    28.0672     0.1299     7.7538 </r>
       <r>    28.3736     0.0859     7.7867 </r>
       <r>    28.6799     0.0713     7.8106 </r>
       <r>    28.9863     0.0600     7.8307 </r>
       <r>    29.2926     0.0532     7.8478 </r>
       <r>    29.5990     0.0489     7.8635 </r>
       <r>    29.9054     0.0451     7.8778 </r>
       <r>    30.2117     0.0418     7.8911 </r>
       <r>    30.5181     0.0391     7.9035 </r>
       <r>    30.8245     0.0364     7.9151 </r>
       <r>    31.1308     0.0338     7.9258 </r>
       <r>    31.4372     0.0313     7.9358 </r>
       <r>    31.7436     0.0288     7.9450 </r>
       <r>    32.0499     0.0264     7.9535 </r>
       <r>    32.3563     0.0239     7.9612 </r>
       <r>    32.6627     0.0212     7.9681 </r>
       <r>    32.9690     0.0181     7.9741 </r>
       <r>    33.2754     0.0148     7.9792 </r>
       <r>    33.5817     0.0127     7.9834 </r>
       <r>    33.8881     0.0108     7.9870 </r>
       <r>    34.1945     0.0090     7.9900 </r>
       <r>    34.5008     0.0074     7.9925 </r>
       <r>    34.8072     0.0060     7.9946 </r>
       <r>    35.1136     0.0047     7.9962 </r>
       <r>    35.4199     0.0036     7.9975 </r>
       <r>    35.7263     0.0026     7.9984 </r>
       <r>    36.0327     0.0018     7.9991 </r>
       <r>    36.3390     0.0011     7.9996 </r>
       <r>    36.6454     0.0006     7.9998 </r>
       <r>    36.9517     0.0003     8.0000 </r>
       <r>    37.2581     0.0001     8.0000 </r>
[...]
       </set>
       <set comment="band 5">
        <r>  0.0000  0.0519  0.0519  0.0000  0.0000  0.0000  0.0000  0.0000  0.0000 </r>
        <r>  0.0000  0.0185  0.0185  0.0000  0.0000  0.0000  0.0000  0.0000  0.0000 </r>
       </set>
       <set comment="band 6">
        <r>  0.0736  0.0043  0.0043  0.0019  0.0000  0.0000  0.0000  0.0000  0.0000 </r>
        <r>  0.0098  0.0044  0.0044  0.0000  0.0000  0.0000  0.0000  0.0000  0.0000 </r>
       </set>
       <set comment="band 7">
        <r>  0.2158  0.0287  0.0287  0.0067  0.0000  0.0000  0.0000  0.0000  0.0000 </r>
        <r>  0.0957  0.0006  0.0006  0.0000  0.0000  0.0000  0.0000  0.0000  0.0000 </r>
       </set>
       <set comment="band 8">
        <r>  0.0001  0.1067  0.1119  0.0000  0.0000  0.0000  0.0000  0.0000  0.0000 </r>
        <r>  0.0001  0.0418  0.0453  0.0000  0.0000  0.0000  0.0000  0.0000  0.0000 </r>
       </set>
      </set>
      <set comment="kpoint 20">
       <set comment="band 1">
        <r>  0.9908  0.0000  0.0000  0.0000  0.0000  0.0000  0.0000  0.0000  0.0000 </r>
        <r>  0.0000  0.0000  0.0000  0.0000  0.0000  0.0000  0.0000  0.0000  0.0000 </r>
       </set>
       <set comment="band 2">
        <r>  0.0012  0.0042  0.0042  0.0000  0.0000  0.0000  0.0000  0.0000  0.0000 </r>
        <r>  0.3557  0.0001  0.0001  0.0000  0.0000  0.0000  0.0000  0.0000  0.0000 </r>
       </set>
       <set comment="band 3">
        <r>  0.0000  0.0000  0.0000  0.0493  0.0000  0.0000  0.0000  0.0000  0.0000 </r>
        <r>  0.0000  0.0000  0.0000  0.0212  0.0000  0.0000  0.0000  0.0000  0.0000 </r>
       </set>
       <set comment="band 4">
        <r>  0.0606  0.0133  0.0133  0.0000  0.0000  0.0000  0.0000  0.0000  0.0000 </r>
        <r>  0.0288  0.0124  0.0124  0.0000  0.0000  0.0000  0.0000  0.0000  0.0000 </r>
       </set>
       <set comment="band 5">
        <r>  0.0000  0.0535  0.0535  0.0000  0.0000  0.0000  0.0000  0.0000  0.0000 </r>
        <r>  0.0000  0.0182  0.0182  0.0000  0.0000  0.0000  0.0000  0.0000  0.0000 </r>
       </set>
       <set comment="band 6">
        <r>  0.2057  0.0145  0.0145  0.0000  0.0000  0.0000  0.0000  0.0000  0.0000 </r>
        <r>  0.0761  0.0024  0.0024  0.0000  0.0000  0.0000  0.0000  0.0000  0.0000 </r>
       </set>
       <set comment="band 7">
        <r>  0.0049  0.0570  0.0570  0.0000  0.0000  0.0000  0.0000  0.0000  0.0000 </r>
        <r>  0.0548  0.0031  0.0031  0.0000  0.0000  0.0000  0.0000  0.0000  0.0000 </r>
       </set>
       <set comment="band 8">
        <r>  0.0000  0.1075  0.1072  0.0000  0.0000  0.0000  0.0000  0.0000  0.0000 </r>
        <r>  0.0000  0.0474  0.0469  0.0000  0.0000  0.0000  0.0000  0.0000  0.0000 </r>
       </set>
      </set>
      <set comment="kpoint 21">
       <set comment="band 1">
        <r>  0.9909  0.0000  0.0000  0.0000  0.0000  0.0000  0.0000  0.0000  0.0000 </r>
        <r>  0.0000  0.0000  0.0000  0.0000  0.0000  0.0000  0.0000  0.0000  0.0000 </r>
       </set>
       <set comment="band 2">
        <r>  0.0150  0.0000  0.0000  0.0000  0.0000  0.0000  0.0000  0.0000  0.0000 </r>
        <r>  0.3883  0.0000  0.0000  0.0000  0.0000  0.0000  0.0000  0.0000  0.0000 </r>
       </set>
       <set comment="band 3">
        <r>  0.0000  0.0000  0.0000  0.0471  0.0000  0.0000  0.0000  0.0000  0.0000 </r>
        <r>  0.0000  0.0000  0.0000  0.0207  0.0000  0.0000  0.0000  0.0000  0.0000 </r>
       </set>
       <set comment="band 4">
        <r>  0.0000  0.0337  0.0682  0.0000  0.0000  0.0000  0.0000  0.0000  0.0000 </r>
        <r>  0.0000  0.0123  0.0248  0.0000  0.0000  0.0000  0.0000  0.0000  0.0000 </r>
       </set>
       <set comment="band 5">
        <r>  0.0000  0.0682  0.0338  0.0000  0.0000  0.0000  0.0000  0.0000  0.0000 </r>
        <r>  0.0000  0.0248  0.0123  0.0000  0.0000  0.0000  0.0000  0.0000  0.0000 </r>
       </set>
       <set comment="band 6">
        <r>  0.0000  0.0000  0.0000  0.0000  0.0000  0.0000  0.0000  0.0000  0.0000 </r>
        <r>  0.0000  0.0000  0.0000  0.0000  0.0000  0.0000  0.0000  0.0000  0.0000 </r>
       </set>
       <set comment="band 7">
        <r>  0.3514  0.0000  0.0000  0.0000  0.0000  0.0000  0.0000  0.0000  0.0000 </r>
        <r>  0.1024  0.0000  0.0000  0.0000  0.0000  0.0000  0.0000  0.0000  0.0000 </r>
       </set>
       <set comment="band 8">
        <r>  0.0151  0.0939  0.2666  0.0001  0.0000  0.0000  0.0000  0.0000  0.0000 </r>
        <r>  0.0472  0.0340  0.0965  0.0000  0.0000  0.0000  0.0000  0.0000  0.0000 </r>
       </set>
      </set>
      <set comment="kpoint 22">
       <set comment="band 1">
        <r>  0.9895  0.0000  0.0000  0.0000  0.0000  0.0000  0.0000  0.0000  0.0000 </r>
        <r>  0.0000  0.0000  0.0000  0.0000  0.0000  0.0000  0.0000  0.0000  0.0000 </r>
       </set>
       <set comment="band 2">
        <r>  0.0367  0.0018  0.0000  0.0052  0.0000  0.0000  0.0000  0.0000  0.0000 </r>
        <r>  0.2344  0.0001  0.0000  0.0009  0.0000  0.0000  0.0000  0.0000  0.0000 </r>
       </set>
       <set comment="band 3">
        <r>  0.0605  0.0082  0.0000  0.0060  0.0000  0.0000  0.0000  0.0000  0.0000 </r>
        <r>  0.1692  0.0078  0.0000  0.0195  0.0000  0.0000  0.0000  0.0000  0.0000 </r>
       </set>
       <set comment="band 4">
        <r>  0.0000  0.0000  0.0706  0.0000  0.0000  0.0000  0.0000  0.0000  0.0000 </r>
        <r>  0.0000  0.0000  0.0259  0.0000  0.0000  0.0000  0.0000  0.0000  0.0000 </r>
       </set>
       <set comment="band 5">
        <r>  0.0234  0.0574  0.0000  0.0435  0.0000  0.0000  0.0000  0.0000  0.0000 </r>
        <r>  0.0535  0.0267  0.0000  0.0029  0.0000  0.0000  0.0000  0.0000  0.0000 </r>
       </set>
       <set comment="band 6">
        <r>  0.0683  0.1083  0.0000  0.0888  0.0000  0.0000  0.0000  0.0000  0.0000 </r>
        <r>  0.0509  0.0000  0.0000  0.0001  0.0000  0.0000  0.0000  0.0000  0.0000 </r>
       </set>
       <set comment="band 7">
        <r>  0.0000  0.0000  0.0513  0.0000  0.0000  0.0000  0.0000  0.0000  0.0000 </r>
        <r>  0.0000  0.0000  0.0124  0.0000  0.0000  0.0000  0.0000  0.0000  0.0000 </r>
       </set>
       <set comment="band 8">
        <r>  0.0140  0.0044  0.0000  0.0703  0.0000  0.0000  0.0000  0.0000  0.0000 </r>
        <r>  0.0488  0.0453  0.0000  0.0541  0.0000  0.0000  0.0000  0.0000  0.0000 </r>
       </set>
      </set>
      <set comment="kpoint 23">
       <set comment="band 1">
        <r>  0.9902  0.0000  0.0000  0.0000  0.0000  0.0000  0.0000  0.0000  0.0000 </r>
        <r>  0.0000  0.0000  0.0000  0.0000  0.0000  0.0000  0.0000  0.0000  0.0000 </r>
       </set>
       <set comment="band 2">
        <r>  0.0157  0.0041  0.0008  0.0064  0.0000  0.0000  0.0000  0.0000  0.0000 </r>
        <r>  0.2657  0.0001  0.0000  0.0009  0.0000  0.0000  0.0000  0.0000  0.0000 </r>
       </set>
       <set comment="band 3">
        <r>  0.0545  0.0022  0.0183  0.0054  0.0000  0.0000  0.0000  0.0000  0.0000 </r>
        <r>  0.0427  0.0048  0.0093  0.0102  0.0000  0.0000  0.0000  0.0000  0.0000 </r>
       </set>
       <set comment="band 4">
        <r>  0.0061  0.0008  0.0359  0.0115  0.0000  0.0000  0.0000  0.0000  0.0000 </r>
        <r>  0.0882  0.0008  0.0134  0.0092  0.0000  0.0000  0.0000  0.0000  0.0000 </r>
       </set>
       <set comment="band 5">
        <r>  0.0740  0.0158  0.0114  0.0471  0.0000  0.0000  0.0000  0.0000  0.0000 </r>
        <r>  0.0163  0.0287  0.0012  0.0024  0.0000  0.0000  0.0000  0.0000  0.0000 </r>
       </set>
       <set comment="band 6">
        <r>  0.0207  0.1550  0.0005  0.0245  0.0000  0.0000  0.0000  0.0000  0.0000 </r>
        <r>  0.0880  0.0002  0.0011  0.0012  0.0000  0.0000  0.0000  0.0000  0.0000 </r>
       </set>
       <set comment="band 7">
        <r>  0.0323  0.0116  0.0246  0.0107  0.0000  0.0000  0.0000  0.0000  0.0000 </r>
        <r>  0.0153  0.0085  0.0098  0.0086  0.0000  0.0000  0.0000  0.0000  0.0000 </r>
       </set>
       <set comment="band 8">
        <r>  0.0375  0.0052  0.0573  0.0440  0.0000  0.0000  0.0000  0.0000  0.0000 </r>
        <r>  0.0000  0.0444  0.0011  0.0227  0.0000  0.0000  0.0000  0.0000  0.0000 </r>
       </set>
      </set>
      <set comment="kpoint 24">
       <set comment="band 1">
        <r>  0.9905  0.0000  0.0000  0.0000  0.0000  0.0000  0.0000  0.0000  0.0000 </r>
        <r>  0.0000  0.0000  0.0000  0.0000  0.0000  0.0000  0.0000  0.0000  0.0000 </r>
       </set>
       <set comment="band 2">
        <r>  0.0000  0.0058  0.0041  0.0041  0.0000  0.0000  0.0000  0.0000  0.0000 </r>
        <r>  0.2965  0.0000  0.0003  0.0003  0.0000  0.0000  0.0000  0.0000  0.0000 </r>
       </set>
       <set comment="band 3">
        <r>  0.0675  0.0000  0.0112  0.0112  0.0000  0.0000  0.0000  0.0000  0.0000 </r>
        <r>  0.0000  0.0047  0.0096  0.0096  0.0000  0.0000  0.0000  0.0000  0.0000 </r>
       </set>
       <set comment="band 4">
        <r>  0.0000  0.0004  0.0237  0.0237  0.0000  0.0000  0.0000  0.0000  0.0000 </r>
        <r>  0.1006  0.0000  0.0111  0.0111  0.0000  0.0000  0.0000  0.0000  0.0000 </r>
       </set>
       <set comment="band 5">
        <r>  0.0970  0.0000  0.0315  0.0315  0.0000  0.0000  0.0000  0.0000  0.0000 </r>
        <r>  0.0000  0.0303  0.0020  0.0020  0.0000  0.0000  0.0000  0.0000  0.0000 </r>
       </set>
       <set comment="band 6">
        <r>  0.0000  0.1695  0.0047  0.0047  0.0000  0.0000  0.0000  0.0000  0.0000 </r>
        <r>  0.1001  0.0000  0.0016  0.0016  0.0000  0.0000  0.0000  0.0000  0.0000 </r>
       </set>
       <set comment="band 7">
        <r>  0.1008  0.0000  0.0066  0.0066  0.0000  0.0000  0.0000  0.0000  0.0000 </r>
        <r>  0.0000  0.0300  0.0122  0.0122  0.0000  0.0000  0.0000  0.0000  0.0000 </r>
       </set>
       <set comment="band 8">
        <r>  0.0000  0.0000  0.0607  0.0601  0.0000  0.0000  0.0000  0.0000  0.0000 </r>
        <r>  0.1017  0.0000  0.0113  0.0113  0.0000  0.0000  0.0000  0.0000  0.0000 </r>
       </set>
      </set>
      <set comment="kpoint 25">
       <set comment="band 1">
        <r>  0.9905  0.0000  0.0000  0.0000  0.0000  0.0000  0.0000  0.0000  0.0000 </r>
        <r>  0.0000  0.0000  0.0000  0.0000  0.0000  0.0000  0.0000  0.0000  0.0000 </r>
       </set>
       <set comment="band 2">
        <r>  0.0172  0.0024  0.0000  0.0069  0.0000  0.0000  0.0000  0.0000  0.0000 </r>
        <r>  0.2812  0.0000  0.0000  0.0016  0.0000  0.0000  0.0000  0.0000  0.0000 </r>
       </set>
       <set comment="band 3">
        <r>  0.0104  0.0027  0.0000  0.0327  0.0000  0.0000  0.0000  0.0000  0.0000 </r>
        <r>  0.1097  0.0011  0.0000  0.0202  0.0000  0.0000  0.0000  0.0000  0.0000 </r>
       </set>
       <set comment="band 4">
        <r>  0.0000  0.0000  0.0645  0.0000  0.0000  0.0000  0.0000  0.0000  0.0000 </r>
        <r>  0.0000  0.0000  0.0249  0.0000  0.0000  0.0000  0.0000  0.0000  0.0000 </r>
       </set>
       <set comment="band 5">
        <r>  0.0726  0.0573  0.0000  0.0104  0.0000  0.0000  0.0000  0.0000  0.0000 </r>
        <r>  0.0055  0.0358  0.0000  0.0005  0.0000  0.0000  0.0000  0.0000  0.0000 </r>
       </set>
       <set comment="band 6">
        <r>  0.1612  0.0936  0.0000  0.0263  0.0000  0.0000  0.0000  0.0000  0.0000 </r>
        <r>  0.1028  0.0000  0.0000  0.0000  0.0000  0.0000  0.0000  0.0000  0.0000 </r>
       </set>
       <set comment="band 7">
        <r>  0.0000  0.0000  0.0437  0.0000  0.0000  0.0000  0.0000  0.0000  0.0000 </r>
        <r>  0.0000  0.0000  0.0123  0.0000  0.0000  0.0000  0.0000  0.0000  0.0000 </r>
       </set>
       <set comment="band 8">
        <r>  0.0912  0.0424  0.0000  0.0134  0.0000  0.0000  0.0000  0.0000  0.0000 </r>
        <r>  0.0185  0.0598  0.0000  0.0222  0.0000  0.0000  0.0000  0.0000  0.0000 </r>
       </set>
      </set>
      <set comment="kpoint 26">
       <set comment="band 1">
        <r>  0.9908  0.0000  0.0000  0.0000  0.0000  0.0000  0.0000  0.0000  0.0000 </r>
        <r>  0.0000  0.0000  0.0000  0.0000  0.0000  0.0000  0.0000  0.0000  0.0000 </r>
       </set>
       <set comment="band 2">
        <r>  0.0023  0.0056  0.0015  0.0028  0.0000  0.0000  0.0000  0.0000  0.0000 </r>
        <r>  0.3368  0.0000  0.0001  0.0005  0.0000  0.0000  0.0000  0.0000  0.0000 </r>
       </set>
       <set comment="band 3">
        <r>  0.0109  0.0008  0.0027  0.0404  0.0000  0.0000  0.0000  0.0000  0.0000 </r>
        <r>  0.0210  0.0008  0.0013  0.0195  0.0000  0.0000  0.0000  0.0000  0.0000 </r>
       </set>
       <set comment="band 4">
        <r>  0.0126  0.0000  0.0437  0.0042  0.0000  0.0000  0.0000  0.0000  0.0000 </r>
        <r>  0.0242  0.0012  0.0203  0.0015  0.0000  0.0000  0.0000  0.0000  0.0000 </r>
       </set>
       <set comment="band 5">
        <r>  0.1238  0.0218  0.0149  0.0045  0.0000  0.0000  0.0000  0.0000  0.0000 </r>
        <r>  0.0008  0.0347  0.0019  0.0002  0.0000  0.0000  0.0000  0.0000  0.0000 </r>
       </set>
       <set comment="band 6">
        <r>  0.0769  0.1362  0.0005  0.0048  0.0000  0.0000  0.0000  0.0000  0.0000 </r>
        <r>  0.1081  0.0000  0.0021  0.0001  0.0000  0.0000  0.0000  0.0000  0.0000 </r>
       </set>
       <set comment="band 7">
        <r>  0.0015  0.0333  0.0472  0.0001  0.0000  0.0000  0.0000  0.0000  0.0000 </r>
        <r>  0.0235  0.0000  0.0110  0.0002  0.0000  0.0000  0.0000  0.0000  0.0000 </r>
       </set>
       <set comment="band 8">
        <r>  0.1078  0.0084  0.0256  0.0051  0.0000  0.0000  0.0000  0.0000  0.0000 </r>
        <r>  0.0000  0.0451  0.0017  0.0110  0.0000  0.0000  0.0000  0.0000  0.0000 </r>
       </set>
      </set>
      <set comment="kpoint 27">
       <set comment="band 1">
        <r>  0.9907  0.0000  0.0000  0.0000  0.0000  0.0000  0.0000  0.0000  0.0000 </r>
        <r>  0.0000  0.0000  0.0000  0.0000  0.0000  0.0000  0.0000  0.0000  0.0000 </r>
       </set>
       <set comment="band 2">
        <r>  0.0033  0.0061  0.0054  0.0000  0.0000  0.0000  0.0000  0.0000  0.0000 </r>
        <r>  0.3132  0.0001  0.0007  0.0000  0.0000  0.0000  0.0000  0.0000  0.0000 </r>
       </set>
       <set comment="band 3">
        <r>  0.0000  0.0000  0.0000  0.0535  0.0000  0.0000  0.0000  0.0000  0.0000 </r>
        <r>  0.0000  0.0000  0.0000  0.0221  0.0000  0.0000  0.0000  0.0000  0.0000 </r>
       </set>
       <set comment="band 4">
        <r>  0.0428  0.0005  0.0269  0.0000  0.0000  0.0000  0.0000  0.0000  0.0000 </r>
        <r>  0.0687  0.0037  0.0195  0.0000  0.0000  0.0000  0.0000  0.0000  0.0000 </r>
       </set>
       <set comment="band 5">
        <r>  0.1313  0.0013  0.0384  0.0000  0.0000  0.0000  0.0000  0.0000  0.0000 </r>
        <r>  0.0016  0.0325  0.0029  0.0000  0.0000  0.0000  0.0000  0.0000  0.0000 </r>
       </set>
       <set comment="band 6">
        <r>  0.0121  0.1779  0.0015  0.0000  0.0000  0.0000  0.0000  0.0000  0.0000 </r>
        <r>  0.1162  0.0000  0.0023  0.0000  0.0000  0.0000  0.0000  0.0000  0.0000 </r>
       </set>
       <set comment="band 7">
        <r>  0.0000  0.0000  0.0000  0.0709  0.0000  0.0000  0.0000  0.0000  0.0000 </r>
        <r>  0.0000  0.0000  0.0000  0.0139  0.0000  0.0000  0.0000  0.0000  0.0000 </r>
       </set>
       <set comment="band 8">
        <r>  0.1116  0.0339  0.0000  0.0000  0.0000  0.0000  0.0000  0.0000  0.0000 </r>
        <r>  0.0163  0.0280  0.0188  0.0000  0.0000  0.0000  0.0000  0.0000  0.0000 </r>
       </set>
      </set>
      <set comment="kpoint 28">
       <set comment="band 1">
        <r>  0.9909  0.0000  0.0000  0.0000  0.0000  0.0000  0.0000  0.0000  0.0000 </r>
        <r>  0.0000  0.0000  0.0000  0.0000  0.0000  0.0000  0.0000  0.0000  0.0000 </r>
       </set>
       <set comment="band 2">
        <r>  0.0071  0.0038  0.0000  0.0000  0.0000  0.0000  0.0000  0.0000  0.0000 </r>
        <r>  0.3817  0.0000  0.0000  0.0000  0.0000  0.0000  0.0000  0.0000  0.0000 </r>
       </set>
       <set comment="band 3">
        <r>  0.0000  0.0000  0.0000  0.0482  0.0000  0.0000  0.0000  0.0000  0.0000 </r>
        <r>  0.0000  0.0000  0.0000  0.0209  0.0000  0.0000  0.0000  0.0000  0.0000 </r>
       </set>
       <set comment="band 4">
        <r>  0.0000  0.0000  0.0629  0.0000  0.0000  0.0000  0.0000  0.0000  0.0000 </r>
        <r>  0.0000  0.0000  0.0247  0.0000  0.0000  0.0000  0.0000  0.0000  0.0000 </r>
       </set>
       <set comment="band 5">
        <r>  0.0845  0.0594  0.0000  0.0000  0.0000  0.0000  0.0000  0.0000  0.0000 </r>
        <r>  0.0016  0.0373  0.0000  0.0000  0.0000  0.0000  0.0000  0.0000  0.0000 </r>
       </set>
       <set comment="band 6">
        <r>  0.0000  0.0000  0.0420  0.0000  0.0000  0.0000  0.0000  0.0000  0.0000 </r>
        <r>  0.0000  0.0000  0.0122  0.0000  0.0000  0.0000  0.0000  0.0000  0.0000 </r>
       </set>
       <set comment="band 7">
        <r>  0.2091  0.0873  0.0000  0.0000  0.0000  0.0000  0.0000  0.0000  0.0000 </r>
        <r>  0.1179  0.0001  0.0000  0.0000  0.0000  0.0000  0.0000  0.0000  0.0000 </r>
       </set>
       <set comment="band 8">
        <r>  0.1247  0.1085  0.0000  0.0000  0.0000  0.0000  0.0000  0.0000  0.0000 </r>
        <r>  0.0207  0.0936  0.0000  0.0000  0.0000  0.0000  0.0000  0.0000  0.0000 </r>
       </set>
      </set>
      <set comment="kpoint 29">
       <set comment="band 1">
        <r>  0.9909  0.0000  0.0000  0.0000  0.0000  0.0000  0.0000  0.0000  0.0000 </r>
        <r>  0.0000  0.0000  0.0000  0.0000  0.0000  0.0000  0.0000  0.0000  0.0000 </r>
       </set>
       <set comment="band 2">
        <r>  0.0000  0.0072  0.0000  0.0000  0.0000  0.0000  0.0000  0.0000  0.0000 </r>
        <r>  0.3758  0.0000  0.0000  0.0000  0.0000  0.0000  0.0000  0.0000  0.0000 </r>
       </set>
       <set comment="band 3">
        <r>  0.0000  0.0000  0.0261  0.0261  0.0000  0.0000  0.0000  0.0000  0.0000 </r>
        <r>  0.0000  0.0000  0.0109  0.0109  0.0000  0.0000  0.0000  0.0000  0.0000 </r>
       </set>
       <set comment="band 4">
        <r>  0.0000  0.0000  0.0261  0.0261  0.0000  0.0000  0.0000  0.0000  0.0000 </r>
        <r>  0.0000  0.0000  0.0109  0.0109  0.0000  0.0000  0.0000  0.0000  0.0000 </r>
       </set>
       <set comment="band 5">
        <r>  0.2001  0.0000  0.0000  0.0000  0.0000  0.0000  0.0000  0.0000  0.0000 </r>
        <r>  0.0000  0.0375  0.0000  0.0000  0.0000  0.0000  0.0000  0.0000  0.0000 </r>
       </set>
       <set comment="band 6">
        <r>  0.0000  0.2163  0.0000  0.0000  0.0000  0.0000  0.0000  0.0000  0.0000 </r>
        <r>  0.1410  0.0000  0.0000  0.0000  0.0000  0.0000  0.0000  0.0000  0.0000 </r>
       </set>
       <set comment="band 7">
        <r>  0.0000  0.0000  0.0534  0.0115  0.0000  0.0000  0.0000  0.0000  0.0000 </r>
        <r>  0.0000  0.0000  0.0115  0.0025  0.0000  0.0000  0.0000  0.0000  0.0000 </r>
       </set>
       <set comment="band 8">
        <r>  0.0000  0.0000  0.0115  0.0534  0.0000  0.0000  0.0000  0.0000  0.0000 </r>
        <r>  0.0000  0.0000  0.0025  0.0115  0.0000  0.0000  0.0000  0.0000  0.0000 </r>
       </set>
      </set>
     </set>
    </set>
   </array>
  </projected>
 </calculation>
 <structure name="finalpos" >
  <crystal>
   <varray name="basis" >
    <v>      -2.00008700      -2.00008700       0.00000000 </v>
    <v>      -2.00008700       0.00000000      -2.00008700 </v>
    <v>       0.00000000      -2.00008700      -2.00008700 </v>
   </varray>
   <i name="volume">     16.00208809 </i>
   <varray name="rec_basis" >
    <v>      -0.24998913      -0.24998913       0.24998913 </v>
    <v>      -0.24998913       0.24998913      -0.24998913 </v>
    <v>       0.24998913      -0.24998913      -0.24998913 </v>
   </varray>
  </crystal>
  <varray name="positions" >
   <v>       0.00000000       0.00000000       0.00000000 </v>
   <v>       0.50000000       0.50000000       0.50000000 </v>
  </varray>
 </structure>
</modeling>
