 DBCSR| Multiplication driver                                               XSMM
 DBCSR| Multrec recursion limit                                              512
 DBCSR| Multiplication stack size                                           1000
 DBCSR| Maximum elements for images                                    UNLIMITED
 DBCSR| Multiplicative factor virtual images                                   1
 DBCSR| Multiplication size stacks                                             3
 DBCSR| Number of 3D layers                                               SINGLE
 DBCSR| Use MPI memory allocation                                              T
 DBCSR| Use RMA algorithm                                                      F
 DBCSR| Use Communication thread                                               T
 DBCSR| Communication thread load                                             87


  **** **** ******  **  PROGRAM STARTED AT               2019-11-01 13:36:35.973
 ***** ** ***  *** **   PROGRAM STARTED ON                              nid02952
 **    ****   ******    PROGRAM STARTED BY                               nwinner
 ***** **    ** ** **   PROGRAM PROCESS ID                                155863
  **** **  *******  **  PROGRAM STARTED IN /global/u1/n/nwinner/test/cp2k/geo_op
                                           t

 CP2K| version string:                                          CP2K version 6.1
 CP2K| source code revision number:                                    svn:18464
 CP2K| cp2kflags: libint fftw3 libxc parallel mpi3 scalapack xsmm has_no_shared_
 CP2K|            glibc max_contr=4 plumed2 no_abort mkl
 CP2K| is freely available from                            https://www.cp2k.org/
 CP2K| Program compiled at                          Wed Aug 21 17:08:09 PDT 2019
 CP2K| Program compiled on                                                cori02
 CP2K| Program compiled for                                             cori-gnu
 CP2K| Data directory path            /global/common/cori/software/cp2k/6.1/data
 CP2K| Input file name                                                  cp2k.inp

 GLOBAL| Force Environment number                                              1
 GLOBAL| Basis set file name                                      GTH_BASIS_SETS
 GLOBAL| Potential file name                                      GTH_POTENTIALS
 GLOBAL| MM Potential file name                                     MM_POTENTIAL
 GLOBAL| Coordinate file name                                      __STD_INPUT__
 GLOBAL| Method name                                                        CP2K
 GLOBAL| Project name                                                         Si
 GLOBAL| Preferred FFT library                                             FFTW3
 GLOBAL| Preferred diagonalization lib.                                       SL
 GLOBAL| Run type                                                        GEO_OPT
 GLOBAL| All-to-all communication in single precision                          F
 GLOBAL| FFTs using library dependent lengths                                  F
 GLOBAL| Global print level                                               MEDIUM
 GLOBAL| Total number of message passing processes                           128
 GLOBAL| Number of threads for this process                                    1
 GLOBAL| This output is from process                                           0
 GLOBAL| CPU model name :  Intel(R) Xeon Phi(TM) CPU 7250 @ 1.40GHz

 MEMORY| system memory details [Kb]
 MEMORY|                        rank 0           min           max       average
 MEMORY| MemTotal             98828780      98828780      98828780      98828780
 MEMORY| MemFree              93635796      93635796      93771588      93733374
 MEMORY| Buffers                  6996          3228          6996          4308
 MEMORY| Cached                 521644        477684        521644        490871
 MEMORY| Slab                  1176348       1162288       1180560       1171497
 MEMORY| SReclaimable           178040        176916        178040        177592
 MEMORY| MemLikelyFree        94342476      94342476      94435300      94406145


 *** Fundamental physical constants (SI units) ***

 *** Literature: B. J. Mohr and B. N. Taylor,
 ***             CODATA recommended values of the fundamental physical
 ***             constants: 2006, Web Version 5.1
 ***             http://physics.nist.gov/constants

 Speed of light in vacuum [m/s]                             2.99792458000000E+08
 Magnetic constant or permeability of vacuum [N/A**2]       1.25663706143592E-06
 Electric constant or permittivity of vacuum [F/m]          8.85418781762039E-12
 Planck constant (h) [J*s]                                  6.62606896000000E-34
 Planck constant (h-bar) [J*s]                              1.05457162825177E-34
 Elementary charge [C]                                      1.60217648700000E-19
 Electron mass [kg]                                         9.10938215000000E-31
 Electron g factor [ ]                                     -2.00231930436220E+00
 Proton mass [kg]                                           1.67262163700000E-27
 Fine-structure constant                                    7.29735253760000E-03
 Rydberg constant [1/m]                                     1.09737315685270E+07
 Avogadro constant [1/mol]                                  6.02214179000000E+23
 Boltzmann constant [J/K]                                   1.38065040000000E-23
 Atomic mass unit [kg]                                      1.66053878200000E-27
 Bohr radius [m]                                            5.29177208590000E-11

 *** Conversion factors ***

 [u] -> [a.u.]                                              1.82288848426455E+03
 [Angstrom] -> [Bohr] = [a.u.]                              1.88972613288564E+00
 [a.u.] = [Bohr] -> [Angstrom]                              5.29177208590000E-01
 [a.u.] -> [s]                                              2.41888432650478E-17
 [a.u.] -> [fs]                                             2.41888432650478E-02
 [a.u.] -> [J]                                              4.35974393937059E-18
 [a.u.] -> [N]                                              8.23872205491840E-08
 [a.u.] -> [K]                                              3.15774647902944E+05
 [a.u.] -> [kJ/mol]                                         2.62549961709828E+03
 [a.u.] -> [kcal/mol]                                       6.27509468713739E+02
 [a.u.] -> [Pa]                                             2.94210107994716E+13
 [a.u.] -> [bar]                                            2.94210107994716E+08
 [a.u.] -> [atm]                                            2.90362800883016E+08
 [a.u.] -> [eV]                                             2.72113838565563E+01
 [a.u.] -> [Hz]                                             6.57968392072181E+15
 [a.u.] -> [1/cm] (wave numbers)                            2.19474631370540E+05
 [a.u./Bohr**2] -> [1/cm]                                   5.14048714338585E+03
 

 CELL_TOP| Volume [angstrom^3]:                                           40.888
 CELL_TOP| Vector a [angstrom     3.349     0.000     1.933    |a| =       3.867
 CELL_TOP| Vector b [angstrom     1.116     3.157     1.933    |b| =       3.867
 CELL_TOP| Vector c [angstrom     0.000     0.000     3.867    |c| =       3.867
 CELL_TOP| Angle (b,c), alpha [degree]:                                   60.000
 CELL_TOP| Angle (a,c), beta  [degree]:                                   60.000
 CELL_TOP| Angle (a,b), gamma [degree]:                                   60.000
 CELL_TOP| Numerically orthorhombic:                                          NO

 GENERATE|  Preliminary Number of Bonds generated:                             0
 GENERATE|  Achieved consistency in connectivity generation.

 CELL| Volume [angstrom^3]:                                               40.888
 CELL| Vector a [angstrom]:       3.349     0.000     1.933    |a| =       3.867
 CELL| Vector b [angstrom]:       1.116     3.157     1.933    |b| =       3.867
 CELL| Vector c [angstrom]:       0.000     0.000     3.867    |c| =       3.867
 CELL| Angle (b,c), alpha [degree]:                                       60.000
 CELL| Angle (a,c), beta  [degree]:                                       60.000
 CELL| Angle (a,b), gamma [degree]:                                       60.000
 CELL| Numerically orthorhombic:                                              NO

 CELL_REF| Volume [angstrom^3]:                                           40.888
 CELL_REF| Vector a [angstrom     3.349     0.000     1.933    |a| =       3.867
 CELL_REF| Vector b [angstrom     1.116     3.157     1.933    |b| =       3.867
 CELL_REF| Vector c [angstrom     0.000     0.000     3.867    |c| =       3.867
 CELL_REF| Angle (b,c), alpha [degree]:                                   60.000
 CELL_REF| Angle (a,c), beta  [degree]:                                   60.000
 CELL_REF| Angle (a,b), gamma [degree]:                                   60.000
 CELL_REF| Numerically orthorhombic:                                          NO

 *******************************************************************************
 *******************************************************************************
 **                                                                           **
 **     #####                         ##              ##                      **
 **    ##   ##            ##          ##              ##                      **
 **   ##     ##                       ##            ######                    **
 **   ##     ##  ##   ##  ##   #####  ##  ##   ####   ##    #####    #####    **
 **   ##     ##  ##   ##  ##  ##      ## ##   ##      ##   ##   ##  ##   ##   **
 **   ##  ## ##  ##   ##  ##  ##      ####     ###    ##   ######   ######    **
 **    ##  ###   ##   ##  ##  ##      ## ##      ##   ##   ##       ##        **
 **     #######   #####   ##   #####  ##  ##  ####    ##    #####   ##        **
 **           ##                                                    ##        **
 **                                                                           **
 **                                                ... make the atoms dance   **
 **                                                                           **
 **            Copyright (C) by CP2K developers group (2000 - 2018)           **
 **                                                                           **
 *******************************************************************************

 DFT| Spin restricted Kohn-Sham (RKS) calculation                            RKS
 DFT| Multiplicity                                                             1
 DFT| Number of spin states                                                    1
 DFT| Charge                                                                   0
 DFT| Self-interaction correction (SIC)                                       NO
 DFT| Cutoffs: density                                              1.000000E-10
 DFT|          gradient                                             1.000000E-10
 DFT|          tau                                                  1.000000E-10
 DFT|          cutoff_smoothing_range                               0.000000E+00
 DFT| XC density smoothing                                                  NONE
 DFT| XC derivatives                                                          PW
 FUNCTIONAL| ROUTINE=NEW
 FUNCTIONAL| PBE:
 FUNCTIONAL| J.P.Perdew, K.Burke, M.Ernzerhof, Phys. Rev. Letter, vol. 77, n 18,
 FUNCTIONAL|  pp. 3865-3868, (1996){spin unpolarized}                           
 vdW POTENTIAL|                                                   Pair Potential
 vdW POTENTIAL|          DFT-D3 (Version 3.1)
 vdW POTENTIAL|          Potential Form: S. Grimme et al, JCP 132: 154104 (2010)
 vdW POTENTIAL|          Zero Damping
 vdW POTENTIAL|          Cutoff Radius [Bohr]:                             30.24
 vdW POTENTIAL|          s6 Scaling Factor:                               1.0000
 vdW POTENTIAL|          sr6 Scaling Factor:                              1.2170
 vdW POTENTIAL|          s8 Scaling Factor:                               0.7220
 vdW POTENTIAL|          Cutoff for CN calculation:                   0.1000E-05

 QS| Method:                                                                 GPW
 QS| Density plane wave grid type                        NON-SPHERICAL FULLSPACE
 QS| Number of grid levels:                                                    4
 QS| Density cutoff [a.u.]:                                                200.0
 QS| Multi grid cutoff [a.u.]: 1) grid level                               200.0
 QS|                           2) grid level                                66.7
 QS|                           3) grid level                                22.2
 QS|                           4) grid level                                 7.4
 QS| Grid level progression factor:                                          3.0
 QS| Relative density cutoff [a.u.]:                                        30.0
 QS| Consistent realspace mapping and integration 
 QS| Interaction thresholds: eps_pgf_orb:                                1.0E-05
 QS|                         eps_filter_matrix:                          0.0E+00
 QS|                         eps_core_charge:                            1.0E-12
 QS|                         eps_rho_gspace:                             1.0E-10
 QS|                         eps_rho_rspace:                             1.0E-10
 QS|                         eps_gvg_rspace:                             1.0E-05
 QS|                         eps_ppl:                                    1.0E-02
 QS|                         eps_ppnl:                                   1.0E-07


 ATOMIC KIND INFORMATION

  1. Atomic kind: Si                                    Number of atoms:       2

     Orbital Basis Set                                               DZVP-GTH-q4

       Number of orbital shell sets:                                           2
       Number of orbital shells:                                               5
       Number of primitive Cartesian functions:                                5
       Number of Cartesian basis functions:                                   14
       Number of spherical basis functions:                                   13
       Norm type:                                                              2

       Normalised Cartesian orbitals:

                        Set   Shell   Orbital            Exponent    Coefficient

                          1       1    3s                1.203240       0.269412
                                                         0.468839      -0.102292
                                                         0.167985      -0.147194
                                                         0.057562      -0.015996

                          1       2    4s                1.203240       0.000000
                                                         0.468839       0.000000
                                                         0.167985       0.000000
                                                         0.057562       0.083755

                          1       3    4px               1.203240       0.085241
                                                         0.468839      -0.143474
                                                         0.167985      -0.083407
                                                         0.057562      -0.014564
                          1       3    4py               1.203240       0.085241
                                                         0.468839      -0.143474
                                                         0.167985      -0.083407
                                                         0.057562      -0.014564
                          1       3    4pz               1.203240       0.085241
                                                         0.468839      -0.143474
                                                         0.167985      -0.083407
                                                         0.057562      -0.014564

                          1       4    5px               1.203240       0.000000
                                                         0.468839       0.000000
                                                         0.167985       0.000000
                                                         0.057562       0.040189
                          1       4    5py               1.203240       0.000000
                                                         0.468839       0.000000
                                                         0.167985       0.000000
                                                         0.057562       0.040189
                          1       4    5pz               1.203240       0.000000
                                                         0.468839       0.000000
                                                         0.167985       0.000000
                                                         0.057562       0.040189

                          2       1    3dx2              0.275000       0.171886
                          2       1    3dxy              0.275000       0.297716
                          2       1    3dxz              0.275000       0.297716
                          2       1    3dy2              0.275000       0.171886
                          2       1    3dyz              0.275000       0.297716
                          2       1    3dz2              0.275000       0.171886

     GTH Potential information for                                    GTH-PBE-q4

       Description:                       Goedecker-Teter-Hutter pseudopotential
                                           Goedecker et al., PRB 54, 1703 (1996)
                                          Hartwigsen et al., PRB 58, 3641 (1998)
                                                      Krack, TCA 114, 145 (2005)

       Gaussian exponent of the core charge distribution:               2.582645
       Electronic configuration (s p d ...):                               2   2

       Parameters of the local part of the GTH pseudopotential:

                          rloc        C1          C2          C3          C4
                        0.440000   -6.269288

       Parameters of the non-local part of the GTH pseudopotential:

                   l      r(l)      h(i,j,l)

                   0    0.435634    8.951742   -2.706271
                                   -2.706271    3.493781
                   1    0.497942    2.431277


 MOLECULE KIND INFORMATION


 All atoms are their own molecule, skipping detailed information


 TOTAL NUMBERS AND MAXIMUM NUMBERS

  Total number of            - Atomic kinds:                                   1
                             - Atoms:                                          2
                             - Shell sets:                                     4
                             - Shells:                                        10
                             - Primitive Cartesian functions:                 10
                             - Cartesian basis functions:                     28
                             - Spherical basis functions:                     26

  Maximum angular momentum of- Orbital basis functions:                        2
                             - Local part of the GTH pseudopotential:          0
                             - Non-local part of the GTH pseudopotential:      2


 MODULE QUICKSTEP:  ATOMIC COORDINATES IN angstrom

  Atom  Kind  Element       X           Y           Z          Z(eff)       Mass

       1     1 Si  14    3.907048    2.762700    6.767206      4.00      28.0855
       2     1 Si  14    0.558150    0.394671    0.966744      4.00      28.0855




 SCF PARAMETERS         Density guess:                                    ATOMIC
                        --------------------------------------------------------
                        max_scf:                                              30
                        max_scf_history:                                       0
                        max_diis:                                              4
                        --------------------------------------------------------
                        eps_scf:                                        1.00E-07
                        eps_scf_history:                                0.00E+00
                        eps_diis:                                       1.00E-01
                        eps_eigval:                                     1.00E-05
                        --------------------------------------------------------
                        level_shift [a.u.]:                                 0.00
                        --------------------------------------------------------
                        No outer SCF

 PW_GRID| Information for grid number                                          1
 PW_GRID| Grid distributed over                                   128 processors
 PW_GRID| Real space group dimensions                                     8   16
 PW_GRID| the grid is blocked:                                               YES
 PW_GRID| Cutoff [a.u.]                                                    200.0
 PW_GRID| spherical cutoff:                                                   NO
 PW_GRID|   Bounds   1            -24      23                Points:          48
 PW_GRID|   Bounds   2            -24      23                Points:          48
 PW_GRID|   Bounds   3            -24      23                Points:          48
 PW_GRID| Volume element (a.u.^3)  0.2495E-02     Volume (a.u.^3)       275.9279
 PW_GRID| Grid span                                                    FULLSPACE
 PW_GRID|   Distribution                         Average         Max         Min
 PW_GRID|   G-Vectors                              864.0         864         864
 PW_GRID|   G-Rays                                  18.0          18          18
 PW_GRID|   Real Space Points                      864.0         864         864

 PW_GRID| Information for grid number                                          2
 PW_GRID| Grid distributed over                                   128 processors
 PW_GRID| Real space group dimensions                                     8   16
 PW_GRID| the grid is blocked:                                                NO
 PW_GRID| Cutoff [a.u.]                                                     66.7
 PW_GRID| spherical cutoff:                                                   NO
 PW_GRID|   Bounds   1            -13      13                Points:          27
 PW_GRID|   Bounds   2            -13      13                Points:          27
 PW_GRID|   Bounds   3            -13      13                Points:          27
 PW_GRID| Volume element (a.u.^3)  0.1402E-01     Volume (a.u.^3)       275.9279
 PW_GRID| Grid span                                                    FULLSPACE
 PW_GRID|   Distribution                         Average         Max         Min
 PW_GRID|   G-Vectors                              153.8         486           0
 PW_GRID|   G-Rays                                   5.7          18           0
 PW_GRID|   Real Space Points                      153.8         216          81

 PW_GRID| Information for grid number                                          3
 PW_GRID| Grid distributed over                                   128 processors
 PW_GRID| Real space group dimensions                                     8   16
 PW_GRID| the grid is blocked:                                                NO
 PW_GRID| Cutoff [a.u.]                                                     22.2
 PW_GRID| spherical cutoff:                                                   NO
 PW_GRID|   Bounds   1             -7       7                Points:          15
 PW_GRID|   Bounds   2             -7       7                Points:          15
 PW_GRID|   Bounds   3             -7       7                Points:          15
 PW_GRID| Volume element (a.u.^3)  0.8176E-01     Volume (a.u.^3)       275.9279
 PW_GRID| Grid span                                                    FULLSPACE
 PW_GRID|   Distribution                         Average         Max         Min
 PW_GRID|   G-Vectors                               26.4         270           0
 PW_GRID|   G-Rays                                   1.8          18           0
 PW_GRID|   Real Space Points                       26.4          30           0

 PW_GRID| Information for grid number                                          4
 PW_GRID| Grid distributed over                                   128 processors
 PW_GRID| Real space group dimensions                                     8   16
 PW_GRID| the grid is blocked:                                                NO
 PW_GRID| Cutoff [a.u.]                                                      7.4
 PW_GRID| spherical cutoff:                                                   NO
 PW_GRID|   Bounds   1             -4       4                Points:           9
 PW_GRID|   Bounds   2             -4       4                Points:           9
 PW_GRID|   Bounds   3             -4       4                Points:           9
 PW_GRID| Volume element (a.u.^3)  0.3785         Volume (a.u.^3)       275.9279
 PW_GRID| Grid span                                                    FULLSPACE
 PW_GRID|   Distribution                         Average         Max         Min
 PW_GRID|   G-Vectors                                5.7         135           0
 PW_GRID|   G-Rays                                   0.6          15           0
 PW_GRID|   Real Space Points                        5.7          18           0

 POISSON| Solver                                                        PERIODIC
 POISSON| Periodicity                                                        XYZ

 RS_GRID| Information for grid number                                          1
 RS_GRID|   Bounds   1            -24      23                Points:          48
 RS_GRID|   Bounds   2            -24      23                Points:          48
 RS_GRID|   Bounds   3            -24      23                Points:          48
 RS_GRID| Real space fully replicated
 RS_GRID| Group size                                                           1

 RS_GRID| Information for grid number                                          2
 RS_GRID|   Bounds   1            -13      13                Points:          27
 RS_GRID|   Bounds   2            -13      13                Points:          27
 RS_GRID|   Bounds   3            -13      13                Points:          27
 RS_GRID| Real space fully replicated
 RS_GRID| Group size                                                           1

 RS_GRID| Information for grid number                                          3
 RS_GRID|   Bounds   1             -7       7                Points:          15
 RS_GRID|   Bounds   2             -7       7                Points:          15
 RS_GRID|   Bounds   3             -7       7                Points:          15
 RS_GRID| Real space fully replicated
 RS_GRID| Group size                                                           1

 RS_GRID| Information for grid number                                          4
 RS_GRID|   Bounds   1             -4       4                Points:           9
 RS_GRID|   Bounds   2             -4       4                Points:           9
 RS_GRID|   Bounds   3             -4       4                Points:           9
 RS_GRID| Real space fully replicated
 RS_GRID| Group size                                                           1

 BFGS| Use rational function optimization for step estimation:                NO
 BFGS| Use model Hessian for initial guess:                                  YES
 BFGS| Restart Hessian:                                                       NO
 BFGS| Trust radius:                                                       0.472

 *******************************************************************************
 ***                     STARTING GEOMETRY OPTIMIZATION                      ***
 ***                                   BFGS                                  ***
 *******************************************************************************

 Number of electrons:                                                          8
 Number of occupied orbitals:                                                  4
 Number of molecular orbitals:                                                 4

 Number of orbital functions:                                                 26
 Number of independent orbital functions:                                     26

 Extrapolation method: initial_guess

 Atomic guess: The first density matrix is obtained in terms of atomic orbitals
               and electronic configurations assigned to each atomic kind

 Guess for atomic kind: Si

 Electronic structure
    Total number of core electrons                                         10.00
    Total number of valence electrons                                       4.00
    Total number of electrons                                              14.00
    Multiplicity                                                   not specified
    S   [  2.00  2.00] 2.00
    P   [  6.00] 2.00


 *******************************************************************************
                  Iteration          Convergence                     Energy [au]
 *******************************************************************************
                          1        0.195541                      -3.582494092186
                          2        0.773517E-01                  -3.657362253026
                          3        0.413237E-02                  -3.666974954558
                          4        0.237669E-02                  -3.666990677417
                          5        0.213903E-02                  -3.666992145309
                          6        0.199987E-02                  -3.666992932869
                          7        0.243200E-05                  -3.666998397025
                          8        0.782699E-08                  -3.666998397033

 Energy components [Hartree]           Total Energy ::           -3.666998397033
                                        Band Energy ::           -1.003216345610
                                     Kinetic Energy ::            1.369497204524
                                   Potential Energy ::           -5.036495601557
                                      Virial (-V/T) ::            3.677623864378
                                        Core Energy ::           -5.652967288373
                                          XC Energy ::           -0.972340293300
                                     Coulomb Energy ::            2.958309184640
                       Total Pseudopotential Energy ::           -7.068603880017
                       Local Pseudopotential Energy ::           -7.902613087561
                    Nonlocal Pseudopotential Energy ::            0.834009207544
                                        Confinement ::            0.461393871202

 Orbital energies  State     L     Occupation   Energy[a.u.]          Energy[eV]

                       1     0          2.000      -0.374799          -10.198801

                       1     1          2.000      -0.126809           -3.450652


 Total Electron Density at R=0:                                         0.000023
 Re-scaling the density matrix to get the right number of electrons
                  # Electrons              Trace(P)               Scaling factor
                            8                 8.286                        0.965


 SCF WAVEFUNCTION OPTIMIZATION

  ----------------------------------- OT ---------------------------------------
  Minimizer      : DIIS                : direct inversion
                                         in the iterative subspace
                                         using   7 DIIS vectors
                                         safer DIIS on
  Preconditioner : FULL_ALL            : diagonalization, state selective
  Precond_solver : DEFAULT
  stepsize       :    0.15000000                  energy_gap     :    0.08000000
  eps_taylor     :   0.10000E-15                  max_taylor     :             4
  ----------------------------------- OT ---------------------------------------

  Step     Update method      Time    Convergence         Total energy    Change
  ------------------------------------------------------------------------------
     1 OT DIIS     0.15E+00    2.2     0.19708244        -6.7988759893 -6.80E+00
     2 OT DIIS     0.15E+00    4.0     0.13618305        -7.0486277841 -2.50E-01
     3 OT DIIS     0.15E+00    4.0     0.06861931        -7.1578571109 -1.09E-01
     4 OT DIIS     0.15E+00    4.0     0.03958475        -7.2143422453 -5.65E-02
     5 OT DIIS     0.15E+00    4.0     0.02182841        -7.2321308930 -1.78E-02
     6 OT DIIS     0.15E+00    4.0     0.00774376        -7.2376221384 -5.49E-03
     7 OT DIIS     0.15E+00    4.0     0.00347918        -7.2385137294 -8.92E-04
     8 OT DIIS     0.15E+00    4.0     0.00220374        -7.2386683039 -1.55E-04
     9 OT DIIS     0.15E+00    4.0     0.00062310        -7.2387216536 -5.33E-05
    10 OT DIIS     0.15E+00    4.0     0.00014348        -7.2387261283 -4.47E-06
    11 OT DIIS     0.15E+00    4.0     0.00007283        -7.2387263910 -2.63E-07
    12 OT DIIS     0.15E+00    4.0     0.00003894        -7.2387264723 -8.13E-08
    13 OT DIIS     0.15E+00    4.0     0.00002007        -7.2387265001 -2.77E-08
    14 OT DIIS     0.15E+00    4.0     0.00001312        -7.2387265049 -4.82E-09
    15 OT DIIS     0.15E+00    4.0     0.00000531        -7.2387265076 -2.78E-09
    16 OT DIIS     0.15E+00    4.0     0.00000291        -7.2387265082 -5.98E-10
    17 OT DIIS     0.15E+00    4.0     0.00000138        -7.2387265085 -2.07E-10
    18 OT DIIS     0.15E+00    4.0     0.00000066        -7.2387265085 -3.02E-11
    19 OT DIIS     0.15E+00    4.0     0.00000035        -7.2387265085  3.71E-12
    20 OT DIIS     0.15E+00    4.0     0.00000014        -7.2387265085  9.40E-12
    21 OT DIIS     0.15E+00    4.0     0.00000006        -7.2387265085  2.78E-12

  *** SCF run converged in    21 steps ***


  Electronic density on regular grids:         -8.0000000010       -0.0000000010
  Core density on regular grids:                7.9999999986       -0.0000000014
  Total charge density on r-space grids:       -0.0000000025
  Total charge density g-space grids:          -0.0000000025

  Overlap energy of the core charge distribution:               0.00000000000917
  Self energy of the core charge distribution:                -20.51598485628205
  Core Hamiltonian energy:                                      5.24509890429286
  Hartree energy:                                              10.58588088685028
  Exchange-correlation energy:                                 -2.54302524283273
  Dispersion energy:                                           -0.01069620050649

  Total energy:                                                -7.23872650846896

 !-----------------------------------------------------------------------------!
                     Mulliken Population Analysis

 #  Atom  Element  Kind  Atomic population                           Net charge
       1     Si       1          3.999997                              0.000003
       2     Si       1          4.000003                             -0.000003
 # Total charge                              8.000000                 -0.000000

 !-----------------------------------------------------------------------------!

 !-----------------------------------------------------------------------------!
                           Hirshfeld Charges

  #Atom  Element  Kind  Ref Charge     Population                    Net charge
      1       Si     1       4.000          4.000                        -0.000
      2       Si     1       4.000          4.000                         0.000

  Total Charge                                                           -0.000
 !-----------------------------------------------------------------------------!

 ENERGY| Total FORCE_EVAL ( QS ) energy (a.u.):               -7.238726508468534


 --------  Informations at step =     0 ------------
  Optimization Method        =                 BFGS
  Total Energy               =        -7.2387265085
  Used time                  =               88.859
 ---------------------------------------------------

 --------------------------
 OPTIMIZATION STEP:      1
 --------------------------

 Number of electrons:                                                          8
 Number of occupied orbitals:                                                  4
 Number of molecular orbitals:                                                 4

 Number of orbital functions:                                                 26
 Number of independent orbital functions:                                     26

 Parameters for the always stable predictor-corrector (ASPC) method:

  ASPC order: 0

  B(1) =   1.000000

 Extrapolation method: ASPC


 SCF WAVEFUNCTION OPTIMIZATION

  ----------------------------------- OT ---------------------------------------
  Minimizer      : DIIS                : direct inversion
                                         in the iterative subspace
                                         using   7 DIIS vectors
                                         safer DIIS on
  Preconditioner : FULL_ALL            : diagonalization, state selective
  Precond_solver : DEFAULT
  stepsize       :    0.15000000                  energy_gap     :    0.08000000
  eps_taylor     :   0.10000E-15                  max_taylor     :             4
  ----------------------------------- OT ---------------------------------------

  Step     Update method      Time    Convergence         Total energy    Change
  ------------------------------------------------------------------------------
     1 OT DIIS     0.15E+00    2.1     0.00001881        -7.2387264881 -7.24E+00
     2 OT DIIS     0.15E+00    3.9     0.00000701        -7.2387264918 -3.68E-09
     3 OT DIIS     0.15E+00    3.9     0.00000130        -7.2387264924 -5.77E-10
     4 OT DIIS     0.15E+00    3.9     0.00000071        -7.2387264924 -7.47E-12
     5 OT DIIS     0.15E+00    3.9     0.00000006        -7.2387264924 -2.16E-12

  *** SCF run converged in     5 steps ***


  Electronic density on regular grids:         -7.9999999987        0.0000000013
  Core density on regular grids:                7.9999999986       -0.0000000014
  Total charge density on r-space grids:       -0.0000000001
  Total charge density g-space grids:          -0.0000000001

  Overlap energy of the core charge distribution:               0.00000000000917
  Self energy of the core charge distribution:                -20.51598485628205
  Core Hamiltonian energy:                                      5.24509886486752
  Hartree energy:                                              10.58588092711779
  Exchange-correlation energy:                                 -2.54302522753198
  Dispersion energy:                                           -0.01069620055661

  Total energy:                                                -7.23872649237617

 !-----------------------------------------------------------------------------!
                     Mulliken Population Analysis

 #  Atom  Element  Kind  Atomic population                           Net charge
       1     Si       1          4.000000                              0.000000
       2     Si       1          4.000000                             -0.000000
 # Total charge                              8.000000                  0.000000

 !-----------------------------------------------------------------------------!

 !-----------------------------------------------------------------------------!
                           Hirshfeld Charges

  #Atom  Element  Kind  Ref Charge     Population                    Net charge
      1       Si     1       4.000          4.000                        -0.000
      2       Si     1       4.000          4.000                        -0.000

  Total Charge                                                           -0.000
 !-----------------------------------------------------------------------------!

 ENERGY| Total FORCE_EVAL ( QS ) energy (a.u.):               -7.238726492376183


 --------  Informations at step =     1 ------------
  Optimization Method        =                 BFGS
  Total Energy               =        -7.2387264924
  Real energy change         =         0.0000000161
  Predicted change in energy =        -0.0000000040
  Scaling factor             =         0.0000000000
  Step size                  =         0.0001718346
  Trust radius               =         0.4724315332
  Decrease in energy         =                   NO
  Used time                  =               25.217

  Convergence check :
  Max. step size             =         0.0001718346
  Conv. limit for step size  =         0.0030000000
  Convergence in step size   =                  YES
  RMS step size              =         0.0001156733
  Conv. limit for RMS step   =         0.0015000000
  Convergence in RMS step    =                  YES
  Max. gradient              =         0.0000863579
  Conv. limit for gradients  =         0.0004500000
  Conv. in gradients         =                  YES
  RMS gradient               =         0.0000582333
  Conv. limit for RMS grad.  =         0.0003000000
  Conv. in RMS gradients     =                  YES
 ---------------------------------------------------

 *******************************************************************************
 ***                    GEOMETRY OPTIMIZATION COMPLETED                      ***
 *******************************************************************************

                    Reevaluating energy at the minimum

 Number of electrons:                                                          8
 Number of occupied orbitals:                                                  4
 Number of molecular orbitals:                                                 4

 Number of orbital functions:                                                 26
 Number of independent orbital functions:                                     26

 Parameters for the always stable predictor-corrector (ASPC) method:

  ASPC order: 0

  B(1) =   2.000000
  B(2) =  -1.000000

 Extrapolation method: ASPC


 SCF WAVEFUNCTION OPTIMIZATION

  ----------------------------------- OT ---------------------------------------
  Minimizer      : DIIS                : direct inversion
                                         in the iterative subspace
                                         using   7 DIIS vectors
                                         safer DIIS on
  Preconditioner : FULL_ALL            : diagonalization, state selective
  Precond_solver : DEFAULT
  stepsize       :    0.15000000                  energy_gap     :    0.08000000
  eps_taylor     :   0.10000E-15                  max_taylor     :             4
  ----------------------------------- OT ---------------------------------------

  Step     Update method      Time    Convergence         Total energy    Change
  ------------------------------------------------------------------------------
     1 OT DIIS     0.15E+00    2.1     0.00001881        -7.2387264879 -7.24E+00
     2 OT DIIS     0.15E+00    3.9     0.00000701        -7.2387264917 -3.84E-09
     3 OT DIIS     0.15E+00    3.9     0.00000130        -7.2387264924 -6.65E-10
     4 OT DIIS     0.15E+00    3.9     0.00000071        -7.2387264924 -1.06E-11
     5 OT DIIS     0.15E+00    3.9     0.00000006        -7.2387264924 -3.51E-12

  *** SCF run converged in     5 steps ***


  Electronic density on regular grids:         -7.9999999987        0.0000000013
  Core density on regular grids:                7.9999999986       -0.0000000014
  Total charge density on r-space grids:       -0.0000000001
  Total charge density g-space grids:          -0.0000000001

  Overlap energy of the core charge distribution:               0.00000000000917
  Self energy of the core charge distribution:                -20.51598485628205
  Core Hamiltonian energy:                                      5.24509886497571
  Hartree energy:                                              10.58588092707528
  Exchange-correlation energy:                                 -2.54302522759771
  Dispersion energy:                                           -0.01069620055661

  Total energy:                                                -7.23872649237621

 !-----------------------------------------------------------------------------!
                     Mulliken Population Analysis

 #  Atom  Element  Kind  Atomic population                           Net charge
       1     Si       1          4.000000                             -0.000000
       2     Si       1          4.000000                              0.000000
 # Total charge                              8.000000                  0.000000

 !-----------------------------------------------------------------------------!

 !-----------------------------------------------------------------------------!
                           Hirshfeld Charges

  #Atom  Element  Kind  Ref Charge     Population                    Net charge
      1       Si     1       4.000          4.000                        -0.000
      2       Si     1       4.000          4.000                        -0.000

  Total Charge                                                           -0.000
 !-----------------------------------------------------------------------------!

 ENERGY| Total FORCE_EVAL ( QS ) energy (a.u.):               -7.238726492376212


 -------------------------------------------------------------------------------
 -                                                                             -
 -                                DBCSR STATISTICS                             -
 -                                                                             -
 -------------------------------------------------------------------------------
 COUNTER                                    TOTAL       BLAS       SMM       ACC
 flops     4 x     4 x     4                24704       0.0%    100.0%      0.0%
 flops     4 x     4 x    13               105664       0.0%    100.0%      0.0%
 flops    26 x     4 x     4               131456       0.0%    100.0%      0.0%
 flops    13 x    13 x     4               146016       0.0%    100.0%      0.0%
 flops    26 x     4 x    13               367744       0.0%    100.0%      0.0%
 flops    13 x     4 x    13               459680       0.0%    100.0%      0.0%
 flops inhomo. stacks                           0       0.0%      0.0%      0.0%
 flops total                         1.235264E+06       0.0%    100.0%      0.0%
 flops max/rank                      1.137920E+06       0.0%    100.0%      0.0%
 matmuls inhomo. stacks                         0       0.0%      0.0%      0.0%
 matmuls total                               1189       0.0%    100.0%      0.0%
 number of processed stacks                   983       0.0%    100.0%      0.0%
 average stack size                                     0.0       1.2       0.0
 marketing flops                     1.286432E+06
 -------------------------------------------------------------------------------
 # multiplications                            670
 max memory usage/rank             21.651456E+06
 # max total images/rank                        2
 # max 3D layers                                1
 # MPI messages exchanged                 3859200
 MPI messages size (bytes):
  total size                        21.405600E+06
  min size                           0.000000E+00
  max size                           2.704000E+03
  average size                       5.546642E+00
 MPI breakdown and total messages size (bytes):
             size <=      128             3838410                  1044480
       128 < size <=     8192               20790                 20361120
      8192 < size <=    32768                   0                        0
     32768 < size <=   131072                   0                        0
    131072 < size <=  4194304                   0                        0
   4194304 < size <= 16777216                   0                        0
  16777216 < size                               0                        0
 -------------------------------------------------------------------------------

 *** WARNING in dbcsr/mm/dbcsr_mm.F:268 :: Using a non-square number of ***
 *** MPI ranks might lead to poor performance.                          ***
 *** Used ranks: 128                                                    ***
 *** Suggested: 121 256                                                 ***

 -------------------------------------------------------------------------------

 MEMORY| Estimated peak process memory [MiB]                                  21

 -------------------------------------------------------------------------------
 ----                             MULTIGRID INFO                            ----
 -------------------------------------------------------------------------------
 count for grid        1:           8210          cutoff [a.u.]          200.00
 count for grid        2:          70218          cutoff [a.u.]           66.67
 count for grid        3:          59100          cutoff [a.u.]           22.22
 count for grid        4:          34138          cutoff [a.u.]            7.41
 total gridlevel count  :         171666

 -------------------------------------------------------------------------------
 -                                                                             -
 -                         MESSAGE PASSING PERFORMANCE                         -
 -                                                                             -
 -------------------------------------------------------------------------------

 ROUTINE             CALLS      AVE VOLUME [Bytes]
 MP_Group               67
 MP_Bcast              338                 681246.
 MP_Allreduce         4552                     30.
 MP_Sync               438
 MP_Alltoall          3710
 MP_SendRecv          1016                   1928.
 MP_ISendRecv        35433                   2440.
 MP_Wait            132315
 MP_comm_split          32
 MP_ISend            65681                     93.
 MP_IRecv            65407                     82.
 MP_Recv                 5                     48.
 MP_Memory           38082
 -------------------------------------------------------------------------------


 -------------------------------------------------------------------------------
 -                                                                             -
 -                           R E F E R E N C E S                               -
 -                                                                             -
 -------------------------------------------------------------------------------
 
 CP2K version 6.1, the CP2K developers group (2018).
 CP2K is freely available from https://www.cp2k.org/ .

 Schuett, Ole; Messmer, Peter; Hutter, Juerg; VandeVondele, Joost. 
 Electronic Structure Calculations on Graphics Processing Units, John Wiley & Sons, Ltd, 173-190 (2016). 
 GPU-Accelerated Sparse Matrix-Matrix Multiplication for Linear Scaling Density Functional Theory.
 https://doi.org/10.1002/9781118670712.ch8


 Borstnik, U; VandeVondele, J; Weber, V; Hutter, J. 
 PARALLEL COMPUTING, 40 (5-6), 47-58 (2014). 
 Sparse matrix multiplication: The distributed block-compressed sparse
 row library.
 https://doi.org/10.1016/j.parco.2014.03.012


 Hutter, J; Iannuzzi, M; Schiffmann, F; VandeVondele, J. 
 WILEY INTERDISCIPLINARY REVIEWS-COMPUTATIONAL MOLECULAR SCIENCE, 4 (1), 15-25 (2014). 
 CP2K: atomistic simulations of condensed matter systems.
 https://doi.org/10.1002/wcms.1159


 Grimme, S; Ehrlich, S; Goerigk, L. 
 JOURNAL OF COMPUTATIONAL CHEMISTRY, 32, 1456 (2011). 
 Effect of the damping function in dispersion corrected density functional theory.
 https://doi.org/10.1002/jcc.21759


 Grimme, S; Antony, J; Ehrlich, S; Krieg, H. 
 JOURNAL OF CHEMICAL PHYSICS, 132 (15), 154104 (2010). 
 A consistent and accurate ab initio parametrization of density
 functional dispersion correction (DFT-D) for the 94 elements H-Pu.
 https://doi.org/10.1063/1.3382344


 Krack, M. 
 THEORETICAL CHEMISTRY ACCOUNTS, 114 (1-3), 145-152 (2005). 
 Pseudopotentials for H to Kr optimized for gradient-corrected
 exchange-correlation functionals.
 https://doi.org/10.1007/s00214-005-0655-y


 VandeVondele, J; Krack, M; Mohamed, F; Parrinello, M; Chassaing, T;
 Hutter, J. COMPUTER PHYSICS COMMUNICATIONS, 167 (2), 103-128 (2005). 
 QUICKSTEP: Fast and accurate density functional calculations using a
 mixed Gaussian and plane waves approach.
 https://doi.org/10.1016/j.cpc.2004.12.014


 Frigo, M; Johnson, SG. 
 PROCEEDINGS OF THE IEEE, 93 (2), 216-231 (2005). 
 The design and implementation of FFTW3.
 https://doi.org/10.1109/JPROC.2004.840301


 Kolafa, J. 
 JOURNAL OF COMPUTATIONAL CHEMISTRY, 25 (3), 335-342 (2004). 
 Time-reversible always stable predictor-corrector method for molecular dynamics of polarizable molecules.
 https://doi.org/10.1002/jcc.10385


 VandeVondele, J; Hutter, J. 
 JOURNAL OF CHEMICAL PHYSICS, 118 (10), 4365-4369 (2003). 
 An efficient orbital transformation method for electronic structure
 calculations.
 https://doi.org/10.1063/1.1543154


 Hartwigsen, C; Goedecker, S; Hutter, J. 
 PHYSICAL REVIEW B, 58 (7), 3641-3662 (1998). 
 Relativistic separable dual-space Gaussian pseudopotentials from H to Rn.
 https://doi.org/10.1103/PhysRevB.58.3641


 Lippert, G; Hutter, J; Parrinello, M. 
 MOLECULAR PHYSICS, 92 (3), 477-487 (1997). 
 A hybrid Gaussian and plane wave density functional scheme.
 https://doi.org/10.1080/002689797170220


 Perdew, JP; Burke, K; Ernzerhof, M. 
 PHYSICAL REVIEW LETTERS, 77 (18), 3865-3868 (1996). 
 Generalized gradient approximation made simple.
 https://doi.org/10.1103/PhysRevLett.77.3865


 Goedecker, S; Teter, M; Hutter, J. 
 PHYSICAL REVIEW B, 54 (3), 1703-1710 (1996). 
 Separable dual-space Gaussian pseudopotentials.
 https://doi.org/10.1103/PhysRevB.54.1703


 -------------------------------------------------------------------------------
 -                                                                             -
 -                                T I M I N G                                  -
 -                                                                             -
 -------------------------------------------------------------------------------
 SUBROUTINE                       CALLS  ASD         SELF TIME        TOTAL TIME
                                MAXIMUM       AVERAGE  MAXIMUM  AVERAGE  MAXIMUM
 CP2K                                 1  1.0    0.020    0.040  137.217  137.256
 cp_geo_opt                           1  2.0    0.000    0.001  136.391  136.430
 geoopt_bfgs                          1  3.0    0.003    0.004  136.391  136.430
 cp_eval_at                           3  4.0    0.002    0.002  136.304  136.343
 qs_energies                          3  5.7    0.001    0.002  130.736  130.773
 scf_env_do_scf                       3  6.7    0.000    0.001  123.735  123.770
 scf_env_do_scf_inner_loop           31  7.8    0.004    0.009  117.556  117.589
 qs_forces                            2  5.0    0.001    0.001  114.100  114.133
 rs_pw_transfer                     279 13.1    0.010    0.013   66.438   67.258
 mp_waitall_1                    132315 16.6   66.270   67.197   66.270   67.197
 rs_pw_transfer_RS2PW_200            40 12.6    0.111    0.123   65.663   66.491
 qs_rho_update_rho                   34  8.9    0.001    0.001   66.178   66.198
 calculate_rho_elec                  34  9.9    0.787   65.493   66.177   66.197
 density_rs2pw                       34 10.9    0.003    0.004   65.379   66.180
 dbcsr_multiply_generic             670 13.9    0.118    0.127   64.298   65.060
 rebuild_ks_matrix                   33  9.7    0.001    0.001   62.693   62.709
 qs_ks_build_kohn_sham_matrix        33 10.7    0.014    0.015   62.692   62.708
 sum_up_and_integrate                33 11.7    0.002    0.002    1.359   62.066
 integrate_v_rspace                  33 12.7    0.736   61.436    1.357   62.064
 mp_sum_l                          3206 14.9   61.064   61.835   61.064   61.835
 qs_ks_update_qs_env                 34  8.8    0.002    0.002   58.482   58.497
 init_scf_loop                        3  7.7    0.001    0.001    6.165    6.167
 init_scf_run                         3  6.7    0.000    0.001    5.374    5.375
 scf_env_initial_rho_setup            3  7.7    0.000    0.001    5.374    5.375
 qs_ks_update_qs_env_forces           2  6.0    0.000    0.000    4.219    4.221
 wfi_extrapolate                      3  8.7    0.001    0.001    3.994    3.995
 qs_scf_new_mos                      31  8.8    0.001    0.001    3.703    3.707
 qs_scf_loop_do_ot                   31  9.8    0.000    0.001    3.702    3.706
 ot_scf_mini                         31 10.8    0.004    0.004    3.529    3.532
 -------------------------------------------------------------------------------

 The number of warnings for this run is : 1
 
 -------------------------------------------------------------------------------
  **** **** ******  **  PROGRAM ENDED AT                 2019-11-01 13:38:54.181
 ***** ** ***  *** **   PROGRAM RAN ON                                  nid02952
 **    ****   ******    PROGRAM RAN BY                                   nwinner
 ***** **    ** ** **   PROGRAM PROCESS ID                                155863
  **** **  *******  **  PROGRAM STOPPED IN /global/u1/n/nwinner/test/cp2k/geo_opt








