# Projected DOS for atomic kind Si_1 at iteration step i = 0, E(Fermi) =     0.187273 a.u.
#     MO Eigenvalue [a.u.]      Occupation                 s                py                pz                px               d-2               d-1                d0               d+1               d+2
       1         -0.247583        1.000000        1.00000000        0.00000000        0.00000000        0.00000000        0.00000000        0.00000000        0.00000000        0.00000000        0.00000000
       2          0.187273        1.000000        0.00000000        0.35898225        0.00000002        0.35880963        0.00000001        0.14107012        0.00000000        0.14113798        0.00000000
       3          0.187273        1.000000        0.00000000        0.11954569        0.47852792        0.11971828        0.18813873        0.04706862        0.00000000        0.04700076        0.00000000
       4          0.187273        1.000000        0.00000000        0.23926396        0.23926396        0.23926399        0.09406936        0.09406937        0.00000000        0.09406936        0.00000000
       5          0.281171        0.000000        0.00000000        0.18690139        0.18690139        0.18690139        0.14643195        0.14643194        0.00000000        0.14643195        0.00000000
       6          0.281171        0.000000        0.00000000        0.08718811        0.37365942        0.09985635        0.29275192        0.07823471        0.00000000        0.06830949        0.00000000
       7          0.281171        0.000000        0.00000000        0.28661448        0.00014316        0.27394623        0.00011217        0.21462937        0.00000000        0.22455459        0.00000000
       8          0.306345        0.000000        1.00000000        0.00000000        0.00000000        0.00000000        0.00000000        0.00000000        0.00000000        0.00000000        0.00000000
       9          0.495683        0.000000        0.00000000        0.00000000        0.00000000        0.00000000        0.00000000        0.00000000        1.00000000        0.00000000        0.00000000
      10          0.495683        0.000000        0.00000000        0.00000000        0.00000000        0.00000000        0.00000000        0.00000000        0.00000000        0.00000000        1.00000000
      11          0.741903        0.000000        0.00000000        0.15916119        0.00000000        0.15917029        0.00000000        0.34084401        0.00000000        0.34082451        0.00000000
      12          0.741903        0.000000        0.00000000        0.05305980        0.21222099        0.05305070        0.45444568        0.11360167        0.00000000        0.11362117        0.00000000
      13          0.741903        0.000000        0.00000000        0.10611049        0.10611049        0.10611049        0.22722284        0.22722284        0.00000000        0.22722284        0.00000000
      14          1.126964        0.000000        0.00000000        0.00000000        0.00000000        0.00000000        0.00000000        0.00000000        1.00000000        0.00000000        0.00000000
      15          1.126964        0.000000        0.00000000        0.00000000        0.00000000        0.00000000        0.00000000        0.00000000        0.00000000        0.00000000        1.00000000
      16          1.152676        0.000000        0.00000000        0.35745771        0.00016124        0.34243506        0.00006909        0.14672014        0.00000000        0.15315676        0.00000000
      17          1.152676        0.000000        0.00000000        0.10924496        0.46654144        0.12426762        0.19989491        0.05324386        0.00000000        0.04680723        0.00000000
      18          1.152676        0.000000        0.00000000        0.23335177        0.23335176        0.23335176        0.09998157        0.09998157        0.00000000        0.09998158        0.00000000
      19          1.570448        0.000000        0.00000000        0.24641352        0.24641352        0.24641352        0.08691981        0.08691981        0.00000000        0.08691981        0.00000000
      20          1.570453        0.000000        0.00000000        0.00812646        0.41991021        0.31120544        0.14811778        0.10977361        0.00000000        0.00286650        0.00000000
      21          1.570453        0.000000        0.00000000        0.48470161        0.07291787        0.18162263        0.02572081        0.06406498        0.00000000        0.17097209        0.00000000
      22          1.694673        0.000000        0.00000000        0.59490247        0.03862899        0.33034517        0.00144771        0.01238040        0.00000000        0.02229527        0.00000000
      23          1.694673        0.000000        0.00000000        0.04768195        0.60395545        0.31223923        0.02263455        0.01170184        0.00000000        0.00178698        0.00000000
      24          1.694674        0.000000        0.00000000        0.32129221        0.32129219        0.32129222        0.01204113        0.01204113        0.00000000        0.01204113        0.00000000
      25          3.216311        0.000000        1.00000000        0.00000000        0.00000000        0.00000000        0.00000000        0.00000000        0.00000000        0.00000000        0.00000000
      26          3.433004        0.000000        1.00000000        0.00000000        0.00000000        0.00000000        0.00000000        0.00000000        0.00000000        0.00000000        0.00000000
