 vasp.5.4.1 24Jun15 (build Nov 25 2015 22:48:06) complex                        
  
 executed on      IFC91_craympich date 2016.04.01  14:36:33
 running on  128 total cores
 distrk:  each k-point on   64 cores,    2 groups
 distr:  one band on NCORES_PER_BAND=   1 cores,   64 groups


--------------------------------------------------------------------------------------------------------


 INCAR:
 POTCAR:    PAW_PBE H_h 06Feb2004                 
 POTCAR:    PAW_PBE C_h 06Feb2004                 
 POTCAR:    PAW_PBE O_h 06Feb2004                 
 POTCAR:    PAW_PBE Mg_sv 12Apr2007               

 ----------------------------------------------------------------------------- 
|                                                                             |
|           W    W    AA    RRRRR   N    N  II  N    N   GGGG   !!!           |
|           W    W   A  A   R    R  NN   N  II  NN   N  G    G  !!!           |
|           W    W  A    A  R    R  N N  N  II  N N  N  G       !!!           |
|           W WW W  AAAAAA  RRRRR   N  N N  II  N  N N  G  GGG   !            |
|           WW  WW  A    A  R   R   N   NN  II  N   NN  G    G                |
|           W    W  A    A  R    R  N    N  II  N    N   GGGG   !!!           |
|                                                                             |
|      For optimal performance we recommend to set                            |
|        NCORE= 4 - approx SQRT( number of cores)                             |
|      NCORE specifies how many cores store one orbital (NPAR=cpu/NCORE).     |
|      This setting can  greatly improve the performance of VASP for DFT.     |
|      The default, NPAR=number of cores might be grossly inefficient         |
|      on modern multi-core architectures or massively parallel machines.     |
|      Do your own testing !!!!                                               |
|      Unfortunately you need to use the default for GW and RPA calculations. |
|      (for HF NCORE is supported but not extensively tested yet)             |
|                                                                             |
 ----------------------------------------------------------------------------- 


 ----------------------------------------------------------------------------- 
|                                                                             |
|           W    W    AA    RRRRR   N    N  II  N    N   GGGG   !!!           |
|           W    W   A  A   R    R  NN   N  II  NN   N  G    G  !!!           |
|           W    W  A    A  R    R  N N  N  II  N N  N  G       !!!           |
|           W WW W  AAAAAA  RRRRR   N  N N  II  N  N N  G  GGG   !            |
|           WW  WW  A    A  R   R   N   NN  II  N   NN  G    G                |
|           W    W  A    A  R    R  N    N  II  N    N   GGGG   !!!           |
|                                                                             |
|      You have enabled k-point parallelism (KPAR>1).                         |
|      This developmental code was originally  written by Paul Kent at ORNL,  |
|      and carefully double checked in Vienna.                                |
|      GW as well as linear response parallelism added by Martijn Marsman     |
|      and Georg Kresse.                                                      |
|      Carefully verify results versus KPAR=1.                                |
|      Report problems to Paul Kent and Vienna.                               |
|                                                                             |
 ----------------------------------------------------------------------------- 

 POTCAR:    PAW_PBE H_h 06Feb2004                 
   VRHFIN =H: ultrasoft test                                                    
   LEXCH  = PE                                                                  
   EATOM  =    12.4884 eV,     .9179 Ry                                         
                                                                                
   TITEL  = PAW_PBE H_h 06Feb2004                                               
   LULTRA =        F    use ultrasoft PP ?                                      
   IUNSCR =        0    unscreen: 0-lin 1-nonlin 2-no                           
   RPACOR =     .000    partial core radius                                     
   POMASS =    1.000; ZVAL   =    1.000    mass and valenz                      
   RCORE  =     .800    outmost cutoff radius                                   
   RWIGS  =     .700; RWIGS  =     .370    wigner-seitz radius (au A)           
   ENMAX  =  700.000; ENMIN  =  500.000 eV                                      
   RCLOC  =     .701    cutoff for local pot                                    
   LCOR   =        T    correct aug charges                                     
   LPAW   =        T    paw PP                                                  
   EAUG   = 1685.224                                                            
   RMAX   =    1.606    core radius for proj-oper                               
   RAUG   =    1.000    factor for augmentation sphere                          
   RDEP   =     .817    radius for radial grids                                 
   QCUT   =   -7.783; QGAM   =   15.567    optimization parameters              
                                                                                
   Description                                                                  
     l     E      TYP  RCUT    TYP  RCUT                                        
     0   .000     23   .800                                                     
     0   .500     23   .800                                                     
     1  -.500     23   .800                                                     
  local pseudopotential read in
  atomic valenz-charges read in
  non local Contribution for L=           0  read in
    real space projection operators read in
  non local Contribution for L=           0  read in
    real space projection operators read in
  non local Contribution for L=           1  read in
    real space projection operators read in
    PAW grid and wavefunctions read in
 
   number of l-projection  operators is LMAX  =           3
   number of lm-projection operators is LMMAX =           5
 
 POTCAR:    PAW_PBE C_h 06Feb2004                 
   VRHFIN =C: s2p2                                                              
   LEXCH  = PE                                                                  
   EATOM  =   147.1560 eV,   10.8157 Ry                                         
                                                                                
   TITEL  = PAW_PBE C_h 06Feb2004                                               
   LULTRA =        F    use ultrasoft PP ?                                      
   IUNSCR =        1    unscreen: 0-lin 1-nonlin 2-no                           
   RPACOR =     .800    partial core radius                                     
   POMASS =   12.011; ZVAL   =    4.000    mass and valenz                      
   RCORE  =    1.100    outmost cutoff radius                                   
   RWIGS  =    1.630; RWIGS  =     .863    wigner-seitz radius (au A)           
   ENMAX  =  700.000; ENMIN  =  500.000 eV                                      
   ICORE  =        2    local potential                                         
   LCOR   =        T    correct aug charges                                     
   LPAW   =        T    paw PP                                                  
   EAUG   =  946.768                                                            
   DEXC   =     .000                                                            
   RMAX   =    1.693    core radius for proj-oper                               
   RAUG   =    1.300    factor for augmentation sphere                          
   RDEP   =    1.162    radius for radial grids                                 
   QCUT   =   -7.383; QGAM   =   14.767    optimization parameters              
                                                                                
   Description                                                                  
     l     E      TYP  RCUT    TYP  RCUT                                        
     0   .000     23  1.100                                                     
     0   .000     23  1.100                                                     
     1   .000     23  1.100                                                     
     1   .000     23  1.100                                                     
     2   .000      7  1.100                                                     
  local pseudopotential read in
  partial core-charges read in
  atomic valenz-charges read in
  non local Contribution for L=           0  read in
    real space projection operators read in
  non local Contribution for L=           0  read in
    real space projection operators read in
  non local Contribution for L=           1  read in
    real space projection operators read in
  non local Contribution for L=           1  read in
    real space projection operators read in
    PAW grid and wavefunctions read in
 
   number of l-projection  operators is LMAX  =           4
   number of lm-projection operators is LMMAX =           8
 
 POTCAR:    PAW_PBE O_h 06Feb2004                 
   VRHFIN =O: s2p4                                                              
   LEXCH  = PE                                                                  
   EATOM  =   432.3788 eV,   31.7789 Ry                                         
                                                                                
   TITEL  = PAW_PBE O_h 06Feb2004                                               
   LULTRA =        F    use ultrasoft PP ?                                      
   IUNSCR =        1    unscreen: 0-lin 1-nonlin 2-no                           
   RPACOR =     .800    partial core radius                                     
   POMASS =   16.000; ZVAL   =    6.000    mass and valenz                      
   RCORE  =    1.100    outmost cutoff radius                                   
   RWIGS  =    1.400; RWIGS  =     .741    wigner-seitz radius (au A)           
   ENMAX  =  700.000; ENMIN  =  500.000 eV                                      
   ICORE  =        2    local potential                                         
   LCOR   =        T    correct aug charges                                     
   LPAW   =        T    paw PP                                                  
   EAUG   =  888.804                                                            
   DEXC   =     .000                                                            
   RMAX   =    1.666    core radius for proj-oper                               
   RAUG   =    1.300    factor for augmentation sphere                          
   RDEP   =    1.125    radius for radial grids                                 
   QCUT   =   -7.501; QGAM   =   15.002    optimization parameters              
                                                                                
   Description                                                                  
     l     E      TYP  RCUT    TYP  RCUT                                        
     0   .000     23  1.100                                                     
     0   .000     23  1.100                                                     
     1   .000     23  1.100                                                     
     1   .000     23  1.100                                                     
     2   .000      7  1.100                                                     
  local pseudopotential read in
  partial core-charges read in
  atomic valenz-charges read in
  non local Contribution for L=           0  read in
    real space projection operators read in
  non local Contribution for L=           0  read in
    real space projection operators read in
  non local Contribution for L=           1  read in
    real space projection operators read in
  non local Contribution for L=           1  read in
    real space projection operators read in
    PAW grid and wavefunctions read in
 
   number of l-projection  operators is LMAX  =           4
   number of lm-projection operators is LMMAX =           8
 
 POTCAR:    PAW_PBE Mg_sv 12Apr2007               
   VRHFIN =Mg: p6s2                                                             
   LEXCH  = PE                                                                  
   EATOM  =  1728.4457 eV,  127.0372 Ry                                         
                                                                                
   TITEL  = PAW_PBE Mg_sv 12Apr2007                                             
   LULTRA =        F    use ultrasoft PP ?                                      
   IUNSCR =        0    unscreen: 0-lin 1-nonlin 2-no                           
   RPACOR =     .000    partial core radius                                     
   POMASS =   24.305; ZVAL   =   10.000    mass and valenz                      
   RCORE  =    1.700    outmost cutoff radius                                   
   RWIGS  =    1.800; RWIGS  =     .953    wigner-seitz radius (au A)           
   ENMAX  =  495.223; ENMIN  =  371.417 eV                                      
   RCLOC  =    1.506    cutoff for local pot                                    
   LCOR   =        T    correct aug charges                                     
   LPAW   =        T    paw PP                                                  
   EAUG   =  980.156                                                            
   RMAX   =    2.072    core radius for proj-oper                               
   RAUG   =    1.300    factor for augmentation sphere                          
   RDEP   =    1.781    radius for radial grids                                 
   RDEPT  =    1.300    core radius for aug-charge                              
   QCUT   =   -6.033; QGAM   =   12.066    optimization parameters              
                                                                                
   Description                                                                  
     l     E      TYP  RCUT    TYP  RCUT                                        
     0   .000     23  1.200                                                     
     0   .000     23  1.700                                                     
     0   .000     23  1.200                                                     
     0   .000     23  1.700                                                     
     1   .000     23  1.500                                                     
     1   .500     23  1.500                                                     
     2   .000     23  1.700                                                     
  local pseudopotential read in
  atomic valenz-charges read in
  non local Contribution for L=           0  read in
    real space projection operators read in
  non local Contribution for L=           0  read in
    real space projection operators read in
  non local Contribution for L=           1  read in
    real space projection operators read in
  non local Contribution for L=           1  read in
    real space projection operators read in
  non local Contribution for L=           2  read in
    real space projection operators read in
    PAW grid and wavefunctions read in
 
   number of l-projection  operators is LMAX  =           5
   number of lm-projection operators is LMMAX =          13
 
 Optimization of the real space projectors (new method)

 maximal supplied QI-value         = 47.24
 optimisation between [QCUT,QGAM] = [ 17.48, 35.43] = [ 85.56,351.56] Ry 
 Optimized for a Real-space Cutoff    0.71 Angstroem

   l    n(q)    QCUT    max X(q) W(low)/X(q) W(high)/X(q)  e(spline) 
   0      7    17.480     3.730    0.15E-04    0.20E-04    0.27E-07
   0      7    17.480    31.376    0.60E-04    0.33E-03    0.21E-06
   1      7    17.480     1.978    0.22E-03    0.46E-03    0.70E-07
 Optimization of the real space projectors (new method)

 maximal supplied QI-value         = 34.20
 optimisation between [QCUT,QGAM] = [ 17.44, 35.23] = [ 85.21,347.56] Ry 
 Optimized for a Real-space Cutoff    0.80 Angstroem

   l    n(q)    QCUT    max X(q) W(low)/X(q) W(high)/X(q)  e(spline) 
   0      8    17.444     5.574    0.21E-04    0.20E-04    0.13E-07
   0      8    17.444   107.025    0.57E-04    0.15E-03    0.60E-07
   1      8    17.444     2.524    0.16E-04    0.20E-04    0.66E-07
   1      8    17.444    65.672    0.20E-03    0.12E-03    0.20E-06
 Optimization of the real space projectors (new method)

 maximal supplied QI-value         = 34.20
 optimisation between [QCUT,QGAM] = [ 17.44, 35.23] = [ 85.21,347.56] Ry 
 Optimized for a Real-space Cutoff    0.73 Angstroem

   l    n(q)    QCUT    max X(q) W(low)/X(q) W(high)/X(q)  e(spline) 
   0      8    17.444     3.352    0.41E-04    0.26E-04    0.13E-07
   0      8    17.444   163.154    0.15E-03    0.21E-03    0.50E-07
   1      7    17.444     1.687    0.58E-04    0.51E-04    0.27E-07
   1      7    17.444    55.558    0.22E-03    0.69E-04    0.16E-06
 Optimization of the real space projectors (new method)

 maximal supplied QI-value         = 22.11
 optimisation between [QCUT,QGAM] = [ 17.69, 35.38] = [ 87.61,350.44] Ry 
 Optimized for a Real-space Cutoff    0.98 Angstroem

   l    n(q)    QCUT    max X(q) W(low)/X(q) W(high)/X(q)  e(spline) 
   0     10    17.688     2.630    0.70E-05    0.17E-06    0.12E-07
   0     10    17.688    10.799    0.30E-04    0.17E-04    0.21E-07
   1     10    17.688     2.712    0.17E-05    0.51E-05    0.21E-07
   1     10    17.688     3.468    0.71E-04    0.64E-04    0.15E-06
   2      9    17.688     3.683    0.11E-03    0.40E-04    0.26E-06
  PAW_PBE H_h 06Feb2004                 :
 energy of atom  1       EATOM=  -12.4884
 kinetic energy error for atom=    0.0002 (will be added to EATOM!!)
  PAW_PBE C_h 06Feb2004                 :
 energy of atom  2       EATOM= -147.1560
 kinetic energy error for atom=    0.0026 (will be added to EATOM!!)
  PAW_PBE O_h 06Feb2004                 :
 energy of atom  3       EATOM= -432.3788
 kinetic energy error for atom=    0.0134 (will be added to EATOM!!)
  PAW_PBE Mg_sv 12Apr2007               :
 energy of atom  4       EATOM=-1728.4457
 kinetic energy error for atom=    0.0038 (will be added to EATOM!!)
 
 
 POSCAR:                                         
  positions in direct lattice
  velocities in cartesian coordinates
 exchange correlation table for  LEXCH =        8
   RHO(1)=    0.500       N(1)  =     2000
   RHO(2)=  100.500       N(2)  =     4000
 


--------------------------------------------------------------------------------------------------------


 ion  position               nearest neighbor table
   1  0.237  0.880  0.122-  29 0.97
   2  0.146  0.628  0.301-  30 1.02
   3  0.302  0.690  0.352-  30 0.98
   4  0.138  0.900  0.365-  31 1.01
   5  0.234  0.919  0.571-  31 0.98
   6  0.763  0.380  0.378-  38 0.97
   7  0.854  0.128  0.199-  39 1.02
   8  0.698  0.190  0.148-  39 0.98
   9  0.862  0.400  0.135-  40 1.01
  10  0.766  0.419  0.929-  40 0.98
  11  0.763  0.120  0.878-  47 0.97
  12  0.854  0.372  0.699-  48 1.02
  13  0.698  0.310  0.648-  48 0.98
  14  0.862  0.100  0.635-  49 1.01
  15  0.765  0.081  0.429-  49 0.98
  16  0.237  0.620  0.622-  56 0.97
  17  0.146  0.872  0.801-  57 1.02
  18  0.302  0.810  0.852-  57 0.98
  19  0.138  0.600  0.865-  58 1.01
  20  0.234  0.581  0.071-  58 0.98
  21  0.078  0.259  0.280-  33 1.28  32 1.28  34 1.31
  22  0.472  0.333  0.237-  35 1.29  37 1.30  36 1.30
  23  0.922  0.759  0.220-  42 1.28  41 1.28  43 1.31
  24  0.528  0.833  0.263-  44 1.29  46 1.30  45 1.30
  25  0.922  0.741  0.720-  51 1.28  50 1.28  52 1.31
  26  0.528  0.667  0.763-  53 1.29  55 1.30  54 1.30
  27  0.078  0.241  0.780-  60 1.28  59 1.28  61 1.31
  28  0.472  0.167  0.737-  62 1.29  64 1.30  63 1.30
  29  0.226  0.984  0.117-   1 0.97
  30  0.242  0.605  0.297-   3 0.98   2 1.02
  31  0.237  0.923  0.456-   5 0.98   4 1.01
  32  0.005  0.159  0.175-  21 1.28
  33  0.011  0.365  0.311-  21 1.28
  34  0.219  0.254  0.354-  21 1.31
  35  0.429  0.200  0.216-  22 1.29
  36  0.493  0.401  0.380-  22 1.30
  37  0.497  0.398  0.116-  22 1.30
  38  0.774  0.484  0.383-   6 0.97
  39  0.758  0.105  0.203-   8 0.98   7 1.02
  40  0.763  0.423  0.044-  10 0.98   9 1.01
  41  0.995  0.659  0.325-  23 1.28
  42  0.989  0.865  0.189-  23 1.28
  43  0.781  0.754  0.146-  23 1.31
  44  0.571  0.700  0.284-  24 1.29
  45  0.507  0.901  0.120-  24 1.30
  46  0.503  0.898  0.384-  24 1.30
  47  0.774  0.016  0.883-  11 0.97
  48  0.758  0.395  0.703-  13 0.98  12 1.02
  49  0.763  0.077  0.544-  15 0.98  14 1.01
  50  0.995  0.841  0.825-  25 1.28
  51  0.989  0.635  0.689-  25 1.28
  52  0.781  0.746  0.646-  25 1.31
  53  0.571  0.800  0.784-  26 1.29
  54  0.507  0.599  0.620-  26 1.30
  55  0.503  0.602  0.884-  26 1.30
  56  0.226  0.516  0.617-  16 0.97
  57  0.242  0.895  0.797-  18 0.98  17 1.02
  58  0.237  0.577  0.956-  20 0.98  19 1.01
  59  0.005  0.341  0.675-  27 1.28
  60  0.011  0.135  0.811-  27 1.28
  61  0.219  0.246  0.854-  27 1.31
  62  0.429  0.300  0.716-  28 1.29
  63  0.493  0.099  0.880-  28 1.30
  64  0.497  0.102  0.616-  28 1.30
  65  0.345  0.069  0.360-
  66  0.344  0.431  0.491-
  67  0.655  0.569  0.140-
  68  0.656  0.931  0.009-
  69  0.655  0.931  0.640-
  70  0.656  0.569  0.509-
  71  0.345  0.431  0.860-
  72  0.344  0.069  0.991-
  73  0.000  1.000  1.000-
  74  1.000  0.500  0.500-
 
  LATTYP: Found a triclinic cell.
 ALAT       =    12.4847760486
 B/A-ratio  =     0.7369331273
 C/A-ratio  =     0.8151934602
 COS(alpha) =     0.0000351358
 COS(beta)  =     0.2809066133
 COS(gamma) =     0.7369960234
  
  Lattice vectors:
  
 A1 = (   3.4906951976,  -9.2008374627,  -7.6830508268)
 A2 = (   0.0001941541,  -9.2004450467,  -0.0003822232)
 A3 = (  -6.6785229145,  -0.0001794806,  -7.6797784087)


Analysis of symmetry for initial positions (statically):
=====================================================================
 Subroutine PRICEL returns:
 Original cell was already a primitive cell.
 

 Routine SETGRP: Setting up the symmetry group for a 
 triclinic supercell.


 Subroutine GETGRP returns: Found  1 space group operations
 (whereof  1 operations were pure point group operations)
 out of a pool of  2 trial point group operations.


The static configuration has the point symmetry C_1 .


Analysis of symmetry for dynamics (positions and initial velocities):
=====================================================================
 Subroutine PRICEL returns:
 Original cell was already a primitive cell.
 

 Routine SETGRP: Setting up the symmetry group for a 
 triclinic supercell.


 Subroutine GETGRP returns: Found  1 space group operations
 (whereof  1 operations were pure point group operations)
 out of a pool of  2 trial point group operations.


The dynamic configuration has the point symmetry C_1 .


 Subroutine INISYM returns: Found  1 space group operations
 (whereof  1 operations are pure point group operations),
 and found     1 'primitive' translations

 
 
 KPOINTS: CaAl4Si2O12H2                           

Automatic generation of k-mesh.
 generate k-points for:    6    7    8
Space group operators:
 irot       det(A)        alpha          n_x          n_y          n_z        tau_x        tau_y        tau_z
    1     1.000000     0.000000     1.000000     0.000000     0.000000     0.000000     0.000000     0.000000
 
 Subroutine IBZKPT returns following result:
 ===========================================
 
 Found    170 irreducible k-points:
 
 Following reciprocal coordinates:
            Coordinates               Weight
  0.000000  0.000000  0.000000      1.000000
  0.166667  0.000000 -0.000000      2.000000
  0.333333  0.000000 -0.000000      2.000000
  0.500000  0.000000 -0.000000      1.000000
  0.000000  0.142857 -0.000000      2.000000
  0.166667  0.142857 -0.000000      2.000000
  0.333333  0.142857 -0.000000      2.000000
  0.500000  0.142857 -0.000000      2.000000
 -0.333333  0.142857  0.000000      2.000000
 -0.166667  0.142857  0.000000      2.000000
  0.000000  0.285714 -0.000000      2.000000
  0.166667  0.285714 -0.000000      2.000000
  0.333333  0.285714 -0.000000      2.000000
  0.500000  0.285714 -0.000000      2.000000
 -0.333333  0.285714  0.000000      2.000000
 -0.166667  0.285714  0.000000      2.000000
  0.000000  0.428571 -0.000000      2.000000
  0.166667  0.428571 -0.000000      2.000000
  0.333333  0.428571 -0.000000      2.000000
  0.500000  0.428571 -0.000000      2.000000
 -0.333333  0.428571  0.000000      2.000000
 -0.166667  0.428571  0.000000      2.000000
 -0.000000  0.000000  0.125000      2.000000
  0.166667  0.000000  0.125000      2.000000
  0.333333  0.000000  0.125000      2.000000
  0.500000  0.000000  0.125000      2.000000
 -0.333333  0.000000  0.125000      2.000000
 -0.166667  0.000000  0.125000      2.000000
 -0.000000  0.142857  0.125000      2.000000
  0.166667  0.142857  0.125000      2.000000
  0.333333  0.142857  0.125000      2.000000
  0.500000  0.142857  0.125000      2.000000
 -0.333333  0.142857  0.125000      2.000000
 -0.166667  0.142857  0.125000      2.000000
 -0.000000  0.285714  0.125000      2.000000
  0.166667  0.285714  0.125000      2.000000
  0.333333  0.285714  0.125000      2.000000
  0.500000  0.285714  0.125000      2.000000
 -0.333333  0.285714  0.125000      2.000000
 -0.166667  0.285714  0.125000      2.000000
  0.000000  0.428571  0.125000      2.000000
  0.166667  0.428571  0.125000      2.000000
  0.333333  0.428571  0.125000      2.000000
  0.500000  0.428571  0.125000      2.000000
 -0.333333  0.428571  0.125000      2.000000
 -0.166667  0.428571  0.125000      2.000000
 -0.000000 -0.428571  0.125000      2.000000
  0.166667 -0.428571  0.125000      2.000000
  0.333333 -0.428571  0.125000      2.000000
  0.500000 -0.428571  0.125000      2.000000
 -0.333333 -0.428571  0.125000      2.000000
 -0.166667 -0.428571  0.125000      2.000000
 -0.000000 -0.285714  0.125000      2.000000
  0.166667 -0.285714  0.125000      2.000000
  0.333333 -0.285714  0.125000      2.000000
  0.500000 -0.285714  0.125000      2.000000
 -0.333333 -0.285714  0.125000      2.000000
 -0.166667 -0.285714  0.125000      2.000000
  0.000000 -0.142857  0.125000      2.000000
  0.166667 -0.142857  0.125000      2.000000
  0.333333 -0.142857  0.125000      2.000000
  0.500000 -0.142857  0.125000      2.000000
 -0.333333 -0.142857  0.125000      2.000000
 -0.166667 -0.142857  0.125000      2.000000
 -0.000000  0.000000  0.250000      2.000000
  0.166667  0.000000  0.250000      2.000000
  0.333333  0.000000  0.250000      2.000000
  0.500000  0.000000  0.250000      2.000000
 -0.333333  0.000000  0.250000      2.000000
 -0.166667  0.000000  0.250000      2.000000
 -0.000000  0.142857  0.250000      2.000000
  0.166667  0.142857  0.250000      2.000000
  0.333333  0.142857  0.250000      2.000000
  0.500000  0.142857  0.250000      2.000000
 -0.333333  0.142857  0.250000      2.000000
 -0.166667  0.142857  0.250000      2.000000
  0.000000  0.285714  0.250000      2.000000
  0.166667  0.285714  0.250000      2.000000
  0.333333  0.285714  0.250000      2.000000
  0.500000  0.285714  0.250000      2.000000
 -0.333333  0.285714  0.250000      2.000000
 -0.166667  0.285714  0.250000      2.000000
  0.000000  0.428571  0.250000      2.000000
  0.166667  0.428571  0.250000      2.000000
  0.333333  0.428571  0.250000      2.000000
  0.500000  0.428571  0.250000      2.000000
 -0.333333  0.428571  0.250000      2.000000
 -0.166667  0.428571  0.250000      2.000000
 -0.000000 -0.428571  0.250000      2.000000
  0.166667 -0.428571  0.250000      2.000000
  0.333333 -0.428571  0.250000      2.000000
  0.500000 -0.428571  0.250000      2.000000
 -0.333333 -0.428571  0.250000      2.000000
 -0.166667 -0.428571  0.250000      2.000000
 -0.000000 -0.285714  0.250000      2.000000
  0.166667 -0.285714  0.250000      2.000000
  0.333333 -0.285714  0.250000      2.000000
  0.500000 -0.285714  0.250000      2.000000
 -0.333333 -0.285714  0.250000      2.000000
 -0.166667 -0.285714  0.250000      2.000000
 -0.000000 -0.142857  0.250000      2.000000
  0.166667 -0.142857  0.250000      2.000000
  0.333333 -0.142857  0.250000      2.000000
  0.500000 -0.142857  0.250000      2.000000
 -0.333333 -0.142857  0.250000      2.000000
 -0.166667 -0.142857  0.250000      2.000000
 -0.000000 -0.000000  0.375000      2.000000
  0.166667  0.000000  0.375000      2.000000
  0.333333  0.000000  0.375000      2.000000
  0.500000  0.000000  0.375000      2.000000
 -0.333333  0.000000  0.375000      2.000000
 -0.166667  0.000000  0.375000      2.000000
 -0.000000  0.142857  0.375000      2.000000
  0.166667  0.142857  0.375000      2.000000
  0.333333  0.142857  0.375000      2.000000
  0.500000  0.142857  0.375000      2.000000
 -0.333333  0.142857  0.375000      2.000000
 -0.166667  0.142857  0.375000      2.000000
 -0.000000  0.285714  0.375000      2.000000
  0.166667  0.285714  0.375000      2.000000
  0.333333  0.285714  0.375000      2.000000
  0.500000  0.285714  0.375000      2.000000
 -0.333333  0.285714  0.375000      2.000000
 -0.166667  0.285714  0.375000      2.000000
  0.000000  0.428571  0.375000      2.000000
  0.166667  0.428571  0.375000      2.000000
  0.333333  0.428571  0.375000      2.000000
  0.500000  0.428571  0.375000      2.000000
 -0.333333  0.428571  0.375000      2.000000
 -0.166667  0.428571  0.375000      2.000000
 -0.000000 -0.428571  0.375000      2.000000
  0.166667 -0.428571  0.375000      2.000000
  0.333333 -0.428571  0.375000      2.000000
  0.500000 -0.428571  0.375000      2.000000
 -0.333333 -0.428571  0.375000      2.000000
 -0.166667 -0.428571  0.375000      2.000000
 -0.000000 -0.285714  0.375000      2.000000
  0.166667 -0.285714  0.375000      2.000000
  0.333333 -0.285714  0.375000      2.000000
  0.500000 -0.285714  0.375000      2.000000
 -0.333333 -0.285714  0.375000      2.000000
 -0.166667 -0.285714  0.375000      2.000000
 -0.000000 -0.142857  0.375000      2.000000
  0.166667 -0.142857  0.375000      2.000000
  0.333333 -0.142857  0.375000      2.000000
  0.500000 -0.142857  0.375000      2.000000
 -0.333333 -0.142857  0.375000      2.000000
 -0.166667 -0.142857  0.375000      2.000000
 -0.000000  0.000000  0.500000      1.000000
  0.166667  0.000000  0.500000      2.000000
  0.333333  0.000000  0.500000      2.000000
  0.500000  0.000000  0.500000      1.000000
 -0.000000  0.142857  0.500000      2.000000
  0.166667  0.142857  0.500000      2.000000
  0.333333  0.142857  0.500000      2.000000
  0.500000  0.142857  0.500000      2.000000
 -0.333333  0.142857  0.500000      2.000000
 -0.166667  0.142857  0.500000      2.000000
 -0.000000  0.285714  0.500000      2.000000
  0.166667  0.285714  0.500000      2.000000
  0.333333  0.285714  0.500000      2.000000
  0.500000  0.285714  0.500000      2.000000
 -0.333333  0.285714  0.500000      2.000000
 -0.166667  0.285714  0.500000      2.000000
 -0.000000  0.428571  0.500000      2.000000
  0.166667  0.428571  0.500000      2.000000
  0.333333  0.428571  0.500000      2.000000
  0.500000  0.428571  0.500000      2.000000
 -0.333333  0.428571  0.500000      2.000000
 -0.166667  0.428571  0.500000      2.000000
 
 Following cartesian coordinates:
            Coordinates               Weight
  0.000000  0.000000  0.000000      1.000000
  0.016392  0.000000  0.007447      2.000000
  0.032784  0.000000  0.014895      2.000000
  0.049175  0.000000  0.022342      1.000000
  0.000000  0.015527 -0.000001      2.000000
  0.016392  0.015527  0.007447      2.000000
  0.032784  0.015527  0.014894      2.000000
  0.049176  0.015527  0.022341      2.000000
 -0.032783  0.015527 -0.014895      2.000000
 -0.016391  0.015527 -0.007448      2.000000
  0.000001  0.031054 -0.000001      2.000000
  0.016392  0.031054  0.007446      2.000000
  0.032784  0.031054  0.014893      2.000000
  0.049176  0.031055  0.022341      2.000000
 -0.032783  0.031054 -0.014896      2.000000
 -0.016391  0.031054 -0.007449      2.000000
  0.000001  0.046582 -0.000002      2.000000
  0.016393  0.046582  0.007445      2.000000
  0.032784  0.046582  0.014893      2.000000
  0.049176  0.046582  0.022340      2.000000
 -0.032783  0.046582 -0.014897      2.000000
 -0.016391  0.046582 -0.007449      2.000000
  0.000005 -0.000001  0.016272      2.000000
  0.016396 -0.000001  0.023720      2.000000
  0.032788 -0.000001  0.031167      2.000000
  0.049180 -0.000001  0.038615      2.000000
 -0.032779 -0.000001  0.001378      2.000000
 -0.016387 -0.000001  0.008825      2.000000
  0.000005  0.015527  0.016272      2.000000
  0.016397  0.015527  0.023719      2.000000
  0.032788  0.015527  0.031167      2.000000
  0.049180  0.015527  0.038614      2.000000
 -0.032779  0.015526  0.001377      2.000000
 -0.016387  0.015526  0.008825      2.000000
  0.000005  0.031054  0.016271      2.000000
  0.016397  0.031054  0.023719      2.000000
  0.032789  0.031054  0.031166      2.000000
  0.049181  0.031054  0.038613      2.000000
 -0.032778  0.031054  0.001377      2.000000
 -0.016386  0.031054  0.008824      2.000000
  0.000006  0.046581  0.016271      2.000000
  0.016397  0.046581  0.023718      2.000000
  0.032789  0.046581  0.031165      2.000000
  0.049181  0.046581  0.038613      2.000000
 -0.032778  0.046581  0.001376      2.000000
 -0.016386  0.046581  0.008823      2.000000
  0.000004 -0.046582  0.016274      2.000000
  0.016395 -0.046582  0.023722      2.000000
  0.032787 -0.046582  0.031169      2.000000
  0.049179 -0.046582  0.038616      2.000000
 -0.032780 -0.046582  0.001380      2.000000
 -0.016388 -0.046582  0.008827      2.000000
  0.000004 -0.031055  0.016274      2.000000
  0.016396 -0.031055  0.023721      2.000000
  0.032787 -0.031055  0.031168      2.000000
  0.049179 -0.031055  0.038616      2.000000
 -0.032780 -0.031055  0.001379      2.000000
 -0.016388 -0.031055  0.008826      2.000000
  0.000004 -0.015528  0.016273      2.000000
  0.016396 -0.015528  0.023720      2.000000
  0.032788 -0.015528  0.031168      2.000000
  0.049180 -0.015528  0.038615      2.000000
 -0.032779 -0.015528  0.001378      2.000000
 -0.016387 -0.015528  0.008826      2.000000
  0.000009 -0.000001  0.032545      2.000000
  0.016401 -0.000001  0.039992      2.000000
  0.032793 -0.000001  0.047440      2.000000
  0.049185 -0.000001  0.054887      2.000000
 -0.032774 -0.000001  0.017650      2.000000
 -0.016383 -0.000001  0.025098      2.000000
  0.000010  0.015526  0.032544      2.000000
  0.016401  0.015526  0.039992      2.000000
  0.032793  0.015526  0.047439      2.000000
  0.049185  0.015526  0.054886      2.000000
 -0.032774  0.015526  0.017650      2.000000
 -0.016382  0.015526  0.025097      2.000000
  0.000010  0.031053  0.032544      2.000000
  0.016402  0.031053  0.039991      2.000000
  0.032793  0.031053  0.047438      2.000000
  0.049185  0.031053  0.054886      2.000000
 -0.032774  0.031053  0.017649      2.000000
 -0.016382  0.031053  0.025096      2.000000
  0.000010  0.046580  0.032543      2.000000
  0.016402  0.046580  0.039990      2.000000
  0.032794  0.046580  0.047438      2.000000
  0.049186  0.046580  0.054885      2.000000
 -0.032773  0.046580  0.017648      2.000000
 -0.016382  0.046580  0.025096      2.000000
  0.000008 -0.046583  0.032547      2.000000
  0.016400 -0.046583  0.039994      2.000000
  0.032792 -0.046583  0.047442      2.000000
  0.049184 -0.046583  0.054889      2.000000
 -0.032775 -0.046583  0.017652      2.000000
 -0.016383 -0.046583  0.025100      2.000000
  0.000009 -0.031056  0.032546      2.000000
  0.016400 -0.031056  0.039994      2.000000
  0.032792 -0.031056  0.047441      2.000000
  0.049184 -0.031056  0.054888      2.000000
 -0.032775 -0.031056  0.017652      2.000000
 -0.016383 -0.031056  0.025099      2.000000
  0.000009 -0.015529  0.032546      2.000000
  0.016401 -0.015529  0.039993      2.000000
  0.032792 -0.015528  0.047440      2.000000
  0.049184 -0.015528  0.054888      2.000000
 -0.032775 -0.015529  0.017651      2.000000
 -0.016383 -0.015529  0.025098      2.000000
  0.000014 -0.000002  0.048817      2.000000
  0.016406 -0.000002  0.056265      2.000000
  0.032797 -0.000002  0.063712      2.000000
  0.049189 -0.000002  0.071159      2.000000
 -0.032770 -0.000002  0.033923      2.000000
 -0.016378 -0.000002  0.041370      2.000000
  0.000014  0.015525  0.048817      2.000000
  0.016406  0.015525  0.056264      2.000000
  0.032798  0.015525  0.063712      2.000000
  0.049189  0.015525  0.071159      2.000000
 -0.032769  0.015525  0.033922      2.000000
 -0.016378  0.015525  0.041369      2.000000
  0.000015  0.031052  0.048816      2.000000
  0.016406  0.031052  0.056264      2.000000
  0.032798  0.031052  0.063711      2.000000
  0.049190  0.031052  0.071158      2.000000
 -0.032769  0.031052  0.033921      2.000000
 -0.016377  0.031052  0.041369      2.000000
  0.000015  0.046580  0.048816      2.000000
  0.016407  0.046580  0.056263      2.000000
  0.032798  0.046580  0.063710      2.000000
  0.049190  0.046580  0.071158      2.000000
 -0.032769  0.046579  0.033921      2.000000
 -0.016377  0.046580  0.041368      2.000000
  0.000013 -0.046584  0.048819      2.000000
  0.016405 -0.046584  0.056267      2.000000
  0.032796 -0.046584  0.063714      2.000000
  0.049188 -0.046584  0.071161      2.000000
 -0.032771 -0.046584  0.033925      2.000000
 -0.016379 -0.046584  0.041372      2.000000
  0.000013 -0.031056  0.048819      2.000000
  0.016405 -0.031056  0.056266      2.000000
  0.032797 -0.031056  0.063713      2.000000
  0.049189 -0.031056  0.071161      2.000000
 -0.032770 -0.031056  0.033924      2.000000
 -0.016379 -0.031056  0.041371      2.000000
  0.000014 -0.015529  0.048818      2.000000
  0.016405 -0.015529  0.056265      2.000000
  0.032797 -0.015529  0.063713      2.000000
  0.049189 -0.015529  0.071160      2.000000
 -0.032770 -0.015529  0.033923      2.000000
 -0.016378 -0.015529  0.041371      2.000000
  0.000018 -0.000003  0.065090      1.000000
  0.016410 -0.000003  0.072537      2.000000
  0.032802 -0.000003  0.079985      2.000000
  0.049194 -0.000003  0.087432      1.000000
  0.000019  0.015524  0.065089      2.000000
  0.016411  0.015525  0.072537      2.000000
  0.032802  0.015525  0.079984      2.000000
  0.049194  0.015525  0.087431      2.000000
 -0.032765  0.015524  0.050195      2.000000
 -0.016373  0.015524  0.057642      2.000000
  0.000019  0.031052  0.065089      2.000000
  0.016411  0.031052  0.072536      2.000000
  0.032803  0.031052  0.079983      2.000000
  0.049194  0.031052  0.087431      2.000000
 -0.032764  0.031052  0.050194      2.000000
 -0.016373  0.031052  0.057641      2.000000
  0.000019  0.046579  0.065088      2.000000
  0.016411  0.046579  0.072535      2.000000
  0.032803  0.046579  0.079983      2.000000
  0.049195  0.046579  0.087430      2.000000
 -0.032764  0.046579  0.050193      2.000000
 -0.016372  0.046579  0.057641      2.000000
 
 TETIRR: Found   1008 inequivalent tetrahedra from     2016
 
 Subroutine IBZKPT_HF returns following result:
 ==============================================
 
 Found    336 k-points in 1st BZ
 the following    336 k-points will be used (e.g. in the exchange kernel)
 Following reciprocal coordinates:   # in IRBZ
  0.000000  0.000000  0.000000    0.00297619   1 t-inv F
  0.166667  0.000000 -0.000000    0.00297619   2 t-inv F
  0.333333  0.000000 -0.000000    0.00297619   3 t-inv F
  0.500000  0.000000 -0.000000    0.00297619   4 t-inv F
  0.000000  0.142857 -0.000000    0.00297619   5 t-inv F
  0.166667  0.142857 -0.000000    0.00297619   6 t-inv F
  0.333333  0.142857 -0.000000    0.00297619   7 t-inv F
  0.500000  0.142857 -0.000000    0.00297619   8 t-inv F
 -0.333333  0.142857  0.000000    0.00297619   9 t-inv F
 -0.166667  0.142857  0.000000    0.00297619  10 t-inv F
  0.000000  0.285714 -0.000000    0.00297619  11 t-inv F
  0.166667  0.285714 -0.000000    0.00297619  12 t-inv F
  0.333333  0.285714 -0.000000    0.00297619  13 t-inv F
  0.500000  0.285714 -0.000000    0.00297619  14 t-inv F
 -0.333333  0.285714  0.000000    0.00297619  15 t-inv F
 -0.166667  0.285714  0.000000    0.00297619  16 t-inv F
  0.000000  0.428571 -0.000000    0.00297619  17 t-inv F
  0.166667  0.428571 -0.000000    0.00297619  18 t-inv F
  0.333333  0.428571 -0.000000    0.00297619  19 t-inv F
  0.500000  0.428571 -0.000000    0.00297619  20 t-inv F
 -0.333333  0.428571  0.000000    0.00297619  21 t-inv F
 -0.166667  0.428571  0.000000    0.00297619  22 t-inv F
 -0.000000  0.000000  0.125000    0.00297619  23 t-inv F
  0.166667  0.000000  0.125000    0.00297619  24 t-inv F
  0.333333  0.000000  0.125000    0.00297619  25 t-inv F
  0.500000  0.000000  0.125000    0.00297619  26 t-inv F
 -0.333333  0.000000  0.125000    0.00297619  27 t-inv F
 -0.166667  0.000000  0.125000    0.00297619  28 t-inv F
 -0.000000  0.142857  0.125000    0.00297619  29 t-inv F
  0.166667  0.142857  0.125000    0.00297619  30 t-inv F
  0.333333  0.142857  0.125000    0.00297619  31 t-inv F
  0.500000  0.142857  0.125000    0.00297619  32 t-inv F
 -0.333333  0.142857  0.125000    0.00297619  33 t-inv F
 -0.166667  0.142857  0.125000    0.00297619  34 t-inv F
 -0.000000  0.285714  0.125000    0.00297619  35 t-inv F
  0.166667  0.285714  0.125000    0.00297619  36 t-inv F
  0.333333  0.285714  0.125000    0.00297619  37 t-inv F
  0.500000  0.285714  0.125000    0.00297619  38 t-inv F
 -0.333333  0.285714  0.125000    0.00297619  39 t-inv F
 -0.166667  0.285714  0.125000    0.00297619  40 t-inv F
  0.000000  0.428571  0.125000    0.00297619  41 t-inv F
  0.166667  0.428571  0.125000    0.00297619  42 t-inv F
  0.333333  0.428571  0.125000    0.00297619  43 t-inv F
  0.500000  0.428571  0.125000    0.00297619  44 t-inv F
 -0.333333  0.428571  0.125000    0.00297619  45 t-inv F
 -0.166667  0.428571  0.125000    0.00297619  46 t-inv F
 -0.000000 -0.428571  0.125000    0.00297619  47 t-inv F
  0.166667 -0.428571  0.125000    0.00297619  48 t-inv F
  0.333333 -0.428571  0.125000    0.00297619  49 t-inv F
  0.500000 -0.428571  0.125000    0.00297619  50 t-inv F
 -0.333333 -0.428571  0.125000    0.00297619  51 t-inv F
 -0.166667 -0.428571  0.125000    0.00297619  52 t-inv F
 -0.000000 -0.285714  0.125000    0.00297619  53 t-inv F
  0.166667 -0.285714  0.125000    0.00297619  54 t-inv F
  0.333333 -0.285714  0.125000    0.00297619  55 t-inv F
  0.500000 -0.285714  0.125000    0.00297619  56 t-inv F
 -0.333333 -0.285714  0.125000    0.00297619  57 t-inv F
 -0.166667 -0.285714  0.125000    0.00297619  58 t-inv F
  0.000000 -0.142857  0.125000    0.00297619  59 t-inv F
  0.166667 -0.142857  0.125000    0.00297619  60 t-inv F
  0.333333 -0.142857  0.125000    0.00297619  61 t-inv F
  0.500000 -0.142857  0.125000    0.00297619  62 t-inv F
 -0.333333 -0.142857  0.125000    0.00297619  63 t-inv F
 -0.166667 -0.142857  0.125000    0.00297619  64 t-inv F
 -0.000000  0.000000  0.250000    0.00297619  65 t-inv F
  0.166667  0.000000  0.250000    0.00297619  66 t-inv F
  0.333333  0.000000  0.250000    0.00297619  67 t-inv F
  0.500000  0.000000  0.250000    0.00297619  68 t-inv F
 -0.333333  0.000000  0.250000    0.00297619  69 t-inv F
 -0.166667  0.000000  0.250000    0.00297619  70 t-inv F
 -0.000000  0.142857  0.250000    0.00297619  71 t-inv F
  0.166667  0.142857  0.250000    0.00297619  72 t-inv F
  0.333333  0.142857  0.250000    0.00297619  73 t-inv F
  0.500000  0.142857  0.250000    0.00297619  74 t-inv F
 -0.333333  0.142857  0.250000    0.00297619  75 t-inv F
 -0.166667  0.142857  0.250000    0.00297619  76 t-inv F
  0.000000  0.285714  0.250000    0.00297619  77 t-inv F
  0.166667  0.285714  0.250000    0.00297619  78 t-inv F
  0.333333  0.285714  0.250000    0.00297619  79 t-inv F
  0.500000  0.285714  0.250000    0.00297619  80 t-inv F
 -0.333333  0.285714  0.250000    0.00297619  81 t-inv F
 -0.166667  0.285714  0.250000    0.00297619  82 t-inv F
  0.000000  0.428571  0.250000    0.00297619  83 t-inv F
  0.166667  0.428571  0.250000    0.00297619  84 t-inv F
  0.333333  0.428571  0.250000    0.00297619  85 t-inv F
  0.500000  0.428571  0.250000    0.00297619  86 t-inv F
 -0.333333  0.428571  0.250000    0.00297619  87 t-inv F
 -0.166667  0.428571  0.250000    0.00297619  88 t-inv F
 -0.000000 -0.428571  0.250000    0.00297619  89 t-inv F
  0.166667 -0.428571  0.250000    0.00297619  90 t-inv F
  0.333333 -0.428571  0.250000    0.00297619  91 t-inv F
  0.500000 -0.428571  0.250000    0.00297619  92 t-inv F
 -0.333333 -0.428571  0.250000    0.00297619  93 t-inv F
 -0.166667 -0.428571  0.250000    0.00297619  94 t-inv F
 -0.000000 -0.285714  0.250000    0.00297619  95 t-inv F
  0.166667 -0.285714  0.250000    0.00297619  96 t-inv F
  0.333333 -0.285714  0.250000    0.00297619  97 t-inv F
  0.500000 -0.285714  0.250000    0.00297619  98 t-inv F
 -0.333333 -0.285714  0.250000    0.00297619  99 t-inv F
 -0.166667 -0.285714  0.250000    0.00297619 100 t-inv F
 -0.000000 -0.142857  0.250000    0.00297619 101 t-inv F
  0.166667 -0.142857  0.250000    0.00297619 102 t-inv F
  0.333333 -0.142857  0.250000    0.00297619 103 t-inv F
  0.500000 -0.142857  0.250000    0.00297619 104 t-inv F
 -0.333333 -0.142857  0.250000    0.00297619 105 t-inv F
 -0.166667 -0.142857  0.250000    0.00297619 106 t-inv F
 -0.000000 -0.000000  0.375000    0.00297619 107 t-inv F
  0.166667  0.000000  0.375000    0.00297619 108 t-inv F
  0.333333  0.000000  0.375000    0.00297619 109 t-inv F
  0.500000  0.000000  0.375000    0.00297619 110 t-inv F
 -0.333333  0.000000  0.375000    0.00297619 111 t-inv F
 -0.166667  0.000000  0.375000    0.00297619 112 t-inv F
 -0.000000  0.142857  0.375000    0.00297619 113 t-inv F
  0.166667  0.142857  0.375000    0.00297619 114 t-inv F
  0.333333  0.142857  0.375000    0.00297619 115 t-inv F
  0.500000  0.142857  0.375000    0.00297619 116 t-inv F
 -0.333333  0.142857  0.375000    0.00297619 117 t-inv F
 -0.166667  0.142857  0.375000    0.00297619 118 t-inv F
 -0.000000  0.285714  0.375000    0.00297619 119 t-inv F
  0.166667  0.285714  0.375000    0.00297619 120 t-inv F
  0.333333  0.285714  0.375000    0.00297619 121 t-inv F
  0.500000  0.285714  0.375000    0.00297619 122 t-inv F
 -0.333333  0.285714  0.375000    0.00297619 123 t-inv F
 -0.166667  0.285714  0.375000    0.00297619 124 t-inv F
  0.000000  0.428571  0.375000    0.00297619 125 t-inv F
  0.166667  0.428571  0.375000    0.00297619 126 t-inv F
  0.333333  0.428571  0.375000    0.00297619 127 t-inv F
  0.500000  0.428571  0.375000    0.00297619 128 t-inv F
 -0.333333  0.428571  0.375000    0.00297619 129 t-inv F
 -0.166667  0.428571  0.375000    0.00297619 130 t-inv F
 -0.000000 -0.428571  0.375000    0.00297619 131 t-inv F
  0.166667 -0.428571  0.375000    0.00297619 132 t-inv F
  0.333333 -0.428571  0.375000    0.00297619 133 t-inv F
  0.500000 -0.428571  0.375000    0.00297619 134 t-inv F
 -0.333333 -0.428571  0.375000    0.00297619 135 t-inv F
 -0.166667 -0.428571  0.375000    0.00297619 136 t-inv F
 -0.000000 -0.285714  0.375000    0.00297619 137 t-inv F
  0.166667 -0.285714  0.375000    0.00297619 138 t-inv F
  0.333333 -0.285714  0.375000    0.00297619 139 t-inv F
  0.500000 -0.285714  0.375000    0.00297619 140 t-inv F
 -0.333333 -0.285714  0.375000    0.00297619 141 t-inv F
 -0.166667 -0.285714  0.375000    0.00297619 142 t-inv F
 -0.000000 -0.142857  0.375000    0.00297619 143 t-inv F
  0.166667 -0.142857  0.375000    0.00297619 144 t-inv F
  0.333333 -0.142857  0.375000    0.00297619 145 t-inv F
  0.500000 -0.142857  0.375000    0.00297619 146 t-inv F
 -0.333333 -0.142857  0.375000    0.00297619 147 t-inv F
 -0.166667 -0.142857  0.375000    0.00297619 148 t-inv F
 -0.000000  0.000000  0.500000    0.00297619 149 t-inv F
  0.166667  0.000000  0.500000    0.00297619 150 t-inv F
  0.333333  0.000000  0.500000    0.00297619 151 t-inv F
  0.500000  0.000000  0.500000    0.00297619 152 t-inv F
 -0.000000  0.142857  0.500000    0.00297619 153 t-inv F
  0.166667  0.142857  0.500000    0.00297619 154 t-inv F
  0.333333  0.142857  0.500000    0.00297619 155 t-inv F
  0.500000  0.142857  0.500000    0.00297619 156 t-inv F
 -0.333333  0.142857  0.500000    0.00297619 157 t-inv F
 -0.166667  0.142857  0.500000    0.00297619 158 t-inv F
 -0.000000  0.285714  0.500000    0.00297619 159 t-inv F
  0.166667  0.285714  0.500000    0.00297619 160 t-inv F
  0.333333  0.285714  0.500000    0.00297619 161 t-inv F
  0.500000  0.285714  0.500000    0.00297619 162 t-inv F
 -0.333333  0.285714  0.500000    0.00297619 163 t-inv F
 -0.166667  0.285714  0.500000    0.00297619 164 t-inv F
 -0.000000  0.428571  0.500000    0.00297619 165 t-inv F
  0.166667  0.428571  0.500000    0.00297619 166 t-inv F
  0.333333  0.428571  0.500000    0.00297619 167 t-inv F
  0.500000  0.428571  0.500000    0.00297619 168 t-inv F
 -0.333333  0.428571  0.500000    0.00297619 169 t-inv F
 -0.166667  0.428571  0.500000    0.00297619 170 t-inv F
 -0.166667 -0.000000  0.000000    0.00297619   2 t-inv T
 -0.333333 -0.000000  0.000000    0.00297619   3 t-inv T
 -0.000000 -0.142857  0.000000    0.00297619   5 t-inv T
 -0.166667 -0.142857  0.000000    0.00297619   6 t-inv T
 -0.333333 -0.142857  0.000000    0.00297619   7 t-inv T
 -0.500000 -0.142857  0.000000    0.00297619   8 t-inv T
  0.333333 -0.142857 -0.000000    0.00297619   9 t-inv T
  0.166667 -0.142857 -0.000000    0.00297619  10 t-inv T
 -0.000000 -0.285714  0.000000    0.00297619  11 t-inv T
 -0.166667 -0.285714  0.000000    0.00297619  12 t-inv T
 -0.333333 -0.285714  0.000000    0.00297619  13 t-inv T
 -0.500000 -0.285714  0.000000    0.00297619  14 t-inv T
  0.333333 -0.285714 -0.000000    0.00297619  15 t-inv T
  0.166667 -0.285714 -0.000000    0.00297619  16 t-inv T
 -0.000000 -0.428571  0.000000    0.00297619  17 t-inv T
 -0.166667 -0.428571  0.000000    0.00297619  18 t-inv T
 -0.333333 -0.428571  0.000000    0.00297619  19 t-inv T
 -0.500000 -0.428571  0.000000    0.00297619  20 t-inv T
  0.333333 -0.428571 -0.000000    0.00297619  21 t-inv T
  0.166667 -0.428571 -0.000000    0.00297619  22 t-inv T
  0.000000 -0.000000 -0.125000    0.00297619  23 t-inv T
 -0.166667 -0.000000 -0.125000    0.00297619  24 t-inv T
 -0.333333 -0.000000 -0.125000    0.00297619  25 t-inv T
 -0.500000 -0.000000 -0.125000    0.00297619  26 t-inv T
  0.333333 -0.000000 -0.125000    0.00297619  27 t-inv T
  0.166667 -0.000000 -0.125000    0.00297619  28 t-inv T
  0.000000 -0.142857 -0.125000    0.00297619  29 t-inv T
 -0.166667 -0.142857 -0.125000    0.00297619  30 t-inv T
 -0.333333 -0.142857 -0.125000    0.00297619  31 t-inv T
 -0.500000 -0.142857 -0.125000    0.00297619  32 t-inv T
  0.333333 -0.142857 -0.125000    0.00297619  33 t-inv T
  0.166667 -0.142857 -0.125000    0.00297619  34 t-inv T
  0.000000 -0.285714 -0.125000    0.00297619  35 t-inv T
 -0.166667 -0.285714 -0.125000    0.00297619  36 t-inv T
 -0.333333 -0.285714 -0.125000    0.00297619  37 t-inv T
 -0.500000 -0.285714 -0.125000    0.00297619  38 t-inv T
  0.333333 -0.285714 -0.125000    0.00297619  39 t-inv T
  0.166667 -0.285714 -0.125000    0.00297619  40 t-inv T
 -0.000000 -0.428571 -0.125000    0.00297619  41 t-inv T
 -0.166667 -0.428571 -0.125000    0.00297619  42 t-inv T
 -0.333333 -0.428571 -0.125000    0.00297619  43 t-inv T
 -0.500000 -0.428571 -0.125000    0.00297619  44 t-inv T
  0.333333 -0.428571 -0.125000    0.00297619  45 t-inv T
  0.166667 -0.428571 -0.125000    0.00297619  46 t-inv T
  0.000000  0.428571 -0.125000    0.00297619  47 t-inv T
 -0.166667  0.428571 -0.125000    0.00297619  48 t-inv T
 -0.333333  0.428571 -0.125000    0.00297619  49 t-inv T
 -0.500000  0.428571 -0.125000    0.00297619  50 t-inv T
  0.333333  0.428571 -0.125000    0.00297619  51 t-inv T
  0.166667  0.428571 -0.125000    0.00297619  52 t-inv T
  0.000000  0.285714 -0.125000    0.00297619  53 t-inv T
 -0.166667  0.285714 -0.125000    0.00297619  54 t-inv T
 -0.333333  0.285714 -0.125000    0.00297619  55 t-inv T
 -0.500000  0.285714 -0.125000    0.00297619  56 t-inv T
  0.333333  0.285714 -0.125000    0.00297619  57 t-inv T
  0.166667  0.285714 -0.125000    0.00297619  58 t-inv T
 -0.000000  0.142857 -0.125000    0.00297619  59 t-inv T
 -0.166667  0.142857 -0.125000    0.00297619  60 t-inv T
 -0.333333  0.142857 -0.125000    0.00297619  61 t-inv T
 -0.500000  0.142857 -0.125000    0.00297619  62 t-inv T
  0.333333  0.142857 -0.125000    0.00297619  63 t-inv T
  0.166667  0.142857 -0.125000    0.00297619  64 t-inv T
  0.000000 -0.000000 -0.250000    0.00297619  65 t-inv T
 -0.166667 -0.000000 -0.250000    0.00297619  66 t-inv T
 -0.333333 -0.000000 -0.250000    0.00297619  67 t-inv T
 -0.500000 -0.000000 -0.250000    0.00297619  68 t-inv T
  0.333333 -0.000000 -0.250000    0.00297619  69 t-inv T
  0.166667 -0.000000 -0.250000    0.00297619  70 t-inv T
  0.000000 -0.142857 -0.250000    0.00297619  71 t-inv T
 -0.166667 -0.142857 -0.250000    0.00297619  72 t-inv T
 -0.333333 -0.142857 -0.250000    0.00297619  73 t-inv T
 -0.500000 -0.142857 -0.250000    0.00297619  74 t-inv T
  0.333333 -0.142857 -0.250000    0.00297619  75 t-inv T
  0.166667 -0.142857 -0.250000    0.00297619  76 t-inv T
 -0.000000 -0.285714 -0.250000    0.00297619  77 t-inv T
 -0.166667 -0.285714 -0.250000    0.00297619  78 t-inv T
 -0.333333 -0.285714 -0.250000    0.00297619  79 t-inv T
 -0.500000 -0.285714 -0.250000    0.00297619  80 t-inv T
  0.333333 -0.285714 -0.250000    0.00297619  81 t-inv T
  0.166667 -0.285714 -0.250000    0.00297619  82 t-inv T
 -0.000000 -0.428571 -0.250000    0.00297619  83 t-inv T
 -0.166667 -0.428571 -0.250000    0.00297619  84 t-inv T
 -0.333333 -0.428571 -0.250000    0.00297619  85 t-inv T
 -0.500000 -0.428571 -0.250000    0.00297619  86 t-inv T
  0.333333 -0.428571 -0.250000    0.00297619  87 t-inv T
  0.166667 -0.428571 -0.250000    0.00297619  88 t-inv T
  0.000000  0.428571 -0.250000    0.00297619  89 t-inv T
 -0.166667  0.428571 -0.250000    0.00297619  90 t-inv T
 -0.333333  0.428571 -0.250000    0.00297619  91 t-inv T
 -0.500000  0.428571 -0.250000    0.00297619  92 t-inv T
  0.333333  0.428571 -0.250000    0.00297619  93 t-inv T
  0.166667  0.428571 -0.250000    0.00297619  94 t-inv T
  0.000000  0.285714 -0.250000    0.00297619  95 t-inv T
 -0.166667  0.285714 -0.250000    0.00297619  96 t-inv T
 -0.333333  0.285714 -0.250000    0.00297619  97 t-inv T
 -0.500000  0.285714 -0.250000    0.00297619  98 t-inv T
  0.333333  0.285714 -0.250000    0.00297619  99 t-inv T
  0.166667  0.285714 -0.250000    0.00297619 100 t-inv T
  0.000000  0.142857 -0.250000    0.00297619 101 t-inv T
 -0.166667  0.142857 -0.250000    0.00297619 102 t-inv T
 -0.333333  0.142857 -0.250000    0.00297619 103 t-inv T
 -0.500000  0.142857 -0.250000    0.00297619 104 t-inv T
  0.333333  0.142857 -0.250000    0.00297619 105 t-inv T
  0.166667  0.142857 -0.250000    0.00297619 106 t-inv T
  0.000000  0.000000 -0.375000    0.00297619 107 t-inv T
 -0.166667 -0.000000 -0.375000    0.00297619 108 t-inv T
 -0.333333 -0.000000 -0.375000    0.00297619 109 t-inv T
 -0.500000 -0.000000 -0.375000    0.00297619 110 t-inv T
  0.333333 -0.000000 -0.375000    0.00297619 111 t-inv T
  0.166667 -0.000000 -0.375000    0.00297619 112 t-inv T
  0.000000 -0.142857 -0.375000    0.00297619 113 t-inv T
 -0.166667 -0.142857 -0.375000    0.00297619 114 t-inv T
 -0.333333 -0.142857 -0.375000    0.00297619 115 t-inv T
 -0.500000 -0.142857 -0.375000    0.00297619 116 t-inv T
  0.333333 -0.142857 -0.375000    0.00297619 117 t-inv T
  0.166667 -0.142857 -0.375000    0.00297619 118 t-inv T
  0.000000 -0.285714 -0.375000    0.00297619 119 t-inv T
 -0.166667 -0.285714 -0.375000    0.00297619 120 t-inv T
 -0.333333 -0.285714 -0.375000    0.00297619 121 t-inv T
 -0.500000 -0.285714 -0.375000    0.00297619 122 t-inv T
  0.333333 -0.285714 -0.375000    0.00297619 123 t-inv T
  0.166667 -0.285714 -0.375000    0.00297619 124 t-inv T
 -0.000000 -0.428571 -0.375000    0.00297619 125 t-inv T
 -0.166667 -0.428571 -0.375000    0.00297619 126 t-inv T
 -0.333333 -0.428571 -0.375000    0.00297619 127 t-inv T
 -0.500000 -0.428571 -0.375000    0.00297619 128 t-inv T
  0.333333 -0.428571 -0.375000    0.00297619 129 t-inv T
  0.166667 -0.428571 -0.375000    0.00297619 130 t-inv T
  0.000000  0.428571 -0.375000    0.00297619 131 t-inv T
 -0.166667  0.428571 -0.375000    0.00297619 132 t-inv T
 -0.333333  0.428571 -0.375000    0.00297619 133 t-inv T
 -0.500000  0.428571 -0.375000    0.00297619 134 t-inv T
  0.333333  0.428571 -0.375000    0.00297619 135 t-inv T
  0.166667  0.428571 -0.375000    0.00297619 136 t-inv T
  0.000000  0.285714 -0.375000    0.00297619 137 t-inv T
 -0.166667  0.285714 -0.375000    0.00297619 138 t-inv T
 -0.333333  0.285714 -0.375000    0.00297619 139 t-inv T
 -0.500000  0.285714 -0.375000    0.00297619 140 t-inv T
  0.333333  0.285714 -0.375000    0.00297619 141 t-inv T
  0.166667  0.285714 -0.375000    0.00297619 142 t-inv T
  0.000000  0.142857 -0.375000    0.00297619 143 t-inv T
 -0.166667  0.142857 -0.375000    0.00297619 144 t-inv T
 -0.333333  0.142857 -0.375000    0.00297619 145 t-inv T
 -0.500000  0.142857 -0.375000    0.00297619 146 t-inv T
  0.333333  0.142857 -0.375000    0.00297619 147 t-inv T
  0.166667  0.142857 -0.375000    0.00297619 148 t-inv T
 -0.166667 -0.000000 -0.500000    0.00297619 150 t-inv T
 -0.333333 -0.000000 -0.500000    0.00297619 151 t-inv T
  0.000000 -0.142857 -0.500000    0.00297619 153 t-inv T
 -0.166667 -0.142857 -0.500000    0.00297619 154 t-inv T
 -0.333333 -0.142857 -0.500000    0.00297619 155 t-inv T
 -0.500000 -0.142857 -0.500000    0.00297619 156 t-inv T
  0.333333 -0.142857 -0.500000    0.00297619 157 t-inv T
  0.166667 -0.142857 -0.500000    0.00297619 158 t-inv T
  0.000000 -0.285714 -0.500000    0.00297619 159 t-inv T
 -0.166667 -0.285714 -0.500000    0.00297619 160 t-inv T
 -0.333333 -0.285714 -0.500000    0.00297619 161 t-inv T
 -0.500000 -0.285714 -0.500000    0.00297619 162 t-inv T
  0.333333 -0.285714 -0.500000    0.00297619 163 t-inv T
  0.166667 -0.285714 -0.500000    0.00297619 164 t-inv T
  0.000000 -0.428571 -0.500000    0.00297619 165 t-inv T
 -0.166667 -0.428571 -0.500000    0.00297619 166 t-inv T
 -0.333333 -0.428571 -0.500000    0.00297619 167 t-inv T
 -0.500000 -0.428571 -0.500000    0.00297619 168 t-inv T
  0.333333 -0.428571 -0.500000    0.00297619 169 t-inv T
  0.166667 -0.428571 -0.500000    0.00297619 170 t-inv T


--------------------------------------------------------------------------------------------------------




 Dimension of arrays:
   k-points           NKPTS =    170   k-points in BZ     NKDIM =    170   number of bands    NBANDS=    256
   number of dos      NEDOS =    301   number of ions     NIONS =     74
   non local maximal  LDIM  =      5   non local SUM 2l+1 LMDIM =     13
   total plane-waves  NPLWV = ******
   max r-space proj   IRMAX =   6880   max aug-charges    IRDMAX=  23435
   dimension x,y,z NGX =   120 NGY =  108 NGZ =   96
   dimension x,y,z NGXF=   240 NGYF=  216 NGZF=  192
   support grid    NGXF=   240 NGYF=  216 NGZF=  192
   ions per type =              20   8  36  10
 NGX,Y,Z   is equivalent  to a cutoff of  19.62, 19.51, 18.91 a.u.
 NGXF,Y,Z  is equivalent  to a cutoff of  39.24, 39.03, 37.83 a.u.


 I would recommend the setting:
   dimension x,y,z NGX =   115 NGY =  104 NGZ =   95
 SYSTEM =  unknown system                          
 POSCAR =                                          

 Startparameter for this run:
   NWRITE =      2    write-flag & timer
   PREC   = accura    normal or accurate (medium, high low for compatibility)
   ISTART =      0    job   : 0-new  1-cont  2-samecut
   ICHARG =      2    charge: 1-file 2-atom 10-const
   ISPIN  =      1    spin polarized calculation?
   LNONCOLLINEAR =      F non collinear calculations
   LSORBIT =      F    spin-orbit coupling
   INIWAV =      1    electr: 0-lowe 1-rand  2-diag
   LASPH  =      F    aspherical Exc in radial PAW
   METAGGA=      F    non-selfconsistent MetaGGA calc.

 Electronic Relaxation 1
   ENCUT  = 1200.0 eV  88.20 Ry    9.39 a.u.  28.72 25.99 23.83*2*pi/ulx,y,z
   ENINI  = 1200.0     initial cutoff
   ENAUG  = 1685.2 eV  augmentation charge cutoff
   NELM   =     60;   NELMIN=  5; NELMDL= -5     # of ELM steps 
   EDIFF  = 0.1E-09   stopping-criterion for ELM
   LREAL  =      T    real-space projection
   NLSPLINE    = F    spline interpolate recip. space projectors
   LCOMPAT=      F    compatible to vasp.4.4
   GGA_COMPAT  = T    GGA compatible to vasp.4.4-vasp.4.6
   LMAXPAW     = -100 max onsite density
   LMAXMIX     =    2 max onsite mixed and CHGCAR
   VOSKOWN=      0    Vosko Wilk Nusair interpolation
   ROPT   =   -0.00025  -0.00025  -0.00025  -0.00025
 Ionic relaxation
   EDIFFG = 0.1E-08   stopping-criterion for IOM
   NSW    =      0    number of steps for IOM
   NBLOCK =      1;   KBLOCK =      1    inner block; outer block 
   IBRION =     -1    ionic relax: 0-MD 1-quasi-New 2-CG
   NFREE  =      0    steps in history (QN), initial steepest desc. (CG)
   ISIF   =      2    stress and relaxation
   IWAVPR =     10    prediction:  0-non 1-charg 2-wave 3-comb
   ISYM   =      2    0-nonsym 1-usesym 2-fastsym
   LCORR  =      T    Harris-Foulkes like correction to forces

   POTIM  = 0.5000    time-step for ionic-motion
   TEIN   =    0.0    initial temperature
   TEBEG  =    0.0;   TEEND  =   0.0 temperature during run
   SMASS  =  -3.00    Nose mass-parameter (am)
   estimated Nose-frequenzy (Omega)   =  0.10E-29 period in steps =****** mass=  -0.236E-26a.u.
   SCALEE = 1.0000    scale energy and forces
   NPACO  =    256;   APACO  = 16.0  distance and # of slots for P.C.
   PSTRESS=    0.0 pullay stress

  Mass of Ions in am
   POMASS =   1.00 12.01 16.00 24.30
  Ionic Valenz
   ZVAL   =   1.00  4.00  6.00 10.00
  Atomic Wigner-Seitz radii
   RWIGS  =  -1.00 -1.00 -1.00 -1.00
  virtual crystal weights 
   VCA    =   1.00  1.00  1.00  1.00
   NELECT =     368.0000    total number of electrons
   NUPDOWN=      -1.0000    fix difference up-down

 DOS related values:
   EMIN   =  10.00;   EMAX   =-10.00  energy-range for DOS
   EFERMI =   0.00
   ISMEAR =    -5;   SIGMA  =   0.00  broadening in eV -4-tet -1-fermi 0-gaus

 Electronic relaxation 2 (details)
   IALGO  =     38    algorithm
   LDIAG  =      T    sub-space diagonalisation (order eigenvalues)
   LSUBROT=      F    optimize rotation matrix (better conditioning)
   TURBO    =      0    0=normal 1=particle mesh
   IRESTART =      0    0=no restart 2=restart with 2 vectors
   NREBOOT  =      0    no. of reboots
   NMIN     =      0    reboot dimension
   EREF     =   0.00    reference energy to select bands
   IMIX   =      4    mixing-type and parameters
     AMIX     =   0.40;   BMIX     =  1.00
     AMIX_MAG =   1.60;   BMIX_MAG =  1.00
     AMIN     =   0.10
     WC   =   100.;   INIMIX=   1;  MIXPRE=   1;  MAXMIX= -45

 Intra band minimization:
   WEIMIN = 0.0000     energy-eigenvalue tresh-hold
   EBREAK =  0.98E-13  absolut break condition
   DEPER  =   0.30     relativ break condition  

   TIME   =   0.40     timestep for ELM

  volume/ion in A,a.u.               =       9.71        65.54
  Fermi-wavevector in a.u.,A,eV,Ry     =   1.309713  2.474998 23.338720  1.715348
  Thomas-Fermi vector in A             =   2.440293
 
 Write flags
   LWAVE  =      F    write WAVECAR
   LCHARG =      F    write CHGCAR
   LVTOT  =      F    write LOCPOT, total local potential
   LVHAR  =      F    write LOCPOT, Hartree potential only
   LELF   =      F    write electronic localiz. function (ELF)
   LORBIT =      0    0 simple, 1 ext, 2 COOP (PROOUT)


 Dipole corrections
   LMONO  =      F    monopole corrections only (constant potential shift)
   LDIPOL =      F    correct potential (dipole corrections)
   IDIPOL =      0    1-x, 2-y, 3-z, 4-all directions 
   EPSILON=  1.0000000 bulk dielectric constant

 Exchange correlation treatment:
   GGA     =    --    GGA type
   LEXCH   =     8    internal setting for exchange type
   VOSKOWN=      0    Vosko Wilk Nusair interpolation
   LHFCALC =     F    Hartree Fock is set to
   LHFONE  =     F    Hartree Fock one center treatment
   AEXX    =    0.0000 exact exchange contribution

 Linear response parameters
   LEPSILON=     F    determine dielectric tensor
   LRPA    =     F    only Hartree local field effects (RPA)
   LNABLA  =     F    use nabla operator in PAW spheres
   LVEL    =     F    velocity operator in full k-point grid
   LINTERFAST=   F  fast interpolation
   KINTER  =     0    interpolate to denser k-point grid
   CSHIFT  =0.1000    complex shift for real part using Kramers Kronig
   OMEGAMAX=  -1.0    maximum frequency
   DEG_THRESHOLD= 0.2000000E-02 threshold for treating states as degnerate
   RTIME   =    0.100 relaxation time in fs

 Orbital magnetization related:
   ORBITALMAG=     F  switch on orbital magnetization
   LMAGBLOCH =     F  use Bloch summation to obtain orbital mag.
   LCHIMAG   =     T  perturbation theory with respect to B field
   DQ        =  0.001000  dq finite difference perturbation B field
   LGAUGE    =     T  gauge transformation for 0 moment terms
   NUCIND    =     F  nuclear independent calculation        
   MAGPOS    =    0.0000    0.0000    0.0000  position of magnetic moment in nuclear independent calculation
   MAGATOM   =     0  atom on which magnetic dipole is placed
   JATOM     =     0  atom on which magnetic dipole is evaluated
   MAGDIPOL  =    0.0000    0.0000    0.0000 magnetic dipole

 Orbital magnetization related:
   ORBITALMAG=     F  switch on orbital magnetization
   LCHIMAG   =     T  perturbation theory with respect to B field
   DQ        =  0.001000  dq finite difference perturbation B field



--------------------------------------------------------------------------------------------------------


 Static calculation
 charge density and potential will be updated during run
 non-spin polarized calculation
 Variant of blocked Davidson
 Davidson routine will perform the subspace rotation
 perform sub-space diagonalisation
    after iterative eigenvector-optimisation
 modified Broyden-mixing scheme, WC =      100.0
 initial mixing is a Kerker type mixing with AMIX =  0.4000 and BMIX =      1.0000
 Hartree-type preconditioning will be used
 using additional bands           72
 WARNING: no broadening specified (might cause bad convergence)
 real space projection scheme for non local part
 use partial core corrections
 calculate Harris-corrections to forces 
   (improved forces if not selfconsistent)
 use gradient corrections 
 use of overlap-Matrix (Vanderbilt PP)
 Fermi weights with tetrahedron method with Bloechl corrections


--------------------------------------------------------------------------------------------------------


  energy-cutoff  :     1200.00
  volume of cell :      718.69
      direct lattice vectors                 reciprocal lattice vectors
    10.169023958 -0.000212935 -0.002890195     0.098350555  0.000000219  0.044684045
    -0.000194154  9.200445047  0.000382223     0.000002275  0.108690395 -0.000004518
    -3.490501043  0.000392416  7.682668604     0.000036999 -0.000005407  0.130179915

  length of vectors
    10.169024371  9.200445057  8.438423701     0.108025439  0.108690395  0.130179921


 
 k-points in units of 2pi/SCALE and weight: CaAl4Si2O12H2                           
   0.00000000  0.00000000  0.00000000       0.003
   0.01639176  0.00000004  0.00744734       0.006
   0.03278352  0.00000007  0.01489468       0.006
   0.04917528  0.00000011  0.02234202       0.003
   0.00000032  0.01552720 -0.00000065       0.006
   0.01639208  0.01552724  0.00744670       0.006
   0.03278384  0.01552727  0.01489404       0.006
   0.04917560  0.01552731  0.02234138       0.006
  -0.03278319  0.01552713 -0.01489533       0.006
  -0.01639143  0.01552716 -0.00744799       0.006
   0.00000065  0.03105440 -0.00000129       0.006
   0.01639241  0.03105443  0.00744605       0.006
   0.03278417  0.03105447  0.01489339       0.006
   0.04917593  0.03105451  0.02234073       0.006
  -0.03278287  0.03105433 -0.01489597       0.006
  -0.01639111  0.03105436 -0.00744863       0.006
   0.00000097  0.04658160 -0.00000194       0.006
   0.01639273  0.04658163  0.00744540       0.006
   0.03278449  0.04658167  0.01489275       0.006
   0.04917625  0.04658171  0.02234009       0.006
  -0.03278254  0.04658152 -0.01489662       0.006
  -0.01639078  0.04658156 -0.00744928       0.006
   0.00000462 -0.00000068  0.01627249       0.006
   0.01639638 -0.00000064  0.02371983       0.006
   0.03278814 -0.00000060  0.03116717       0.006
   0.04917990 -0.00000057  0.03861451       0.006
  -0.03277889 -0.00000075  0.00137781       0.006
  -0.01638713 -0.00000071  0.00882515       0.006
   0.00000495  0.01552652  0.01627184       0.006
   0.01639671  0.01552656  0.02371918       0.006
   0.03278847  0.01552660  0.03116653       0.006
   0.04918023  0.01552663  0.03861387       0.006
  -0.03277857  0.01552645  0.00137716       0.006
  -0.01638681  0.01552649  0.00882450       0.006
   0.00000527  0.03105372  0.01627120       0.006
   0.01639703  0.03105376  0.02371854       0.006
   0.03278879  0.03105380  0.03116588       0.006
   0.04918055  0.03105383  0.03861322       0.006
  -0.03277824  0.03105365  0.00137652       0.006
  -0.01638648  0.03105369  0.00882386       0.006
   0.00000560  0.04658092  0.01627055       0.006
   0.01639736  0.04658096  0.02371789       0.006
   0.03278912  0.04658099  0.03116523       0.006
   0.04918088  0.04658103  0.03861258       0.006
  -0.03277792  0.04658085  0.00137587       0.006
  -0.01638616  0.04658089  0.00882321       0.006
   0.00000365 -0.04658227  0.01627443       0.006
   0.01639541 -0.04658224  0.02372177       0.006
   0.03278717 -0.04658220  0.03116911       0.006
   0.04917893 -0.04658216  0.03861645       0.006
  -0.03277987 -0.04658235  0.00137974       0.006
  -0.01638811 -0.04658231  0.00882708       0.006
   0.00000397 -0.03105507  0.01627378       0.006
   0.01639573 -0.03105504  0.02372112       0.006
   0.03278749 -0.03105500  0.03116846       0.006
   0.04917925 -0.03105496  0.03861580       0.006
  -0.03277954 -0.03105515  0.00137910       0.006
  -0.01638778 -0.03105511  0.00882644       0.006
   0.00000430 -0.01552788  0.01627313       0.006
   0.01639606 -0.01552784  0.02372048       0.006
   0.03278782 -0.01552780  0.03116782       0.006
   0.04917958 -0.01552777  0.03861516       0.006
  -0.03277922 -0.01552795  0.00137845       0.006
  -0.01638746 -0.01552791  0.00882579       0.006
   0.00000925 -0.00000135  0.03254498       0.006
   0.01640101 -0.00000132  0.03999232       0.006
   0.03279277 -0.00000128  0.04743966       0.006
   0.04918453 -0.00000124  0.05488700       0.006
  -0.03277427 -0.00000142  0.01765030       0.006
  -0.01638251 -0.00000139  0.02509764       0.006
   0.00000957  0.01552585  0.03254433       0.006
   0.01640133  0.01552588  0.03999167       0.006
   0.03279309  0.01552592  0.04743902       0.006
   0.04918485  0.01552596  0.05488636       0.006
  -0.03277394  0.01552577  0.01764965       0.006
  -0.01638218  0.01552581  0.02509699       0.006
   0.00000990  0.03105305  0.03254369       0.006
   0.01640166  0.03105308  0.03999103       0.006
   0.03279342  0.03105312  0.04743837       0.006
   0.04918518  0.03105316  0.05488571       0.006
  -0.03277362  0.03105297  0.01764901       0.006
  -0.01638186  0.03105301  0.02509635       0.006
   0.00001022  0.04658025  0.03254304       0.006
   0.01640198  0.04658028  0.03999038       0.006
   0.03279374  0.04658032  0.04743772       0.006
   0.04918550  0.04658036  0.05488507       0.006
  -0.03277329  0.04658017  0.01764836       0.006
  -0.01638153  0.04658021  0.02509570       0.006
   0.00000827 -0.04658295  0.03254692       0.006
   0.01640003 -0.04658291  0.03999426       0.006
   0.03279179 -0.04658288  0.04744160       0.006
   0.04918355 -0.04658284  0.05488894       0.006
  -0.03277524 -0.04658302  0.01765223       0.006
  -0.01638348 -0.04658299  0.02509957       0.006
   0.00000860 -0.03105575  0.03254627       0.006
   0.01640036 -0.03105571  0.03999361       0.006
   0.03279212 -0.03105568  0.04744095       0.006
   0.04918388 -0.03105564  0.05488829       0.006
  -0.03277492 -0.03105582  0.01765159       0.006
  -0.01638316 -0.03105579  0.02509893       0.006
   0.00000892 -0.01552855  0.03254562       0.006
   0.01640068 -0.01552851  0.03999297       0.006
   0.03279244 -0.01552848  0.04744031       0.006
   0.04918420 -0.01552844  0.05488765       0.006
  -0.03277459 -0.01552862  0.01765094       0.006
  -0.01638283 -0.01552859  0.02509828       0.006
   0.00001387 -0.00000203  0.04881747       0.006
   0.01640563 -0.00000199  0.05626481       0.006
   0.03279739 -0.00000195  0.06371215       0.006
   0.04918915 -0.00000192  0.07115949       0.006
  -0.03276964 -0.00000210  0.03392279       0.006
  -0.01637788 -0.00000206  0.04137013       0.006
   0.00001420  0.01552517  0.04881682       0.006
   0.01640596  0.01552521  0.05626416       0.006
   0.03279772  0.01552524  0.06371150       0.006
   0.04918948  0.01552528  0.07115885       0.006
  -0.03276932  0.01552510  0.03392214       0.006
  -0.01637756  0.01552513  0.04136948       0.006
   0.00001452  0.03105237  0.04881618       0.006
   0.01640628  0.03105241  0.05626352       0.006
   0.03279804  0.03105244  0.06371086       0.006
   0.04918980  0.03105248  0.07115820       0.006
  -0.03276899  0.03105230  0.03392150       0.006
  -0.01637723  0.03105233  0.04136884       0.006
   0.00001485  0.04657957  0.04881553       0.006
   0.01640661  0.04657961  0.05626287       0.006
   0.03279837  0.04657964  0.06371021       0.006
   0.04919013  0.04657968  0.07115755       0.006
  -0.03276867  0.04657950  0.03392085       0.006
  -0.01637691  0.04657953  0.04136819       0.006
   0.00001290 -0.04658363  0.04881940       0.006
   0.01640466 -0.04658359  0.05626675       0.006
   0.03279642 -0.04658355  0.06371409       0.006
   0.04918818 -0.04658352  0.07116143       0.006
  -0.03277062 -0.04658370  0.03392472       0.006
  -0.01637886 -0.04658366  0.04137206       0.006
   0.00001322 -0.03105643  0.04881876       0.006
   0.01640498 -0.03105639  0.05626610       0.006
   0.03279674 -0.03105635  0.06371344       0.006
   0.04918850 -0.03105632  0.07116078       0.006
  -0.03277029 -0.03105650  0.03392408       0.006
  -0.01637853 -0.03105646  0.04137142       0.006
   0.00001355 -0.01552923  0.04881811       0.006
   0.01640531 -0.01552919  0.05626545       0.006
   0.03279707 -0.01552915  0.06371280       0.006
   0.04918883 -0.01552912  0.07116014       0.006
  -0.03276997 -0.01552930  0.03392343       0.006
  -0.01637821 -0.01552926  0.04137077       0.006
   0.00001850 -0.00000270  0.06508996       0.003
   0.01641026 -0.00000267  0.07253730       0.006
   0.03280202 -0.00000263  0.07998464       0.006
   0.04919378 -0.00000259  0.08743198       0.003
   0.00001882  0.01552450  0.06508931       0.006
   0.01641058  0.01552453  0.07253665       0.006
   0.03280234  0.01552457  0.07998399       0.006
   0.04919410  0.01552461  0.08743133       0.006
  -0.03276469  0.01552442  0.05019463       0.006
  -0.01637293  0.01552446  0.05764197       0.006
   0.00001915  0.03105169  0.06508867       0.006
   0.01641091  0.03105173  0.07253601       0.006
   0.03280267  0.03105177  0.07998335       0.006
   0.04919443  0.03105180  0.08743069       0.006
  -0.03276437  0.03105162  0.05019398       0.006
  -0.01637261  0.03105166  0.05764133       0.006
   0.00001947  0.04657889  0.06508802       0.006
   0.01641123  0.04657893  0.07253536       0.006
   0.03280299  0.04657897  0.07998270       0.006
   0.04919475  0.04657900  0.08743004       0.006
  -0.03276404  0.04657882  0.05019334       0.006
  -0.01637228  0.04657886  0.05764068       0.006
 
 k-points in reciprocal lattice and weights: CaAl4Si2O12H2                           
   0.00000000  0.00000000  0.00000000       0.003
   0.16666667  0.00000000 -0.00000000       0.006
   0.33333333  0.00000000 -0.00000000       0.006
   0.50000000  0.00000000 -0.00000000       0.003
   0.00000000  0.14285714 -0.00000000       0.006
   0.16666667  0.14285714 -0.00000000       0.006
   0.33333333  0.14285714 -0.00000000       0.006
   0.50000000  0.14285714 -0.00000000       0.006
  -0.33333333  0.14285714  0.00000000       0.006
  -0.16666667  0.14285714  0.00000000       0.006
   0.00000000  0.28571429 -0.00000000       0.006
   0.16666667  0.28571429 -0.00000000       0.006
   0.33333333  0.28571429 -0.00000000       0.006
   0.50000000  0.28571429 -0.00000000       0.006
  -0.33333333  0.28571429  0.00000000       0.006
  -0.16666667  0.28571429  0.00000000       0.006
   0.00000000  0.42857143 -0.00000000       0.006
   0.16666667  0.42857143 -0.00000000       0.006
   0.33333333  0.42857143 -0.00000000       0.006
   0.50000000  0.42857143 -0.00000000       0.006
  -0.33333333  0.42857143  0.00000000       0.006
  -0.16666667  0.42857143  0.00000000       0.006
  -0.00000000  0.00000000  0.12500000       0.006
   0.16666667  0.00000000  0.12500000       0.006
   0.33333333  0.00000000  0.12500000       0.006
   0.50000000  0.00000000  0.12500000       0.006
  -0.33333333  0.00000000  0.12500000       0.006
  -0.16666667  0.00000000  0.12500000       0.006
  -0.00000000  0.14285714  0.12500000       0.006
   0.16666667  0.14285714  0.12500000       0.006
   0.33333333  0.14285714  0.12500000       0.006
   0.50000000  0.14285714  0.12500000       0.006
  -0.33333333  0.14285714  0.12500000       0.006
  -0.16666667  0.14285714  0.12500000       0.006
  -0.00000000  0.28571429  0.12500000       0.006
   0.16666667  0.28571429  0.12500000       0.006
   0.33333333  0.28571429  0.12500000       0.006
   0.50000000  0.28571429  0.12500000       0.006
  -0.33333333  0.28571429  0.12500000       0.006
  -0.16666667  0.28571429  0.12500000       0.006
   0.00000000  0.42857143  0.12500000       0.006
   0.16666667  0.42857143  0.12500000       0.006
   0.33333333  0.42857143  0.12500000       0.006
   0.50000000  0.42857143  0.12500000       0.006
  -0.33333333  0.42857143  0.12500000       0.006
  -0.16666667  0.42857143  0.12500000       0.006
  -0.00000000 -0.42857143  0.12500000       0.006
   0.16666667 -0.42857143  0.12500000       0.006
   0.33333333 -0.42857143  0.12500000       0.006
   0.50000000 -0.42857143  0.12500000       0.006
  -0.33333333 -0.42857143  0.12500000       0.006
  -0.16666667 -0.42857143  0.12500000       0.006
  -0.00000000 -0.28571429  0.12500000       0.006
   0.16666667 -0.28571429  0.12500000       0.006
   0.33333333 -0.28571429  0.12500000       0.006
   0.50000000 -0.28571429  0.12500000       0.006
  -0.33333333 -0.28571429  0.12500000       0.006
  -0.16666667 -0.28571429  0.12500000       0.006
   0.00000000 -0.14285714  0.12500000       0.006
   0.16666667 -0.14285714  0.12500000       0.006
   0.33333333 -0.14285714  0.12500000       0.006
   0.50000000 -0.14285714  0.12500000       0.006
  -0.33333333 -0.14285714  0.12500000       0.006
  -0.16666667 -0.14285714  0.12500000       0.006
  -0.00000000  0.00000000  0.25000000       0.006
   0.16666667  0.00000000  0.25000000       0.006
   0.33333333  0.00000000  0.25000000       0.006
   0.50000000  0.00000000  0.25000000       0.006
  -0.33333333  0.00000000  0.25000000       0.006
  -0.16666667  0.00000000  0.25000000       0.006
  -0.00000000  0.14285714  0.25000000       0.006
   0.16666667  0.14285714  0.25000000       0.006
[...]
  0.049185  0.015526  0.054886      2.000000
 -0.032774  0.015526  0.017650      2.000000
 -0.016382  0.015526  0.025097      2.000000
  0.000010  0.031053  0.032544      2.000000
  0.016402  0.031053  0.039991      2.000000
  0.032793  0.031053  0.047438      2.000000
  0.049185  0.031053  0.054886      2.000000
 -0.032774  0.031053  0.017649      2.000000
 -0.016382  0.031053  0.025096      2.000000
  0.000010  0.046580  0.032543      2.000000
  0.016402  0.046580  0.039990      2.000000
  0.032794  0.046580  0.047438      2.000000
  0.049186  0.046580  0.054885      2.000000
 -0.032773  0.046580  0.017648      2.000000
 -0.016382  0.046580  0.025096      2.000000
  0.000008 -0.046583  0.032547      2.000000
  0.016400 -0.046583  0.039994      2.000000
  0.032792 -0.046583  0.047442      2.000000
  0.049184 -0.046583  0.054889      2.000000
 -0.032775 -0.046583  0.017652      2.000000
 -0.016383 -0.046583  0.025100      2.000000
  0.000009 -0.031056  0.032546      2.000000
  0.016400 -0.031056  0.039994      2.000000
  0.032792 -0.031056  0.047441      2.000000
  0.049184 -0.031056  0.054888      2.000000
 -0.032775 -0.031056  0.017652      2.000000
 -0.016383 -0.031056  0.025099      2.000000
  0.000009 -0.015529  0.032546      2.000000
  0.016401 -0.015529  0.039993      2.000000
  0.032792 -0.015528  0.047440      2.000000
  0.049184 -0.015528  0.054888      2.000000
 -0.032775 -0.015529  0.017651      2.000000
 -0.016383 -0.015529  0.025098      2.000000
  0.000014 -0.000002  0.048817      2.000000
  0.016406 -0.000002  0.056265      2.000000
  0.032797 -0.000002  0.063712      2.000000
  0.049189 -0.000002  0.071159      2.000000
 -0.032770 -0.000002  0.033923      2.000000
 -0.016378 -0.000002  0.041370      2.000000
  0.000014  0.015525  0.048817      2.000000
  0.016406  0.015525  0.056264      2.000000
  0.032798  0.015525  0.063712      2.000000
  0.049189  0.015525  0.071159      2.000000
 -0.032769  0.015525  0.033922      2.000000
 -0.016378  0.015525  0.041369      2.000000
  0.000015  0.031052  0.048816      2.000000
  0.016406  0.031052  0.056264      2.000000
  0.032798  0.031052  0.063711      2.000000
  0.049190  0.031052  0.071158      2.000000
 -0.032769  0.031052  0.033921      2.000000
 -0.016377  0.031052  0.041369      2.000000
  0.000015  0.046580  0.048816      2.000000
  0.016407  0.046580  0.056263      2.000000
  0.032798  0.046580  0.063710      2.000000
  0.049190  0.046580  0.071158      2.000000
 -0.032769  0.046579  0.033921      2.000000
 -0.016377  0.046580  0.041368      2.000000
  0.000013 -0.046584  0.048819      2.000000
  0.016405 -0.046584  0.056267      2.000000
  0.032796 -0.046584  0.063714      2.000000
  0.049188 -0.046584  0.071161      2.000000
 -0.032771 -0.046584  0.033925      2.000000
 -0.016379 -0.046584  0.041372      2.000000
  0.000013 -0.031056  0.048819      2.000000
  0.016405 -0.031056  0.056266      2.000000
  0.032797 -0.031056  0.063713      2.000000
  0.049189 -0.031056  0.071161      2.000000
 -0.032770 -0.031056  0.033924      2.000000
 -0.016379 -0.031056  0.041371      2.000000
  0.000014 -0.015529  0.048818      2.000000
  0.016405 -0.015529  0.056265      2.000000
  0.032797 -0.015529  0.063713      2.000000
  0.049189 -0.015529  0.071160      2.000000
 -0.032770 -0.015529  0.033923      2.000000
 -0.016378 -0.015529  0.041371      2.000000
  0.000018 -0.000003  0.065090      1.000000
  0.016410 -0.000003  0.072537      2.000000
  0.032802 -0.000003  0.079985      2.000000
  0.049194 -0.000003  0.087432      1.000000
  0.000019  0.015524  0.065089      2.000000
  0.016411  0.015525  0.072537      2.000000
  0.032802  0.015525  0.079984      2.000000
  0.049194  0.015525  0.087431      2.000000
 -0.032765  0.015524  0.050195      2.000000
 -0.016373  0.015524  0.057642      2.000000
  0.000019  0.031052  0.065089      2.000000
  0.016411  0.031052  0.072536      2.000000
  0.032803  0.031052  0.079983      2.000000
  0.049194  0.031052  0.087431      2.000000
 -0.032764  0.031052  0.050194      2.000000
 -0.016373  0.031052  0.057641      2.000000
  0.000019  0.046579  0.065088      2.000000
  0.016411  0.046579  0.072535      2.000000
  0.032803  0.046579  0.079983      2.000000
  0.049195  0.046579  0.087430      2.000000
 -0.032764  0.046579  0.050193      2.000000
 -0.016372  0.046579  0.057641      2.000000
 
 TETIRR: Found   1008 inequivalent tetrahedra from     2016

 WARNING: MLR_CORE_SHIFTS: can not compute core contributions for atomic type:   1
          CORE CONTRIBUTION TO SHIELDING AND SUSCEPTIBILITY ARE INCORRECT


 WARNING: MLR_CORE_SHIFTS: can not compute core contributions for atomic type:   2
          CORE CONTRIBUTION TO SHIELDING AND SUSCEPTIBILITY ARE INCORRECT


 WARNING: MLR_CORE_SHIFTS: can not compute core contributions for atomic type:   3
          CORE CONTRIBUTION TO SHIELDING AND SUSCEPTIBILITY ARE INCORRECT


 WARNING: MLR_CORE_SHIFTS: can not compute core contributions for atomic type:   4
          CORE CONTRIBUTION TO SHIELDING AND SUSCEPTIBILITY ARE INCORRECT

 --------------------------------------------------------------------------
  Core NMR properties        

  typ  El   Core shift (ppm)
 ----------------------------
    1  H        0.0000000
    2  C        0.0000000
    3  O        0.0000000
    4  Mg       0.0000000
 ----------------------------

  Core contribution to magnetic susceptibility:      0.00  10^-6 cm^3/mole
 --------------------------------------------------------------------------
 
 
 ---------------------------------------------------------------------------------
  CSA tensor (J. Mason, Solid State Nucl. Magn. Reson. 2, 285 (1993))             
 ---------------------------------------------------------------------------------
             EXCLUDING G=0 CONTRIBUTION             INCLUDING G=0 CONTRIBUTION    
         -----------------------------------   -----------------------------------
  ATOM    ISO_SHIFT        SPAN        SKEW     ISO_SHIFT        SPAN        SKEW 
 ---------------------------------------------------------------------------------
  (absolute, valence only)                                                                  
     1     -24.5779     12.6567      0.9703      -32.1706     12.5100      0.9757
     2     -13.5957     31.6548      0.8193      -21.1883     31.7140      0.8236
     3     -20.5314     16.3076      0.8295      -28.1241     16.2183      0.8348
     4     -14.3752     32.3652      0.8052      -21.9679     32.3875      0.8051
     5     -17.7260     29.7990      0.8508      -25.3187     29.8611      0.8514
     6     -24.5781     12.6547      0.9706      -32.1708     12.5082      0.9759
     7     -13.6067     31.6297      0.8190      -21.1994     31.6890      0.8232
     8     -20.5278     16.3104      0.8291      -28.1205     16.2210      0.8344
     9     -14.3804     32.3598      0.8051      -21.9730     32.3820      0.8050
    10     -17.7247     29.8038      0.8507      -25.3174     29.8659      0.8513
    11     -24.5785     12.6573      0.9703      -32.1712     12.5107      0.9756
    12     -13.5932     31.6563      0.8194      -21.1859     31.7155      0.8237
    13     -20.5309     16.3067      0.8296      -28.1236     16.2174      0.8349
    14     -14.3767     32.3630      0.8051      -21.9693     32.3853      0.8050
    15     -17.7259     29.7973      0.8508      -25.3185     29.8594      0.8513
    16     -24.5782     12.6536      0.9707      -32.1709     12.5071      0.9759
    17     -13.6037     31.6322      0.8190      -21.1963     31.6914      0.8233
    18     -20.5291     16.3099      0.8291      -28.1218     16.2205      0.8344
    19     -14.3783     32.3549      0.8050      -21.9709     32.3771      0.8049
    20     -17.7242     29.7998      0.8507      -25.3169     29.8618      0.8512
    21     199.5901     69.5526      0.6318      191.9974     69.5232      0.6342
    22     202.6735     68.1974      0.8299      195.0808     68.1830      0.8330
    23     199.6315     69.6053      0.6305      192.0389     69.5762      0.6329
    24     202.6770     68.1899      0.8306      195.0844     68.1756      0.8336
    25     199.5976     69.5583      0.6315      192.0050     69.5289      0.6339
    26     202.6840     68.2002      0.8300      195.0913     68.1859      0.8330
    27     199.6164     69.5941      0.6309      192.0237     69.5650      0.6333
    28     202.6715     68.1876      0.8306      195.0788     68.1733      0.8337
    29      16.9361     35.7868      0.8595        9.3434     35.6278      0.8621
    30      17.4936     37.1158      0.2055        9.9009     37.2192      0.2044
    31       6.5858     63.8298      0.3454       -1.0069     63.9222      0.3424
    32     201.2482    206.9589     -0.0436      193.6555    206.9345     -0.0431
    33     203.2600    203.0576     -0.0960      195.6674    203.0553     -0.0959
    34     166.8347    202.4659     -0.5347      159.2420    202.5372     -0.5351
    35     206.1329    233.6978     -0.2331      198.5402    233.6797     -0.2322
    36     190.2416    205.5346     -0.1912      182.6489    205.5911     -0.1913
    37     194.1215    211.3941     -0.1482      186.5288    211.4696     -0.1485
    38      16.9345     35.7734      0.8607        9.3418     35.6145      0.8633
    39      17.4971     37.0795      0.2047        9.9045     37.1826      0.2036
    40       6.5769     63.7980      0.3459       -1.0158     63.8903      0.3430
    41     201.2756    207.0125     -0.0439      193.6830    206.9885     -0.0435
    42     203.3299    203.0857     -0.0962      195.7372    203.0837     -0.0961
    43     166.9751    202.5386     -0.5352      159.3824    202.6103     -0.5356
    44     206.1260    233.6887     -0.2336      198.5333    233.6706     -0.2327
    45     190.2643    205.5460     -0.1913      182.6716    205.6024     -0.1914
    46     194.1322    211.4264     -0.1474      186.5395    211.5020     -0.1477
    47      16.9277     35.7785      0.8598        9.3350     35.6196      0.8624
    48      17.5016     37.1194      0.2049        9.9089     37.2228      0.2038
    49       6.5863     63.8239      0.3454       -1.0063     63.9163      0.3425
    50     201.2322    206.9841     -0.0436      193.6395    206.9596     -0.0432
    51     203.3064    203.0720     -0.0959      195.7137    203.0697     -0.0957
    52     166.8633    202.4718     -0.5351      159.2707    202.5430     -0.5355
    53     206.1511    233.7263     -0.2333      198.5584    233.7083     -0.2323
    54     190.2560    205.5377     -0.1913      182.6633    205.5942     -0.1914
    55     194.1545    211.4147     -0.1482      186.5618    211.4903     -0.1485
    56      16.9327     35.7620      0.8621        9.3401     35.6031      0.8647
    57      17.5046     37.0847      0.2053        9.9119     37.1879      0.2041
    58       6.5923     63.8011      0.3458       -1.0004     63.8934      0.3428
    59     201.2075    206.9847     -0.0436      193.6149    206.9608     -0.0432
    60     203.3153    203.0401     -0.0965      195.7226    203.0381     -0.0964
    61     166.9465    202.5212     -0.5348      159.3538    202.5929     -0.5352
    62     206.0930    233.6655     -0.2338      198.5003    233.6474     -0.2328
    63     190.2550    205.5333     -0.1914      182.6624    205.5898     -0.1914
    64     194.1271    211.4261     -0.1472      186.5344    211.5017     -0.1475
    65    -140.7000     17.5267      0.4471     -148.2926     17.4942      0.4550
    66    -140.3165     19.9973      0.5104     -147.9092     20.0153      0.5166
    67    -140.6990     17.4974      0.4487     -148.2917     17.4645      0.4567
    68    -140.3124     19.9929      0.5088     -147.9051     20.0108      0.5150
    69    -140.6998     17.5454      0.4472     -148.2924     17.5129      0.4552
    70    -140.3142     19.9748      0.5101     -147.9069     19.9927      0.5163
    71    -140.6943     17.4837      0.4463     -148.2870     17.4511      0.4542
    72    -140.3282     19.9890      0.5089     -147.9209     20.0069      0.5152
    73    -141.8498     26.4995      0.7077     -149.4424     26.6228      0.6991
    74    -141.8488     26.5493      0.7083     -149.4414     26.6725      0.6998
 ---------------------------------------------------------------------------------
  (absolute, valence and core)                                                                  
     1     -24.5779     12.6567      0.9703      -32.1706     12.5100      0.9757
     2     -13.5957     31.6548      0.8193      -21.1883     31.7140      0.8236
     3     -20.5314     16.3076      0.8295      -28.1241     16.2183      0.8348
     4     -14.3752     32.3652      0.8052      -21.9679     32.3875      0.8051
     5     -17.7260     29.7990      0.8508      -25.3187     29.8611      0.8514
     6     -24.5781     12.6547      0.9706      -32.1708     12.5082      0.9759
     7     -13.6067     31.6297      0.8190      -21.1994     31.6890      0.8232
     8     -20.5278     16.3104      0.8291      -28.1205     16.2210      0.8344
     9     -14.3804     32.3598      0.8051      -21.9730     32.3820      0.8050
    10     -17.7247     29.8038      0.8507      -25.3174     29.8659      0.8513
    11     -24.5785     12.6573      0.9703      -32.1712     12.5107      0.9756
    12     -13.5932     31.6563      0.8194      -21.1859     31.7155      0.8237
    13     -20.5309     16.3067      0.8296      -28.1236     16.2174      0.8349
    14     -14.3767     32.3630      0.8051      -21.9693     32.3853      0.8050
    15     -17.7259     29.7973      0.8508      -25.3185     29.8594      0.8513
    16     -24.5782     12.6536      0.9707      -32.1709     12.5071      0.9759
    17     -13.6037     31.6322      0.8190      -21.1963     31.6914      0.8233
    18     -20.5291     16.3099      0.8291      -28.1218     16.2205      0.8344
    19     -14.3783     32.3549      0.8050      -21.9709     32.3771      0.8049
    20     -17.7242     29.7998      0.8507      -25.3169     29.8618      0.8512
    21     199.5901     69.5526      0.6318      191.9974     69.5232      0.6342
    22     202.6735     68.1974      0.8299      195.0808     68.1830      0.8330
    23     199.6315     69.6053      0.6305      192.0389     69.5762      0.6329
    24     202.6770     68.1899      0.8306      195.0844     68.1756      0.8336
    25     199.5976     69.5583      0.6315      192.0050     69.5289      0.6339
    26     202.6840     68.2002      0.8300      195.0913     68.1859      0.8330
    27     199.6164     69.5941      0.6309      192.0237     69.5650      0.6333
    28     202.6715     68.1876      0.8306      195.0788     68.1733      0.8337
    29      16.9361     35.7868      0.8595        9.3434     35.6278      0.8621
    30      17.4936     37.1158      0.2055        9.9009     37.2192      0.2044
    31       6.5858     63.8298      0.3454       -1.0069     63.9222      0.3424
    32     201.2482    206.9589     -0.0436      193.6555    206.9345     -0.0431
    33     203.2600    203.0576     -0.0960      195.6674    203.0553     -0.0959
    34     166.8347    202.4659     -0.5347      159.2420    202.5372     -0.5351
    35     206.1329    233.6978     -0.2331      198.5402    233.6797     -0.2322
    36     190.2416    205.5346     -0.1912      182.6489    205.5911     -0.1913
    37     194.1215    211.3941     -0.1482      186.5288    211.4696     -0.1485
    38      16.9345     35.7734      0.8607        9.3418     35.6145      0.8633
    39      17.4971     37.0795      0.2047        9.9045     37.1826      0.2036
    40       6.5769     63.7980      0.3459       -1.0158     63.8903      0.3430
    41     201.2756    207.0125     -0.0439      193.6830    206.9885     -0.0435
    42     203.3299    203.0857     -0.0962      195.7372    203.0837     -0.0961
    43     166.9751    202.5386     -0.5352      159.3824    202.6103     -0.5356
    44     206.1260    233.6887     -0.2336      198.5333    233.6706     -0.2327
    45     190.2643    205.5460     -0.1913      182.6716    205.6024     -0.1914
    46     194.1322    211.4264     -0.1474      186.5395    211.5020     -0.1477
    47      16.9277     35.7785      0.8598        9.3350     35.6196      0.8624
    48      17.5016     37.1194      0.2049        9.9089     37.2228      0.2038
    49       6.5863     63.8239      0.3454       -1.0063     63.9163      0.3425
    50     201.2322    206.9841     -0.0436      193.6395    206.9596     -0.0432
    51     203.3064    203.0720     -0.0959      195.7137    203.0697     -0.0957
    52     166.8633    202.4718     -0.5351      159.2707    202.5430     -0.5355
    53     206.1511    233.7263     -0.2333      198.5584    233.7083     -0.2323
    54     190.2560    205.5377     -0.1913      182.6633    205.5942     -0.1914
    55     194.1545    211.4147     -0.1482      186.5618    211.4903     -0.1485
    56      16.9327     35.7620      0.8621        9.3401     35.6031      0.8647
    57      17.5046     37.0847      0.2053        9.9119     37.1879      0.2041
    58       6.5923     63.8011      0.3458       -1.0004     63.8934      0.3428
    59     201.2075    206.9847     -0.0436      193.6149    206.9608     -0.0432
    60     203.3153    203.0401     -0.0965      195.7226    203.0381     -0.0964
    61     166.9465    202.5212     -0.5348      159.3538    202.5929     -0.5352
    62     206.0930    233.6655     -0.2338      198.5003    233.6474     -0.2328
    63     190.2550    205.5333     -0.1914      182.6624    205.5898     -0.1914
    64     194.1271    211.4261     -0.1472      186.5344    211.5017     -0.1475
    65    -140.7000     17.5267      0.4471     -148.2926     17.4942      0.4550
    66    -140.3165     19.9973      0.5104     -147.9092     20.0153      0.5166
    67    -140.6990     17.4974      0.4487     -148.2917     17.4645      0.4567
    68    -140.3124     19.9929      0.5088     -147.9051     20.0108      0.5150
    69    -140.6998     17.5454      0.4472     -148.2924     17.5129      0.4552
    70    -140.3142     19.9748      0.5101     -147.9069     19.9927      0.5163
    71    -140.6943     17.4837      0.4463     -148.2870     17.4511      0.4542
    72    -140.3282     19.9890      0.5089     -147.9209     20.0069      0.5152
    73    -141.8498     26.4995      0.7077     -149.4424     26.6228      0.6991
    74    -141.8488     26.5493      0.7083     -149.4414     26.6725      0.6998
 ---------------------------------------------------------------------------------
  IF SPAN.EQ.0, THEN SKEW IS ILL-DEFINED                                          
 ---------------------------------------------------------------------------------
 
 
     LOOP+:  cpu time**********: real time**********
    4ORBIT:  cpu time    0.0000: real time    0.0000
 BZINTS: Fermi energy:  0.571272;368.000000 electrons
         Band energy:***********;  BLOECHL correction:  0.000000

 total amount of memory used by VASP on root node   877040. kBytes
========================================================================

   base      :      30000. kBytes
   nonlr-proj:      27346. kBytes
   fftplans  :      10625. kBytes
   grid      :      62014. kBytes
   one-center:        600. kBytes
   wavefun   :     746455. kBytes
 
  
  
 General timing and accounting informations for this job:
 ========================================================
  
                  Total CPU time used (sec):   111260.164
                            User time (sec):   110665.216
                          System time (sec):      594.945
                         Elapsed time (sec):   111337.295
  
                   Maximum memory used (kb):     6193056.
                   Average memory used (kb):           0.
  
                          Minor page faults:    166860400
                          Major page faults:           25
                 Voluntary context switches:       208396
