   2    2    1    1
  3.9892878e+01   3.8353365e-10   3.8353362e-10   3.8353360e-10   5.0000000e-16
            1.000000e-04
  CAR
 DOS and projected DOS file by LOBSTER. Energy is shifted such that the Fermi level lies at 0 eV. 
      4.62525417     -14.12474583     6      -2.87474583       1.00000000
-11.25000   0.00000   4.00000
 -7.50000   1.60000  10.00000
 -3.75000   0.00000  10.00000
  0.00000   1.60000  16.00000
  3.75000   0.00000  16.00000
  7.50000   0.02418  16.09067
      7.50000000     -11.25000000     6      -2.87474583       1.00000000; Z=  9; 2s 2p_y 2p_z 2p_x 
-11.25000   0.00000   0.00000   0.00000   0.00000
 -7.50000   0.00320   0.00322   0.00322   0.00322
 -3.75000   0.00000   0.00000   0.00000   0.00000
  0.00000   0.00017   0.51635   0.51636   0.51634
  3.75000   0.00000   0.00000   0.00000   0.00000
  7.50000   0.00060   0.00037   0.00037   0.00037
      7.50000000     -11.25000000     6      -2.87474583       1.00000000; Z= 19; 3s 4s 3p_y 3p_z 3p_x 
-11.25000   0.00000   0.00000   0.00000   0.00000   0.00000
 -7.50000   0.00000   0.00040   0.52891   0.52891   0.52891
 -3.75000   0.00000   0.00000   0.00000   0.00000   0.00000
  0.00000   0.00005   0.04039   0.00345   0.00345   0.00345
  3.75000   0.00000   0.00000   0.00000   0.00000   0.00000
  7.50000   0.00004   0.02241   0.00000   0.00000   0.00000
