unknown system                          
   1.00000000000000     
     2.969072   -0.000523   -0.000907
    -0.987305    2.800110    0.000907
    -0.987305   -1.402326    2.423654
   Li
     1
Direct
  0.000000  0.000000  0.000000
 
   32   32   32
 -.46163122510E+02 -.45293832017E+02 -.43333808000E+02 -.40151914202E+02 -.35722149747E+02
 -.30376777665E+02 -.25126761952E+02 -.19101930336E+02 -.13764909600E+02 -.74054142992E+01
 -.71077983147E+01 -.78690929841E+01 -.59008229236E+01 -.59227003645E+01 -.49738848491E+01
 -.51860104225E+01 -.46690633781E+01 -.51860104225E+01 -.49738848491E+01 -.59227003645E+01
 -.59008229236E+01 -.78690929841E+01 -.71077983147E+01 -.74054142992E+01 -.13764909600E+02
 -.19101930336E+02 -.25126761952E+02 -.30376777665E+02 -.35722149747E+02 -.40151914202E+02
 -.43333808000E+02 -.45293832017E+02 -.45292852014E+02 -.44995596998E+02 -.43529817385E+02
 -.40461195158E+02 -.36556523526E+02 -.31498586110E+02 -.26528854039E+02 -.20555143037E+02
 -.15638282308E+02 -.86420687356E+01 -.66376701811E+01 -.81833692825E+01 -.62033418801E+01
 -.60159941736E+01 -.51414620038E+01 -.51459056213E+01 -.47625141850E+01 -.49934994014E+01
 -.50126985701E+01 -.55256118662E+01 -.59222214018E+01 -.69564428998E+01 -.78996303627E+01
 -.65794059013E+01 -.10872763418E+02 -.17403441349E+02 -.22423949274E+02 -.28210291700E+02
 -.33293620639E+02 -.38023799995E+02 -.41656378514E+02 -.44180567936E+02 -.43334079172E+02
 -.43530561374E+02 -.42499406422E+02 -.39985968794E+02 -.36397892330E+02 -.31774585146E+02
 -.27031078764E+02 -.21152259843E+02 -.16516727135E+02 -.96948612310E+01 -.65406185544E+01
 -.80591901866E+01 -.66409746253E+01 -.59384124366E+01 -.53727940800E+01 -.50105290784E+01
 -.48894543666E+01 -.47469390141E+01 -.50557473012E+01 -.50989066171E+01 -.59178648924E+01
 -.60873016644E+01 -.80335804218E+01 -.68683093349E+01 -.78669156101E+01 -.14494297406E+02
 -.19596063192E+02 -.25180294206E+02 -.30154150551E+02 -.35147176210E+02 -.38679117359E+02
 -.41658604738E+02 -.40151025346E+02 -.40460217426E+02 -.39984848325E+02 -.37635295963E+02
 -.34981865779E+02 -.30764935231E+02 -.26386682798E+02 -.21100943066E+02 -.16540250324E+02
 -.10149973805E+02 -.64855129609E+01 -.79547786085E+01 -.68640636719E+01 -.59455086247E+01
 -.54216740906E+01 -.50130056628E+01 -.48064962441E+01 -.47133083264E+01 -.48099393807E+01
 -.50129727738E+01 -.54313979499E+01 -.59465507352E+01 -.68756559062E+01 -.79742885903E+01
 -.64375083663E+01 -.10275745311E+02 -.16441800488E+02 -.21181359328E+02 -.26508272736E+02
 -.30733598738E+02 -.35147868486E+02 -.38026500420E+02 -.35720404640E+02 -.36554894126E+02
 -.36398474384E+02 -.34982815688E+02 -.32658049852E+02 -.28988791374E+02 -.25030867412E+02
 -.20156585064E+02 -.15785579711E+02 -.98460027782E+01 -.63368004170E+01 -.80367093842E+01
 -.68136054379E+01 -.60147748000E+01 -.53445997512E+01 -.50468280193E+01 -.46687179979E+01
 -.46818453490E+01 -.45692196896E+01 -.48867904680E+01 -.50183826453E+01 -.57080996171E+01
 -.60378069649E+01 -.75793146079E+01 -.74771845175E+01 -.66210348270E+01 -.12251192291E+02
 -.17166460311E+02 -.21928224961E+02 -.26506836138E+02 -.30151855875E+02 -.33294208364E+02
 -.30377730787E+02 -.31497741796E+02 -.31775229856E+02 -.30765097950E+02 -.28989088226E+02
 -.25897163187E+02 -.22732841479E+02 -.18446247989E+02 -.14491974994E+02 -.86377485077E+01
 -.63594632554E+01 -.81106618883E+01 -.66722233882E+01 -.59615527338E+01 -.53167046699E+01
 -.49388706188E+01 -.46477091033E+01 -.44847937113E+01 -.45117490845E+01 -.45449033130E+01
 -.48940428299E+01 -.51179020456E+01 -.58535084142E+01 -.62492953902E+01 -.79569720491E+01
 -.70158380149E+01 -.70861607788E+01 -.12848043708E+02 -.17166121604E+02 -.21183356770E+02
 -.25179921062E+02 -.28212592824E+02 -.25127886006E+02 -.26526729502E+02 -.27029925431E+02
 -.26387108000E+02 -.25031750783E+02 -.22733087234E+02 -.19846558574E+02 -.15995572594E+02
 -.12289195024E+02 -.69850046869E+01 -.68027735370E+01 -.80634558374E+01 -.63811804619E+01
 -.59211954732E+01 -.51596553048E+01 -.49128778013E+01 -.44788703769E+01 -.44400433606E+01
 -.42675247449E+01 -.44432391728E+01 -.45075601583E+01 -.49190081158E+01 -.52172584853E+01
 -.59216734347E+01 -.64727733789E+01 -.80466869015E+01 -.68476008890E+01 -.70862355093E+01
 -.12250857253E+02 -.16441807424E+02 -.19594821315E+02 -.22423103977E+02 -.19103145580E+02
 -.20555802986E+02 -.21151199916E+02 -.21101476318E+02 -.20157426971E+02 -.18446774036E+02
 -.15995709490E+02 -.13349968773E+02 -.89417720492E+01 -.59964056623E+01 -.77293497958E+01
 -.75331892903E+01 -.61845170668E+01 -.57123054624E+01 -.50692377882E+01 -.47635138983E+01
 -.43986740497E+01 -.42837458966E+01 -.41493442987E+01 -.42220593191E+01 -.43045558843E+01
 -.45674709479E+01 -.48749989019E+01 -.53390254639E+01 -.59058027626E+01 -.66032218986E+01
 -.80465268932E+01 -.70160036907E+01 -.66211983880E+01 -.10275658735E+02 -.14495117534E+02
 -.17402893787E+02 -.13764223401E+02 -.15639064779E+02 -.16516166802E+02 -.16538845525E+02
 -.15785275723E+02 -.14492447944E+02 -.12289736316E+02 -.89419326580E+01 -.60441139923E+01
 -.69969266759E+01 -.80867816666E+01 -.67294665995E+01 -.60433096857E+01 -.54080219955E+01
 -.49871207129E+01 -.45657039258E+01 -.43325010736E+01 -.41105387721E+01 -.40524617476E+01
 -.40165973970E+01 -.41276633396E+01 -.42736529858E+01 -.45568971361E+01 -.48943339876E+01
 -.53592659289E+01 -.59057790400E+01 -.64729462510E+01 -.79567486269E+01 -.74771302801E+01
 -.64374211610E+01 -.78668981011E+01 -.10872925577E+02 -.74052677419E+01 -.86417450325E+01
 -.96955576607E+01 -.10149976714E+02 -.98456220134E+01 -.86376070532E+01 -.69848897077E+01
 -.59964390611E+01 -.69969622432E+01 -.81332876380E+01 -.71667627122E+01 -.62596976083E+01
 -.57100580840E+01 -.52011891543E+01 -.47787592043E+01 -.44461961147E+01 -.41822750074E+01
 -.40130215253E+01 -.39057304287E+01 -.38914195991E+01 -.39341935517E+01 -.40702056140E+01
 -.42628755831E+01 -.45491292466E+01 -.48943638304E+01 -.53390126883E+01 -.59215566610E+01
 -.62494720243E+01 -.75794146082E+01 -.79743057378E+01 -.68681829362E+01 -.65794053932E+01
 -.71079903382E+01 -.66378073696E+01 -.65405960337E+01 -.64858267862E+01 -.63367032060E+01
 -.63590742012E+01 -.68026866838E+01 -.77293199895E+01 -.80867149555E+01 -.71667823436E+01
 -.63594257908E+01 -.58593648061E+01 -.53794897583E+01 -.49477294235E+01 -.45936420263E+01
 -.42876244047E+01 -.40662099547E+01 -.38935125898E+01 -.38063512576E+01 -.37639472807E+01
 -.38056219456E+01 -.38878574864E+01 -.40548181782E+01 -.42628885299E+01 -.45568534911E+01
 -.48750323488E+01 -.52173427412E+01 -.58533582503E+01 -.60376867485E+01 -.68756919545E+01
 -.80337340657E+01 -.78997096100E+01 -.78689252683E+01 -.81832056114E+01 -.80590308529E+01
 -.79546638852E+01 -.80368912653E+01 -.81109099745E+01 -.80633810627E+01 -.75330843557E+01
 -.67294823451E+01 -.62596527989E+01 -.58593536034E+01 -.54460186002E+01 -.50452667290E+01
 -.47061421310E+01 -.43913178364E+01 -.41488376861E+01 -.39393537674E+01 -.38068533790E+01
 -.37083887894E+01 -.36862799551E+01 -.36944949611E+01 -.37776964336E+01 -.38878658288E+01
 -.40701856106E+01 -.42737049861E+01 -.45674271498E+01 -.49189445190E+01 -.51180441504E+01
 -.57082244831E+01 -.59464957022E+01 -.60871392864E+01 -.69563102419E+01 -.59009970910E+01
 -.62035266909E+01 -.66411588908E+01 -.68641201756E+01 -.68134978149E+01 -.66720746300E+01
 -.63812479039E+01 -.61845814987E+01 -.60432514324E+01 -.57100716760E+01 -.53794950567E+01
 -.50452723575E+01 -.47474878459E+01 -.44543587008E+01 -.42173450437E+01 -.39993354078E+01
 -.38460601449E+01 -.37175769748E+01 -.36561161844E+01 -.36185904602E+01 -.36467568169E+01
 -.36944972886E+01 -.38056119738E+01 -.39342146501E+01 -.41276110911E+01 -.43046036085E+01
 -.45076160029E+01 -.48939014921E+01 -.50182661284E+01 -.54314626240E+01 -.59180434466E+01
 -.59223766411E+01 -.59225203175E+01 -.60158103567E+01 -.59382266870E+01 -.59454477348E+01
 -.60148668377E+01 -.59617041732E+01 -.59211603379E+01 -.57122652692E+01 -.54080901094E+01
 -.52011871987E+01 -.49477369341E+01 -.47061371361E+01 -.44543591362E+01 -.42434743521E+01
 -.40385886551E+01 -.38864902880E+01 -.37499302140E+01 -.36710422136E+01 -.36099536545E+01
 -.36067917211E+01 -.36185910165E+01 -.36862773580E+01 -.37639578888E+01 -.38914001849E+01
 -.40166501053E+01 -.42220116772E+01 -.44431905514E+01 -.45450488708E+01 -.48869020053E+01
 -.50129055122E+01 -.50987210143E+01 -.55254497967E+01 -.49740735741E+01 -.51416466136E+01
 -.53729870755E+01 -.54217459173E+01 -.53445105901E+01 -.53165504400E+01 -.51596871072E+01
 -.50692821668E+01 -.49870614879E+01 -.47787672750E+01 -.45936326086E+01 -.43913220717E+01
 -.42173446224E+01 -.40385889919E+01 -.39028864704E+01 -.37743861886E+01 -.36956932567E+01
 -.36290175229E+01 -.36139090843E+01 -.36099540396E+01 -.36561155037E+01 -.37083921123E+01
 -.38063411556E+01 -.39057493110E+01 -.40524101719E+01 -.41493936524E+01 -.42675698309E+01
 -.45116023890E+01 -.45691156034E+01 -.48100121937E+01 -.50559407030E+01 -.50128692614E+01
 -.51858206538E+01 -.51457259981E+01 -.50103354026E+01 -.50129325656E+01 -.50469221491E+01
 -.49390266561E+01 -.49128458183E+01 -.47634677993E+01 -.45657597601E+01 -.44461846326E+01
 -.42876348913E+01 -.41488343584E+01 -.39993364148E+01 -.38864899088E+01 -.37743864110E+01
 -.37066122601E+01 -.36463936882E+01 -.36334649879E+01 -.36290177400E+01 -.36710417881E+01
 -.37175780770E+01 -.38068502879E+01 -.38935232910E+01 -.40130051052E+01 -.41105916403E+01
 -.42836977412E+01 -.44400040924E+01 -.44849449295E+01 -.46819467271E+01 -.47132352610E+01
 -.47467449391E+01 -.49933264173E+01 -.46692566868E+01 -.47626932170E+01 -.48896515540E+01
 -.48065724853E+01 -.46686226140E+01 -.46475571511E+01 -.44789075018E+01 -.43987231798E+01
 -.43324485804E+01 -.41822903619E+01 -.40662001150E+01 -.39393575056E+01 -.38460593726E+01
 -.37499308763E+01 -.36956930564E+01 -.36463937591E+01 -.36426139126E+01 -.36463937591E+01
 -.36956930564E+01 -.37499308763E+01 -.38460593726E+01 -.39393575056E+01 -.40662001150E+01
 -.41822903619E+01 -.43324485804E+01 -.43987231798E+01 -.44789075018E+01 -.46475571511E+01
 -.46686226140E+01 -.48065724853E+01 -.48896515540E+01 -.47626932170E+01 -.51858206538E+01
 -.49933264173E+01 -.47467449391E+01 -.47132352610E+01 -.46819467271E+01 -.44849449295E+01
 -.44400040924E+01 -.42836977412E+01 -.41105916403E+01 -.40130051052E+01 -.38935232910E+01
 -.38068502879E+01 -.37175780770E+01 -.36710417881E+01 -.36290177400E+01 -.36334649879E+01
 -.36463936882E+01 -.37066122601E+01 -.37743864110E+01 -.38864899088E+01 -.39993364148E+01
 -.41488343584E+01 -.42876348913E+01 -.44461846326E+01 -.45657597601E+01 -.47634677993E+01
 -.49128458183E+01 -.49390266561E+01 -.50469221491E+01 -.50129325656E+01 -.50103354026E+01
 -.51457259981E+01 -.49740735741E+01 -.50128692614E+01 -.50559407030E+01 -.48100121937E+01
 -.45691156034E+01 -.45116023890E+01 -.42675698309E+01 -.41493936524E+01 -.40524101719E+01
 -.39057493110E+01 -.38063411556E+01 -.37083921123E+01 -.36561155037E+01 -.36099540396E+01
 -.36139090843E+01 -.36290175229E+01 -.36956932567E+01 -.37743861886E+01 -.39028864704E+01
 -.40385889919E+01 -.42173446224E+01 -.43913220717E+01 -.45936326086E+01 -.47787672750E+01
 -.49870614879E+01 -.50692821668E+01 -.51596871072E+01 -.53165504400E+01 -.53445105901E+01
 -.54217459173E+01 -.53729870755E+01 -.51416466136E+01 -.59225203175E+01 -.55254497967E+01
 -.50987210143E+01 -.50129055122E+01 -.48869020053E+01 -.45450488708E+01 -.44431905514E+01
 -.42220116772E+01 -.40166501053E+01 -.38914001849E+01 -.37639578888E+01 -.36862773580E+01
 -.36185910165E+01 -.36067917211E+01 -.36099536545E+01 -.36710422136E+01 -.37499302140E+01
 -.38864902880E+01 -.40385886551E+01 -.42434743521E+01 -.44543591362E+01 -.47061371361E+01
 -.49477369341E+01 -.52011871987E+01 -.54080901094E+01 -.57122652692E+01 -.59211603379E+01
 -.59617041732E+01 -.60148668377E+01 -.59454477348E+01 -.59382266870E+01 -.60158103567E+01
 -.59009970910E+01 -.59223766411E+01 -.59180434466E+01 -.54314626240E+01 -.50182661284E+01
 -.48939014921E+01 -.45076160029E+01 -.43046036085E+01 -.41276110911E+01 -.39342146501E+01
 -.38056119738E+01 -.36944972886E+01 -.36467568169E+01 -.36185904602E+01 -.36561161844E+01
 -.37175769748E+01 -.38460601449E+01 -.39993354078E+01 -.42173450437E+01 -.44543587008E+01
 -.47474878459E+01 -.50452723575E+01 -.53794950567E+01 -.57100716760E+01 -.60432514324E+01
 -.61845814987E+01 -.63812479039E+01 -.66720746300E+01 -.68134978149E+01 -.68641201756E+01
 -.66411588908E+01 -.62035266909E+01 -.78689252683E+01 -.69563102419E+01 -.60871392864E+01
 -.59464957022E+01 -.57082244831E+01 -.51180441504E+01 -.49189445190E+01 -.45674271498E+01
 -.42737049861E+01 -.40701856106E+01 -.38878658288E+01 -.37776964336E+01 -.36944949611E+01
 -.36862799551E+01 -.37083887894E+01 -.38068533790E+01 -.39393537674E+01 -.41488376861E+01
 -.43913178364E+01 -.47061421310E+01 -.50452667290E+01 -.54460186002E+01 -.58593536034E+01
 -.62596527989E+01 -.67294823451E+01 -.75330843557E+01 -.80633810627E+01 -.81109099745E+01
 -.80368912653E+01 -.79546638852E+01 -.80590308529E+01 -.81832056114E+01 -.71079903382E+01
 -.78997096100E+01 -.80337340657E+01 -.68756919545E+01 -.60376867485E+01 -.58533582503E+01
 -.52173427412E+01 -.48750323488E+01 -.45568534911E+01 -.42628885299E+01 -.40548181782E+01
 -.38878574864E+01 -.38056219456E+01 -.37639472807E+01 -.38063512576E+01 -.38935125898E+01
 -.40662099547E+01 -.42876244047E+01 -.45936420263E+01 -.49477294235E+01 -.53794897583E+01
 -.58593648061E+01 -.63594257908E+01 -.71667823436E+01 -.80867149555E+01 -.77293199895E+01
 -.68026866838E+01 -.63590742012E+01 -.63367032060E+01 -.64858267862E+01 -.65405960337E+01
 -.66378073696E+01 -.74052677419E+01 -.65794053932E+01 -.68681829362E+01 -.79743057378E+01
 -.75794146082E+01 -.62494720243E+01 -.59215566610E+01 -.53390126883E+01 -.48943638304E+01
 -.45491292466E+01 -.42628755831E+01 -.40702056140E+01 -.39341935517E+01 -.38914195991E+01
 -.39057304287E+01 -.40130215253E+01 -.41822750074E+01 -.44461961147E+01 -.47787592043E+01
 -.52011891543E+01 -.57100580840E+01 -.62596976083E+01 -.71667627122E+01 -.81332876380E+01
 -.69969622432E+01 -.59964390611E+01 -.69848897077E+01 -.86376070532E+01 -.98456220134E+01
 -.10149976714E+02 -.96955576607E+01 -.86417450325E+01 -.13764223401E+02 -.10872925577E+02
 -.78668981011E+01 -.64374211610E+01 -.74771302801E+01 -.79567486269E+01 -.64729462510E+01
 -.59057790400E+01 -.53592659289E+01 -.48943339876E+01 -.45568971361E+01 -.42736529858E+01
 -.41276633396E+01 -.40165973970E+01 -.40524617476E+01 -.41105387721E+01 -.43325010736E+01
 -.45657039258E+01 -.49871207129E+01 -.54080219955E+01 -.60433096857E+01 -.67294665995E+01
 -.80867816666E+01 -.69969266759E+01 -.60441139923E+01 -.89419326580E+01 -.12289736316E+02
 -.14492447944E+02 -.15785275723E+02 -.16538845525E+02 -.16516166802E+02 -.15639064779E+02
 -.19103145580E+02 -.17402893787E+02 -.14495117534E+02 -.10275658735E+02 -.66211983880E+01
 -.70160036907E+01 -.80465268932E+01 -.66032218986E+01 -.59058027626E+01 -.53390254639E+01
 -.48749989019E+01 -.45674709479E+01 -.43045558843E+01 -.42220593191E+01 -.41493442987E+01
 -.42837458966E+01 -.43986740497E+01 -.47635138983E+01 -.50692377882E+01 -.57123054624E+01
 -.61845170668E+01 -.75331892903E+01 -.77293497958E+01 -.59964056623E+01 -.89417720492E+01
 -.13349968773E+02 -.15995709490E+02 -.18446774036E+02 -.20157426971E+02 -.21101476318E+02
 -.21151199916E+02 -.20555802986E+02 -.25127886006E+02 -.22423103977E+02 -.19594821315E+02
 -.16441807424E+02 -.12250857253E+02 -.70862355093E+01 -.68476008890E+01 -.80466869015E+01
 -.64727733789E+01 -.59216734347E+01 -.52172584853E+01 -.49190081158E+01 -.45075601583E+01
 -.44432391728E+01 -.42675247449E+01 -.44400433606E+01 -.44788703769E+01 -.49128778013E+01
 -.51596553048E+01 -.59211954732E+01 -.63811804619E+01 -.80634558374E+01 -.68027735370E+01
 -.69850046869E+01 -.12289195024E+02 -.15995572594E+02 -.19846558574E+02 -.22733087234E+02
 -.25031750783E+02 -.26387108000E+02 -.27029925431E+02 -.26526729502E+02 -.30377730787E+02
 -.28212592824E+02 -.25179921062E+02 -.21183356770E+02 -.17166121604E+02 -.12848043708E+02
 -.70861607788E+01 -.70158380149E+01 -.79569720491E+01 -.62492953902E+01 -.58535084142E+01
 -.51179020456E+01 -.48940428299E+01 -.45449033130E+01 -.45117490845E+01 -.44847937113E+01
 -.46477091033E+01 -.49388706188E+01 -.53167046699E+01 -.59615527338E+01 -.66722233882E+01
 -.81106618883E+01 -.63594632554E+01 -.86377485077E+01 -.14491974994E+02 -.18446247989E+02
 -.22732841479E+02 -.25897163187E+02 -.28989088226E+02 -.30765097950E+02 -.31775229856E+02
 -.31497741796E+02 -.35720404640E+02 -.33294208364E+02 -.30151855875E+02 -.26506836138E+02
 -.21928224961E+02 -.17166460311E+02 -.12251192291E+02 -.66210348270E+01 -.74771845175E+01
 -.75793146079E+01 -.60378069649E+01 -.57080996171E+01 -.50183826453E+01 -.48867904680E+01
 -.45692196896E+01 -.46818453490E+01 -.46687179979E+01 -.50468280193E+01 -.53445997512E+01
 -.60147748000E+01 -.68136054379E+01 -.80367093842E+01 -.63368004170E+01 -.98460027782E+01
 -.15785579711E+02 -.20156585064E+02 -.25030867412E+02 -.28988791374E+02 -.32658049852E+02
 -.34982815688E+02 -.36398474384E+02 -.36554894126E+02 -.40151025346E+02 -.38026500420E+02
 -.35147868486E+02 -.30733598738E+02 -.26508272736E+02 -.21181359328E+02 -.16441800488E+02
 -.10275745311E+02 -.64375083663E+01 -.79742885903E+01 -.68756559062E+01 -.59465507352E+01
 -.54313979499E+01 -.50129727738E+01 -.48099393807E+01 -.47133083264E+01 -.48064962441E+01
 -.50130056628E+01 -.54216740906E+01 -.59455086247E+01 -.68640636719E+01 -.79547786085E+01
 -.64855129609E+01 -.10149973805E+02 -.16540250324E+02 -.21100943066E+02 -.26386682798E+02
 -.30764935231E+02 -.34981865779E+02 -.37635295963E+02 -.39984848325E+02 -.40460217426E+02
 -.43334079172E+02 -.41658604738E+02 -.38679117359E+02 -.35147176210E+02 -.30154150551E+02
 -.25180294206E+02 -.19596063192E+02 -.14494297406E+02 -.78669156101E+01 -.68683093349E+01
 -.80335804218E+01 -.60873016644E+01 -.59178648924E+01 -.50989066171E+01 -.50557473012E+01
 -.47469390141E+01 -.48894543666E+01 -.50105290784E+01 -.53727940800E+01 -.59384124366E+01
 -.66409746253E+01 -.80591901866E+01 -.65406185544E+01 -.96948612310E+01 -.16516727135E+02
 -.21152259843E+02 -.27031078764E+02 -.31774585146E+02 -.36397892330E+02 -.39985968794E+02
 -.42499406422E+02 -.43530561374E+02 -.45292852014E+02 -.44180567936E+02 -.41656378514E+02
 -.38023799995E+02 -.33293620639E+02 -.28210291700E+02 -.22423949274E+02 -.17403441349E+02
 -.10872763418E+02 -.65794059013E+01 -.78996303627E+01 -.69564428998E+01 -.59222214018E+01
 -.55256118662E+01 -.50126985701E+01 -.49934994014E+01 -.47625141850E+01 -.51459056213E+01
 -.51414620038E+01 -.60159941736E+01 -.62033418801E+01 -.81833692825E+01 -.66376701811E+01
 -.86420687356E+01 -.15638282308E+02 -.20555143037E+02 -.26528854039E+02 -.31498586110E+02
 -.36556523526E+02 -.40461195158E+02 -.43529817385E+02 -.44995596998E+02 -.45292848544E+02
 -.44995596037E+02 -.43529820312E+02 -.40461197572E+02 -.36556524648E+02 -.31498584611E+02
 -.26528855899E+02 -.20555142058E+02 -.15638283173E+02 -.86420630104E+01 -.66376682935E+01
 -.81833729059E+01 -.62033401519E+01 -.60159949014E+01 -.51414612745E+01 -.51459064041E+01
 -.47625138377E+01 -.49934993346E+01 -.50126985103E+01 -.55256120322E+01 -.59222218043E+01
 -.69564415678E+01 -.78996312431E+01 -.65794110647E+01 -.10872764149E+02 -.17403441270E+02
 -.22423949114E+02 -.28210291460E+02 -.33293620975E+02 -.38023801306E+02 -.41656377226E+02
 -.44180563176E+02 -.44999516574E+02 -.45337774769E+02 -.44174467119E+02 -.41610373346E+02
 -.38257217715E+02 -.33341862617E+02 -.28166531878E+02 -.22448111233E+02 -.17359090743E+02
 -.10833276605E+02 -.66060029357E+01 -.79017649888E+01 -.69405196311E+01 -.59375514970E+01
 -.55075264542E+01 -.50300437479E+01 -.49748314980E+01 -.47822759219E+01 -.51251024996E+01
 -.51659542248E+01 -.59898717386E+01 -.62374758550E+01 -.81486954658E+01 -.66628058164E+01
 -.86601256394E+01 -.15633225575E+02 -.20531976743E+02 -.26648101884E+02 -.31549324343E+02
 -.36561710343E+02 -.40692643046E+02 -.43552726841E+02 -.43534605288E+02 -.44176253415E+02
 -.43492763066E+02 -.41541097508E+02 -.38284313398E+02 -.33958074989E+02 -.29104380033E+02
 -.23692644479E+02 -.18266232117E+02 -.12504941197E+02 -.69805297145E+01 -.73824041628E+01
 -.75779355455E+01 -.58766136891E+01 -.57761334217E+01 -.49678325038E+01 -.50711156173E+01
 -.46711407784E+01 -.50684837865E+01 -.49761007432E+01 -.57656591031E+01 -.59005889412E+01
 -.75448544814E+01 -.74488853201E+01 -.68978835082E+01 -.12582267459E+02 -.18280072085E+02
 -.23633901683E+02 -.29064381341E+02 -.34048778766E+02 -.38304625425E+02 -.41516224184E+02
 -.40470517553E+02 -.41616511398E+02 -.41545512984E+02 -.40087230290E+02 -.37319297280E+02
 -.33403936651E+02 -.28786386237E+02 -.23908385589E+02 -.18508595106E+02 -.13369506981E+02
 -.72357205169E+01 -.71196229829E+01 -.78295849443E+01 -.59895587374E+01 -.58112267677E+01
 -.50555906323E+01 -.49707090172E+01 -.47223935172E+01 -.48047413753E+01 -.49892770045E+01
 -.52596419735E+01 -.59175006733E+01 -.64101638404E+01 -.81017919677E+01 -.65873373018E+01
 -.87952726739E+01 -.15469617743E+02 -.20199720455E+02 -.25697793653E+02 -.30165006609E+02
 -.35023918194E+02 -.38117346988E+02 -.36568384426E+02 -.38265080205E+02 -.38288607203E+02
 -.37319460505E+02 -.34652986605E+02 -.31761747867E+02 -.27585690213E+02 -.23221404679E+02
 -.18108661669E+02 -.13291820986E+02 -.71946894548E+01 -.70679340714E+01 -.78739549697E+01
 -.60664973572E+01 -.58121023744E+01 -.50638644402E+01 -.49297277964E+01 -.46385372229E+01
 -.46946605485E+01 -.47757914140E+01 -.50452751455E+01 -.55160175002E+01 -.60002513152E+01
 -.71617435539E+01 -.78397866788E+01 -.63901807796E+01 -.11104837535E+02 -.16658832496E+02
 -.21453980635E+02 -.26324333937E+02 -.30240259895E+02 -.34044729983E+02 -.31508141874E+02
 -.33352874548E+02 -.33964694856E+02 -.33409023077E+02 -.31764022906E+02 -.29073446784E+02
 -.25390075056E+02 -.21418852260E+02 -.17056136669E+02 -.12283581523E+02 -.68397361191E+01
 -.71726333896E+01 -.78286158568E+01 -.60102926168E+01 -.58307748729E+01 -.49655622672E+01
 -.49424073544E+01 -.44608714996E+01 -.46625448403E+01 -.44711287877E+01 -.49375731869E+01
 -.49986513853E+01 -.58128823795E+01 -.60802256556E+01 -.77701455807E+01 -.72722080125E+01
 -.67915053090E+01 -.12431604044E+02 -.17071418542E+02 -.21396182887E+02 -.25757540237E+02
 -.29096132063E+02 -.26539305319E+02 -.28177177110E+02 -.29112921318E+02 -.28790066553E+02
 -.27588387466E+02 -.25390855598E+02 -.22675509169E+02 -.19101757397E+02 -.15325194778E+02
 -.10401821301E+02 -.62619525937E+01 -.76572197125E+01 -.74400143543E+01 -.60567261434E+01
 -.56294780180E+01 -.50077037643E+01 -.47492831119E+01 -.44692989536E+01 -.44098913167E+01
 -.44161942484E+01 -.45569057011E+01 -.48503832451E+01 -.51953277934E+01 -.58292572714E+01
 -.63871585925E+01 -.79477847798E+01 -.70003261708E+01 -.69388970656E+01 -.12427089987E+02
 -.16681864729E+02 -.20155423928E+02 -.23622628218E+02 -.20564308736E+02 -.22459106289E+02
 -.23703682760E+02 -.23916299992E+02 -.23226153281E+02 -.21422023579E+02 -.19103656590E+02
 -.15990221901E+02 -.12781277416E+02 -.78824422701E+01 -.62603274964E+01 -.81298816502E+01
 -.68655507883E+01 -.60503885144E+01 -.54011126276E+01 -.49785887823E+01 -.45939398058E+01
 -.43921170335E+01 -.42544432289E+01 -.42484098780E+01 -.43479204794E+01 -.45333388675E+01
 -.48799340195E+01 -.52675200913E+01 -.58970766997E+01 -.64987541481E+01 -.80496638569E+01
 -.69889994290E+01 -.68080099065E+01 -.11092503284E+02 -.15494743416E+02 -.18320487180E+02
 -.15651435474E+02 -.17366484294E+02 -.18274033087E+02 -.18515556452E+02 -.18113830744E+02
 -.17058987728E+02 -.15326646928E+02 -.12782542384E+02 -.90389436674E+01 -.59431490237E+01
 -.74459122246E+01 -.78395738690E+01 -.64210198618E+01 -.58625425576E+01 -.52314296985E+01
 -.48495450330E+01 -.44733869869E+01 -.42774689401E+01 -.41146567282E+01 -.41008413572E+01
 -.41335079844E+01 -.43024167195E+01 -.45281806129E+01 -.48902540451E+01 -.53228481385E+01
 -.59213259250E+01 -.64929356134E+01 -.79654768183E+01 -.72462636940E+01 -.64062821586E+01
 -.87627364133E+01 -.12544954364E+02 -.86531215644E+01 -.10847306207E+02 -.12516895654E+02
 -.13380781931E+02 -.13300834828E+02 -.12290814692E+02 -.10407291438E+02 -.78851266550E+01
 -.59431980976E+01 -.70323921241E+01 -.81076071227E+01 -.69563828649E+01 -.61225935829E+01
 -.55722574617E+01 -.50651312318E+01 -.46787203409E+01 -.43575502192E+01 -.41465579281E+01
 -.39964092849E+01 -.39535695642E+01 -.39653626316E+01 -.40852345892E+01 -.42572203654E+01
 -.45441881917E+01 -.48780738748E+01 -.53222699843E+01 -.59028534492E+01 -.63711087744E+01
 -.77923292663E+01 -.78368259826E+01 -.65972780617E+01 -.69546033634E+01 -.66355750675E+01
 -.66076690922E+01 -.69846117455E+01 -.72398876462E+01 -.71995444504E+01 -.68432053941E+01
 -.62626326007E+01 -.62591343950E+01 -.74448086422E+01 -.81077023162E+01 -.71822292438E+01
 -.62946183261E+01 -.57968751797E+01 -.52722024522E+01 -.48711184440E+01 -.44988713737E+01
 -.42372627646E+01 -.40142553475E+01 -.38960365348E+01 -.38174118983E+01 -.38379049671E+01
 -.38968109359E+01 -.40534685862E+01 -.42472327126E+01 -.45453955431E+01 -.48893601738E+01
 -.52639791500E+01 -.58410472338E+01 -.60654054806E+01 -.71514700142E+01 -.81066383680E+01
 -.74014963865E+01 -.81839002407E+01 -.78985942377E+01 -.73786245618E+01 -.71167339325E+01
 -.70644454630E+01 -.71694541904E+01 -.76552802074E+01 -.81294058999E+01 -.78404565891E+01
 -.69569279416E+01 -.62947630997E+01 -.58722924445E+01 -.53983022528E+01 -.50077718186E+01
 -.46349235036E+01 -.43460693202E+01 -.40892365176E+01 -.39179426148E+01 -.37833939203E+01
 -.37318838966E+01 -.37156959381E+01 -.37793227980E+01 -.38757094610E+01 -.40534590713E+01
 -.42560354188E+01 -.45292158027E+01 -.48829673667E+01 -.51854278233E+01 -.58240879632E+01
 -.60149888400E+01 -.64056203628E+01 -.75740744903E+01 -.62064397194E+01 -.69452265642E+01
 -.75818851963E+01 -.78320544135E+01 -.78766069988E+01 -.78310369598E+01 -.74420367448E+01
 -.68671998140E+01 -.64216165745E+01 -.61228825878E+01 -.57969804705E+01 -.53983687922E+01
 -.50578925405E+01 -.47149982470E+01 -.44324765652E+01 -.41699565505E+01 -.39751924311E+01
 -.38097116008E+01 -.37140874899E+01 -.36490730792E+01 -.36519574402E+01 -.36823574552E+01
 -.37790437015E+01 -.38970517379E+01 -.40862293677E+01 -.43014209470E+01 -.45304112782E+01
 -.48591504145E+01 -.49896830595E+01 -.54999779683E+01 -.59195908072E+01 -.58816623822E+01
 -.60162552503E+01 -.59369979921E+01 -.58767827943E+01 -.59906603280E+01 -.60669427744E+01
 -.60107144290E+01 -.60571341568E+01 -.60504829404E+01 -.58629224280E+01 -.55724606885E+01
 -.52723872556E+01 -.50078112866E+01 -.47150267757E+01 -.44650130306E+01 -.42199811273E+01
 -.40276567411E+01 -.38542554282E+01 -.37391084663E+01 -.36477148321E+01 -.36151334442E+01
 -.36050486931E+01 -.36518523931E+01 -.37160800074E+01 -.38376165694E+01 -.39643574614E+01
 -.41346457073E+01 -.43507527795E+01 -.45490379197E+01 -.49447547160E+01 -.50615404054E+01
 -.52594038151E+01 -.57790663235E+01 -.51429923690E+01 -.55095987110E+01 -.57775110667E+01
 -.58118623919E+01 -.58134034671E+01 -.58317641085E+01 -.56301404513E+01 -.54018162306E+01
 -.52316593947E+01 -.50653638907E+01 -.48711624581E+01 -.46349954701E+01 -.44324592857E+01
 -.42199813568E+01 -.40482318255E+01 -.38850938072E+01 -.37702893705E+01 -.36719561810E+01
 -.36246023999E+01 -.35947892815E+01 -.36150890408E+01 -.36492279763E+01 -.37314447354E+01
 -.38176912365E+01 -.39546599810E+01 -.40995000279E+01 -.42455681920E+01 -.44234219228E+01
 -.44654903977E+01 -.47599049518E+01 -.49883269099E+01 -.49660652194E+01 -.51456783797E+01
 -.50294934440E+01 -.49679836985E+01 -.50562492105E+01 -.50636151264E+01 -.49655711015E+01
 -.50078759041E+01 -.49785112317E+01 -.48497269099E+01 -.46787136726E+01 -.44989480324E+01
 -.43460110175E+01 -.41699499985E+01 -.40276009226E+01 -.38850751535E+01 -.37834329848E+01
 -.36920096903E+01 -.36455743607E+01 -.36124788770E+01 -.36245760284E+01 -.36477883911E+01
 -.37138955404E+01 -.37838819791E+01 -.38957906251E+01 -.39951913956E+01 -.41162555802E+01
 -.42574219574E+01 -.44030837504E+01 -.46667147631E+01 -.47097535245E+01 -.48063313544E+01
 -.50761574935E+01 -.47633715082E+01 -.49758417853E+01 -.50713371145E+01 -.49705214967E+01
 -.49305215419E+01 -.49427603912E+01 -.47493764987E+01 -.45941939523E+01 -.44732945303E+01
 -.43575764819E+01 -.42371179222E+01 -.40891968603E+01 -.39750639587E+01 -.38541951583E+01
 -.37702077600E+01 -.36919799588E+01 -.36551618834E+01 -.36290471049E+01 -.36455563889E+01
 -.36720034060E+01 -.37390097911E+01 -.38099420749E+01 -.39174005881E+01 -.40144536096E+01
 -.41479554361E+01 -.42755462089E+01 -.43888686482E+01 -.44759027547E+01 -.44582532633E+01
 -.46246317953E+01 -.47206626235E+01 -.46653673199E+01 -.49925685460E+01 -.47813589353E+01
 -.46711317880E+01 -.47226761866E+01 -.46376787348E+01 -.44605318229E+01 -.44691519234E+01
 -.43917287396E+01 -.42773634644E+01 -.41462756332E+01 -.40141408429E+01 -.39177037912E+01
 -.38095908269E+01 -.37389342683E+01 -.36718646286E+01 -.36454797441E+01 -.36290137105E+01
 -.36551465067E+01 -.36920460372E+01 -.37702190723E+01 -.38543844832E+01 -.39749159779E+01
 -.40898574761E+01 -.42371373371E+01 -.43559089779E+01 -.44757457290E+01 -.45976245528E+01
 -.47426412268E+01 -.49432261288E+01 -.49419773439E+01 -.49720560606E+01 -.50751349730E+01
 -.50131571073E+01 -.51253779652E+01 -.50676929931E+01 -.48037839423E+01 -.46950350316E+01
 -.46622835784E+01 -.44094704888E+01 -.42542901099E+01 -.41142246655E+01 -.39961802051E+01
 -.38956429334E+01 -.37831797221E+01 -.37137896614E+01 -.36475465514E+01 -.36244050934E+01
 -.36123769240E+01 -.36454617295E+01 -.36920162572E+01 -.37833706212E+01 -.38851972729E+01
 -.40274883526E+01 -.41702977426E+01 -.43453168643E+01 -.44988677876E+01 -.46806968064E+01
 -.48465492554E+01 -.49742367431E+01 -.50147307487E+01 -.49670626402E+01 -.50539637799E+01