 vasp.5.3.5 31Mar14 (build Oct 13 2014 11:41:49) complex
 executed on              unknown date 2014.11.15  10:23:05
 running on   32 total cores
 distrk:  each k-point on   32 cores,    1 groups
 distr:  one band on NCORES_PER_BAND=   1 cores,   32 groups


--------------------------------------------------------------------------------------------------------


 INCAR:
 POTCAR:   PAW_PBE Si 05Jan2001
 POTCAR:   PAW_PBE C 08Apr2002

 -----------------------------------------------------------------------------
|                                                                             |
|           W    W    AA    RRRRR   N    N  II  N    N   GGGG   !!!           |
|           W    W   A  A   R    R  NN   N  II  NN   N  G    G  !!!           |
|           W    W  A    A  R    R  N N  N  II  N N  N  G       !!!           |
|           W WW W  AAAAAA  RRRRR   N  N N  II  N  N N  G  GGG   !            |
|           WW  WW  A    A  R   R   N   NN  II  N   NN  G    G                |
|           W    W  A    A  R    R  N    N  II  N    N   GGGG   !!!           |
|                                                                             |
|      For optimal performance we recommend to set                            |
|        NCORE= 4 - approx SQRT( number of cores)                             |
|      NCORE specifies how many cores store one orbital (NPAR=cpu/NCORE).     |
|      This setting can  greatly improve the performance of VASP for DFT.     |
|      The default, NPAR=number of cores might be grossly inefficient         |
|      on modern multi-core architectures or massively parallel machines.     |
|      Do your own testing !!!!                                               |
|      Unfortunately you need to use the default for GW and RPA calculations. |
|      (for HF NCORE is supported but not extensively tested yet)             |
|                                                                             |
 -----------------------------------------------------------------------------

 POTCAR:   PAW_PBE Si 05Jan2001
   VRHFIN =Si: s2p2
   LEXCH  = PE
   EATOM  =   103.0669 eV,    7.5752 Ry

   TITEL  = PAW_PBE Si 05Jan2001
   LULTRA =        F    use ultrasoft PP ?
   IUNSCR =        1    unscreen: 0-lin 1-nonlin 2-no
   RPACOR =    1.500    partial core radius
   POMASS =   28.085; ZVAL   =    4.000    mass and valenz
   RCORE  =    1.900    outmost cutoff radius
   RWIGS  =    2.480; RWIGS  =    1.312    wigner-seitz radius (au A)
   ENMAX  =  245.345; ENMIN  =  184.009 eV
   ICORE  =        2    local potential
   LCOR   =        T    correct aug charges
   LPAW   =        T    paw PP
   EAUG   =  322.069
   DEXC   =    -.007
   RMAX   =    2.944    core radius for proj-oper
   RAUG   =    1.300    factor for augmentation sphere
   RDEP   =    1.993    radius for radial grids
   QCUT   =   -4.246; QGAM   =    8.493    optimization parameters

   Description
     l     E      TYP  RCUT    TYP  RCUT
     0   .000     23  1.900
     0   .000     23  1.900
     1   .000     23  1.900
     1   .000     23  1.900
     2   .000      7  1.900
  local pseudopotential read in
  partial core-charges read in
  atomic valenz-charges read in
  non local Contribution for L= 0  read in
    real space projection operators read in
  non local Contribution for L= 0  read in
    real space projection operators read in
  non local Contribution for L= 1  read in
    real space projection operators read in
  non local Contribution for L= 1  read in
    real space projection operators read in
    PAW grid and wavefunctions read in

   number of l-projection  operators is LMAX  = 4
   number of lm-projection operators is LMMAX = 8

 POTCAR:   PAW_PBE C 08Apr2002
   VRHFIN =C: s2p2
   LEXCH  = PE
   EATOM  =   147.1560 eV,   10.8157 Ry

   TITEL  = PAW_PBE C 08Apr2002
   LULTRA =        F    use ultrasoft PP ?
   IUNSCR =        0    unscreen: 0-lin 1-nonlin 2-no
   RPACOR =     .000    partial core radius
   POMASS =   12.011; ZVAL   =    4.000    mass and valenz
   RCORE  =    1.500    outmost cutoff radius
   RWIGS  =    1.630; RWIGS  =     .863    wigner-seitz radius (au A)
   ENMAX  =  400.000; ENMIN  =  300.000 eV
   ICORE  =        2    local potential
   LCOR   =        T    correct aug charges
   LPAW   =        T    paw PP
   EAUG   =  644.873
   DEXC   =     .000
   RMAX   =    2.266    core radius for proj-oper
   RAUG   =    1.300    factor for augmentation sphere
   RDEP   =    1.501    radius for radial grids
   RDEPT  =    1.300    core radius for aug-charge
   QCUT   =   -5.516; QGAM   =   11.032    optimization parameters

   Description
     l     E      TYP  RCUT    TYP  RCUT
     0   .000     23  1.200
     0   .000     23  1.200
     1   .000     23  1.500
     1  2.500     23  1.500
     2   .000      7  1.500
  local pseudopotential read in
  atomic valenz-charges read in
  non local Contribution for L= 0  read in
    real space projection operators read in
  non local Contribution for L= 0  read in
    real space projection operators read in
  non local Contribution for L= 1  read in
    real space projection operators read in
  non local Contribution for L= 1  read in
    real space projection operators read in
    PAW grid and wavefunctions read in

   number of l-projection  operators is LMAX  = 4
   number of lm-projection operators is LMMAX = 8

 PAW_PBE Si 05Jan2001                   :
 energy of atom  1       EATOM= -103.0669
 kinetic energy error for atom=    0.0021 (will be added to EATOM!!)
 PAW_PBE C 08Apr2002                    :
 energy of atom  2       EATOM= -147.1560
 kinetic energy error for atom=    0.2561 (will be added to EATOM!!)


 POSCAR: Si1 C1
  positions in direct lattice
  No initial velocities read in
 exchange correlation table for  LEXCH =        8
   RHO(1)=    0.500       N(1)  =     2000
   RHO(2)=  100.500       N(2)  =     4000

 VTST: version 3.1, (03/28/14)

 CHAIN: initializing optimizer

 OPT: Using VASP Dynamics algorithm
 CHAIN: Read ICHAIN  0

 POSCAR: Si1 C1
  positions in direct lattice
  No initial velocities read in



--------------------------------------------------------------------------------------------------------


 ion  position               nearest neighbor table
   1  0.000  0.000  0.000-   2 0.43
   2  0.057  0.057  0.057-   1 0.43


 -----------------------------------------------------------------------------
|                                                                             |
|           W    W    AA    RRRRR   N    N  II  N    N   GGGG   !!!           |
|           W    W   A  A   R    R  NN   N  II  NN   N  G    G  !!!           |
|           W    W  A    A  R    R  N N  N  II  N N  N  G       !!!           |
|           W WW W  AAAAAA  RRRRR   N  N N  II  N  N N  G  GGG   !            |
|           WW  WW  A    A  R   R   N   NN  II  N   NN  G    G                |
|           W    W  A    A  R    R  N    N  II  N    N   GGGG   !!!           |
|                                                                             |
|      The distance between some ions is very small                           |
|      please check the nearest neigbor list in the OUTCAR file               |
|          I HOPE YOU KNOW, WHAT YOU ARE  DOING                               |
|                                                                             |
 -----------------------------------------------------------------------------

  LATTYP: Found a face centered cubic cell.
 ALAT       =     4.3500000000

  Lattice vectors:

 A1 = (   2.1750000000,   2.1750000000,   0.0000000000)
 A2 = (   0.0000000000,   2.1750000000,   2.1750000000)
 A3 = (   2.1750000000,   0.0000000000,   2.1750000000)


Analysis of symmetry for initial positions (statically):
=====================================================================
 Subroutine PRICEL returns:
 Original cell was already a primitive cell.


 Routine SETGRP: Setting up the symmetry group for a
 face centered cubic supercell.


 Subroutine GETGRP returns: Found  6 space group operations
 (whereof  6 operations were pure point group operations)
 out of a pool of 48 trial point group operations.


The static configuration has the point symmetry C_3v.


Analysis of symmetry for dynamics (positions and initial velocities):
=====================================================================
 Subroutine PRICEL returns:
 Original cell was already a primitive cell.


 Routine SETGRP: Setting up the symmetry group for a
 face centered cubic supercell.


 Subroutine GETGRP returns: Found  6 space group operations
 (whereof  6 operations were pure point group operations)
 out of a pool of 48 trial point group operations.


The dynamic configuration has the point symmetry C_3v.


Analysis of magnetic symmetry:
=====================================================================
 Subroutine PRICEL returns:
 Original cell was already a primitive cell.


 Subroutine MAGSYM returns: Found  6 space group operations
 (whereof  6 operations were pure point group operations)
 out of a pool of  6 trial space group operations
 (whereof  6 operations were pure point group operations)
 and found also     1 'primitive' translations


The magnetic configuration has the point symmetry C_3v.


 KPOINTS: pymatgen generated KPOINTS with grid den

Automatic generation of k-mesh.
Space group operators:
 irot       det(A)        alpha          n_x          n_y          n_z        tau_x        tau_y        tau_z
    1     1.000000     0.000000     1.000000     0.000000     0.000000     0.000000     0.000000     0.000000
    2     1.000000   120.000000    -0.577350    -0.577350    -0.577350     0.000000     0.000000     0.000000
    3     1.000000   120.000000     0.577350     0.577350     0.577350     0.000000     0.000000     0.000000
    4    -1.000000   180.000000     0.707107    -0.707107     0.000000     0.000000     0.000000     0.000000
    5    -1.000000   180.000000     0.707107     0.000000    -0.707107     0.000000     0.000000     0.000000
    6    -1.000000   180.000000     0.000000    -0.707107     0.707107     0.000000     0.000000     0.000000

 Subroutine IBZKPT returns following result:
 ===========================================

 Found    204 irreducible k-points:

 Following reciprocal coordinates:
            Coordinates               Weight
  0.062500  0.062500  0.062500     24.000000
  0.062500  0.000000  0.000000     72.000000
  0.187500  0.062500  0.062500     72.000000
  0.062500  0.000000 -0.125000    144.000000
  0.187500  0.125000  0.125000     72.000000
  0.312500  0.062500  0.062500     72.000000
  0.062500  0.000000 -0.250000    144.000000
  0.312500  0.250000  0.250000     72.000000
  0.437500  0.062500  0.062500     72.000000
  0.062500  0.000000 -0.375000    144.000000
  0.437500  0.375000  0.375000     72.000000
 -0.437500  0.062500  0.062500     72.000000
  0.062500  0.000000  0.500000    144.000000
 -0.437500  0.500000  0.500000     72.000000
 -0.312500  0.062500  0.062500     72.000000
  0.062500  0.000000  0.375000    144.000000
 -0.312500 -0.375000 -0.375000     72.000000
 -0.187500  0.062500  0.062500     72.000000
  0.062500  0.000000  0.250000    144.000000
 -0.187500 -0.250000 -0.250000     72.000000
 -0.062500  0.062500  0.062500     72.000000
  0.062500  0.000000  0.125000    144.000000
 -0.062500 -0.125000 -0.125000     72.000000
  0.187500  0.187500  0.062500     72.000000
  0.187500  0.125000  0.000000    144.000000
  0.062500 -0.125000 -0.125000     72.000000
  0.312500  0.187500  0.062500    144.000000
  0.187500  0.125000 -0.125000    144.000000
  0.312500  0.125000  0.250000    144.000000
  0.062500 -0.250000 -0.125000    144.000000
  0.437500  0.187500  0.062500    144.000000
  0.187500  0.125000 -0.250000    144.000000
  0.437500  0.250000  0.375000    144.000000
  0.062500 -0.375000 -0.125000    144.000000
 -0.437500  0.187500  0.062500    144.000000
  0.187500  0.125000 -0.375000    144.000000
 -0.437500  0.375000  0.500000    144.000000
  0.062500  0.500000 -0.125000    144.000000
 -0.312500  0.187500  0.062500    144.000000
  0.187500  0.125000  0.500000    144.000000
 -0.312500  0.500000 -0.375000    144.000000
  0.062500  0.375000 -0.125000    144.000000
 -0.187500  0.187500  0.062500    144.000000
  0.187500  0.125000  0.375000    144.000000
 -0.187500 -0.375000 -0.250000    144.000000
  0.062500  0.250000 -0.125000    144.000000
 -0.062500  0.187500  0.062500    144.000000
  0.187500  0.125000  0.250000    144.000000
 -0.062500 -0.250000 -0.125000    144.000000
  0.062500  0.125000 -0.125000    144.000000
  0.312500  0.312500  0.062500     72.000000
  0.312500  0.250000  0.000000    144.000000
  0.062500 -0.250000 -0.250000     72.000000
  0.437500  0.312500  0.062500    144.000000
  0.312500  0.250000 -0.125000    144.000000
  0.437500  0.125000  0.375000    144.000000
  0.062500 -0.375000 -0.250000    144.000000
 -0.437500  0.312500  0.062500    144.000000
  0.312500  0.250000 -0.250000    144.000000
 -0.437500  0.250000  0.500000    144.000000
  0.062500  0.500000 -0.250000    144.000000
 -0.312500  0.312500  0.062500    144.000000
  0.312500  0.250000 -0.375000    144.000000
 -0.312500  0.375000 -0.375000    144.000000
  0.062500  0.375000 -0.250000    144.000000
 -0.187500  0.312500  0.062500    144.000000
  0.312500  0.250000  0.500000    144.000000
 -0.187500  0.500000 -0.250000    144.000000
  0.062500  0.250000 -0.250000    144.000000
 -0.062500  0.312500  0.062500    144.000000
  0.312500  0.250000  0.375000    144.000000
 -0.062500 -0.375000 -0.125000    144.000000
  0.062500  0.125000 -0.250000    144.000000
  0.437500  0.437500  0.062500     72.000000
  0.437500  0.375000  0.000000    144.000000
  0.062500 -0.375000 -0.375000     72.000000
 -0.437500  0.437500  0.062500    144.000000
  0.437500  0.375000 -0.125000    144.000000
 -0.437500  0.125000  0.500000    144.000000
  0.062500  0.500000 -0.375000    144.000000
 -0.312500  0.437500  0.062500    144.000000
  0.437500  0.375000 -0.250000    144.000000
 -0.312500  0.250000 -0.375000    144.000000
  0.062500  0.375000 -0.375000    144.000000
 -0.187500  0.437500  0.062500    144.000000
  0.437500  0.375000 -0.375000    144.000000
 -0.187500  0.375000 -0.250000    144.000000
  0.062500  0.250000 -0.375000    144.000000
 -0.062500  0.437500  0.062500    144.000000
  0.437500  0.375000  0.500000    144.000000
 -0.062500  0.500000 -0.125000    144.000000
  0.062500  0.125000 -0.375000    144.000000
 -0.437500 -0.437500  0.062500     72.000000
 -0.437500  0.500000  0.000000    144.000000
  0.062500  0.500000  0.500000     72.000000
 -0.312500 -0.437500  0.062500    144.000000
 -0.437500  0.500000 -0.125000    144.000000
 -0.312500  0.125000 -0.375000    144.000000
  0.062500  0.375000  0.500000    144.000000
 -0.187500 -0.437500  0.062500    144.000000
 -0.437500  0.500000 -0.250000    144.000000
 -0.187500  0.250000 -0.250000    144.000000
  0.062500  0.250000  0.500000    144.000000
 -0.312500 -0.312500  0.062500     72.000000
 -0.312500 -0.375000  0.000000    144.000000
  0.062500  0.375000  0.375000     72.000000
 -0.187500 -0.312500  0.062500    144.000000
 -0.312500 -0.375000 -0.125000    144.000000
 -0.187500  0.125000 -0.250000    144.000000
  0.062500  0.250000  0.375000    144.000000
 -0.187500 -0.187500  0.062500     72.000000
 -0.187500 -0.250000  0.000000    144.000000
  0.062500  0.250000  0.250000     72.000000
  0.187500  0.187500  0.187500     24.000000
  0.187500  0.000000  0.000000     72.000000
  0.312500  0.187500  0.187500     72.000000
  0.187500  0.000000 -0.125000    144.000000
  0.312500  0.125000  0.125000     72.000000
  0.437500  0.187500  0.187500     72.000000
  0.187500  0.000000 -0.250000    144.000000
  0.437500  0.250000  0.250000     72.000000
 -0.437500  0.187500  0.187500     72.000000
  0.187500  0.000000 -0.375000    144.000000
 -0.437500  0.375000  0.375000     72.000000
 -0.312500  0.187500  0.187500     72.000000
  0.187500  0.000000  0.500000    144.000000
 -0.312500  0.500000  0.500000     72.000000
 -0.187500  0.187500  0.187500     72.000000
  0.187500  0.000000  0.375000    144.000000
 -0.187500 -0.375000 -0.375000     72.000000
  0.312500  0.312500  0.187500     72.000000
  0.312500  0.125000  0.000000    144.000000
  0.187500 -0.125000 -0.125000     72.000000
  0.437500  0.312500  0.187500    144.000000
  0.312500  0.125000 -0.125000    144.000000
  0.437500  0.125000  0.250000    144.000000
  0.187500 -0.250000 -0.125000    144.000000
 -0.437500  0.312500  0.187500    144.000000
  0.312500  0.125000 -0.250000    144.000000
 -0.437500  0.250000  0.375000    144.000000
  0.187500 -0.375000 -0.125000    144.000000
 -0.312500  0.312500  0.187500    144.000000
  0.312500  0.125000 -0.375000    144.000000
 -0.312500  0.375000  0.500000    144.000000
  0.187500  0.500000 -0.125000    144.000000
 -0.187500  0.312500  0.187500    144.000000
  0.312500  0.125000  0.500000    144.000000
 -0.187500  0.500000 -0.375000    144.000000
  0.187500  0.375000 -0.125000    144.000000
  0.437500  0.437500  0.187500     72.000000
  0.437500  0.250000  0.000000    144.000000
  0.187500 -0.250000 -0.250000     72.000000
 -0.437500  0.437500  0.187500    144.000000
  0.437500  0.250000 -0.125000    144.000000
 -0.437500  0.125000  0.375000    144.000000
  0.187500 -0.375000 -0.250000    144.000000
 -0.312500  0.437500  0.187500    144.000000
  0.437500  0.250000 -0.250000    144.000000
 -0.312500  0.250000  0.500000    144.000000
  0.187500  0.500000 -0.250000    144.000000
 -0.187500  0.437500  0.187500    144.000000
  0.437500  0.250000 -0.375000    144.000000
 -0.187500  0.375000 -0.375000    144.000000
  0.187500  0.375000 -0.250000    144.000000
 -0.437500 -0.437500  0.187500     72.000000
 -0.437500  0.375000  0.000000    144.000000
  0.187500 -0.375000 -0.375000     72.000000
 -0.312500 -0.437500  0.187500    144.000000
 -0.437500  0.375000 -0.125000    144.000000
 -0.312500  0.125000  0.500000    144.000000
  0.187500  0.500000 -0.375000    144.000000
 -0.312500 -0.312500  0.187500     72.000000
 -0.312500  0.500000  0.000000    144.000000
  0.187500  0.500000  0.500000     72.000000
  0.312500  0.312500  0.312500     24.000000
  0.312500  0.000000  0.000000     72.000000
  0.437500  0.312500  0.312500     72.000000
  0.312500  0.000000 -0.125000    144.000000
  0.437500  0.125000  0.125000     72.000000
 -0.437500  0.312500  0.312500     72.000000
  0.312500  0.000000 -0.250000    144.000000
 -0.437500  0.250000  0.250000     72.000000
 -0.312500  0.312500  0.312500     72.000000
  0.312500  0.000000 -0.375000    144.000000
 -0.312500  0.375000  0.375000     72.000000
  0.437500  0.437500  0.312500     72.000000
  0.437500  0.125000  0.000000    144.000000
  0.312500 -0.125000 -0.125000     72.000000
 -0.437500  0.437500  0.312500    144.000000
  0.437500  0.125000 -0.125000    144.000000
 -0.437500  0.125000  0.250000    144.000000
  0.312500 -0.250000 -0.125000    144.000000
 -0.312500  0.437500  0.312500    144.000000
  0.437500  0.125000 -0.250000    144.000000
 -0.312500  0.250000  0.375000    144.000000
  0.312500 -0.375000 -0.125000    144.000000
 -0.437500 -0.437500  0.312500     72.000000
 -0.437500  0.250000  0.000000    144.000000
  0.312500 -0.250000 -0.250000     72.000000
  0.437500  0.437500  0.437500     24.000000
  0.437500  0.000000  0.000000     72.000000
 -0.437500  0.437500  0.437500     72.000000
  0.437500  0.000000 -0.125000    144.000000
 -0.437500  0.125000  0.125000     72.000000

 Following cartesian coordinates:
            Coordinates               Weight
  0.014368  0.014368  0.014368     24.000000
  0.014368  0.014368 -0.014368     72.000000
  0.043103  0.043103 -0.014368     72.000000
 -0.014368  0.043103 -0.043103    144.000000
  0.043103  0.043103  0.014368     72.000000
  0.071839  0.071839 -0.043103     72.000000
 -0.043103  0.071839 -0.071839    144.000000
  0.071839  0.071839  0.043103     72.000000
  0.100575  0.100575 -0.071839     72.000000
 -0.071839  0.100575 -0.100575    144.000000
  0.100575  0.100575  0.071839     72.000000
 -0.100575 -0.100575  0.129310     72.000000
  0.129310 -0.100575  0.100575    144.000000
 -0.100575 -0.100575  0.330460     72.000000
 -0.071839 -0.071839  0.100575     72.000000
  0.100575 -0.071839  0.071839    144.000000
 -0.071839 -0.071839 -0.100575     72.000000
 -0.043103 -0.043103  0.071839     72.000000
  0.071839 -0.043103  0.043103    144.000000
 -0.043103 -0.043103 -0.071839     72.000000
 -0.014368 -0.014368  0.043103     72.000000
  0.043103 -0.014368  0.014368    144.000000
 -0.014368 -0.014368 -0.043103     72.000000
  0.014368  0.071839  0.014368     72.000000
  0.014368  0.071839 -0.014368    144.000000
  0.014368  0.014368 -0.071839     72.000000
  0.043103  0.100575 -0.014368    144.000000
 -0.014368  0.100575 -0.043103    144.000000
  0.100575  0.043103  0.014368    144.000000
  0.043103 -0.014368 -0.100575    144.000000
  0.071839  0.129310 -0.043103    144.000000
 -0.043103  0.129310 -0.071839    144.000000
  0.129310  0.071839  0.043103    144.000000
  0.071839 -0.043103 -0.129310    144.000000
 -0.129310 -0.071839  0.158046    144.000000
 -0.071839  0.158046 -0.100575    144.000000
 -0.071839 -0.129310  0.301724    144.000000
 -0.129310  0.158046  0.071839    144.000000
 -0.100575 -0.043103  0.129310    144.000000
  0.129310 -0.043103  0.100575    144.000000
 -0.272989  0.129310  0.100575    144.000000
 -0.100575  0.129310  0.043103    144.000000
 -0.071839 -0.014368  0.100575    144.000000
  0.100575 -0.014368  0.071839    144.000000
 -0.014368 -0.071839 -0.100575    144.000000
 -0.071839  0.100575  0.014368    144.000000
 -0.043103  0.014368  0.071839    144.000000
  0.071839  0.014368  0.043103    144.000000
  0.014368 -0.043103 -0.071839    144.000000
 -0.043103  0.071839 -0.014368    144.000000
  0.014368  0.129310  0.014368     72.000000
  0.014368  0.129310 -0.014368    144.000000
  0.014368  0.014368 -0.129310     72.000000
  0.043103  0.158046 -0.014368    144.000000
 -0.014368  0.158046 -0.043103    144.000000
  0.158046  0.043103  0.014368    144.000000
  0.043103 -0.014368 -0.158046    144.000000
 -0.158046 -0.043103  0.186782    144.000000
 -0.043103  0.186782 -0.071839    144.000000
 -0.043103 -0.158046  0.272989    144.000000
 -0.158046  0.186782  0.043103    144.000000
 -0.129310 -0.014368  0.158046    144.000000
 -0.071839  0.215517 -0.100575    144.000000
 -0.244253  0.100575  0.071839    144.000000
 -0.129310  0.158046  0.014368    144.000000
 -0.100575  0.014368  0.129310    144.000000
  0.129310  0.014368  0.100575    144.000000
 -0.215517  0.129310  0.100575    144.000000
 -0.100575  0.129310 -0.014368    144.000000
 -0.071839  0.043103  0.100575    144.000000
  0.100575  0.043103  0.071839    144.000000
  0.043103 -0.071839 -0.100575    144.000000
 -0.071839  0.100575 -0.043103    144.000000
  0.014368  0.186782  0.014368     72.000000
  0.014368  0.186782 -0.014368    144.000000
  0.014368  0.014368 -0.186782     72.000000
 -0.186782 -0.014368  0.215517    144.000000
 -0.014368  0.215517 -0.043103    144.000000
 -0.014368 -0.186782  0.244253    144.000000
 -0.186782  0.215517  0.014368    144.000000
 -0.158046  0.014368  0.186782    144.000000
 -0.043103  0.244253 -0.071839    144.000000
 -0.215517  0.071839  0.043103    144.000000
 -0.158046  0.186782 -0.014368    144.000000
 -0.129310  0.043103  0.158046    144.000000
 -0.071839  0.272989 -0.100575    144.000000
 -0.186782  0.100575  0.071839    144.000000
 -0.129310  0.158046 -0.043103    144.000000
 -0.100575  0.071839  0.129310    144.000000
  0.129310  0.071839  0.100575    144.000000
 -0.158046  0.129310  0.100575    144.000000
 -0.100575  0.129310 -0.071839    144.000000
  0.014368 -0.215517  0.014368     72.000000
 -0.215517  0.014368  0.215517    144.000000
  0.014368  0.014368  0.215517     72.000000
  0.043103 -0.186782 -0.014368    144.000000
 -0.244253  0.043103  0.186782    144.000000
 -0.186782  0.043103  0.014368    144.000000
  0.043103 -0.014368  0.186782    144.000000
  0.071839 -0.158046 -0.043103    144.000000
 -0.272989  0.071839  0.158046    144.000000
 -0.158046  0.071839  0.043103    144.000000
  0.071839 -0.043103  0.158046    144.000000
  0.014368 -0.158046  0.014368     72.000000
  0.014368 -0.158046 -0.014368    144.000000
  0.014368  0.014368  0.158046     72.000000
  0.043103 -0.129310 -0.014368    144.000000
 -0.014368 -0.129310 -0.043103    144.000000
 -0.129310  0.043103  0.014368    144.000000
  0.043103 -0.014368  0.129310    144.000000
  0.014368 -0.100575  0.014368     72.000000
  0.014368 -0.100575 -0.014368    144.000000
  0.014368  0.014368  0.100575     72.000000
  0.043103  0.043103  0.043103     24.000000
  0.043103  0.043103 -0.043103     72.000000
  0.071839  0.071839  0.014368     72.000000
  0.014368  0.071839 -0.071839    144.000000
  0.071839  0.071839 -0.014368     72.000000
  0.100575  0.100575 -0.014368     72.000000
 -0.014368  0.100575 -0.100575    144.000000
  0.100575  0.100575  0.014368     72.000000
 -0.100575 -0.100575  0.186782     72.000000
 -0.043103  0.129310 -0.129310    144.000000
 -0.100575 -0.100575  0.272989     72.000000
 -0.071839 -0.071839  0.158046     72.000000
  0.158046 -0.071839  0.071839    144.000000
 -0.071839 -0.071839  0.301724     72.000000
 -0.043103 -0.043103  0.129310     72.000000
  0.129310 -0.043103  0.043103    144.000000
 -0.043103 -0.043103 -0.129310     72.000000
  0.043103  0.100575  0.043103     72.000000
  0.043103  0.100575 -0.043103    144.000000
  0.043103  0.043103 -0.100575     72.000000
  0.071839  0.129310  0.014368    144.000000
  0.014368  0.129310 -0.071839    144.000000
  0.129310  0.071839 -0.014368    144.000000
  0.071839  0.014368 -0.129310    144.000000
 -0.129310 -0.071839  0.215517    144.000000
 -0.014368  0.158046 -0.100575    144.000000
 -0.071839 -0.129310  0.244253    144.000000
  0.100575 -0.014368 -0.158046    144.000000
 -0.100575 -0.043103  0.186782    144.000000
 -0.043103  0.186782 -0.129310    144.000000
 -0.043103 -0.100575  0.272989    144.000000
 -0.100575  0.186782  0.043103    144.000000
 -0.071839 -0.014368  0.158046    144.000000
  0.158046 -0.014368  0.071839    144.000000
 -0.244253  0.158046  0.071839    144.000000
 -0.071839  0.158046  0.014368    144.000000
  0.043103  0.158046  0.043103     72.000000
  0.043103  0.158046 -0.043103    144.000000
  0.043103  0.043103 -0.158046     72.000000
 -0.158046 -0.043103  0.244253    144.000000
  0.014368  0.186782 -0.071839    144.000000
 -0.043103 -0.158046  0.215517    144.000000
  0.071839  0.014368 -0.186782    144.000000
 -0.129310 -0.014368  0.215517    144.000000
 -0.014368  0.215517 -0.100575    144.000000
 -0.014368 -0.129310  0.244253    144.000000
 -0.129310  0.215517  0.014368    144.000000
 -0.100575  0.014368  0.186782    144.000000
 -0.043103  0.244253 -0.129310    144.000000
 -0.215517  0.129310  0.043103    144.000000
 -0.100575  0.186782 -0.014368    144.000000
  0.043103 -0.244253  0.043103     72.000000
 -0.186782 -0.014368  0.186782    144.000000
  0.043103  0.043103 -0.215517     72.000000
  0.071839 -0.215517  0.014368    144.000000
 -0.215517  0.014368  0.158046    144.000000
  0.014368 -0.158046  0.215517    144.000000
 -0.158046  0.244253 -0.014368    144.000000
  0.043103 -0.186782  0.043103     72.000000
 -0.186782  0.043103  0.186782    144.000000
  0.043103  0.043103  0.186782     72.000000
  0.071839  0.071839  0.071839     24.000000
  0.071839  0.071839 -0.071839     72.000000
  0.100575  0.100575  0.043103     72.000000
  0.043103  0.100575 -0.100575    144.000000
  0.100575  0.100575 -0.043103     72.000000
 -0.100575 -0.100575  0.244253     72.000000
  0.014368  0.129310 -0.129310    144.000000
 -0.100575 -0.100575  0.215517     72.000000
 -0.071839 -0.071839  0.215517     72.000000
 -0.014368  0.158046 -0.158046    144.000000
 -0.071839 -0.071839  0.244253     72.000000
  0.071839  0.129310  0.071839     72.000000
  0.071839  0.129310 -0.071839    144.000000
  0.071839  0.071839 -0.129310     72.000000
 -0.129310 -0.071839  0.272989    144.000000
  0.043103  0.158046 -0.100575    144.000000
 -0.071839 -0.129310  0.186782    144.000000
  0.100575  0.043103 -0.158046    144.000000
 -0.100575 -0.043103  0.244253    144.000000
  0.014368  0.186782 -0.129310    144.000000
 -0.043103 -0.100575  0.215517    144.000000
  0.129310  0.014368 -0.186782    144.000000
  0.071839 -0.272989  0.071839     72.000000
 -0.158046 -0.043103  0.158046    144.000000
  0.071839  0.071839 -0.186782     72.000000
  0.100575  0.100575  0.100575     24.000000
  0.100575  0.100575 -0.100575     72.000000
 -0.100575 -0.100575  0.301724     72.000000
  0.071839  0.129310 -0.129310    144.000000
 -0.100575 -0.100575  0.158046     72.000000

 TETIRR: Found   3064 inequivalent tetrahedra from    24576

 -----------------------------------------------------------------------------
|                                                                             |
|           W    W    AA    RRRRR   N    N  II  N    N   GGGG   !!!           |
|           W    W   A  A   R    R  NN   N  II  NN   N  G    G  !!!           |
|           W    W  A    A  R    R  N N  N  II  N N  N  G       !!!           |
|           W WW W  AAAAAA  RRRRR   N  N N  II  N  N N  G  GGG   !            |
|           WW  WW  A    A  R   R   N   NN  II  N   NN  G    G                |
|           W    W  A    A  R    R  N    N  II  N    N   GGGG   !!!           |
|                                                                             |
|      Your generating k-point grid is not commensurate to the symmetry       |
|      of the lattice.  This can cause   slow convergence with respect        |
|      to k-points for HF type calculations                                   |
|      suggested SOLUTIONS:                                                   |
|       ) if not already the case, use automatic k-point generation           |
|       ) shift your grid to Gamma (G) (e.g. required for hex or fcc lattice) |
|                                                                             |
 -----------------------------------------------------------------------------


 Subroutine IBZKPT_HF returns following result:
 ==============================================

 Found   2048 k-points in 1st BZ
 the following   2048 k-points will be used (e.g. in the exchange kernel)
 Following reciprocal coordinates:   # in IRBZ
  0.062500  0.062500  0.062500       1 t-inv F
  0.062500  0.000000  0.000000       2 t-inv F
  0.187500  0.062500  0.062500       3 t-inv F
  0.062500  0.000000 -0.125000       4 t-inv F
  0.187500  0.125000  0.125000       5 t-inv F
  0.312500  0.062500  0.062500       6 t-inv F
  0.062500  0.000000 -0.250000       7 t-inv F
  0.312500  0.250000  0.250000       8 t-inv F
  0.437500  0.062500  0.062500       9 t-inv F
  0.062500  0.000000 -0.375000      10 t-inv F
  0.437500  0.375000  0.375000      11 t-inv F
 -0.437500  0.062500  0.062500      12 t-inv F
  0.062500  0.000000  0.500000      13 t-inv F
 -0.437500  0.500000  0.500000      14 t-inv F
 -0.312500  0.062500  0.062500      15 t-inv F
  0.062500  0.000000  0.375000      16 t-inv F
 -0.312500 -0.375000 -0.375000      17 t-inv F
 -0.187500  0.062500  0.062500      18 t-inv F
  0.062500  0.000000  0.250000      19 t-inv F
 -0.187500 -0.250000 -0.250000      20 t-inv F
 -0.062500  0.062500  0.062500      21 t-inv F
  0.062500  0.000000  0.125000      22 t-inv F
 -0.062500 -0.125000 -0.125000      23 t-inv F
  0.187500  0.187500  0.062500      24 t-inv F
  0.187500  0.125000  0.000000      25 t-inv F
  0.062500 -0.125000 -0.125000      26 t-inv F
  0.312500  0.187500  0.062500      27 t-inv F
  0.187500  0.125000 -0.125000      28 t-inv F
  0.312500  0.125000  0.250000      29 t-inv F
  0.062500 -0.250000 -0.125000      30 t-inv F
  0.437500  0.187500  0.062500      31 t-inv F
  0.187500  0.125000 -0.250000      32 t-inv F
  0.437500  0.250000  0.375000      33 t-inv F
  0.062500 -0.375000 -0.125000      34 t-inv F
 -0.437500  0.187500  0.062500      35 t-inv F
  0.187500  0.125000 -0.375000      36 t-inv F
 -0.437500  0.375000  0.500000      37 t-inv F
  0.062500  0.500000 -0.125000      38 t-inv F
 -0.312500  0.187500  0.062500      39 t-inv F
  0.187500  0.125000  0.500000      40 t-inv F
 -0.312500  0.500000 -0.375000      41 t-inv F
  0.062500  0.375000 -0.125000      42 t-inv F
 -0.187500  0.187500  0.062500      43 t-inv F
  0.187500  0.125000  0.375000      44 t-inv F
 -0.187500 -0.375000 -0.250000      45 t-inv F
  0.062500  0.250000 -0.125000      46 t-inv F
 -0.062500  0.187500  0.062500      47 t-inv F
  0.187500  0.125000  0.250000      48 t-inv F
 -0.062500 -0.250000 -0.125000      49 t-inv F
  0.062500  0.125000 -0.125000      50 t-inv F
  0.312500  0.312500  0.062500      51 t-inv F
  0.312500  0.250000  0.000000      52 t-inv F
  0.062500 -0.250000 -0.250000      53 t-inv F
  0.437500  0.312500  0.062500      54 t-inv F
  0.312500  0.250000 -0.125000      55 t-inv F
  0.437500  0.125000  0.375000      56 t-inv F
  0.062500 -0.375000 -0.250000      57 t-inv F
 -0.437500  0.312500  0.062500      58 t-inv F
  0.312500  0.250000 -0.250000      59 t-inv F
 -0.437500  0.250000  0.500000      60 t-inv F
  0.062500  0.500000 -0.250000      61 t-inv F
 -0.312500  0.312500  0.062500      62 t-inv F
  0.312500  0.250000 -0.375000      63 t-inv F
 -0.312500  0.375000 -0.375000      64 t-inv F
  0.062500  0.375000 -0.250000      65 t-inv F
 -0.187500  0.312500  0.062500      66 t-inv F
  0.312500  0.250000  0.500000      67 t-inv F
 -0.187500  0.500000 -0.250000      68 t-inv F
  0.062500  0.250000 -0.250000      69 t-inv F
 -0.062500  0.312500  0.062500      70 t-inv F
  0.312500  0.250000  0.375000      71 t-inv F
 -0.062500 -0.375000 -0.125000      72 t-inv F
  0.062500  0.125000 -0.250000      73 t-inv F
  0.437500  0.437500  0.062500      74 t-inv F
  0.437500  0.375000  0.000000      75 t-inv F
  0.062500 -0.375000 -0.375000      76 t-inv F
 -0.437500  0.437500  0.062500      77 t-inv F
  0.437500  0.375000 -0.125000      78 t-inv F
 -0.437500  0.125000  0.500000      79 t-inv F
  0.062500  0.500000 -0.375000      80 t-inv F
 -0.312500  0.437500  0.062500      81 t-inv F
  0.437500  0.375000 -0.250000      82 t-inv F
 -0.312500  0.250000 -0.375000      83 t-inv F
  0.062500  0.375000 -0.375000      84 t-inv F
 -0.187500  0.437500  0.062500      85 t-inv F
  0.437500  0.375000 -0.375000      86 t-inv F
 -0.187500  0.375000 -0.250000      87 t-inv F
  0.062500  0.250000 -0.375000      88 t-inv F
 -0.062500  0.437500  0.062500      89 t-inv F
  0.437500  0.375000  0.500000      90 t-inv F
 -0.062500  0.500000 -0.125000      91 t-inv F
  0.062500  0.125000 -0.375000      92 t-inv F
 -0.437500 -0.437500  0.062500      93 t-inv F
 -0.437500  0.500000  0.000000      94 t-inv F
  0.062500  0.500000  0.500000      95 t-inv F
 -0.312500 -0.437500  0.062500      96 t-inv F
 -0.437500  0.500000 -0.125000      97 t-inv F
 -0.312500  0.125000 -0.375000      98 t-inv F
  0.062500  0.375000  0.500000      99 t-inv F
 -0.187500 -0.437500  0.062500     100 t-inv F
 -0.437500  0.500000 -0.250000     101 t-inv F
 -0.187500  0.250000 -0.250000     102 t-inv F
  0.062500  0.250000  0.500000     103 t-inv F
 -0.312500 -0.312500  0.062500     104 t-inv F
 -0.312500 -0.375000  0.000000     105 t-inv F
  0.062500  0.375000  0.375000     106 t-inv F
 -0.187500 -0.312500  0.062500     107 t-inv F
 -0.312500 -0.375000 -0.125000     108 t-inv F
 -0.187500  0.125000 -0.250000     109 t-inv F
  0.062500  0.250000  0.375000     110 t-inv F
 -0.187500 -0.187500  0.062500     111 t-inv F
 -0.187500 -0.250000  0.000000     112 t-inv F
  0.062500  0.250000  0.250000     113 t-inv F
  0.187500  0.187500  0.187500     114 t-inv F
  0.187500  0.000000  0.000000     115 t-inv F
  0.312500  0.187500  0.187500     116 t-inv F
  0.187500  0.000000 -0.125000     117 t-inv F
  0.312500  0.125000  0.125000     118 t-inv F
  0.437500  0.187500  0.187500     119 t-inv F
  0.187500  0.000000 -0.250000     120 t-inv F
  0.437500  0.250000  0.250000     121 t-inv F
 -0.437500  0.187500  0.187500     122 t-inv F
  0.187500  0.000000 -0.375000     123 t-inv F
 -0.437500  0.375000  0.375000     124 t-inv F
 -0.312500  0.187500  0.187500     125 t-inv F
  0.187500  0.000000  0.500000     126 t-inv F
 -0.312500  0.500000  0.500000     127 t-inv F
 -0.187500  0.187500  0.187500     128 t-inv F
  0.187500  0.000000  0.375000     129 t-inv F
 -0.187500 -0.375000 -0.375000     130 t-inv F
  0.312500  0.312500  0.187500     131 t-inv F
  0.312500  0.125000  0.000000     132 t-inv F
  0.187500 -0.125000 -0.125000     133 t-inv F
  0.437500  0.312500  0.187500     134 t-inv F
  0.312500  0.125000 -0.125000     135 t-inv F
  0.437500  0.125000  0.250000     136 t-inv F
  0.187500 -0.250000 -0.125000     137 t-inv F
 -0.437500  0.312500  0.187500     138 t-inv F
  0.312500  0.125000 -0.250000     139 t-inv F
 -0.437500  0.250000  0.375000     140 t-inv F
  0.187500 -0.375000 -0.125000     141 t-inv F
 -0.312500  0.312500  0.187500     142 t-inv F
  0.312500  0.125000 -0.375000     143 t-inv F
 -0.312500  0.375000  0.500000     144 t-inv F
  0.187500  0.500000 -0.125000     145 t-inv F
 -0.187500  0.312500  0.187500     146 t-inv F
  0.312500  0.125000  0.500000     147 t-inv F
 -0.187500  0.500000 -0.375000     148 t-inv F
  0.187500  0.375000 -0.125000     149 t-inv F
  0.437500  0.437500  0.187500     150 t-inv F
  0.437500  0.250000  0.000000     151 t-inv F
  0.187500 -0.250000 -0.250000     152 t-inv F
 -0.437500  0.437500  0.187500     153 t-inv F
  0.437500  0.250000 -0.125000     154 t-inv F
 -0.437500  0.125000  0.375000     155 t-inv F
  0.187500 -0.375000 -0.250000     156 t-inv F
 -0.312500  0.437500  0.187500     157 t-inv F
  0.437500  0.250000 -0.250000     158 t-inv F
 -0.312500  0.250000  0.500000     159 t-inv F
  0.187500  0.500000 -0.250000     160 t-inv F
 -0.187500  0.437500  0.187500     161 t-inv F
  0.437500  0.250000 -0.375000     162 t-inv F
 -0.187500  0.375000 -0.375000     163 t-inv F
  0.187500  0.375000 -0.250000     164 t-inv F
 -0.437500 -0.437500  0.187500     165 t-inv F
 -0.437500  0.375000  0.000000     166 t-inv F
  0.187500 -0.375000 -0.375000     167 t-inv F
 -0.312500 -0.437500  0.187500     168 t-inv F
 -0.437500  0.375000 -0.125000     169 t-inv F
 -0.312500  0.125000  0.500000     170 t-inv F
  0.187500  0.500000 -0.375000     171 t-inv F
 -0.312500 -0.312500  0.187500     172 t-inv F
 -0.312500  0.500000  0.000000     173 t-inv F
  0.187500  0.500000  0.500000     174 t-inv F
  0.312500  0.312500  0.312500     175 t-inv F
  0.312500  0.000000  0.000000     176 t-inv F
  0.437500  0.312500  0.312500     177 t-inv F
  0.312500  0.000000 -0.125000     178 t-inv F
  0.437500  0.125000  0.125000     179 t-inv F
 -0.437500  0.312500  0.312500     180 t-inv F
  0.312500  0.000000 -0.250000     181 t-inv F
 -0.437500  0.250000  0.250000     182 t-inv F
 -0.312500  0.312500  0.312500     183 t-inv F
  0.312500  0.000000 -0.375000     184 t-inv F
 -0.312500  0.375000  0.375000     185 t-inv F
  0.437500  0.437500  0.312500     186 t-inv F
  0.437500  0.125000  0.000000     187 t-inv F
  0.312500 -0.125000 -0.125000     188 t-inv F
 -0.437500  0.437500  0.312500     189 t-inv F
  0.437500  0.125000 -0.125000     190 t-inv F
 -0.437500  0.125000  0.250000     191 t-inv F
  0.312500 -0.250000 -0.125000     192 t-inv F
 -0.312500  0.437500  0.312500     193 t-inv F
  0.437500  0.125000 -0.250000     194 t-inv F
 -0.312500  0.250000  0.375000     195 t-inv F
  0.312500 -0.375000 -0.125000     196 t-inv F
 -0.437500 -0.437500  0.312500     197 t-inv F
 -0.437500  0.250000  0.000000     198 t-inv F
  0.312500 -0.250000 -0.250000     199 t-inv F
  0.437500  0.437500  0.437500     200 t-inv F
  0.437500  0.000000  0.000000     201 t-inv F
 -0.437500  0.437500  0.437500     202 t-inv F
  0.437500  0.000000 -0.125000     203 t-inv F
 -0.437500  0.125000  0.125000     204 t-inv F
  0.000000  0.062500  0.000000       2 t-inv F
  0.000000  0.000000  0.062500       2 t-inv F
  0.062500  0.187500  0.062500       3 t-inv F
  0.062500  0.062500  0.187500       3 t-inv F
 -0.125000  0.062500  0.000000       4 t-inv F
  0.000000 -0.125000  0.062500       4 t-inv F
  0.062500 -0.125000  0.000000       4 t-inv F
  0.000000  0.062500 -0.125000       4 t-inv F
 -0.125000  0.000000  0.062500       4 t-inv F
  0.125000  0.187500  0.125000       5 t-inv F
  0.125000  0.125000  0.187500       5 t-inv F
  0.062500  0.312500  0.062500       6 t-inv F
  0.062500  0.062500  0.312500       6 t-inv F
 -0.250000  0.062500  0.000000       7 t-inv F
  0.000000 -0.250000  0.062500       7 t-inv F
  0.062500 -0.250000  0.000000       7 t-inv F
  0.000000  0.062500 -0.250000       7 t-inv F
 -0.250000  0.000000  0.062500       7 t-inv F
  0.250000  0.312500  0.250000       8 t-inv F
  0.250000  0.250000  0.312500       8 t-inv F
  0.062500  0.437500  0.062500       9 t-inv F
  0.062500  0.062500  0.437500       9 t-inv F
 -0.375000  0.062500  0.000000      10 t-inv F
  0.000000 -0.375000  0.062500      10 t-inv F
  0.062500 -0.375000  0.000000      10 t-inv F
  0.000000  0.062500 -0.375000      10 t-inv F
 -0.375000  0.000000  0.062500      10 t-inv F
  0.375000  0.437500  0.375000      11 t-inv F
  0.375000  0.375000  0.437500      11 t-inv F
  0.062500 -0.437500  0.062500      12 t-inv F
  0.062500  0.062500 -0.437500      12 t-inv F
  0.500000  0.062500  0.000000      13 t-inv F
  0.000000  0.500000  0.062500      13 t-inv F
  0.062500  0.500000  0.000000      13 t-inv F
  0.000000  0.062500  0.500000      13 t-inv F
  0.500000  0.000000  0.062500      13 t-inv F
  0.500000 -0.437500  0.500000      14 t-inv F
  0.500000  0.500000 -0.437500      14 t-inv F
  0.062500 -0.312500  0.062500      15 t-inv F
  0.062500  0.062500 -0.312500      15 t-inv F
  0.375000  0.062500  0.000000      16 t-inv F
  0.000000  0.375000  0.062500      16 t-inv F
  0.062500  0.375000  0.000000      16 t-inv F
  0.000000  0.062500  0.375000      16 t-inv F
  0.375000  0.000000  0.062500      16 t-inv F
 -0.375000 -0.312500 -0.375000      17 t-inv F
 -0.375000 -0.375000 -0.312500      17 t-inv F
  0.062500 -0.187500  0.062500      18 t-inv F
  0.062500  0.062500 -0.187500      18 t-inv F
  0.250000  0.062500  0.000000      19 t-inv F
  0.000000  0.250000  0.062500      19 t-inv F
  0.062500  0.250000  0.000000      19 t-inv F
  0.000000  0.062500  0.250000      19 t-inv F
  0.250000  0.000000  0.062500      19 t-inv F
 -0.250000 -0.187500 -0.250000      20 t-inv F
 -0.250000 -0.250000 -0.187500      20 t-inv F
  0.062500 -0.062500  0.062500      21 t-inv F
  0.062500  0.062500 -0.062500      21 t-inv F
  0.125000  0.062500  0.000000      22 t-inv F
  0.000000  0.125000  0.062500      22 t-inv F
  0.062500  0.125000  0.000000      22 t-inv F
  0.000000  0.062500  0.125000      22 t-inv F
  0.125000  0.000000  0.062500      22 t-inv F
 -0.125000 -0.062500 -0.125000      23 t-inv F
 -0.125000 -0.125000 -0.062500      23 t-inv F
  0.062500  0.187500  0.187500      24 t-inv F
  0.187500  0.062500  0.187500      24 t-inv F
  0.000000  0.187500  0.125000      25 t-inv F
  0.125000  0.000000  0.187500      25 t-inv F
  0.187500  0.000000  0.125000      25 t-inv F
  0.125000  0.187500  0.000000      25 t-inv F
  0.000000  0.125000  0.187500      25 t-inv F
 -0.125000  0.062500 -0.125000      26 t-inv F
 -0.125000 -0.125000  0.062500      26 t-inv F
  0.062500  0.312500  0.187500      27 t-inv F
  0.187500  0.062500  0.312500      27 t-inv F
  0.312500  0.062500  0.187500      27 t-inv F
  0.187500  0.312500  0.062500      27 t-inv F
  0.062500  0.187500  0.312500      27 t-inv F
 -0.125000  0.187500  0.125000      28 t-inv F
  0.125000 -0.125000  0.187500      28 t-inv F
  0.187500 -0.125000  0.125000      28 t-inv F
  0.125000  0.187500 -0.125000      28 t-inv F
 -0.125000  0.125000  0.187500      28 t-inv F
  0.250000  0.312500  0.125000      29 t-inv F
  0.125000  0.250000  0.312500      29 t-inv F
  0.312500  0.250000  0.125000      29 t-inv F
  0.125000  0.312500  0.250000      29 t-inv F
  0.250000  0.125000  0.312500      29 t-inv F
 -0.125000  0.062500 -0.250000      30 t-inv F
 -0.250000 -0.125000  0.062500      30 t-inv F
  0.062500 -0.125000 -0.250000      30 t-inv F
 -0.250000  0.062500 -0.125000      30 t-inv F
 -0.125000 -0.250000  0.062500      30 t-inv F
  0.062500  0.437500  0.187500      31 t-inv F
  0.187500  0.062500  0.437500      31 t-inv F
  0.437500  0.062500  0.187500      31 t-inv F
  0.187500  0.437500  0.062500      31 t-inv F
  0.062500  0.187500  0.437500      31 t-inv F
 -0.250000  0.187500  0.125000      32 t-inv F
  0.125000 -0.250000  0.187500      32 t-inv F
  0.187500 -0.250000  0.125000      32 t-inv F
  0.125000  0.187500 -0.250000      32 t-inv F
 -0.250000  0.125000  0.187500      32 t-inv F
  0.375000  0.437500  0.250000      33 t-inv F
  0.250000  0.375000  0.437500      33 t-inv F
  0.437500  0.375000  0.250000      33 t-inv F
  0.250000  0.437500  0.375000      33 t-inv F
  0.375000  0.250000  0.437500      33 t-inv F
 -0.125000  0.062500 -0.375000      34 t-inv F
 -0.375000 -0.125000  0.062500      34 t-inv F
  0.062500 -0.125000 -0.375000      34 t-inv F
 -0.375000  0.062500 -0.125000      34 t-inv F
 -0.125000 -0.375000  0.062500      34 t-inv F
  0.062500 -0.437500  0.187500      35 t-inv F
  0.187500  0.062500 -0.437500      35 t-inv F
 -0.437500  0.062500  0.187500      35 t-inv F
  0.187500 -0.437500  0.062500      35 t-inv F
  0.062500  0.187500 -0.437500      35 t-inv F
 -0.375000  0.187500  0.125000      36 t-inv F
  0.125000 -0.375000  0.187500      36 t-inv F
  0.187500 -0.375000  0.125000      36 t-inv F
  0.125000  0.187500 -0.375000      36 t-inv F
 -0.375000  0.125000  0.187500      36 t-inv F
  0.500000 -0.437500  0.375000      37 t-inv F
  0.375000  0.500000 -0.437500      37 t-inv F
 -0.437500  0.500000  0.375000      37 t-inv F
  0.375000 -0.437500  0.500000      37 t-inv F
  0.500000  0.375000 -0.437500      37 t-inv F
 -0.125000  0.062500  0.500000      38 t-inv F
  0.500000 -0.125000  0.062500      38 t-inv F
  0.062500 -0.125000  0.500000      38 t-inv F
  0.500000  0.062500 -0.125000      38 t-inv F
 -0.125000  0.500000  0.062500      38 t-inv F
  0.062500 -0.312500  0.187500      39 t-inv F
  0.187500  0.062500 -0.312500      39 t-inv F
 -0.312500  0.062500  0.187500      39 t-inv F
  0.187500 -0.312500  0.062500      39 t-inv F
  0.062500  0.187500 -0.312500      39 t-inv F
  0.500000  0.187500  0.125000      40 t-inv F
  0.125000  0.500000  0.187500      40 t-inv F
  0.187500  0.500000  0.125000      40 t-inv F
  0.125000  0.187500  0.500000      40 t-inv F
  0.500000  0.125000  0.187500      40 t-inv F
 -0.375000 -0.312500  0.500000      41 t-inv F
  0.500000 -0.375000 -0.312500      41 t-inv F
 -0.312500 -0.375000  0.500000      41 t-inv F
  0.500000 -0.312500 -0.375000      41 t-inv F
 -0.375000  0.500000 -0.312500      41 t-inv F
 -0.125000  0.062500  0.375000      42 t-inv F
  0.375000 -0.125000  0.062500      42 t-inv F
  0.062500 -0.125000  0.375000      42 t-inv F
  0.375000  0.062500 -0.125000      42 t-inv F
 -0.125000  0.375000  0.062500      42 t-inv F
  0.062500 -0.187500  0.187500      43 t-inv F
  0.187500  0.062500 -0.187500      43 t-inv F
 -0.187500  0.062500  0.187500      43 t-inv F
  0.187500 -0.187500  0.062500      43 t-inv F
  0.062500  0.187500 -0.187500      43 t-inv F
  0.375000  0.187500  0.125000      44 t-inv F
  0.125000  0.375000  0.187500      44 t-inv F
  0.187500  0.375000  0.125000      44 t-inv F
  0.125000  0.187500  0.375000      44 t-inv F
  0.375000  0.125000  0.187500      44 t-inv F
 -0.250000 -0.187500 -0.375000      45 t-inv F
 -0.375000 -0.250000 -0.187500      45 t-inv F
 -0.187500 -0.250000 -0.375000      45 t-inv F
 -0.375000 -0.187500 -0.250000      45 t-inv F
 -0.250000 -0.375000 -0.187500      45 t-inv F
 -0.125000  0.062500  0.250000      46 t-inv F
  0.250000 -0.125000  0.062500      46 t-inv F
  0.062500 -0.125000  0.250000      46 t-inv F
  0.250000  0.062500 -0.125000      46 t-inv F
 -0.125000  0.250000  0.062500      46 t-inv F
  0.062500 -0.062500  0.187500      47 t-inv F
  0.187500  0.062500 -0.062500      47 t-inv F
 -0.062500  0.062500  0.187500      47 t-inv F
  0.187500 -0.062500  0.062500      47 t-inv F
  0.062500  0.187500 -0.062500      47 t-inv F
  0.250000  0.187500  0.125000      48 t-inv F
  0.125000  0.250000  0.187500      48 t-inv F
  0.187500  0.250000  0.125000      48 t-inv F
  0.125000  0.187500  0.250000      48 t-inv F
  0.250000  0.125000  0.187500      48 t-inv F
 -0.125000 -0.062500 -0.250000      49 t-inv F
 -0.250000 -0.125000 -0.062500      49 t-inv F
 -0.062500 -0.125000 -0.250000      49 t-inv F
 -0.250000 -0.062500 -0.125000      49 t-inv F
 -0.125000 -0.250000 -0.062500      49 t-inv F
 -0.125000  0.062500  0.125000      50 t-inv F
  0.125000 -0.125000  0.062500      50 t-inv F
  0.062500 -0.125000  0.125000      50 t-inv F
  0.125000  0.062500 -0.125000      50 t-inv F
 -0.125000  0.125000  0.062500      50 t-inv F
  0.062500  0.312500  0.312500      51 t-inv F
  0.312500  0.062500  0.312500      51 t-inv F
  0.000000  0.312500  0.250000      52 t-inv F
  0.250000  0.000000  0.312500      52 t-inv F
  0.312500  0.000000  0.250000      52 t-inv F
  0.250000  0.312500  0.000000      52 t-inv F
  0.000000  0.250000  0.312500      52 t-inv F
 -0.250000  0.062500 -0.250000      53 t-inv F
 -0.250000 -0.250000  0.062500      53 t-inv F
  0.062500  0.437500  0.312500      54 t-inv F
  0.312500  0.062500  0.437500      54 t-inv F
  0.437500  0.062500  0.312500      54 t-inv F
  0.312500  0.437500  0.062500      54 t-inv F
  0.062500  0.312500  0.437500      54 t-inv F
 -0.125000  0.312500  0.250000      55 t-inv F
  0.250000 -0.125000  0.312500      55 t-inv F
  0.312500 -0.125000  0.250000      55 t-inv F
  0.250000  0.312500 -0.125000      55 t-inv F
 -0.125000  0.250000  0.312500      55 t-inv F
  0.375000  0.437500  0.125000      56 t-inv F
  0.125000  0.375000  0.437500      56 t-inv F
  0.437500  0.375000  0.125000      56 t-inv F
  0.125000  0.437500  0.375000      56 t-inv F
  0.375000  0.125000  0.437500      56 t-inv F
 -0.250000  0.062500 -0.375000      57 t-inv F
 -0.375000 -0.250000  0.062500      57 t-inv F
  0.062500 -0.250000 -0.375000      57 t-inv F
 -0.375000  0.062500 -0.250000      57 t-inv F
 -0.250000 -0.375000  0.062500      57 t-inv F
  0.062500 -0.437500  0.312500      58 t-inv F
  0.312500  0.062500 -0.437500      58 t-inv F
 -0.437500  0.062500  0.312500      58 t-inv F
  0.312500 -0.437500  0.062500      58 t-inv F
  0.062500  0.312500 -0.437500      58 t-inv F
 -0.250000  0.312500  0.250000      59 t-inv F
  0.250000 -0.250000  0.312500      59 t-inv F
  0.312500 -0.250000  0.250000      59 t-inv F
  0.250000  0.312500 -0.250000      59 t-inv F
 -0.250000  0.250000  0.312500      59 t-inv F
  0.500000 -0.437500  0.250000      60 t-inv F
  0.250000  0.500000 -0.437500      60 t-inv F
 -0.437500  0.500000  0.250000      60 t-inv F
  0.250000 -0.437500  0.500000      60 t-inv F
  0.500000  0.250000 -0.437500      60 t-inv F
 -0.250000  0.062500  0.500000      61 t-inv F
  0.500000 -0.250000  0.062500      61 t-inv F
  0.062500 -0.250000  0.500000      61 t-inv F
  0.500000  0.062500 -0.250000      61 t-inv F
 -0.250000  0.500000  0.062500      61 t-inv F
  0.062500 -0.312500  0.312500      62 t-inv F
  0.312500  0.062500 -0.312500      62 t-inv F
 -0.312500  0.062500  0.312500      62 t-inv F
  0.312500 -0.312500  0.062500      62 t-inv F
  0.062500  0.312500 -0.312500      62 t-inv F
 -0.375000  0.312500  0.250000      63 t-inv F
  0.250000 -0.375000  0.312500      63 t-inv F
  0.312500 -0.375000  0.250000      63 t-inv F
  0.250000  0.312500 -0.375000      63 t-inv F
 -0.375000  0.250000  0.312500      63 t-inv F
 -0.375000 -0.312500  0.375000      64 t-inv F
  0.375000 -0.375000 -0.312500      64 t-inv F
 -0.312500 -0.375000  0.375000      64 t-inv F
  0.375000 -0.312500 -0.375000      64 t-inv F
 -0.375000  0.375000 -0.312500      64 t-inv F
 -0.250000  0.062500  0.375000      65 t-inv F
  0.375000 -0.250000  0.062500      65 t-inv F
  0.062500 -0.250000  0.375000      65 t-inv F
  0.375000  0.062500 -0.250000      65 t-inv F
 -0.250000  0.375000  0.062500      65 t-inv F
  0.062500 -0.187500  0.312500      66 t-inv F
  0.312500  0.062500 -0.187500      66 t-inv F
 -0.187500  0.062500  0.312500      66 t-inv F
  0.312500 -0.187500  0.062500      66 t-inv F
  0.062500  0.312500 -0.187500      66 t-inv F
  0.500000  0.312500  0.250000      67 t-inv F
  0.250000  0.500000  0.312500      67 t-inv F
  0.312500  0.500000  0.250000      67 t-inv F
  0.250000  0.312500  0.500000      67 t-inv F
  0.500000  0.250000  0.312500      67 t-inv F
 -0.250000 -0.187500  0.500000      68 t-inv F
  0.500000 -0.250000 -0.187500      68 t-inv F
 -0.187500 -0.250000  0.500000      68 t-inv F
  0.500000 -0.187500 -0.250000      68 t-inv F
 -0.250000  0.500000 -0.187500      68 t-inv F
 -0.250000  0.062500  0.250000      69 t-inv F
  0.250000 -0.250000  0.062500      69 t-inv F
  0.062500 -0.250000  0.250000      69 t-inv F
  0.250000  0.062500 -0.250000      69 t-inv F
 -0.250000  0.250000  0.062500      69 t-inv F
  0.062500 -0.062500  0.312500      70 t-inv F
  0.312500  0.062500 -0.062500      70 t-inv F
 -0.062500  0.062500  0.312500      70 t-inv F
  0.312500 -0.062500  0.062500      70 t-inv F
  0.062500  0.312500 -0.062500      70 t-inv F
  0.375000  0.312500  0.250000      71 t-inv F
  0.250000  0.375000  0.312500      71 t-inv F
  0.312500  0.375000  0.250000      71 t-inv F
  0.250000  0.312500  0.375000      71 t-inv F
  0.375000  0.250000  0.312500      71 t-inv F
 -0.125000 -0.062500 -0.375000      72 t-inv F
 -0.375000 -0.125000 -0.062500      72 t-inv F
 -0.062500 -0.125000 -0.375000      72 t-inv F
 -0.375000 -0.062500 -0.125000      72 t-inv F
 -0.125000 -0.375000 -0.062500      72 t-inv F
 -0.250000  0.062500  0.125000      73 t-inv F
  0.125000 -0.250000  0.062500      73 t-inv F
  0.062500 -0.250000  0.125000      73 t-inv F
  0.125000  0.062500 -0.250000      73 t-inv F
 -0.250000  0.125000  0.062500      73 t-inv F
  0.062500  0.437500  0.437500      74 t-inv F
  0.437500  0.062500  0.437500      74 t-inv F
  0.000000  0.437500  0.375000      75 t-inv F
  0.375000  0.000000  0.437500      75 t-inv F
  0.437500  0.000000  0.375000      75 t-inv F
  0.375000  0.437500  0.000000      75 t-inv F
  0.000000  0.375000  0.437500      75 t-inv F
 -0.375000  0.062500 -0.375000      76 t-inv F
 -0.375000 -0.375000  0.062500      76 t-inv F
  0.062500 -0.437500  0.437500      77 t-inv F
  0.437500  0.062500 -0.437500      77 t-inv F
 -0.437500  0.062500  0.437500      77 t-inv F
  0.437500 -0.437500  0.062500      77 t-inv F
  0.062500  0.437500 -0.437500      77 t-inv F
 -0.125000  0.437500  0.375000      78 t-inv F
  0.375000 -0.125000  0.437500      78 t-inv F
  0.437500 -0.125000  0.375000      78 t-inv F
  0.375000  0.437500 -0.125000      78 t-inv F
 -0.125000  0.375000  0.437500      78 t-inv F
  0.500000 -0.437500  0.125000      79 t-inv F
  0.125000  0.500000 -0.437500      79 t-inv F
 -0.437500  0.500000  0.125000      79 t-inv F
  0.125000 -0.437500  0.500000      79 t-inv F
  0.500000  0.125000 -0.437500      79 t-inv F
 -0.375000  0.062500  0.500000      80 t-inv F
  0.500000 -0.375000  0.062500      80 t-inv F
  0.062500 -0.375000  0.500000      80 t-inv F
  0.500000  0.062500 -0.375000      80 t-inv F
 -0.375000  0.500000  0.062500      80 t-inv F
  0.062500 -0.312500  0.437500      81 t-inv F
  0.437500  0.062500 -0.312500      81 t-inv F
 -0.312500  0.062500  0.437500      81 t-inv F
  0.437500 -0.312500  0.062500      81 t-inv F
  0.062500  0.437500 -0.312500      81 t-inv F
 -0.250000  0.437500  0.375000      82 t-inv F
  0.375000 -0.250000  0.437500      82 t-inv F
  0.437500 -0.250000  0.375000      82 t-inv F
  0.375000  0.437500 -0.250000      82 t-inv F
 -0.250000  0.375000  0.437500      82 t-inv F
 -0.375000 -0.312500  0.250000      83 t-inv F
  0.250000 -0.375000 -0.312500      83 t-inv F
 -0.312500 -0.375000  0.250000      83 t-inv F
  0.250000 -0.312500 -0.375000      83 t-inv F
 -0.375000  0.250000 -0.312500      83 t-inv F
 -0.375000  0.062500  0.375000      84 t-inv F
  0.375000 -0.375000  0.062500      84 t-inv F
  0.062500 -0.375000  0.375000      84 t-inv F
  0.375000  0.062500 -0.375000      84 t-inv F
 -0.375000  0.375000  0.062500      84 t-inv F
  0.062500 -0.187500  0.437500      85 t-inv F
  0.437500  0.062500 -0.187500      85 t-inv F
 -0.187500  0.062500  0.437500      85 t-inv F
  0.437500 -0.187500  0.062500      85 t-inv F
  0.062500  0.437500 -0.187500      85 t-inv F
 -0.375000  0.437500  0.375000      86 t-inv F
  0.375000 -0.375000  0.437500      86 t-inv F
  0.437500 -0.375000  0.375000      86 t-inv F
  0.375000  0.437500 -0.375000      86 t-inv F
 -0.375000  0.375000  0.437500      86 t-inv F
 -0.250000 -0.187500  0.375000      87 t-inv F
  0.375000 -0.250000 -0.187500      87 t-inv F
 -0.187500 -0.250000  0.375000      87 t-inv F
  0.375000 -0.187500 -0.250000      87 t-inv F
 -0.250000  0.375000 -0.187500      87 t-inv F
 -0.375000  0.062500  0.250000      88 t-inv F
  0.250000 -0.375000  0.062500      88 t-inv F
  0.062500 -0.375000  0.250000      88 t-inv F
  0.250000  0.062500 -0.375000      88 t-inv F
 -0.375000  0.250000  0.062500      88 t-inv F
  0.062500 -0.062500  0.437500      89 t-inv F
  0.437500  0.062500 -0.062500      89 t-inv F
 -0.062500  0.062500  0.437500      89 t-inv F
  0.437500 -0.062500  0.062500      89 t-inv F
  0.062500  0.437500 -0.062500      89 t-inv F
  0.500000  0.437500  0.375000      90 t-inv F
  0.375000  0.500000  0.437500      90 t-inv F
  0.437500  0.500000  0.375000      90 t-inv F
  0.375000  0.437500  0.500000      90 t-inv F
  0.500000  0.375000  0.437500      90 t-inv F
 -0.125000 -0.062500  0.500000      91 t-inv F
  0.500000 -0.125000 -0.062500      91 t-inv F
 -0.062500 -0.125000  0.500000      91 t-inv F
  0.500000 -0.062500 -0.125000      91 t-inv F
 -0.125000  0.500000 -0.062500      91 t-inv F
 -0.375000  0.062500  0.125000      92 t-inv F
  0.125000 -0.375000  0.062500      92 t-inv F
  0.062500 -0.375000  0.125000      92 t-inv F
  0.125000  0.062500 -0.375000      92 t-inv F
 -0.375000  0.125000  0.062500      92 t-inv F
  0.062500 -0.437500 -0.437500      93 t-inv F
 -0.437500  0.062500 -0.437500      93 t-inv F
  0.000000 -0.437500  0.500000      94 t-inv F
  0.500000  0.000000 -0.437500      94 t-inv F
 -0.437500  0.000000  0.500000      94 t-inv F
  0.500000 -0.437500  0.000000      94 t-inv F
  0.000000  0.500000 -0.437500      94 t-inv F
  0.500000  0.062500  0.500000      95 t-inv F
  0.500000  0.500000  0.062500      95 t-inv F
  0.062500 -0.312500 -0.437500      96 t-inv F
 -0.437500  0.062500 -0.312500      96 t-inv F
 -0.312500  0.062500 -0.437500      96 t-inv F
 -0.437500 -0.312500  0.062500      96 t-inv F
  0.062500 -0.437500 -0.312500      96 t-inv F
 -0.125000 -0.437500  0.500000      97 t-inv F
  0.500000 -0.125000 -0.437500      97 t-inv F
 -0.437500 -0.125000  0.500000      97 t-inv F
  0.500000 -0.437500 -0.125000      97 t-inv F
 -0.125000  0.500000 -0.437500      97 t-inv F
 -0.375000 -0.312500  0.125000      98 t-inv F
  0.125000 -0.375000 -0.312500      98 t-inv F
 -0.312500 -0.375000  0.125000      98 t-inv F
  0.125000 -0.312500 -0.375000      98 t-inv F
 -0.375000  0.125000 -0.312500      98 t-inv F
  0.500000  0.062500  0.375000      99 t-inv F
  0.375000  0.500000  0.062500      99 t-inv F
  0.062500  0.500000  0.375000      99 t-inv F
  0.375000  0.062500  0.500000      99 t-inv F
  0.500000  0.375000  0.062500      99 t-inv F
  0.062500 -0.187500 -0.437500     100 t-inv F
 -0.437500  0.062500 -0.187500     100 t-inv F
 -0.187500  0.062500 -0.437500     100 t-inv F
 -0.437500 -0.187500  0.062500     100 t-inv F
  0.062500 -0.437500 -0.187500     100 t-inv F
 -0.250000 -0.437500  0.500000     101 t-inv F
  0.500000 -0.250000 -0.437500     101 t-inv F
 -0.437500 -0.250000  0.500000     101 t-inv F
  0.500000 -0.437500 -0.250000     101 t-inv F
 -0.250000  0.500000 -0.437500     101 t-inv F
 -0.250000 -0.187500  0.250000     102 t-inv F
  0.250000 -0.250000 -0.187500     102 t-inv F
 -0.187500 -0.250000  0.250000     102 t-inv F
  0.250000 -0.187500 -0.250000     102 t-inv F
 -0.250000  0.250000 -0.187500     102 t-inv F
  0.500000  0.062500  0.250000     103 t-inv F
  0.250000  0.500000  0.062500     103 t-inv F
  0.062500  0.500000  0.250000     103 t-inv F
  0.250000  0.062500  0.500000     103 t-inv F
  0.500000  0.250000  0.062500     103 t-inv F
  0.062500 -0.312500 -0.312500     104 t-inv F
 -0.312500  0.062500 -0.312500     104 t-inv F
  0.000000 -0.312500 -0.375000     105 t-inv F
 -0.375000  0.000000 -0.312500     105 t-inv F
 -0.312500  0.000000 -0.375000     105 t-inv F
 -0.375000 -0.312500  0.000000     105 t-inv F
  0.000000 -0.375000 -0.312500     105 t-inv F
  0.375000  0.062500  0.375000     106 t-inv F
  0.375000  0.375000  0.062500     106 t-inv F
  0.062500 -0.187500 -0.312500     107 t-inv F
 -0.312500  0.062500 -0.187500     107 t-inv F
 -0.187500  0.062500 -0.312500     107 t-inv F
 -0.312500 -0.187500  0.062500     107 t-inv F
  0.062500 -0.312500 -0.187500     107 t-inv F
 -0.125000 -0.312500 -0.375000     108 t-inv F
 -0.375000 -0.125000 -0.312500     108 t-inv F
 -0.312500 -0.125000 -0.375000     108 t-inv F
 -0.375000 -0.312500 -0.125000     108 t-inv F
 -0.125000 -0.375000 -0.312500     108 t-inv F
 -0.250000 -0.187500  0.125000     109 t-inv F
  0.125000 -0.250000 -0.187500     109 t-inv F
 -0.187500 -0.250000  0.125000     109 t-inv F
  0.125000 -0.187500 -0.250000     109 t-inv F
 -0.250000  0.125000 -0.187500     109 t-inv F
  0.375000  0.062500  0.250000     110 t-inv F
  0.250000  0.375000  0.062500     110 t-inv F
  0.062500  0.375000  0.250000     110 t-inv F
  0.250000  0.062500  0.375000     110 t-inv F
  0.375000  0.250000  0.062500     110 t-inv F
  0.062500 -0.187500 -0.187500     111 t-inv F
 -0.187500  0.062500 -0.187500     111 t-inv F
  0.000000 -0.187500 -0.250000     112 t-inv F
 -0.250000  0.000000 -0.187500     112 t-inv F
 -0.187500  0.000000 -0.250000     112 t-inv F
 -0.250000 -0.187500  0.000000     112 t-inv F
  0.000000 -0.250000 -0.187500     112 t-inv F
  0.250000  0.062500  0.250000     113 t-inv F
  0.250000  0.250000  0.062500     113 t-inv F
  0.000000  0.187500  0.000000     115 t-inv F
  0.000000  0.000000  0.187500     115 t-inv F
  0.187500  0.312500  0.187500     116 t-inv F
  0.187500  0.187500  0.312500     116 t-inv F
 -0.125000  0.187500  0.000000     117 t-inv F
  0.000000 -0.125000  0.187500     117 t-inv F
  0.187500 -0.125000  0.000000     117 t-inv F
  0.000000  0.187500 -0.125000     117 t-inv F
 -0.125000  0.000000  0.187500     117 t-inv F
  0.125000  0.312500  0.125000     118 t-inv F
  0.125000  0.125000  0.312500     118 t-inv F
  0.187500  0.437500  0.187500     119 t-inv F
  0.187500  0.187500  0.437500     119 t-inv F
 -0.250000  0.187500  0.000000     120 t-inv F
  0.000000 -0.250000  0.187500     120 t-inv F
  0.187500 -0.250000  0.000000     120 t-inv F
  0.000000  0.187500 -0.250000     120 t-inv F
 -0.250000  0.000000  0.187500     120 t-inv F
  0.250000  0.437500  0.250000     121 t-inv F
  0.250000  0.250000  0.437500     121 t-inv F
  0.187500 -0.437500  0.187500     122 t-inv F
  0.187500  0.187500 -0.437500     122 t-inv F
 -0.375000  0.187500  0.000000     123 t-inv F
  0.000000 -0.375000  0.187500     123 t-inv F
  0.187500 -0.375000  0.000000     123 t-inv F
  0.000000  0.187500 -0.375000     123 t-inv F
 -0.375000  0.000000  0.187500     123 t-inv F
  0.375000 -0.437500  0.375000     124 t-inv F
  0.375000  0.375000 -0.437500     124 t-inv F
  0.187500 -0.312500  0.187500     125 t-inv F
  0.187500  0.187500 -0.312500     125 t-inv F
  0.500000  0.187500  0.000000     126 t-inv F
  0.000000  0.500000  0.187500     126 t-inv F
  0.187500  0.500000  0.000000     126 t-inv F
  0.000000  0.187500  0.500000     126 t-inv F
  0.500000  0.000000  0.187500     126 t-inv F
  0.500000 -0.312500  0.500000     127 t-inv F
  0.500000  0.500000 -0.312500     127 t-inv F
  0.187500 -0.187500  0.187500     128 t-inv F
  0.187500  0.187500 -0.187500     128 t-inv F
  0.375000  0.187500  0.000000     129 t-inv F
  0.000000  0.375000  0.187500     129 t-inv F
  0.187500  0.375000  0.000000     129 t-inv F
  0.000000  0.187500  0.375000     129 t-inv F
  0.375000  0.000000  0.187500     129 t-inv F
 -0.375000 -0.187500 -0.375000     130 t-inv F
 -0.375000 -0.375000 -0.187500     130 t-inv F
  0.187500  0.312500  0.312500     131 t-inv F
  0.312500  0.187500  0.312500     131 t-inv F
  0.000000  0.312500  0.125000     132 t-inv F
  0.125000  0.000000  0.312500     132 t-inv F
  0.312500  0.000000  0.125000     132 t-inv F
  0.125000  0.312500  0.000000     132 t-inv F
  0.000000  0.125000  0.312500     132 t-inv F
 -0.125000  0.187500 -0.125000     133 t-inv F
 -0.125000 -0.125000  0.187500     133 t-inv F
  0.187500  0.437500  0.312500     134 t-inv F
  0.312500  0.187500  0.437500     134 t-inv F
  0.437500  0.187500  0.312500     134 t-inv F
  0.312500  0.437500  0.187500     134 t-inv F
  0.187500  0.312500  0.437500     134 t-inv F
 -0.125000  0.312500  0.125000     135 t-inv F
  0.125000 -0.125000  0.312500     135 t-inv F
  0.312500 -0.125000  0.125000     135 t-inv F
  0.125000  0.312500 -0.125000     135 t-inv F
 -0.125000  0.125000  0.312500     135 t-inv F
  0.250000  0.437500  0.125000     136 t-inv F
  0.125000  0.250000  0.437500     136 t-inv F
  0.437500  0.250000  0.125000     136 t-inv F
  0.125000  0.437500  0.250000     136 t-inv F
  0.250000  0.125000  0.437500     136 t-inv F
 -0.125000  0.187500 -0.250000     137 t-inv F
 -0.250000 -0.125000  0.187500     137 t-inv F
  0.187500 -0.125000 -0.250000     137 t-inv F
 -0.250000  0.187500 -0.125000     137 t-inv F
 -0.125000 -0.250000  0.187500     137 t-inv F
  0.187500 -0.437500  0.312500     138 t-inv F
  0.312500  0.187500 -0.437500     138 t-inv F
 -0.437500  0.187500  0.312500     138 t-inv F
  0.312500 -0.437500  0.187500     138 t-inv F
  0.187500  0.312500 -0.437500     138 t-inv F
 -0.250000  0.312500  0.125000     139 t-inv F
  0.125000 -0.250000  0.312500     139 t-inv F
  0.312500 -0.250000  0.125000     139 t-inv F
  0.125000  0.312500 -0.250000     139 t-inv F
 -0.250000  0.125000  0.312500     139 t-inv F
  0.375000 -0.437500  0.250000     140 t-inv F
  0.250000  0.375000 -0.437500     140 t-inv F
 -0.437500  0.375000  0.250000     140 t-inv F
  0.250000 -0.437500  0.375000     140 t-inv F
  0.375000  0.250000 -0.437500     140 t-inv F
 -0.125000  0.187500 -0.375000     141 t-inv F
 -0.375000 -0.125000  0.187500     141 t-inv F
  0.187500 -0.125000 -0.375000     141 t-inv F
 -0.375000  0.187500 -0.125000     141 t-inv F
 -0.125000 -0.375000  0.187500     141 t-inv F
  0.187500 -0.312500  0.312500     142 t-inv F
  0.312500  0.187500 -0.312500     142 t-inv F
 -0.312500  0.187500  0.312500     142 t-inv F
  0.312500 -0.312500  0.187500     142 t-inv F
  0.187500  0.312500 -0.312500     142 t-inv F
 -0.375000  0.312500  0.125000     143 t-inv F
  0.125000 -0.375000  0.312500     143 t-inv F
  0.312500 -0.375000  0.125000     143 t-inv F
  0.125000  0.312500 -0.375000     143 t-inv F
 -0.375000  0.125000  0.312500     143 t-inv F
  0.500000 -0.312500  0.375000     144 t-inv F
  0.375000  0.500000 -0.312500     144 t-inv F
 -0.312500  0.500000  0.375000     144 t-inv F
  0.375000 -0.312500  0.500000     144 t-inv F
  0.500000  0.375000 -0.312500     144 t-inv F
 -0.125000  0.187500  0.500000     145 t-inv F
  0.500000 -0.125000  0.187500     145 t-inv F
  0.187500 -0.125000  0.500000     145 t-inv F
  0.500000  0.187500 -0.125000     145 t-inv F
 -0.125000  0.500000  0.187500     145 t-inv F
  0.187500 -0.187500  0.312500     146 t-inv F
  0.312500  0.187500 -0.187500     146 t-inv F
 -0.187500  0.187500  0.312500     146 t-inv F
  0.312500 -0.187500  0.187500     146 t-inv F
  0.187500  0.312500 -0.187500     146 t-inv F
  0.500000  0.312500  0.125000     147 t-inv F
  0.125000  0.500000  0.312500     147 t-inv F
  0.312500  0.500000  0.125000     147 t-inv F
  0.125000  0.312500  0.500000     147 t-inv F
  0.500000  0.125000  0.312500     147 t-inv F
 -0.375000 -0.187500  0.500000     148 t-inv F
  0.500000 -0.375000 -0.187500     148 t-inv F
 -0.187500 -0.375000  0.500000     148 t-inv F
  0.500000 -0.187500 -0.375000     148 t-inv F
 -0.375000  0.500000 -0.187500     148 t-inv F
 -0.125000  0.187500  0.375000     149 t-inv F
  0.375000 -0.125000  0.187500     149 t-inv F
  0.187500 -0.125000  0.375000     149 t-inv F
  0.375000  0.187500 -0.125000     149 t-inv F
 -0.125000  0.375000  0.187500     149 t-inv F
  0.187500  0.437500  0.437500     150 t-inv F
  0.437500  0.187500  0.437500     150 t-inv F
  0.000000  0.437500  0.250000     151 t-inv F
  0.250000  0.000000  0.437500     151 t-inv F
  0.437500  0.000000  0.250000     151 t-inv F
  0.250000  0.437500  0.000000     151 t-inv F
  0.000000  0.250000  0.437500     151 t-inv F
 -0.250000  0.187500 -0.250000     152 t-inv F
 -0.250000 -0.250000  0.187500     152 t-inv F
  0.187500 -0.437500  0.437500     153 t-inv F
  0.437500  0.187500 -0.437500     153 t-inv F
 -0.437500  0.187500  0.437500     153 t-inv F
  0.437500 -0.437500  0.187500     153 t-inv F
  0.187500  0.437500 -0.437500     153 t-inv F
 -0.125000  0.437500  0.250000     154 t-inv F
  0.250000 -0.125000  0.437500     154 t-inv F
  0.437500 -0.125000  0.250000     154 t-inv F
  0.250000  0.437500 -0.125000     154 t-inv F
 -0.125000  0.250000  0.437500     154 t-inv F
  0.375000 -0.437500  0.125000     155 t-inv F
  0.125000  0.375000 -0.437500     155 t-inv F
 -0.437500  0.375000  0.125000     155 t-inv F
  0.125000 -0.437500  0.375000     155 t-inv F
  0.375000  0.125000 -0.437500     155 t-inv F
 -0.250000  0.187500 -0.375000     156 t-inv F
 -0.375000 -0.250000  0.187500     156 t-inv F
  0.187500 -0.250000 -0.375000     156 t-inv F
 -0.375000  0.187500 -0.250000     156 t-inv F
 -0.250000 -0.375000  0.187500     156 t-inv F
  0.187500 -0.312500  0.437500     157 t-inv F
  0.437500  0.187500 -0.312500     157 t-inv F
 -0.312500  0.187500  0.437500     157 t-inv F
  0.437500 -0.312500  0.187500     157 t-inv F
  0.187500  0.437500 -0.312500     157 t-inv F
 -0.250000  0.437500  0.250000     158 t-inv F
  0.250000 -0.250000  0.437500     158 t-inv F
  0.437500 -0.250000  0.250000     158 t-inv F
  0.250000  0.437500 -0.250000     158 t-inv F
 -0.250000  0.250000  0.437500     158 t-inv F
  0.500000 -0.312500  0.250000     159 t-inv F
  0.250000  0.500000 -0.312500     159 t-inv F
 -0.312500  0.500000  0.250000     159 t-inv F
  0.250000 -0.312500  0.500000     159 t-inv F
  0.500000  0.250000 -0.312500     159 t-inv F
 -0.250000  0.187500  0.500000     160 t-inv F
  0.500000 -0.250000  0.187500     160 t-inv F
  0.187500 -0.250000  0.500000     160 t-inv F
  0.500000  0.187500 -0.250000     160 t-inv F
 -0.250000  0.500000  0.187500     160 t-inv F
  0.187500 -0.187500  0.437500     161 t-inv F
  0.437500  0.187500 -0.187500     161 t-inv F
 -0.187500  0.187500  0.437500     161 t-inv F
  0.437500 -0.187500  0.187500     161 t-inv F
  0.187500  0.437500 -0.187500     161 t-inv F
 -0.375000  0.437500  0.250000     162 t-inv F
  0.250000 -0.375000  0.437500     162 t-inv F
  0.437500 -0.375000  0.250000     162 t-inv F
  0.250000  0.437500 -0.375000     162 t-inv F
 -0.375000  0.250000  0.437500     162 t-inv F
 -0.375000 -0.187500  0.375000     163 t-inv F
  0.375000 -0.375000 -0.187500     163 t-inv F
 -0.187500 -0.375000  0.375000     163 t-inv F
  0.375000 -0.187500 -0.375000     163 t-inv F
 -0.375000  0.375000 -0.187500     163 t-inv F
 -0.250000  0.187500  0.375000     164 t-inv F
  0.375000 -0.250000  0.187500     164 t-inv F
  0.187500 -0.250000  0.375000     164 t-inv F
  0.375000  0.187500 -0.250000     164 t-inv F
 -0.250000  0.375000  0.187500     164 t-inv F
  0.187500 -0.437500 -0.437500     165 t-inv F
 -0.437500  0.187500 -0.437500     165 t-inv F
  0.000000 -0.437500  0.375000     166 t-inv F
  0.375000  0.000000 -0.437500     166 t-inv F
 -0.437500  0.000000  0.375000     166 t-inv F
  0.375000 -0.437500  0.000000     166 t-inv F
  0.000000  0.375000 -0.437500     166 t-inv F
 -0.375000  0.187500 -0.375000     167 t-inv F
 -0.375000 -0.375000  0.187500     167 t-inv F
  0.187500 -0.312500 -0.437500     168 t-inv F
 -0.437500  0.187500 -0.312500     168 t-inv F
 -0.312500  0.187500 -0.437500     168 t-inv F
 -0.437500 -0.312500  0.187500     168 t-inv F
  0.187500 -0.437500 -0.312500     168 t-inv F
 -0.125000 -0.437500  0.375000     169 t-inv F
  0.375000 -0.125000 -0.437500     169 t-inv F
 -0.437500 -0.125000  0.375000     169 t-inv F
  0.375000 -0.437500 -0.125000     169 t-inv F
 -0.125000  0.375000 -0.437500     169 t-inv F
  0.500000 -0.312500  0.125000     170 t-inv F
  0.125000  0.500000 -0.312500     170 t-inv F
 -0.312500  0.500000  0.125000     170 t-inv F
  0.125000 -0.312500  0.500000     170 t-inv F
  0.500000  0.125000 -0.312500     170 t-inv F
 -0.375000  0.187500  0.500000     171 t-inv F
  0.500000 -0.375000  0.187500     171 t-inv F
  0.187500 -0.375000  0.500000     171 t-inv F
  0.500000  0.187500 -0.375000     171 t-inv F
 -0.375000  0.500000  0.187500     171 t-inv F
  0.187500 -0.312500 -0.312500     172 t-inv F
 -0.312500  0.187500 -0.312500     172 t-inv F
  0.000000 -0.312500  0.500000     173 t-inv F
  0.500000  0.000000 -0.312500     173 t-inv F
 -0.312500  0.000000  0.500000     173 t-inv F
  0.500000 -0.312500  0.000000     173 t-inv F
  0.000000  0.500000 -0.312500     173 t-inv F
  0.500000  0.187500  0.500000     174 t-inv F
  0.500000  0.500000  0.187500     174 t-inv F
  0.000000  0.312500  0.000000     176 t-inv F
  0.000000  0.000000  0.312500     176 t-inv F
  0.312500  0.437500  0.312500     177 t-inv F
  0.312500  0.312500  0.437500     177 t-inv F
 -0.125000  0.312500  0.000000     178 t-inv F
  0.000000 -0.125000  0.312500     178 t-inv F
  0.312500 -0.125000  0.000000     178 t-inv F
  0.000000  0.312500 -0.125000     178 t-inv F
 -0.125000  0.000000  0.312500     178 t-inv F
  0.125000  0.437500  0.125000     179 t-inv F
  0.125000  0.125000  0.437500     179 t-inv F
  0.312500 -0.437500  0.312500     180 t-inv F
  0.312500  0.312500 -0.437500     180 t-inv F
 -0.250000  0.312500  0.000000     181 t-inv F
  0.000000 -0.250000  0.312500     181 t-inv F
  0.312500 -0.250000  0.000000     181 t-inv F
  0.000000  0.312500 -0.250000     181 t-inv F
 -0.250000  0.000000  0.312500     181 t-inv F
  0.250000 -0.437500  0.250000     182 t-inv F
  0.250000  0.250000 -0.437500     182 t-inv F
  0.312500 -0.312500  0.312500     183 t-inv F
  0.312500  0.312500 -0.312500     183 t-inv F
 -0.375000  0.312500  0.000000     184 t-inv F
  0.000000 -0.375000  0.312500     184 t-inv F
  0.312500 -0.375000  0.000000     184 t-inv F
  0.000000  0.312500 -0.375000     184 t-inv F
 -0.375000  0.000000  0.312500     184 t-inv F
  0.375000 -0.312500  0.375000     185 t-inv F
  0.375000  0.375000 -0.312500     185 t-inv F
  0.312500  0.437500  0.437500     186 t-inv F
  0.437500  0.312500  0.437500     186 t-inv F
  0.000000  0.437500  0.125000     187 t-inv F
  0.125000  0.000000  0.437500     187 t-inv F
  0.437500  0.000000  0.125000     187 t-inv F
  0.125000  0.437500  0.000000     187 t-inv F
  0.000000  0.125000  0.437500     187 t-inv F
 -0.125000  0.312500 -0.125000     188 t-inv F
 -0.125000 -0.125000  0.312500     188 t-inv F
  0.312500 -0.437500  0.437500     189 t-inv F
  0.437500  0.312500 -0.437500     189 t-inv F
 -0.437500  0.312500  0.437500     189 t-inv F
  0.437500 -0.437500  0.312500     189 t-inv F
  0.312500  0.437500 -0.437500     189 t-inv F
 -0.125000  0.437500  0.125000     190 t-inv F
  0.125000 -0.125000  0.437500     190 t-inv F
  0.437500 -0.125000  0.125000     190 t-inv F
  0.125000  0.437500 -0.125000     190 t-inv F
 -0.125000  0.125000  0.437500     190 t-inv F
  0.250000 -0.437500  0.125000     191 t-inv F
  0.125000  0.250000 -0.437500     191 t-inv F
 -0.437500  0.250000  0.125000     191 t-inv F
  0.125000 -0.437500  0.250000     191 t-inv F
  0.250000  0.125000 -0.437500     191 t-inv F
 -0.125000  0.312500 -0.250000     192 t-inv F
 -0.250000 -0.125000  0.312500     192 t-inv F
  0.312500 -0.125000 -0.250000     192 t-inv F
 -0.250000  0.312500 -0.125000     192 t-inv F
 -0.125000 -0.250000  0.312500     192 t-inv F
  0.312500 -0.312500  0.437500     193 t-inv F
  0.437500  0.312500 -0.312500     193 t-inv F
 -0.312500  0.312500  0.437500     193 t-inv F
  0.437500 -0.312500  0.312500     193 t-inv F
  0.312500  0.437500 -0.312500     193 t-inv F
 -0.250000  0.437500  0.125000     194 t-inv F
  0.125000 -0.250000  0.437500     194 t-inv F
  0.437500 -0.250000  0.125000     194 t-inv F
  0.125000  0.437500 -0.250000     194 t-inv F
 -0.250000  0.125000  0.437500     194 t-inv F
  0.375000 -0.312500  0.250000     195 t-inv F
  0.250000  0.375000 -0.312500     195 t-inv F
 -0.312500  0.375000  0.250000     195 t-inv F
  0.250000 -0.312500  0.375000     195 t-inv F
  0.375000  0.250000 -0.312500     195 t-inv F
 -0.125000  0.312500 -0.375000     196 t-inv F
 -0.375000 -0.125000  0.312500     196 t-inv F
  0.312500 -0.125000 -0.375000     196 t-inv F
 -0.375000  0.312500 -0.125000     196 t-inv F
 -0.125000 -0.375000  0.312500     196 t-inv F
  0.312500 -0.437500 -0.437500     197 t-inv F
 -0.437500  0.312500 -0.437500     197 t-inv F
  0.000000 -0.437500  0.250000     198 t-inv F
  0.250000  0.000000 -0.437500     198 t-inv F
 -0.437500  0.000000  0.250000     198 t-inv F
  0.250000 -0.437500  0.000000     198 t-inv F
  0.000000  0.250000 -0.437500     198 t-inv F
 -0.250000  0.312500 -0.250000     199 t-inv F
 -0.250000 -0.250000  0.312500     199 t-inv F
  0.000000  0.437500  0.000000     201 t-inv F
  0.000000  0.000000  0.437500     201 t-inv F
  0.437500 -0.437500  0.437500     202 t-inv F
  0.437500  0.437500 -0.437500     202 t-inv F
 -0.125000  0.437500  0.000000     203 t-inv F
  0.000000 -0.125000  0.437500     203 t-inv F
  0.437500 -0.125000  0.000000     203 t-inv F
  0.000000  0.437500 -0.125000     203 t-inv F
 -0.125000  0.000000  0.437500     203 t-inv F
  0.125000 -0.437500  0.125000     204 t-inv F
  0.125000  0.125000 -0.437500     204 t-inv F
 -0.062500 -0.062500 -0.062500       1 t-inv T
 -0.062500 -0.000000 -0.000000       2 t-inv T
 -0.000000 -0.062500 -0.000000       2 t-inv T
 -0.000000 -0.000000 -0.062500       2 t-inv T
 -0.187500 -0.062500 -0.062500       3 t-inv T
 -0.062500 -0.187500 -0.062500       3 t-inv T
 -0.062500 -0.062500 -0.187500       3 t-inv T
 -0.062500 -0.000000  0.125000       4 t-inv T
  0.125000 -0.062500 -0.000000       4 t-inv T
 -0.000000  0.125000 -0.062500       4 t-inv T
 -0.062500  0.125000 -0.000000       4 t-inv T
 -0.000000 -0.062500  0.125000       4 t-inv T
  0.125000 -0.000000 -0.062500       4 t-inv T
 -0.187500 -0.125000 -0.125000       5 t-inv T
 -0.125000 -0.187500 -0.125000       5 t-inv T
 -0.125000 -0.125000 -0.187500       5 t-inv T
 -0.312500 -0.062500 -0.062500       6 t-inv T
 -0.062500 -0.312500 -0.062500       6 t-inv T
 -0.062500 -0.062500 -0.312500       6 t-inv T
 -0.062500 -0.000000  0.250000       7 t-inv T
  0.250000 -0.062500 -0.000000       7 t-inv T
 -0.000000  0.250000 -0.062500       7 t-inv T
 -0.062500  0.250000 -0.000000       7 t-inv T
 -0.000000 -0.062500  0.250000       7 t-inv T
  0.250000 -0.000000 -0.062500       7 t-inv T
 -0.312500 -0.250000 -0.250000       8 t-inv T
 -0.250000 -0.312500 -0.250000       8 t-inv T
 -0.250000 -0.250000 -0.312500       8 t-inv T
 -0.437500 -0.062500 -0.062500       9 t-inv T
[...]
      1      -0.7736      0.00000
      2      -1.4586      0.00000
      3       5.5088      0.00000
      4       2.8648      0.00000
      5      -1.0663      0.00000
      6       0.6134      0.00000
      7      -0.1484      0.00000
      8       6.7054      0.00000
      9       1.2287      0.00000
     10      -0.8160      0.00000
     11       0.5654      0.00000
     12       2.4857      0.00000
     13       5.1508      0.00000
     14       9.4835      0.00000
     15       1.1559      0.00000
     16       1.4088      0.00000
     17      -3.2118      0.00000
     18      -1.5772      0.00000
     19      -1.6024      0.00000
     20      -2.0479      0.00000
     21       1.5401      0.00000
     22       2.4614      0.00000
     23       0.4111      0.00000
     24       0.7783      0.00000
     25      -0.8127      0.00000
     26       6.3117      0.00000
     27      -1.3624      0.00000
     28       0.7460      0.00000
     29       0.8810      0.00000
     30       0.6868      0.00000
     31       2.2989      0.00000
     32       2.4592      0.00000

 k-point 540 :       0.0000    0.4375    0.0000
  band No.  band energies     occupation
      1      -0.9852      0.00000
      2      -1.6058      0.00000
      3      -3.0276      0.00000
      4      16.7613      0.00000
      5      -2.2822      0.00000
      6       0.1973      0.00000
      7      -1.6522      0.00000
      8      -1.8157      0.00000
      9      -0.3640      0.00000
     10       2.4818      0.00000
     11      12.4890      0.00000
     12       2.3739      0.00000
     13       1.1299      0.00000
     14       2.6421      0.00000
     15      -0.3338      0.00000
     16       0.3756      0.00000
     17      -1.1579      0.00000
     18      -1.4523      0.00000
     19      -1.3952      0.00000
     20       4.2023      0.00000
     21       0.2152      0.00000
     22       4.1466      0.00000
     23      -2.1744      0.00000
     24      -9.0286      0.00000
     25       0.3449      0.00000
     26      14.8198      0.00000
     27      16.7974      0.00000
     28       0.9353      0.00000
     29       2.6081      0.00000
     30      -1.1457      0.00000
     31       2.6566      0.00000
     32       0.3859      0.00000

 k-point 541 :       0.4375   -0.4375    0.4375
  band No.  band energies     occupation
      1       4.7177      0.00000
      2       0.5230      0.00000
      3      -1.3442      0.00000
      4      -2.6655      0.00000
      5       8.3593      0.00000
      6      -1.8980      0.00000
      7       2.7389      0.00000
      8       7.2201      0.00000
      9      -4.4450      0.00000
     10       2.2766      0.00000
     11       5.8085      0.00000
     12      -0.6068      0.00000
     13       2.8275      0.00000
     14      -2.4289      0.00000
     15       9.8263      0.00000
     16      -2.0156      0.00000
     17       0.1335      0.00000
     18       2.5526      0.00000
     19      -3.9685      0.00000
     20      -7.7460      0.00000
     21      -0.5592      0.00000
     22      11.1514      0.00000
     23      -0.1958      0.00000
     24       3.8502      0.00000
     25       0.2841      0.00000
     26       0.2239      0.00000
     27      -1.2029      0.00000
     28      -0.2648      0.00000
     29       1.8520      0.00000
     30      -0.6797      0.00000
     31       0.7066      0.00000
     32       0.8916      0.00000

 k-point 542 :       0.4375   -0.1250    0.0000
  band No.  band energies     occupation
      1      -0.2825      0.00000
      2      -1.7594      0.00000
      3       0.3151      0.00000
      4       8.4892      0.00000
      5       2.4053      0.00000
      6       0.5977      0.00000
      7      -0.1280      0.00000
      8       1.8581      0.00000
      9       1.5219      0.00000
     10       0.9643      0.00000
     11      -0.0461      0.00000
     12       0.4353      0.00000
     13       7.2357      0.00000
     14      -1.3221      0.00000
     15       2.6935      0.00000
     16       3.8374      0.00000
     17       2.3375      0.00000
     18       1.2639      0.00000
     19       1.1748      0.00000
     20       2.2144      0.00000
     21      -2.6536      0.00000
     22       2.4203      0.00000
     23      -0.1060      0.00000
     24       0.2379      0.00000
     25       2.6300      0.00000
     26       0.8002      0.00000
     27      -1.3925      0.00000
     28       2.0208      0.00000
     29       3.7328      0.00000
     30       0.2844      0.00000
     31      -5.3660      0.00000
     32      -0.0323      0.00000

 k-point 543 :       0.1250   -0.4375    0.1250
  band No.  band energies     occupation
      1      -1.0460      0.00000
      2      -1.5220      0.00000
      3       1.3643      0.00000
      4      11.0900      0.00000
      5      -2.0149      0.00000
      6      -0.8425      0.00000
      7       0.0991      0.00000
      8       1.5960      0.00000
      9       0.5934      0.00000
     10       1.9911      0.00000
     11       7.7360      0.00000
     12       2.4928      0.00000
     13       1.0431      0.00000
     14       6.4748      0.00000
     15       0.5544      0.00000
     16       0.8056      0.00000
     17      -2.1898      0.00000
     18      -2.7383      0.00000
     19      -2.2585      0.00000
     20       0.3888      0.00000
     21      -0.4996      0.00000
     22       5.2638      0.00000
     23       0.8107      0.00000
     24       0.2678      0.00000
     25       3.4255      0.00000
     26       1.4140      0.00000
     27       0.2698      0.00000
     28      11.2962      0.00000
     29       4.1466      0.00000
     30       2.8181      0.00000
     31       1.5326      0.00000
     32      -8.3582      0.00000

 k-point 544 :       0.0000    0.4375   -0.1250
  band No.  band energies     occupation
      1      -0.9452      0.00000
      2      -1.5256      0.00000
      3      -2.4072      0.00000
      4      15.4901      0.00000
      5      -2.5340      0.00000
      6       1.2794      0.00000
      7      -3.7967      0.00000
      8       1.5813      0.00000
      9       1.6286      0.00000
     10       2.0625      0.00000
     11      10.1666      0.00000
     12       2.0546      0.00000
     13       1.0990      0.00000
     14       0.6861      0.00000
     15       3.0127      0.00000
     16      -2.8083      0.00000
     17       0.9788      0.00000
     18      -1.8590      0.00000
     19       1.2488      0.00000
     20       0.8906      0.00000
     21       1.5296      0.00000
     22       0.3897      0.00000
     23       0.7387      0.00000
     24       4.0127      0.00000
     25       2.7213      0.00000
     26       1.9393      0.00000
     27       2.3161      0.00000
     28       2.3903      0.00000
     29       7.3314      0.00000
     30      -0.7275      0.00000
     31      -2.3726      0.00000
     32      -3.0375      0.00000


------------------------ aborting loop because EDIFF is reached ----------------------------------------


 FEWALD executed in parallel
    FORLOC:  cpu time    0.00: real time    0.00
    FORNL :  cpu time    0.12: real time    0.12
    STRESS:  cpu time    1.17: real time    1.17
    FORCOR:  cpu time    0.01: real time    0.01
    OFIELD:  cpu time    0.00: real time    0.00
 FEWALD executed in parallel
    FORLOC:  cpu time    0.00: real time    0.00
    FORNL :  cpu time    0.12: real time    0.12
    STRESS:  cpu time    1.17: real time    1.17
    FORCOR:  cpu time    0.02: real time    0.01
    OFIELD:  cpu time    0.00: real time    0.00
 FEWALD executed in parallel
    FORLOC:  cpu time    0.00: real time    0.00
    FORNL :  cpu time    0.12: real time    0.12
    STRESS:  cpu time    1.17: real time    1.17
    FORCOR:  cpu time    0.01: real time    0.01
    OFIELD:  cpu time    0.00: real time    0.00
 FEWALD executed in parallel
    FORLOC:  cpu time    0.00: real time    0.00
    FORNL :  cpu time    0.12: real time    0.12
    STRESS:  cpu time    1.17: real time    1.17
    FORCOR:  cpu time    0.01: real time    0.01
    OFIELD:  cpu time    0.00: real time    0.00

 INTERNAL STRAIN TENSOR  FOR ION    2  DIRECTION 1   (eV/Angst):
 -----------------------------------------------------------------------------
   570.98927-73.73379-73.73379
   -73.52383******************
   -73.52383******************


 POSITION                   FORCE-CONSTANT FOR ION    2 DIRECTION 1 (eV/Angst/Angst)
 -----------------------------------------------------------------------------------
      0.00000      0.00000      0.00000       329.868719   2829.280221   2829.280221
      0.25000      0.25000      0.25000      -329.868719  -2829.280221  -2829.280221
 -----------------------------------------------------------------------------------
    total drift:                                0.000000      0.000000      0.000000


 BORN EFFECTIVE CHARGE FOR ION    2 DIRECTION 1 :  -2.355   0.365   0.365
                   rigid augmentation           :  -0.508   0.000   0.000
                   ionic contribution           :   4.000   0.000   0.000
                   Berry contribution           :  -5.847   0.365   0.365


--------------------------------------------------------------------------------------------------------


  LATTYP: Found a face centered cubic cell.
 ALAT       =     4.3500000000

  Lattice vectors:

 A1 = (   2.1750000000,   2.1750000000,   0.0000000000)
 A2 = (   0.0000000000,   2.1750000000,   2.1750000000)
 A3 = (   2.1750000000,   0.0000000000,   2.1750000000)


Analysis of symmetry for initial positions (statically):
=====================================================================
 Subroutine PRICEL returns:
 Original cell was already a primitive cell.


 Routine SETGRP: Setting up the symmetry group for a
 face centered cubic supercell.


 Subroutine GETGRP returns: Found  6 space group operations
 (whereof  6 operations were pure point group operations)
 out of a pool of 48 trial point group operations.


The static configuration has the point symmetry C_3v.


Analysis of symmetry for dynamics (positions and initial velocities):
=====================================================================
 Subroutine PRICEL returns:
 Original cell was already a primitive cell.


 Routine SETGRP: Setting up the symmetry group for a
 face centered cubic supercell.


 Subroutine GETGRP returns: Found  6 space group operations
 (whereof  6 operations were pure point group operations)
 out of a pool of 48 trial point group operations.


The dynamic configuration has the point symmetry C_3v.


Analysis of magnetic symmetry:
=====================================================================
 Subroutine PRICEL returns:
 Original cell was already a primitive cell.


 Subroutine MAGSYM returns: Found  6 space group operations
 (whereof  6 operations were pure point group operations)
 out of a pool of  6 trial space group operations
 (whereof  6 operations were pure point group operations)
 and found also     1 'primitive' translations


The magnetic configuration has the point symmetry C_3v.


--------------------------------------------------------------------------------------------------------




 MACROSCOPIC STATIC DIELECTRIC TENSOR (including local field effects in DFT)
 ------------------------------------------------------
           3.716432    -0.204640    -0.204640
          -0.204640     3.716432    -0.204640
          -0.204640    -0.204640     3.716432
 ------------------------------------------------------


 PIEZOELECTRIC TENSOR  for field in x, y, z        (e  Angst)
          XX          YY          ZZ          XY          YZ          ZX
  --------------------------------------------------------------------------------
  x     0.67813     0.31980     0.31980     0.44698    -0.20517     0.44699
  y     0.31981     0.67821     0.31981     0.46235     0.46234    -0.20497
  z     0.31981     0.31981     0.67811    -0.20499     0.47773     0.47772

 PIEZOELECTRIC TENSOR  for field in x, y, z        (C/m^2)
          XX          YY          ZZ          XY          YZ          ZX
  --------------------------------------------------------------------------------
  x     0.52799     0.24900     0.24900     0.35997    -0.15964     0.35998
  y     0.24900     0.52799     0.24900     0.35998     0.35997    -0.15964
  z     0.24900     0.24900     0.52799    -0.15964     0.35998     0.35997

 BORN EFFECTIVE CHARGES (including local field effects) (in e, cummulative output)
 ---------------------------------------------------------------------------------
 ion    1
    1     2.54988    -0.38491    -0.38491
    2    -0.38500     2.54981    -0.38500
    3    -0.38488    -0.38488     2.54991
 ion    2
    1    -2.35452     0.36467     0.36467
    2     0.36471    -2.35444     0.36471
    3     0.36465     0.36465    -2.35455

 INTERNAL STRAIN TENSOR FOR ION    1 for displacements in x,y,z  (eV/Angst):
          X           Y           Z          XY          YZ          ZX
  --------------------------------------------------------------------------------
  x  -572.54371   683.29853   683.29853    73.45759   698.91648    73.07058
  y   683.29853  -572.54371   683.29853    73.07058    73.45759   698.91648
  z   683.29853   683.29853  -572.54371   698.91648    73.07058    73.45759

 INTERNAL STRAIN TENSOR FOR ION    2 for displacements in x,y,z  (eV/Angst):
          X           Y           Z          XY          YZ          ZX
  --------------------------------------------------------------------------------
  x   570.98927  -683.68519  -683.68519   -73.52383  -699.03398   -73.73379
  y  -683.68519   570.98927  -683.68519   -73.73379   -73.52383  -699.03398
  z  -683.68519  -683.68519   570.98927  -699.03398   -73.73379   -73.52383


--------------------------------------------------------------------------------------------------------



 SECOND DERIVATIVES (NOT SYMMETRIZED)
 ------------------------------------
               1X          1Y          1Z          2X          2Y          2Z
  1X  -330.030675-2829.327436-2829.327436  330.030675 2829.327436 2829.327436
  1Y -2829.327436 -330.030675-2829.327436 2829.327436  330.030675 2829.327436
  1Z -2829.327436-2829.327436 -330.030675 2829.327436 2829.327436  330.030675
  2X   329.868719 2829.280221 2829.280221 -329.868719-2829.280221-2829.280221
  2Y  2829.280221  329.868719 2829.280221-2829.280221 -329.868719-2829.280221
  2Z  2829.280221 2829.280221  329.868719-2829.280221-2829.280221 -329.868719


 Eigenvectors and eigenvalues of the dynamical matrix
 ----------------------------------------------------


   1 f  =  417.093755 THz  2620.677353 2PiTHz13912.749672 cm-1  1724.961735 meV
             X         Y         Z           dx          dy          dz
      0.000000  0.000000  0.000000     0.315998    0.315998    0.315998
      0.249999  0.249999  0.249999    -0.483196   -0.483196   -0.483196

   2 f  =    0.002833 THz     0.017801 2PiTHz    0.094504 cm-1     0.011717 meV
             X         Y         Z           dx          dy          dz
      0.000000  0.000000  0.000000     0.660071   -0.176882   -0.483190
      0.249999  0.249999  0.249999     0.431652   -0.115671   -0.315980

   3 f  =    0.002833 THz     0.017801 2PiTHz    0.094504 cm-1     0.011717 meV
             X         Y         Z           dx          dy          dz
      0.000000  0.000000  0.000000    -0.176847    0.660062   -0.483215
      0.249999  0.249999  0.249999    -0.115648    0.431646   -0.315997

   4 f/i=    0.004090 THz     0.025697 2PiTHz    0.136422 cm-1     0.016914 meV
             X         Y         Z           dx          dy          dz
      0.000000  0.000000  0.000000    -0.483196   -0.483196   -0.483196
      0.249999  0.249999  0.249999    -0.315998   -0.315998   -0.315998

   5 f/i=  269.457540 THz  1693.051654 2PiTHz 8988.135764 cm-1  1114.387208 meV
             X         Y         Z           dx          dy          dz
      0.000000  0.000000  0.000000    -0.141731   -0.296159    0.437891
      0.249999  0.249999  0.249999     0.216732    0.452880   -0.669612

   6 f/i=  269.457540 THz  1693.051654 2PiTHz 8988.135764 cm-1  1114.387208 meV
             X         Y         Z           dx          dy          dz
      0.000000  0.000000  0.000000    -0.423804    0.334645    0.089159
      0.249999  0.249999  0.249999     0.648071   -0.511731   -0.136340



--------------------------------------------------------------------------------------------------------




 MACROSCOPIC STATIC DIELECTRIC TENSOR IONIC CONTRIBUTION
 ------------------------------------------------------
           0.001419     0.001419     0.001419
           0.001419     0.001419     0.001419
           0.001419     0.001419     0.001419
 ------------------------------------------------------


 ELASTIC MODULI IONIC CONTR (kBar)
 Direction    XX          YY          ZZ          XY          YZ          ZX
 --------------------------------------------------------------------------------
 XX       -2740.5068  -2740.5068  -2740.5068  -2915.0618  -2915.0618  -2915.0618
 YY       -2740.5068  -2740.5068  -2740.5068  -2915.0618  -2915.0618  -2915.0618
 ZZ       -2740.5068  -2740.5068  -2740.5068  -2915.0618  -2915.0618  -2915.0618
 XY       -2915.0618  -2915.0618  -2915.0618  -3100.7350  -3100.7350  -3100.7350
 YZ       -2915.0618  -2915.0618  -2915.0618  -3100.7350  -3100.7350  -3100.7350
 ZX       -2915.0618  -2915.0618  -2915.0618  -3100.7350  -3100.7350  -3100.7350
 --------------------------------------------------------------------------------


 PIEZOELECTRIC TENSOR IONIC CONTR  for field in x, y, z        (C/m^2)
          XX          YY          ZZ          XY          YZ          ZX
  --------------------------------------------------------------------------------
  x     0.05868     0.05868     0.05868     0.06241     0.06241     0.06241
  y     0.05867     0.05867     0.05867     0.06241     0.06241     0.06241
  z     0.05868     0.05868     0.05868     0.06242     0.06242     0.06242


--------------------------------------------------------------------------------------------------------


     LOOP+:  cpu time  675.70: real time  765.54
    4ORBIT:  cpu time    0.00: real time    0.00



 total charge

# of ion     s       p       d       tot
----------------------------------------
  1        2.422   2.440   0.000   4.862
  2        0.768   4.116   0.000   4.884
------------------------------------------------
tot        3.190   6.556   0.000   9.746



 magnetization (x)

# of ion     s       p       d       tot
----------------------------------------
  1        0.000   0.000   0.000   0.000
  2        0.000   0.000   0.000   0.000
------------------------------------------------
tot        0.000   0.000   0.000   0.000

 BZINTS: Fermi energy:  4.251132;  8.000000 electrons
         Band energy:   0.843052;  BLOECHL correction:  0.000000

 total amount of memory used by VASP on root node    40433. kBytes
========================================================================

   base      :      30000. kBytes
   nonl-proj :       7529. kBytes
   fftplans  :        111. kBytes
   grid      :        693. kBytes
   one-center:         12. kBytes
   wavefun   :       2088. kBytes



 General timing and accounting informations for this job:
 ========================================================

                  Total CPU time used (sec):      682.091
                            User time (sec):      677.338
                          System time (sec):        4.752
                         Elapsed time (sec):      772.445

                   Maximum memory used (kb):       39384.
                   Average memory used (kb):           0.

                          Minor page faults:       539490
                          Major page faults:            0
                 Voluntary context switches:         7263
