<?xml version="1.0" encoding="ISO-8859-1"?>
<modeling>
 <generator>
  <i name="program" type="string">vasp </i>
  <i name="version" type="string">5.2.12  </i>
  <i name="subversion" type="string">11Nov11 complex                                                      parallel </i>
  <i name="platform" type="string">LinuxIFC </i>
  <i name="date" type="string">2014 12 20 </i>
  <i name="time" type="string">13:42:58 </i>
 </generator>
 <incar>
  <i type="string" name="PREC">accurate</i>
  <i type="string" name="ALGO"> Fast</i>
  <i type="int" name="ISPIN">     1</i>
  <i type="int" name="ICHARG">     0</i>
  <i type="int" name="NELM">   100</i>
  <i type="int" name="IBRION">    -1</i>
  <i name="EDIFF">      0.00000200</i>
  <i type="int" name="NSW">     0</i>
  <i type="int" name="ISIF">     3</i>
  <i name="ENCUT">    520.00000000</i>
  <i type="string" name="LREAL"> Auto</i>
  <i type="int" name="ISMEAR">    -5</i>
  <i name="SIGMA">      0.20000000</i>
  <i type="logical" name="LWAVE"> F  </i>
  <i type="logical" name="LCHARG"> F  </i>
  <i type="logical" name="LOPTICS"> T  </i>
  <i type="logical" name="LSCALAPACK"> F  </i>
  <i type="int" name="NELM">   100</i>
 </incar>
 <kpoints>
  <generation param="Gamma">
   <v type="int" name="divisions">       9        9        9 </v>
   <v name="usershift">      0.00000000       0.00000000       0.00000000 </v>
   <v name="genvec1">      0.11111111       0.00000000       0.00000000 </v>
   <v name="genvec2">      0.00000000       0.11111111       0.00000000 </v>
   <v name="genvec3">      0.00000000       0.00000000       0.11111111 </v>
   <v name="shift">      0.00000000       0.00000000       0.00000000 </v>
  </generation>
  <varray name="kpointlist" >
   <v>       0.00000000       0.00000000       0.00000000 </v>
   <v>       0.11111111       0.00000000       0.00000000 </v>
   <v>       0.22222222       0.00000000       0.00000000 </v>
   <v>       0.33333333       0.00000000       0.00000000 </v>
   <v>       0.44444444       0.00000000       0.00000000 </v>
   <v>       0.11111111       0.11111111       0.00000000 </v>
   <v>       0.22222222       0.11111111       0.00000000 </v>
   <v>       0.33333333       0.11111111       0.00000000 </v>
   <v>       0.44444444       0.11111111       0.00000000 </v>
   <v>      -0.44444444       0.11111111       0.00000000 </v>
   <v>      -0.33333333       0.11111111       0.00000000 </v>
   <v>      -0.22222222       0.11111111       0.00000000 </v>
   <v>      -0.11111111       0.11111111       0.00000000 </v>
   <v>       0.22222222       0.22222222       0.00000000 </v>
   <v>       0.33333333       0.22222222       0.00000000 </v>
   <v>       0.44444444       0.22222222       0.00000000 </v>
   <v>      -0.44444444       0.22222222       0.00000000 </v>
   <v>      -0.33333333       0.22222222       0.00000000 </v>
   <v>      -0.22222222       0.22222222       0.00000000 </v>
   <v>       0.33333333       0.33333333       0.00000000 </v>
   <v>       0.44444444       0.33333333       0.00000000 </v>
   <v>      -0.44444444       0.33333333       0.00000000 </v>
   <v>      -0.33333333       0.33333333       0.00000000 </v>
   <v>       0.44444444       0.44444444       0.00000000 </v>
   <v>      -0.44444444       0.44444444       0.00000000 </v>
   <v>       0.33333333       0.22222222       0.11111111 </v>
   <v>       0.44444444       0.22222222       0.11111111 </v>
   <v>      -0.44444444       0.22222222       0.11111111 </v>
   <v>       0.44444444       0.33333333       0.11111111 </v>
   <v>      -0.44444444       0.33333333       0.11111111 </v>
   <v>      -0.33333333       0.33333333       0.11111111 </v>
   <v>      -0.22222222       0.33333333       0.11111111 </v>
   <v>      -0.44444444       0.44444444       0.11111111 </v>
   <v>      -0.33333333       0.44444444       0.11111111 </v>
   <v>      -0.33333333       0.44444444       0.22222222 </v>
  </varray>
  <varray name="weights" >
   <v>       0.00137174 </v>
   <v>       0.01097394 </v>
   <v>       0.01097394 </v>
   <v>       0.01097394 </v>
   <v>       0.01097394 </v>
   <v>       0.00823045 </v>
   <v>       0.03292181 </v>
   <v>       0.03292181 </v>
   <v>       0.03292181 </v>
   <v>       0.03292181 </v>
   <v>       0.03292181 </v>
   <v>       0.03292181 </v>
   <v>       0.01646091 </v>
   <v>       0.00823045 </v>
   <v>       0.03292181 </v>
   <v>       0.03292181 </v>
   <v>       0.03292181 </v>
   <v>       0.03292181 </v>
   <v>       0.01646091 </v>
   <v>       0.00823045 </v>
   <v>       0.03292181 </v>
   <v>       0.03292181 </v>
   <v>       0.01646091 </v>
   <v>       0.00823045 </v>
   <v>       0.01646091 </v>
   <v>       0.03292181 </v>
   <v>       0.06584362 </v>
   <v>       0.06584362 </v>
   <v>       0.03292181 </v>
   <v>       0.06584362 </v>
   <v>       0.06584362 </v>
   <v>       0.03292181 </v>
   <v>       0.03292181 </v>
   <v>       0.03292181 </v>
   <v>       0.03292181 </v>
  </varray>
  <varray name="tetrahedronlist"  type="int" >
   <v type="int" >       24        1        2        2        6 </v>
   <v type="int" >       48        2        6        7       13 </v>
   <v type="int" >       48        2        3        7       13 </v>
   <v type="int" >       24        2        2        6       13 </v>
   <v type="int" >       48        3        7        8       12 </v>
   <v type="int" >       48        3        4        8       12 </v>
   <v type="int" >       48        3        7       12       13 </v>
   <v type="int" >       48        4        8        9       11 </v>
   <v type="int" >       48        4        5        9       11 </v>
   <v type="int" >       48        4        8       11       12 </v>
   <v type="int" >       48        5        9       10       10 </v>
   <v type="int" >       24        5        5       10       10 </v>
   <v type="int" >       48        5        9       10       11 </v>
   <v type="int" >       24        6        7        7       14 </v>
   <v type="int" >       24        6        7        7       13 </v>
   <v type="int" >       48        7       14       15       26 </v>
   <v type="int" >       48        7        8       15       26 </v>
   <v type="int" >       48        7        8       12       26 </v>
   <v type="int" >       24        7        7       14       26 </v>
   <v type="int" >       24        7        7       13       26 </v>
   <v type="int" >       48        7       12       13       26 </v>
   <v type="int" >       48        8       15       16       27 </v>
   <v type="int" >       48        8        9       16       27 </v>
   <v type="int" >       48        8        9       11       27 </v>
   <v type="int" >       48        8       15       26       27 </v>
   <v type="int" >       48        8       12       26       27 </v>
   <v type="int" >       48        8       11       12       27 </v>
   <v type="int" >       48        9       16       17       28 </v>
   <v type="int" >       48        9       10       17       28 </v>
   <v type="int" >       48        9       10       10       28 </v>
   <v type="int" >       48        9       16       27       28 </v>
   <v type="int" >       48        9       11       27       28 </v>
   <v type="int" >       48        9       10       11       28 </v>
   <v type="int" >       48       10       17       18       28 </v>
   <v type="int" >       48       10       11       18       28 </v>
   <v type="int" >       48       10       17       28       28 </v>
   <v type="int" >       24       10       10       28       28 </v>
   <v type="int" >       48       11       18       19       27 </v>
   <v type="int" >       48       11       12       19       27 </v>
   <v type="int" >       48       11       18       27       28 </v>
   <v type="int" >       24       12       12       19       26 </v>
   <v type="int" >       24       12       12       13       26 </v>
   <v type="int" >       48       12       19       26       27 </v>
   <v type="int" >       24       14       15       15       20 </v>
   <v type="int" >       24       14       15       15       26 </v>
   <v type="int" >       48       15       20       21       29 </v>
   <v type="int" >       48       15       16       21       29 </v>
   <v type="int" >       48       15       16       27       29 </v>
   <v type="int" >       24       15       15       20       29 </v>
   <v type="int" >       24       15       15       26       29 </v>
   <v type="int" >       48       15       26       27       29 </v>
   <v type="int" >       48       16       21       22       30 </v>
   <v type="int" >       48       16       17       22       30 </v>
   <v type="int" >       48       16       17       28       30 </v>
   <v type="int" >       48       16       21       29       30 </v>
   <v type="int" >       48       16       27       29       30 </v>
   <v type="int" >       48       16       27       28       30 </v>
   <v type="int" >       48       17       22       23       31 </v>
   <v type="int" >       48       17       18       23       31 </v>
   <v type="int" >       48       17       18       28       31 </v>
   <v type="int" >       48       17       22       30       31 </v>
   <v type="int" >       48       17       28       30       31 </v>
   <v type="int" >       48       17       28       28       31 </v>
   <v type="int" >       24       18       18       23       32 </v>
   <v type="int" >       24       18       18       19       32 </v>
   <v type="int" >       48       18       19       27       32 </v>
   <v type="int" >       48       18       23       31       32 </v>
   <v type="int" >       48       18       28       31       32 </v>
   <v type="int" >       48       18       27       28       32 </v>
   <v type="int" >       24       19       27       27       32 </v>
   <v type="int" >       24       19       26       27       27 </v>
   <v type="int" >       24       20       21       21       24 </v>
   <v type="int" >       24       20       21       21       29 </v>
   <v type="int" >       48       21       24       25       33 </v>
   <v type="int" >       48       21       22       25       33 </v>
   <v type="int" >       48       21       22       30       33 </v>
   <v type="int" >       24       21       21       24       33 </v>
   <v type="int" >       24       21       21       29       33 </v>
   <v type="int" >       48       21       29       30       33 </v>
   <v type="int" >       24       22       22       25       34 </v>
   <v type="int" >       24       22       22       23       34 </v>
   <v type="int" >       48       22       23       31       34 </v>
   <v type="int" >       48       22       25       33       34 </v>
   <v type="int" >       48       22       30       33       34 </v>
   <v type="int" >       48       22       30       31       34 </v>
   <v type="int" >       24       23       31       31       34 </v>
   <v type="int" >       24       23       31       31       32 </v>
   <v type="int" >       12       24       24       25       25 </v>
   <v type="int" >       24       24       25       25       33 </v>
   <v type="int" >       12       25       25       33       33 </v>
   <v type="int" >       24       25       33       33       34 </v>
   <v type="int" >       24       26       27       27       29 </v>
   <v type="int" >       48       27       29       30       32 </v>
   <v type="int" >       48       27       28       30       32 </v>
   <v type="int" >       24       27       27       29       32 </v>
   <v type="int" >       48       28       30       31       31 </v>
   <v type="int" >       24       28       28       31       31 </v>
   <v type="int" >       48       28       30       31       32 </v>
   <v type="int" >       24       29       30       30       33 </v>
   <v type="int" >       24       29       30       30       32 </v>
   <v type="int" >       48       30       33       34       35 </v>
   <v type="int" >       48       30       31       34       35 </v>
   <v type="int" >       48       30       31       31       35 </v>
   <v type="int" >       24       30       30       33       35 </v>
   <v type="int" >       24       30       30       32       35 </v>
   <v type="int" >       48       30       31       32       35 </v>
   <v type="int" >       24       31       31       34       35 </v>
   <v type="int" >       24       31       31       32       35 </v>
   <v type="int" >       48       31       34       35       35 </v>
   <v type="int" >       24       31       31       35       35 </v>
   <v type="int" >       12       33       33       34       34 </v>
   <v type="int" >       24       33       34       34       35 </v>
   <v type="int" >       12       34       34       35       35 </v>
   <v type="int" >       24       34       35       35       35 </v>
   <v type="int" >        6       35       35       35       35 </v>
  </varray>
  <i name="volumeweight">      0.00022862 </i>
 </kpoints>
 <parameters>
  <separator name="general" >
   <i type="string" name="SYSTEM">unknown system</i>
   <i type="logical" name="LCOMPAT"> F  </i>
  </separator>
  <separator name="electronic" >
   <i type="string" name="PREC">accura</i>
   <i name="ENMAX">    520.00000000</i>
   <i name="ENAUG">    322.06900000</i>
   <i name="EDIFF">      0.00000200</i>
   <i type="int" name="IALGO">    68</i>
   <i type="int" name="IWAVPR">    10</i>
   <i type="int" name="NBANDS">    16</i>
   <i name="NELECT">      8.00000000</i>
   <i type="int" name="TURBO">     0</i>
   <i type="int" name="IRESTART">     0</i>
   <i type="int" name="NREBOOT">     0</i>
   <i type="int" name="NMIN">     0</i>
   <i name="EREF">      0.00000000</i>
   <separator name="electronic smearing" >
    <i type="int" name="ISMEAR">    -5</i>
    <i name="SIGMA">      0.20000000</i>
    <i name="KSPACING">      0.50000000</i>
    <i type="logical" name="KGAMMA"> T  </i>
   </separator>
   <separator name="electronic projectors" >
    <i type="logical" name="LREAL"> T  </i>
    <v name="ROPT">     -0.00025000</v>
    <i type="int" name="LMAXPAW">  -100</i>
    <i type="int" name="LMAXMIX">     2</i>
    <i type="logical" name="NLSPLINE"> F  </i>
   </separator>
   <separator name="electronic startup" >
    <i type="int" name="ISTART">     0</i>
    <i type="int" name="ICHARG">     0</i>
    <i type="int" name="INIWAV">     1</i>
   </separator>
   <separator name="electronic spin" >
    <i type="int" name="ISPIN">     1</i>
    <i type="logical" name="LNONCOLLINEAR"> F  </i>
    <v name="MAGMOM">      1.00000000      1.00000000</v>
    <i name="NUPDOWN">     -1.00000000</i>
    <i type="logical" name="LSORBIT"> F  </i>
    <v name="SAXIS">      0.00000000      0.00000000      1.00000000</v>
    <i type="logical" name="LSPIRAL"> F  </i>
    <v name="QSPIRAL">      0.00000000      0.00000000      0.00000000</v>
    <i type="logical" name="LZEROZ"> F  </i>
   </separator>
   <separator name="electronic exchange-correlation" >
    <i type="logical" name="LASPH"> F  </i>
    <i type="logical" name="LMETAGGA"> F  </i>
   </separator>
   <separator name="electronic convergence" >
    <i type="int" name="NELM">   100</i>
    <i type="int" name="NELMDL">    -5</i>
    <i type="int" name="NELMIN">     2</i>
    <i name="ENINI">    520.00000000</i>
    <separator name="electronic convergence detail" >
     <i type="logical" name="LDIAG"> T  </i>
     <i type="logical" name="LSUBROT"> T  </i>
     <i name="WEIMIN">      0.00000000</i>
     <i name="EBREAK">      0.00000003</i>
     <i name="DEPER">      0.30000000</i>
     <i type="int" name="NRMM">     4</i>
     <i name="TIME">      0.40000000</i>
    </separator>
   </separator>
   <separator name="electronic mixer" >
    <i name="AMIX">      0.40000000</i>
    <i name="BMIX">      1.00000000</i>
    <i name="AMIN">      0.10000000</i>
    <i name="AMIX_MAG">      1.60000000</i>
    <i name="BMIX_MAG">      1.00000000</i>
    <separator name="electronic mixer details" >
     <i type="int" name="IMIX">     4</i>
     <i type="int" name="MAXMIX">   -45</i>
     <i name="WC">    100.00000000</i>
     <i type="int" name="INIMIX">     1</i>
     <i type="int" name="MIXPRE">     1</i>
     <i type="int" name="MREMOVE">     5</i>
    </separator>
   </separator>
   <separator name="electronic dipolcorrection" >
    <i type="logical" name="LDIPOL"> F  </i>
    <i type="logical" name="LMONO"> F  </i>
    <i type="int" name="IDIPOL">     0</i>
    <i name="EPSILON">      1.00000000</i>
    <v name="DIPOL">   -100.00000000   -100.00000000   -100.00000000</v>
    <i name="EFIELD">      0.00000000</i>
   </separator>
  </separator>
  <separator name="grids" >
   <i type="int" name="NGX">    30</i>
   <i type="int" name="NGY">    30</i>
   <i type="int" name="NGZ">    30</i>
   <i type="int" name="NGXF">    60</i>
   <i type="int" name="NGYF">    60</i>
   <i type="int" name="NGZF">    60</i>
   <i type="logical" name="ADDGRID"> F  </i>
  </separator>
  <separator name="ionic" >
   <i type="int" name="NSW">     0</i>
   <i type="int" name="IBRION">    -1</i>
   <i type="int" name="ISIF">     3</i>
   <i name="PSTRESS">      0.00000000</i>
   <i name="EDIFFG">      0.00002000</i>
   <i type="int" name="NFREE">     0</i>
   <i name="POTIM">      0.50000000</i>
   <i name="SMASS">     -3.00000000</i>
   <i name="SCALEE">      1.00000000</i>
  </separator>
  <separator name="ionic md" >
   <i name="TEBEG">      0.00010000</i>
   <i name="TEEND">      0.00010000</i>
   <i type="int" name="NBLOCK">     1</i>
   <i type="int" name="KBLOCK">     1</i>
   <i type="int" name="NPACO">   256</i>
   <i name="APACO">     16.00000000</i>
  </separator>
  <separator name="symmetry" >
   <i type="int" name="ISYM">     2</i>
   <i name="SYMPREC">      0.00001000</i>
  </separator>
  <separator name="dos" >
   <i type="logical" name="LORBIT"> F  </i>
   <v name="RWIGS">     -1.00000000</v>
   <i type="int" name="NEDOS">   301</i>
   <i name="EMIN">     10.00000000</i>
   <i name="EMAX">    -10.00000000</i>
   <i name="EFERMI">      0.00000000</i>
  </separator>
  <separator name="writing" >
   <i type="int" name="NWRITE">     2</i>
   <i type="logical" name="LWAVE"> F  </i>
   <i type="logical" name="LCHARG"> F  </i>
   <i type="logical" name="LPARD"> F  </i>
   <i type="logical" name="LVTOT"> F  </i>
   <i type="logical" name="LVHAR"> F  </i>
   <i type="logical" name="LELF"> F  </i>
   <i type="logical" name="LOPTICS"> T  </i>
   <v name="STM">      0.00000000      0.00000000      0.00000000      0.00000000      0.00000000      0.00000000      0.00000000</v>
  </separator>
  <separator name="performance" >
   <i type="int" name="NPAR">    16</i>
   <i type="int" name="NSIM">     4</i>
   <i type="int" name="NBLK">    -1</i>
   <i type="logical" name="LPLANE"> T  </i>
   <i type="logical" name="LSCALAPACK"> F  </i>
   <i type="logical" name="LSCAAWARE"> F  </i>
   <i type="logical" name="LSCALU"> F  </i>
   <i type="logical" name="LASYNC"> F  </i>
   <i type="logical" name="LORBITALREAL"> F  </i>
  </separator>
  <separator name="miscellaneous" >
   <i type="int" name="IDIOT">     3</i>
   <i type="logical" name="LMUSIC"> F  </i>
   <v name="POMASS">     28.08500000</v>
   <v name="DARWINR">      0.00000000</v>
   <v name="DARWINV">      1.00000000</v>
   <i type="logical" name="LCORR"> T  </i>
  </separator>
  <i type="logical" name="GGA_COMPAT"> T  </i>
  <i type="logical" name="LBERRY"> F  </i>
  <i type="int" name="ICORELEVEL">     0</i>
  <i type="logical" name="LDAU"> F  </i>
  <i type="int" name="I_CONSTRAINED_M">     0</i>
  <separator name="electronic exchange-correlation" >
   <i type="string" name="GGA">--</i>
   <i type="int" name="VOSKOWN">     0</i>
   <i type="logical" name="LHFCALC"> F  </i>
   <i type="string" name="PRECFOCK"></i>
   <i type="logical" name="LHFONE"> F  </i>
   <i type="logical" name="LRHFCALC"> F  </i>
   <i type="logical" name="LTHOMAS"> F  </i>
   <i type="logical" name="LMODELHF"> F  </i>
   <i name="ENCUT4O">     -1.00000000</i>
   <i type="int" name="EXXOEP">     0</i>
   <i type="int" name="FOURORBIT">     0</i>
   <i name="AEXX">      0.00000000</i>
   <i name="HFALPHA">      0.00000000</i>
   <i name="ALDAX">      1.00000000</i>
   <i name="AGGAX">      1.00000000</i>
   <i name="ALDAC">      1.00000000</i>
   <i name="AGGAC">      1.00000000</i>
   <i type="int" name="NKREDX">     1</i>
   <i type="int" name="NKREDY">     1</i>
   <i type="int" name="NKREDZ">     1</i>
   <i type="logical" name="SHIFTRED"> F  </i>
   <i type="logical" name="ODDONLY"> F  </i>
   <i type="logical" name="EVENONLY"> F  </i>
   <i type="int" name="LMAXFOCK">     0</i>
   <i type="int" name="NMAXFOCKAE">     0</i>
   <i type="logical" name="LFOCKAEDFT"> F  </i>
   <i name="HFSCREEN">      0.00000000</i>
   <i name="HFSCREENC">      0.00000000</i>
  </separator>
  <separator name="vdW DFT" >
   <i type="logical" name="LUSE_VDW"> F  </i>
   <i name="Zab_VDW">     -0.84910000</i>
   <i name="PARAM1">      0.12340000</i>
   <i name="PARAM2">      1.00000000</i>
   <i name="PARAM3">      0.00000000</i>
  </separator>
  <separator name="model GW" >
   <i type="int" name="MODEL_GW">     0</i>
   <i name="MODEL_EPS0">     12.26648785</i>
   <i name="MODEL_ALPHA">      1.00000000</i>
  </separator>
  <separator name="linear response parameters" >
   <i type="logical" name="LEPSILON"> F  </i>
   <i type="logical" name="LRPA"> F  </i>
   <i type="logical" name="LNABLA"> F  </i>
   <i type="logical" name="LVEL"> F  </i>
   <i type="int" name="KINTER">     0</i>
   <i name="CSHIFT">      0.10000000</i>
   <i name="OMEGAMAX">     -1.00000000</i>
  </separator>
  <separator name="orbital magnetization" >
   <i type="logical" name="NUCIND"> F  </i>
   <v name="MAGPOS">      0.00000000      0.00000000      0.00000000</v>
   <i type="logical" name="LNICSALL"> T  </i>
   <i type="logical" name="ORBITALMAG"> F  </i>
   <i type="logical" name="LMAGBLOCH"> F  </i>
   <i type="logical" name="LCHIMAG"> F  </i>
   <i type="logical" name="LGAUGE"> T  </i>
   <i type="int" name="MAGATOM">     0</i>
   <v name="MAGDIPOL">      0.00000000      0.00000000      0.00000000</v>
   <v name="AVECCONST">      0.00000000      0.00000000      0.00000000</v>
  </separator>
  <separator name="response functions" >
   <i type="logical" name="LADDER"> F  </i>
   <i type="logical" name="LHARTREE"> T  </i>
   <i type="int" name="IBSE">     0</i>
   <i type="logical" name="LTCTE"> F  </i>
   <i type="logical" name="LTETE"> F  </i>
   <i type="logical" name="LFXCEPS"> F  </i>
   <i type="logical" name="L2ORDER"> F  </i>
   <i type="logical" name="LUSEW"> F  </i>
   <i name="ENCUTGW">     -2.00000000</i>
   <i name="ENCUTGWSOFT">     -2.00000000</i>
   <i name="ENCUTLF">     -1.00000000</i>
   <i type="int" name="LMAXMP2">    -1</i>
   <i name="SCISSOR">      0.00000000</i>
   <i type="int" name="NOMEGA">     0</i>
   <i type="int" name="NOMEGAR">     0</i>
   <i type="int" name="NBANDSGW">    -1</i>
   <i type="int" name="NBANDSO">    -1</i>
   <i type="int" name="NBANDSV">    -1</i>
   <i name="OPTEMAX">      0.00000000</i>
   <i type="int" name="NELM">   100</i>
   <i type="int" name="DIM">     3</i>
   <i type="int" name="ANTIRES">     0</i>
   <i name="OMEGAMAX">    -30.00000000</i>
   <i name="OMEGATL">   -200.00000000</i>
   <i type="int" name="OMEGAGRID">     0</i>
   <i name="CSHIFT">     -0.10000000</i>
   <i type="logical" name="SELFENERGY"> F  </i>
   <i type="logical" name="LSPECTRAL"> F  </i>
   <i type="logical" name="ODDONLYGW"> F  </i>
   <i type="logical" name="EVENONLYGW"> F  </i>
   <i type="int" name="NKREDLFX">     1</i>
   <i type="int" name="NKREDLFY">     1</i>
   <i type="int" name="NKREDLFZ">     1</i>
   <i type="int" name="MAXMEM">  1800</i>
   <i type="int" name="TELESCOPE">     0</i>
  </separator>
 </parameters>
 <atominfo>
  <atoms>       2 </atoms>
  <types>       1 </types>
  <array name="atoms" >
   <dimension dim="1">ion</dimension>
   <field type="string">element</field>
   <field type="int">atomtype</field>
   <set>
    <rc><c>Si</c><c>   1</c></rc>
    <rc><c>Si</c><c>   1</c></rc>
   </set>
  </array>
  <array name="atomtypes" >
   <dimension dim="1">type</dimension>
   <field type="int">atomspertype</field>
   <field type="string">element</field>
   <field>mass</field>
   <field>valence</field>
   <field type="string">pseudopotential</field>
   <set>
    <rc><c>   2</c><c>Si</c><c>     28.08500000</c><c>      4.00000000</c><c> PAW_PBE Si 05Jan2001                   </c></rc>
   </set>
  </array>
 </atominfo>
 <structure name="initialpos" >
  <crystal>
   <varray name="basis" >
    <v>       0.00000000       2.73436400       2.73436400 </v>
    <v>       2.73436400       0.00000000       2.73436400 </v>
    <v>       2.73436400       2.73436400       0.00000000 </v>
   </varray>
   <i name="volume">     40.88829285 </i>
   <varray name="rec_basis" >
    <v>      -0.18285788       0.18285788       0.18285788 </v>
    <v>       0.18285788      -0.18285788       0.18285788 </v>
    <v>       0.18285788       0.18285788      -0.18285788 </v>
   </varray>
  </crystal>
  <varray name="positions" >
   <v>       0.37500000       0.37500000       0.37500000 </v>
   <v>       0.62500000       0.62500000       0.62500000 </v>
  </varray>
 </structure>
 <calculation>
  <scstep>
   <time name="dav">    0.33    0.37</time>
   <time name="total">    0.34    0.40</time>
   <energy>
    <i name="alphaZ">      3.29317524 </i>
    <i name="ewald">   -226.94490206 </i>
    <i name="hartreedc">     -4.65144868 </i>
    <i name="XCdc">    -18.54290022 </i>
    <i name="pawpsdc">     41.09131445 </i>
    <i name="pawaedc">     -4.76417151 </i>
    <i name="eentropy">      0.00000000 </i>
    <i name="bandstr">    -16.46307423 </i>
    <i name="atom">    206.13270273 </i>
    <i name="e_fr_energy">    -20.84930427 </i>
    <i name="e_wo_entrp">    -20.84930427 </i>
    <i name="e_0_energy">    -20.84930427 </i>
   </energy>
  </scstep>
  <scstep>
   <time name="dav">    0.49    0.49</time>
   <time name="total">    0.49    0.50</time>
   <energy>
    <i name="e_fr_energy">    -37.40498391 </i>
    <i name="e_wo_entrp">    -37.40498391 </i>
    <i name="e_0_energy">    -37.40498391 </i>
   </energy>
  </scstep>
  <scstep>
   <time name="dav">    0.39    0.39</time>
   <time name="total">    0.39    0.39</time>
   <energy>
    <i name="e_fr_energy">    -37.61309662 </i>
    <i name="e_wo_entrp">    -37.61309662 </i>
    <i name="e_0_energy">    -37.61309662 </i>
   </energy>
  </scstep>
  <scstep>
   <time name="dav">    0.65    0.65</time>
   <time name="total">    0.65    0.65</time>
   <energy>
    <i name="e_fr_energy">    -37.61419708 </i>
    <i name="e_wo_entrp">    -37.61419708 </i>
    <i name="e_0_energy">    -37.61419708 </i>
   </energy>
  </scstep>
  <scstep>
   <time name="dav">    0.39    0.40</time>
   <time name="total">    0.42    0.42</time>
   <energy>
    <i name="e_fr_energy">    -37.61419743 </i>
    <i name="e_wo_entrp">    -37.61419743 </i>
    <i name="e_0_energy">    -37.61419743 </i>
   </energy>
  </scstep>
  <scstep>
   <time name="diag">    0.05    0.05</time>
   <time name="diis">    0.23    0.23</time>
   <time name="orth">    0.01    0.01</time>
   <time name="total">    0.33    0.33</time>
   <energy>
    <i name="e_fr_energy">    -19.35640614 </i>
    <i name="e_wo_entrp">    -19.35640614 </i>
    <i name="e_0_energy">    -19.35640614 </i>
   </energy>
  </scstep>
  <scstep>
   <time name="diag">    0.05    0.05</time>
   <time name="diis">    0.27    0.27</time>
   <time name="orth">    0.01    0.01</time>
   <time name="total">    0.37    0.37</time>
   <energy>
    <i name="e_fr_energy">    -10.82330124 </i>
    <i name="e_wo_entrp">    -10.82330124 </i>
    <i name="e_0_energy">    -10.82330124 </i>
   </energy>
  </scstep>
  <scstep>
   <time name="diag">    0.05    0.05</time>
   <time name="diis">    0.31    0.31</time>
   <time name="orth">    0.01    0.01</time>
   <time name="total">    0.41    0.41</time>
   <energy>
    <i name="e_fr_energy">    -10.83372747 </i>
    <i name="e_wo_entrp">    -10.83372747 </i>
    <i name="e_0_energy">    -10.83372747 </i>
   </energy>
  </scstep>
  <scstep>
   <time name="diag">    0.05    0.05</time>
   <time name="diis">    0.31    0.31</time>
   <time name="orth">    0.01    0.01</time>
   <time name="total">    0.40    0.41</time>
   <energy>
    <i name="e_fr_energy">    -10.84884891 </i>
    <i name="e_wo_entrp">    -10.84884891 </i>
    <i name="e_0_energy">    -10.84884891 </i>
   </energy>
  </scstep>
  <scstep>
   <time name="diag">    0.05    0.05</time>
   <time name="diis">    0.32    0.32</time>
   <time name="orth">    0.01    0.01</time>
   <time name="total">    0.41    0.42</time>
   <energy>
    <i name="e_fr_energy">    -10.84773593 </i>
    <i name="e_wo_entrp">    -10.84773593 </i>
    <i name="e_0_energy">    -10.84773593 </i>
   </energy>
  </scstep>
  <scstep>
   <time name="diag">    0.05    0.05</time>
   <time name="diis">    0.31    0.31</time>
   <time name="orth">    0.00    0.01</time>
   <time name="total">    0.41    0.41</time>
   <energy>
    <i name="e_fr_energy">    -10.84906948 </i>
    <i name="e_wo_entrp">    -10.84906948 </i>
    <i name="e_0_energy">    -10.84906948 </i>
   </energy>
  </scstep>
  <scstep>
   <time name="diag">    0.05    0.05</time>
   <time name="diis">    0.33    0.33</time>
   <time name="orth">    0.01    0.01</time>
   <time name="total">    0.42    0.43</time>
   <energy>
    <i name="e_fr_energy">    -10.84907935 </i>
    <i name="e_wo_entrp">    -10.84907935 </i>
    <i name="e_0_energy">    -10.84907935 </i>
   </energy>
  </scstep>
  <scstep>
   <time name="diag">    0.05    0.05</time>
   <time name="diis">    0.33    0.33</time>
   <time name="orth">    0.01    0.01</time>
   <time name="total">    0.40    0.40</time>
   <energy>
    <i name="alphaZ">      3.29317524 </i>
    <i name="ewald">   -226.94490206 </i>
    <i name="hartreedc">    -15.17572774 </i>
    <i name="XCdc">    -18.06007061 </i>
    <i name="pawpsdc">     73.61353103 </i>
    <i name="pawaedc">    -38.63233575 </i>
    <i name="eentropy">      0.00000000 </i>
    <i name="bandstr">      4.92454588 </i>
    <i name="atom">    206.13270273 </i>
    <i name="e_fr_energy">    -10.84908126 </i>
    <i name="e_wo_entrp">    -10.84908126 </i>
    <i name="e_0_energy">    -10.84908126 </i>
   </energy>
  </scstep>
  <parameters_embedded>
   <separator name="dft+d2" >
    <i type="logical" name="LVDW"> F  </i>
   </separator>
  </parameters_embedded>
  <structure>
   <crystal>
    <varray name="basis" >
     <v>       0.00000000       2.73436400       2.73436400 </v>
     <v>       2.73436400       0.00000000       2.73436400 </v>
     <v>       2.73436400       2.73436400       0.00000000 </v>
    </varray>
    <i name="volume">     40.88829285 </i>
    <varray name="rec_basis" >
     <v>      -0.18285788       0.18285788       0.18285788 </v>
     <v>       0.18285788      -0.18285788       0.18285788 </v>
     <v>       0.18285788       0.18285788      -0.18285788 </v>
    </varray>
   </crystal>
   <varray name="positions" >
    <v>       0.37500000       0.37500000       0.37500000 </v>
    <v>       0.62500000       0.62500000       0.62500000 </v>
   </varray>
  </structure>
  <varray name="forces" >
   <v>      -0.00000000      -0.00000000      -0.00000000 </v>
   <v>       0.00000000       0.00000000       0.00000000 </v>
  </varray>
  <varray name="stress" >
   <v>      -0.12435832       0.00000000      -0.00000000 </v>
   <v>      -0.00000000      -0.12435832      -0.00000000 </v>
   <v>      -0.00000000       0.00000000      -0.12435832 </v>
  </varray>
  <energy>
   <i name="e_fr_energy">    -10.84908126 </i>
   <i name="e_wo_entrp">    -10.84908126 </i>
   <i name="e_0_energy">      0.00000000 </i>
  </energy>
  <time name="totalsc">    6.17    6.25</time>
  <eigenvalues>
   <array>
    <dimension dim="1">band</dimension>
    <dimension dim="2">kpoint</dimension>
    <dimension dim="3">spin</dimension>
    <field>eigene</field>
    <field>occ</field>
    <set>
     <set comment="spin 1">
      <set comment="kpoint 1">
       <r>   -6.1986    1.0000 </r>
       <r>    5.6164    1.0000 </r>
       <r>    5.6164    1.0000 </r>
       <r>    5.6164    1.0000 </r>
       <r>    8.1732    0.0000 </r>
       <r>    8.1732    0.0000 </r>
       <r>    8.1732    0.0000 </r>
       <r>    8.7503    0.0000 </r>
       <r>   13.3255    0.0000 </r>
       <r>   13.3255    0.0000 </r>
       <r>   13.4943    0.0000 </r>
       <r>   16.7986    0.0000 </r>
       <r>   16.7986    0.0000 </r>
       <r>   16.7986    0.0000 </r>
       <r>   20.8911    0.0000 </r>
       <r>   29.5499    0.0000 </r>
      </set>
      <set comment="kpoint 2">
       <r>   -6.0400    1.0000 </r>
       <r>    4.2774    1.0000 </r>
       <r>    5.3843    1.0000 </r>
       <r>    5.3843    1.0000 </r>
       <r>    8.1059    0.0000 </r>
       <r>    8.5155    0.0000 </r>
       <r>    8.5155    0.0000 </r>
       <r>    9.9080    0.0000 </r>
       <r>   12.9194    0.0000 </r>
       <r>   12.9194    0.0000 </r>
       <r>   14.1319    0.0000 </r>
       <r>   16.3153    0.0000 </r>
       <r>   17.7323    0.0000 </r>
       <r>   17.7323    0.0000 </r>
       <r>   26.8255    0.0000 </r>
       <r>   27.0058    0.0000 </r>
      </set>
      <set comment="kpoint 3">
       <r>   -5.5742    1.0000 </r>
       <r>    2.2278    1.0000 </r>
       <r>    4.9675    1.0000 </r>
       <r>    4.9675    1.0000 </r>
       <r>    7.6812    0.0000 </r>
       <r>    9.0396    0.0000 </r>
       <r>    9.0396    0.0000 </r>
       <r>   11.8894    0.0000 </r>
       <r>   12.6958    0.0000 </r>
       <r>   12.6958    0.0000 </r>
       <r>   14.6464    0.0000 </r>
       <r>   16.8082    0.0000 </r>
       <r>   19.6592    0.0000 </r>
       <r>   19.6592    0.0000 </r>
       <r>   23.5040    0.0000 </r>
       <r>   23.9200    0.0000 </r>
      </set>
      <set comment="kpoint 4">
       <r>   -4.8485    1.0000 </r>
       <r>    0.3469    1.0000 </r>
       <r>    4.6340    1.0000 </r>
       <r>    4.6340    1.0000 </r>
       <r>    7.3091    0.0000 </r>
       <r>    9.1198    0.0000 </r>
       <r>    9.1198    0.0000 </r>
       <r>   13.4003    0.0000 </r>
       <r>   13.5710    0.0000 </r>
       <r>   13.5710    0.0000 </r>
       <r>   14.5977    0.0000 </r>
       <r>   19.0451    0.0000 </r>
       <r>   20.0807    0.0000 </r>
       <r>   20.0807    0.0000 </r>
       <r>   22.2047    0.0000 </r>
       <r>   23.1258    0.0000 </r>
      </set>
      <set comment="kpoint 5">
       <r>   -4.0774    1.0000 </r>
       <r>   -1.0196    1.0000 </r>
       <r>    4.4599    1.0000 </r>
       <r>    4.4599    1.0000 </r>
       <r>    7.1086    0.0000 </r>
       <r>    8.9895    0.0000 </r>
       <r>    8.9895    0.0000 </r>
       <r>   13.3549    0.0000 </r>
       <r>   15.3202    0.0000 </r>
       <r>   15.3202    0.0000 </r>
       <r>   16.2535    0.0000 </r>
       <r>   17.7197    0.0000 </r>
       <r>   17.7197    0.0000 </r>
       <r>   18.8619    0.0000 </r>
       <r>   23.4095    0.0000 </r>
       <r>   25.7161    0.0000 </r>
      </set>
      <set comment="kpoint 6">
       <r>   -5.9866    1.0000 </r>
       <r>    4.4878    1.0000 </r>
       <r>    4.9559    1.0000 </r>
       <r>    4.9559    1.0000 </r>
       <r>    7.7280    0.0000 </r>
       <r>    9.0938    0.0000 </r>
       <r>    9.0938    0.0000 </r>
       <r>    9.7217    0.0000 </r>
       <r>   12.2249    0.0000 </r>
       <r>   13.5612    0.0000 </r>
       <r>   14.3584    0.0000 </r>
       <r>   17.1679    0.0000 </r>
       <r>   17.1679    0.0000 </r>
       <r>   17.6002    0.0000 </r>
       <r>   26.3531    0.0000 </r>
       <r>   28.1631    0.0000 </r>
      </set>
      <set comment="kpoint 7">
       <r>   -5.6212    1.0000 </r>
       <r>    2.8323    1.0000 </r>
       <r>    4.4911    1.0000 </r>
       <r>    4.6166    1.0000 </r>
       <r>    7.8135    0.0000 </r>
       <r>    9.0802    0.0000 </r>
       <r>    9.7978    0.0000 </r>
       <r>   10.4868    0.0000 </r>
       <r>   12.5508    0.0000 </r>
       <r>   13.6100    0.0000 </r>
       <r>   15.3267    0.0000 </r>
       <r>   16.8446    0.0000 </r>
       <r>   18.3356    0.0000 </r>
       <r>   19.4446    0.0000 </r>
       <r>   23.7440    0.0000 </r>
       <r>   23.8977    0.0000 </r>
      </set>
      <set comment="kpoint 8">
       <r>   -4.9731    1.0000 </r>
       <r>    0.9577    1.0000 </r>
       <r>    4.1175    1.0000 </r>
       <r>    4.1901    1.0000 </r>
       <r>    7.9158    0.0000 </r>
       <r>    9.0710    0.0000 </r>
       <r>    9.9751    0.0000 </r>
       <r>   10.9359    0.0000 </r>
       <r>   14.2828    0.0000 </r>
       <r>   14.3432    0.0000 </r>
       <r>   15.1312    0.0000 </r>
       <r>   18.4228    0.0000 </r>
       <r>   19.5175    0.0000 </r>
       <r>   20.8934    0.0000 </r>
       <r>   21.7998    0.0000 </r>
       <r>   22.6790    0.0000 </r>
      </set>
      <set comment="kpoint 9">
       <r>   -4.1656    1.0000 </r>
       <r>   -0.6014    1.0000 </r>
       <r>    3.6890    1.0000 </r>
       <r>    4.1076    1.0000 </r>
       <r>    7.7843    0.0000 </r>
       <r>    8.9975    0.0000 </r>
       <r>    9.7086    0.0000 </r>
       <r>   12.3506    0.0000 </r>
       <r>   14.5535    0.0000 </r>
       <r>   15.8652    0.0000 </r>
       <r>   16.5229    0.0000 </r>
       <r>   17.4531    0.0000 </r>
       <r>   18.2391    0.0000 </r>
       <r>   20.9117    0.0000 </r>
       <r>   22.6428    0.0000 </r>
       <r>   23.8854    0.0000 </r>
      </set>
      <set comment="kpoint 10">
       <r>   -3.7982    1.0000 </r>
       <r>   -1.1591    1.0000 </r>
       <r>    3.4361    1.0000 </r>
       <r>    4.2434    1.0000 </r>
       <r>    7.7809    0.0000 </r>
       <r>    9.0277    0.0000 </r>
       <r>    9.4515    0.0000 </r>
       <r>   13.7302    0.0000 </r>
       <r>   14.5979    0.0000 </r>
       <r>   14.9730    0.0000 </r>
       <r>   16.4370    0.0000 </r>
       <r>   18.1664    0.0000 </r>
       <r>   18.5737    0.0000 </r>
       <r>   19.2353    0.0000 </r>
       <r>   24.0434    0.0000 </r>
       <r>   26.5581    0.0000 </r>
      </set>
      <set comment="kpoint 11">
       <r>   -4.4372    1.0000 </r>
       <r>   -0.1350    1.0000 </r>
       <r>    3.4058    1.0000 </r>
       <r>    4.5667    1.0000 </r>
       <r>    7.9597    0.0000 </r>
       <r>    9.2521    0.0000 </r>
       <r>    9.3272    0.0000 </r>
       <r>   12.9362    0.0000 </r>
       <r>   13.0638    0.0000 </r>
       <r>   14.8939    0.0000 </r>
       <r>   16.7156    0.0000 </r>
       <r>   17.5516    0.0000 </r>
       <r>   20.0848    0.0000 </r>
       <r>   20.5953    0.0000 </r>
       <r>   21.9012    0.0000 </r>
       <r>   23.0332    0.0000 </r>
      </set>
      <set comment="kpoint 12">
       <r>   -5.2192    1.0000 </r>
       <r>    1.5621    1.0000 </r>
       <r>    3.6392    1.0000 </r>
       <r>    5.0078    1.0000 </r>
       <r>    8.2797    0.0000 </r>
       <r>    9.1083    0.0000 </r>
       <r>    9.3838    0.0000 </r>
       <r>   11.6232    0.0000 </r>
       <r>   11.9891    0.0000 </r>
       <r>   14.7161    0.0000 </r>
       <r>   15.3751    0.0000 </r>
       <r>   17.5260    0.0000 </r>
       <r>   19.2996    0.0000 </r>
       <r>   21.2460    0.0000 </r>
       <r>   21.4408    0.0000 </r>
       <r>   23.7933    0.0000 </r>
      </set>
      <set comment="kpoint 13">
       <r>   -5.7781    1.0000 </r>
       <r>    3.2995    1.0000 </r>
       <r>    4.2839    1.0000 </r>
       <r>    5.3944    1.0000 </r>
       <r>    8.5560    0.0000 </r>
       <r>    8.6099    0.0000 </r>
       <r>    8.8090    0.0000 </r>
       <r>   10.8707    0.0000 </r>
       <r>   12.1072    0.0000 </r>
       <r>   13.3423    0.0000 </r>
       <r>   14.9904    0.0000 </r>
       <r>   16.6728    0.0000 </r>
       <r>   17.6393    0.0000 </r>
       <r>   19.4641    0.0000 </r>
       <r>   23.8807    0.0000 </r>
       <r>   26.5065    0.0000 </r>
      </set>
      <set comment="kpoint 14">
       <r>   -5.3568    1.0000 </r>
       <r>    2.5901    1.0000 </r>
       <r>    3.9801    1.0000 </r>
       <r>    3.9801    1.0000 </r>
       <r>    6.9421    0.0000 </r>
       <r>    9.1590    0.0000 </r>
       <r>   10.8298    0.0000 </r>
       <r>   10.8298    0.0000 </r>
       <r>   12.9444    0.0000 </r>
       <r>   14.2672    0.0000 </r>
       <r>   16.3467    0.0000 </r>
       <r>   18.2142    0.0000 </r>
       <r>   18.2142    0.0000 </r>
       <r>   18.8641    0.0000 </r>
       <r>   24.5347    0.0000 </r>
       <r>   26.1781    0.0000 </r>
      </set>
      <set comment="kpoint 15">
       <r>   -4.7980    1.0000 </r>
       <r>    1.2813    1.0000 </r>
       <r>    3.3636    1.0000 </r>
       <r>    3.6435    1.0000 </r>
       <r>    7.0952    0.0000 </r>
       <r>    8.7893    0.0000 </r>
       <r>   11.0613    0.0000 </r>
       <r>   11.4030    0.0000 </r>
       <r>   14.7077    0.0000 </r>
       <r>   14.9482    0.0000 </r>
       <r>   16.9086    0.0000 </r>
       <r>   18.6016    0.0000 </r>
       <r>   19.0361    0.0000 </r>
       <r>   20.4728    0.0000 </r>
       <r>   21.4261    0.0000 </r>
       <r>   22.2218    0.0000 </r>
      </set>
      <set comment="kpoint 16">
       <r>   -4.0153    1.0000 </r>
       <r>   -0.1592    1.0000 </r>
       <r>    2.6339    1.0000 </r>
       <r>    3.5462    1.0000 </r>
       <r>    7.2803    0.0000 </r>
       <r>    9.7946    0.0000 </r>
       <r>   10.8118    0.0000 </r>
       <r>   11.2271    0.0000 </r>
       <r>   16.1140    0.0000 </r>
       <r>   16.4563    0.0000 </r>
       <r>   16.9893    0.0000 </r>
       <r>   17.3691    0.0000 </r>
       <r>   18.6319    0.0000 </r>
       <r>   21.2296    0.0000 </r>
       <r>   22.5564    0.0000 </r>
       <r>   24.3079    0.0000 </r>
      </set>
      <set comment="kpoint 17">
       <r>   -3.3781    1.0000 </r>
       <r>   -1.0770    1.0000 </r>
       <r>    2.1234    1.0000 </r>
       <r>    3.6974    1.0000 </r>
       <r>    7.4263    0.0000 </r>
       <r>   10.5806    0.0000 </r>
       <r>   10.8526    0.0000 </r>
       <r>   11.7418    0.0000 </r>
       <r>   14.6706    0.0000 </r>
       <r>   14.8795    0.0000 </r>
       <r>   17.6073    0.0000 </r>
       <r>   18.6796    0.0000 </r>
       <r>   19.2689    0.0000 </r>
       <r>   22.0841    0.0000 </r>
       <r>   24.0618    0.0000 </r>
       <r>   24.3038    0.0000 </r>
      </set>
      <set comment="kpoint 18">
       <r>   -3.7795    1.0000 </r>
       <r>   -0.5138    1.0000 </r>
       <r>    1.9495    1.0000 </r>
       <r>    4.0703    1.0000 </r>
       <r>    7.8005    0.0000 </r>
       <r>   10.5139    0.0000 </r>
       <r>   10.5249    0.0000 </r>
       <r>   12.7303    0.0000 </r>
       <r>   12.8747    0.0000 </r>
       <r>   14.0172    0.0000 </r>
       <r>   17.6263    0.0000 </r>
       <r>   19.7608    0.0000 </r>
       <r>   20.4233    0.0000 </r>
       <r>   21.1033    0.0000 </r>
       <r>   21.7062    0.0000 </r>
       <r>   24.4054    0.0000 </r>
      </set>
      <set comment="kpoint 19">
       <r>   -4.5841    1.0000 </r>
       <r>    0.7083    1.0000 </r>
       <r>    2.3331    1.0000 </r>
       <r>    4.5814    1.0000 </r>
       <r>    8.3094    0.0000 </r>
       <r>    9.9095    0.0000 </r>
       <r>   10.2293    0.0000 </r>
       <r>   11.4005    0.0000 </r>
       <r>   11.8481    0.0000 </r>
       <r>   15.9745    0.0000 </r>
       <r>   17.2027    0.0000 </r>
       <r>   17.7979    0.0000 </r>
       <r>   18.9488    0.0000 </r>
       <r>   22.6345    0.0000 </r>
       <r>   23.3289    0.0000 </r>
       <r>   24.7379    0.0000 </r>
      </set>
      <set comment="kpoint 20">
       <r>   -4.3287    1.0000 </r>
       <r>    0.6262    1.0000 </r>
       <r>    3.2495    1.0000 </r>
       <r>    3.2495    1.0000 </r>
       <r>    6.3748    0.0000 </r>
       <r>    7.6380    0.0000 </r>
       <r>   12.7893    0.0000 </r>
       <r>   12.7893    0.0000 </r>
       <r>   15.2292    0.0000 </r>
       <r>   15.4402    0.0000 </r>
       <r>   18.5397    0.0000 </r>
       <r>   18.9727    0.0000 </r>
       <r>   18.9727    0.0000 </r>
       <r>   20.6260    0.0000 </r>
       <r>   21.6608    0.0000 </r>
       <r>   24.4376    0.0000 </r>
      </set>
      <set comment="kpoint 21">
       <r>   -3.6039    1.0000 </r>
       <r>   -0.4072    1.0000 </r>
       <r>    2.5424    1.0000 </r>
       <r>    3.0946    1.0000 </r>
       <r>    6.6173    0.0000 </r>
       <r>    7.6775    0.0000 </r>
       <r>   13.0790    0.0000 </r>
       <r>   13.1433    0.0000 </r>
       <r>   16.7801    0.0000 </r>
       <r>   16.9412    0.0000 </r>
       <r>   17.3640    0.0000 </r>
       <r>   17.4469    0.0000 </r>
       <r>   20.2352    0.0000 </r>
       <r>   20.5768    0.0000 </r>
       <r>   21.1850    0.0000 </r>
       <r>   23.5085    0.0000 </r>
      </set>
      <set comment="kpoint 22">
       <r>   -2.8285    1.0000 </r>
       <r>   -1.2869    1.0000 </r>
       <r>    1.6604    1.0000 </r>
       <r>    3.1994    1.0000 </r>
       <r>    6.8138    0.0000 </r>
       <r>    9.2518    0.0000 </r>
       <r>   12.7761    0.0000 </r>
       <r>   12.8702    0.0000 </r>
       <r>   14.9754    0.0000 </r>
       <r>   15.0510    0.0000 </r>
       <r>   18.9990    0.0000 </r>
       <r>   19.3571    0.0000 </r>
       <r>   20.0813    0.0000 </r>
       <r>   21.6056    0.0000 </r>
       <r>   22.1012    0.0000 </r>
       <r>   25.3725    0.0000 </r>
      </set>
      <set comment="kpoint 23">
       <r>   -3.0018    1.0000 </r>
       <r>   -1.0971    1.0000 </r>
       <r>    1.3060    1.0000 </r>
       <r>    3.5476    1.0000 </r>
       <r>    7.2042    0.0000 </r>
       <r>   11.3937    0.0000 </r>
       <r>   12.0241    0.0000 </r>
       <r>   12.5872    0.0000 </r>
       <r>   12.9123    0.0000 </r>
       <r>   13.2685    0.0000 </r>
       <r>   19.8570    0.0000 </r>
       <r>   21.0796    0.0000 </r>
       <r>   21.1857    0.0000 </r>
       <r>   22.0394    0.0000 </r>
       <r>   22.9695    0.0000 </r>
       <r>   23.7140    0.0000 </r>
      </set>
      <set comment="kpoint 24">
       <r>   -2.9403    1.0000 </r>
       <r>   -1.2564    1.0000 </r>
       <r>    2.8702    1.0000 </r>
       <r>    2.8702    1.0000 </r>
       <r>    6.2397    0.0000 </r>
       <r>    6.6400    0.0000 </r>
       <r>   14.8340    0.0000 </r>
       <r>   14.8340    0.0000 </r>
       <r>   17.0736    0.0000 </r>
       <r>   17.2580    0.0000 </r>
       <r>   17.2580    0.0000 </r>
       <r>   17.4686    0.0000 </r>
       <r>   19.0883    0.0000 </r>
       <r>   19.1551    0.0000 </r>
       <r>   23.0432    0.0000 </r>
       <r>   24.4674    0.0000 </r>
      </set>
      <set comment="kpoint 25">
       <r>   -2.1845    1.0000 </r>
       <r>   -2.0147    1.0000 </r>
       <r>    2.2731    1.0000 </r>
       <r>    2.9069    1.0000 </r>
       <r>    6.4655    0.0000 </r>
       <r>    7.2799    0.0000 </r>
       <r>   14.7093    0.0000 </r>
       <r>   15.0119    0.0000 </r>
       <r>   15.4169    0.0000 </r>
       <r>   15.6557    0.0000 </r>
       <r>   18.9037    0.0000 </r>
       <r>   18.9407    0.0000 </r>
       <r>   18.9738    0.0000 </r>
       <r>   19.6972    0.0000 </r>
       <r>   23.0416    0.0000 </r>
       <r>   26.7063    0.0000 </r>
      </set>
      <set comment="kpoint 26">
       <r>   -5.1601    1.0000 </r>
       <r>    1.8431    1.0000 </r>
       <r>    3.3008    1.0000 </r>
       <r>    4.4712    1.0000 </r>
       <r>    7.9923    0.0000 </r>
       <r>    9.3628    0.0000 </r>
       <r>   10.0185    0.0000 </r>
       <r>   10.5908    0.0000 </r>
       <r>   13.0160    0.0000 </r>
       <r>   14.9144    0.0000 </r>
       <r>   16.3318    0.0000 </r>
       <r>   17.3702    0.0000 </r>
       <r>   18.9524    0.0000 </r>
       <r>   20.9899    0.0000 </r>
       <r>   21.1498    0.0000 </r>
       <r>   23.7957    0.0000 </r>
      </set>
      <set comment="kpoint 27">
       <r>   -4.4394    1.0000 </r>
       <r>    0.3816    1.0000 </r>
       <r>    2.6983    1.0000 </r>
       <r>    4.0449    1.0000 </r>
       <r>    8.3705    0.0000 </r>
       <r>    9.1907    0.0000 </r>
       <r>   10.3754    0.0000 </r>
       <r>   11.0356    0.0000 </r>
       <r>   13.8861    0.0000 </r>
       <r>   15.8721    0.0000 </r>
       <r>   17.0986    0.0000 </r>
       <r>   17.7303    0.0000 </r>
       <r>   19.6055    0.0000 </r>
       <r>   20.7130    0.0000 </r>
       <r>   21.7811    0.0000 </r>
       <r>   24.1140    0.0000 </r>
      </set>
      <set comment="kpoint 28">
       <r>   -3.6623    1.0000 </r>
       <r>   -0.8771    1.0000 </r>
       <r>    2.5030    1.0000 </r>
       <r>    3.7303    1.0000 </r>
       <r>    8.4531    0.0000 </r>
       <r>    8.8144    0.0000 </r>
       <r>   10.9748    0.0000 </r>
       <r>   12.0960    0.0000 </r>
       <r>   14.1742    0.0000 </r>
       <r>   15.4923    0.0000 </r>
       <r>   16.9301    0.0000 </r>
       <r>   18.3816    0.0000 </r>
       <r>   19.3882    0.0000 </r>
       <r>   21.5082    0.0000 </r>
       <r>   22.6792    0.0000 </r>
       <r>   24.7618    0.0000 </r>
      </set>
      <set comment="kpoint 29">
       <r>   -4.1585    1.0000 </r>
       <r>    0.3298    1.0000 </r>
       <r>    2.6027    1.0000 </r>
       <r>    3.2790    1.0000 </r>
       <r>    7.4501    0.0000 </r>
       <r>    8.4569    0.0000 </r>
       <r>   11.0010    0.0000 </r>
       <r>   12.7021    0.0000 </r>
       <r>   14.9632    0.0000 </r>
       <r>   16.6861    0.0000 </r>
       <r>   17.1555    0.0000 </r>
       <r>   18.7126    0.0000 </r>
       <r>   19.4679    0.0000 </r>
       <r>   20.2561    0.0000 </r>
       <r>   21.4236    0.0000 </r>
       <r>   22.9371    0.0000 </r>
      </set>
      <set comment="kpoint 30">
       <r>   -3.3495    1.0000 </r>
       <r>   -0.7335    1.0000 </r>
       <r>    1.9513    1.0000 </r>
       <r>    2.9811    1.0000 </r>
       <r>    7.8524    0.0000 </r>
       <r>    9.5356    0.0000 </r>
       <r>   10.5671    0.0000 </r>
       <r>   13.0968    0.0000 </r>
       <r>   14.4333    0.0000 </r>
       <r>   16.3101    0.0000 </r>
       <r>   17.7382    0.0000 </r>
       <r>   19.2365    0.0000 </r>
       <r>   19.7346    0.0000 </r>
       <r>   21.0127    0.0000 </r>
       <r>   23.5268    0.0000 </r>
       <r>   24.8974    0.0000 </r>
      </set>
      <set comment="kpoint 31">
       <r>   -2.9949    1.0000 </r>
       <r>   -1.1474    1.0000 </r>
       <r>    1.5735    1.0000 </r>
       <r>    3.0905    1.0000 </r>
       <r>    8.1387    0.0000 </r>
       <r>   10.1071    0.0000 </r>
       <r>   11.6328    0.0000 </r>
       <r>   12.1618    0.0000 </r>
       <r>   13.0193    0.0000 </r>
       <r>   15.5500    0.0000 </r>
       <r>   18.4677    0.0000 </r>
       <r>   19.1619    0.0000 </r>
       <r>   21.6173    0.0000 </r>
       <r>   21.8187    0.0000 </r>
       <r>   22.6775    0.0000 </r>
       <r>   25.0981    0.0000 </r>
      </set>
      <set comment="kpoint 32">
       <r>   -3.6791    1.0000 </r>
       <r>   -0.3627    1.0000 </r>
       <r>    1.7198    1.0000 </r>
       <r>    3.5171    1.0000 </r>
       <r>    8.6375    0.0000 </r>
       <r>    9.6154    0.0000 </r>
       <r>   10.4622    0.0000 </r>
       <r>   12.4691    0.0000 </r>
       <r>   14.0185    0.0000 </r>
       <r>   14.1030    0.0000 </r>
       <r>   18.9052    0.0000 </r>
       <r>   19.5271    0.0000 </r>
       <r>   19.7999    0.0000 </r>
       <r>   20.6630    0.0000 </r>
       <r>   22.5248    0.0000 </r>
       <r>   24.0334    0.0000 </r>
      </set>
      <set comment="kpoint 33">
       <r>   -2.8279    1.0000 </r>
       <r>   -1.2741    1.0000 </r>
       <r>    2.3218    1.0000 </r>
       <r>    2.5285    1.0000 </r>
       <r>    7.2827    0.0000 </r>
       <r>    7.5951    0.0000 </r>
       <r>   12.7563    0.0000 </r>
       <r>   14.5915    0.0000 </r>
       <r>   15.1255    0.0000 </r>
       <r>   16.8298    0.0000 </r>
       <r>   17.6245    0.0000 </r>
       <r>   19.2318    0.0000 </r>
       <r>   19.5506    0.0000 </r>
       <r>   21.5183    0.0000 </r>
       <r>   21.5969    0.0000 </r>
       <r>   23.1155    0.0000 </r>
      </set>
      <set comment="kpoint 34">
       <r>   -2.3200    1.0000 </r>
       <r>   -1.7253    1.0000 </r>
       <r>    1.6190    1.0000 </r>
       <r>    2.6143    1.0000 </r>
       <r>    7.6500    0.0000 </r>
       <r>    9.2689    0.0000 </r>
       <r>   12.2168    0.0000 </r>
       <r>   12.4728    0.0000 </r>
       <r>   14.9748    0.0000 </r>
       <r>   15.8172    0.0000 </r>
       <r>   18.5421    0.0000 </r>
       <r>   19.5804    0.0000 </r>
       <r>   21.2684    0.0000 </r>
       <r>   22.1516    0.0000 </r>
       <r>   22.5200    0.0000 </r>
       <r>   25.6519    0.0000 </r>
      </set>
      <set comment="kpoint 35">
       <r>   -2.5605    1.0000 </r>
       <r>   -1.4190    1.0000 </r>
       <r>    1.6558    1.0000 </r>
       <r>    2.2850    1.0000 </r>
       <r>    9.4533    0.0000 </r>
       <r>    9.5646    0.0000 </r>
       <r>   10.1887    0.0000 </r>
       <r>   11.9276    0.0000 </r>
       <r>   14.9358    0.0000 </r>
       <r>   16.3610    0.0000 </r>
       <r>   18.1453    0.0000 </r>
       <r>   19.5066    0.0000 </r>
       <r>   20.8537    0.0000 </r>
       <r>   22.6026    0.0000 </r>
       <r>   24.8403    0.0000 </r>
       <r>   25.1034    0.0000 </r>
      </set>
     </set>
    </set>
   </array>
  </eigenvalues>
  <separator name="orbital magnetization" >
   <v name="MAGDIPOLOUT">      0.00000000      0.00000000      0.00000000</v>
  </separator>
  <dielectricfunction>
   <imag>
    <array>
     <dimension dim="1">gridpoints</dimension>
     <field>energy</field>
     <field>xx</field>
     <field>yy</field>
     <field>zz</field>
     <field>xy</field>
     <field>yz</field>
     <field>zx</field>
     <set>
      <r>     0.0000     0.0000     0.0000     0.0000     0.0000     0.0000     0.0000 </r>
      <r>     0.0429     0.0071     0.0071     0.0071    -0.0000    -0.0000     0.0000 </r>
      <r>     0.0859     0.0141     0.0141     0.0141    -0.0000    -0.0000     0.0000 </r>
      <r>     0.1288     0.0212     0.0212     0.0212    -0.0000    -0.0000     0.0000 </r>
      <r>     0.1718     0.0284     0.0284     0.0284    -0.0000    -0.0000     0.0000 </r>
      <r>     0.2147     0.0356     0.0356     0.0356    -0.0000    -0.0000     0.0000 </r>
      <r>     0.2576     0.0428     0.0428     0.0428    -0.0000    -0.0000     0.0000 </r>
      <r>     0.3006     0.0502     0.0502     0.0502    -0.0000    -0.0000     0.0000 </r>
      <r>     0.3435     0.0576     0.0576     0.0576    -0.0000    -0.0000     0.0000 </r>
      <r>     0.3865     0.0651     0.0651     0.0651    -0.0000    -0.0000     0.0000 </r>
      <r>     0.4294     0.0727     0.0727     0.0727    -0.0000    -0.0000     0.0000 </r>
      <r>     0.4724     0.0805     0.0805     0.0805    -0.0000    -0.0000     0.0000 </r>
      <r>     0.5153     0.0884     0.0884     0.0884    -0.0000    -0.0000     0.0000 </r>
      <r>     0.5582     0.0965     0.0965     0.0965    -0.0000    -0.0000     0.0000 </r>
      <r>     0.6012     0.1047     0.1047     0.1047    -0.0000    -0.0000     0.0000 </r>
      <r>     0.6441     0.1132     0.1132     0.1132    -0.0000    -0.0000     0.0000 </r>
      <r>     0.6871     0.1219     0.1219     0.1219    -0.0000    -0.0000     0.0000 </r>
      <r>     0.7300     0.1308     0.1308     0.1308    -0.0000    -0.0000     0.0000 </r>
      <r>     0.7729     0.1400     0.1400     0.1400    -0.0000    -0.0000     0.0000 </r>
      <r>     0.8159     0.1495     0.1495     0.1495    -0.0000    -0.0000     0.0000 </r>
      <r>     0.8588     0.1593     0.1593     0.1593    -0.0000    -0.0000     0.0000 </r>
      <r>     0.9018     0.1694     0.1694     0.1694    -0.0000    -0.0000     0.0000 </r>
      <r>     0.9447     0.1799     0.1799     0.1799    -0.0000    -0.0000     0.0000 </r>
      <r>     0.9876     0.1908     0.1908     0.1908    -0.0000    -0.0000     0.0000 </r>
      <r>     1.0306     0.2022     0.2022     0.2022    -0.0000    -0.0000     0.0000 </r>
      <r>     1.0735     0.2140     0.2140     0.2140    -0.0000    -0.0000     0.0000 </r>
      <r>     1.1165     0.2263     0.2263     0.2263    -0.0000    -0.0000     0.0000 </r>
      <r>     1.1594     0.2392     0.2392     0.2392    -0.0000    -0.0000     0.0000 </r>
      <r>     1.2024     0.2528     0.2528     0.2528    -0.0000    -0.0000     0.0000 </r>
      <r>     1.2453     0.2670     0.2670     0.2670    -0.0000    -0.0000     0.0000 </r>
      <r>     1.2882     0.2819     0.2819     0.2819    -0.0000    -0.0000     0.0000 </r>
      <r>     1.3312     0.2977     0.2977     0.2977    -0.0000    -0.0000     0.0000 </r>
      <r>     1.3741     0.3143     0.3143     0.3143    -0.0000    -0.0000     0.0000 </r>
      <r>     1.4171     0.3319     0.3319     0.3319    -0.0000    -0.0000     0.0000 </r>
      <r>     1.4600     0.3506     0.3506     0.3506    -0.0000    -0.0000     0.0000 </r>
      <r>     1.5029     0.3705     0.3705     0.3705    -0.0000    -0.0000     0.0000 </r>
      <r>     1.5459     0.3917     0.3917     0.3917    -0.0000    -0.0000     0.0000 </r>
      <r>     1.5888     0.4144     0.4144     0.4144    -0.0000    -0.0000     0.0000 </r>
      <r>     1.6318     0.4387     0.4387     0.4387    -0.0000    -0.0000     0.0000 </r>
      <r>     1.6747     0.4648     0.4648     0.4648    -0.0000    -0.0000     0.0000 </r>
      <r>     1.7176     0.4930     0.4930     0.4930    -0.0000    -0.0000     0.0000 </r>
      <r>     1.7606     0.5234     0.5234     0.5234    -0.0000    -0.0000     0.0000 </r>
      <r>     1.8035     0.5565     0.5565     0.5565    -0.0000    -0.0000     0.0000 </r>
      <r>     1.8465     0.5926     0.5926     0.5926    -0.0000    -0.0000     0.0000 </r>
      <r>     1.8894     0.6321     0.6321     0.6321    -0.0000    -0.0000     0.0000 </r>
      <r>     1.9324     0.6755     0.6755     0.6755    -0.0000    -0.0000     0.0000 </r>
      <r>     1.9753     0.7235     0.7235     0.7235    -0.0000    -0.0000     0.0000 </r>
      <r>     2.0182     0.7768     0.7768     0.7768    -0.0000    -0.0000     0.0000 </r>
      <r>     2.0612     0.8365     0.8365     0.8365    -0.0000    -0.0000     0.0000 </r>
      <r>     2.1041     0.9038     0.9038     0.9038    -0.0000    -0.0000     0.0000 </r>
      <r>     2.1471     0.9802     0.9802     0.9802    -0.0000    -0.0000     0.0000 </r>
      <r>     2.1900     1.0678     1.0678     1.0678    -0.0000    -0.0000     0.0000 </r>
      <r>     2.2329     1.1696     1.1696     1.1696    -0.0000    -0.0000     0.0000 </r>
      <r>     2.2759     1.2893     1.2893     1.2893    -0.0000    -0.0000     0.0000 </r>
      <r>     2.3188     1.4324     1.4324     1.4324    -0.0000    -0.0000     0.0000 </r>
      <r>     2.3618     1.6070     1.6070     1.6070    -0.0000    -0.0000     0.0000 </r>
      <r>     2.4047     1.8255     1.8255     1.8255    -0.0000    -0.0000     0.0000 </r>
      <r>     2.4476     2.1077     2.1077     2.1077    -0.0000    -0.0000     0.0000 </r>
      <r>     2.4906     2.4863     2.4863     2.4863    -0.0000    -0.0000     0.0000 </r>
      <r>     2.5335     3.0146     3.0146     3.0146    -0.0000    -0.0000     0.0000 </r>
      <r>     2.5765     3.7653     3.7653     3.7653    -0.0000    -0.0000     0.0000 </r>
      <r>     2.6194     4.7925     4.7925     4.7925    -0.0000    -0.0000     0.0000 </r>
      <r>     2.6623     6.0519     6.0519     6.0519    -0.0000    -0.0000     0.0000 </r>
      <r>     2.7053     7.3684     7.3684     7.3684     0.0000    -0.0000    -0.0000 </r>
      <r>     2.7482     8.6040     8.6040     8.6040     0.0000    -0.0000    -0.0000 </r>
      <r>     2.7912     9.8497     9.8497     9.8497     0.0000    -0.0000    -0.0000 </r>
      <r>     2.8341    11.2114    11.2114    11.2114     0.0000    -0.0000    -0.0000 </r>
      <r>     2.8771    12.6767    12.6767    12.6767     0.0000     0.0000    -0.0000 </r>
      <r>     2.9200    14.1910    14.1910    14.1910     0.0000     0.0000    -0.0000 </r>
      <r>     2.9629    15.7108    15.7108    15.7108     0.0000     0.0000    -0.0000 </r>
      <r>     3.0059    17.2088    17.2088    17.2088     0.0000    -0.0000    -0.0000 </r>
      <r>     3.0488    18.6729    18.6729    18.6729     0.0000    -0.0000    -0.0000 </r>
      <r>     3.0918    20.1062    20.1062    20.1062     0.0000    -0.0000    -0.0000 </r>
      <r>     3.1347    21.5265    21.5265    21.5265     0.0000    -0.0000     0.0000 </r>
      <r>     3.1776    22.9515    22.9515    22.9515    -0.0000    -0.0000     0.0000 </r>
      <r>     3.2206    24.3539    24.3539    24.3539    -0.0000    -0.0000     0.0000 </r>
      <r>     3.2635    25.6380    25.6380    25.6380    -0.0000    -0.0000     0.0000 </r>
      <r>     3.3065    26.7277    26.7277    26.7277    -0.0000    -0.0000     0.0000 </r>
      <r>     3.3494    27.6554    27.6554    27.6554    -0.0000    -0.0000     0.0000 </r>
      <r>     3.3923    28.4897    28.4897    28.4897    -0.0000    -0.0000     0.0000 </r>
      <r>     3.4353    29.2537    29.2537    29.2537    -0.0000    -0.0000     0.0000 </r>
      <r>     3.4782    29.9684    29.9684    29.9684    -0.0000    -0.0000     0.0000 </r>
      <r>     3.5212    30.7232    30.7232    30.7232     0.0000    -0.0000     0.0000 </r>
      <r>     3.5641    31.6470    31.6470    31.6470     0.0000    -0.0000     0.0000 </r>
      <r>     3.6071    32.8131    32.8131    32.8131     0.0000    -0.0000     0.0000 </r>
      <r>     3.6500    34.1860    34.1860    34.1860     0.0000    -0.0000     0.0000 </r>
      <r>     3.6929    35.5953    35.5953    35.5953     0.0000    -0.0000     0.0000 </r>
      <r>     3.7359    36.6778    36.6778    36.6778     0.0000    -0.0000     0.0000 </r>
      <r>     3.7788    37.0660    37.0660    37.0660     0.0000    -0.0000     0.0000 </r>
      <r>     3.8218    36.7816    36.7816    36.7816     0.0000    -0.0000     0.0000 </r>
      <r>     3.8647    36.0565    36.0565    36.0565    -0.0000    -0.0000    -0.0000 </r>
      <r>     3.9076    35.0799    35.0799    35.0799    -0.0000    -0.0000    -0.0000 </r>
      <r>     3.9506    33.9684    33.9684    33.9684    -0.0000    -0.0000    -0.0000 </r>
      <r>     3.9935    32.7911    32.7911    32.7911    -0.0000    -0.0000    -0.0000 </r>
      <r>     4.0365    31.5905    31.5905    31.5905    -0.0000    -0.0000    -0.0000 </r>
      <r>     4.0794    30.3933    30.3933    30.3933    -0.0000    -0.0000    -0.0000 </r>
      <r>     4.1223    29.2163    29.2163    29.2163    -0.0000    -0.0000    -0.0000 </r>
      <r>     4.1653    28.0699    28.0699    28.0699    -0.0000    -0.0000    -0.0000 </r>
      <r>     4.2082    26.9632    26.9632    26.9632    -0.0000    -0.0000    -0.0000 </r>
      <r>     4.2512    25.9061    25.9061    25.9061    -0.0000    -0.0000    -0.0000 </r>
      <r>     4.2941    24.9098    24.9098    24.9098    -0.0000    -0.0000    -0.0000 </r>
      <r>     4.3371    23.9868    23.9868    23.9868    -0.0000    -0.0000    -0.0000 </r>
      <r>     4.3800    23.1476    23.1476    23.1476    -0.0000    -0.0000    -0.0000 </r>
      <r>     4.4229    22.3983    22.3983    22.3983    -0.0000    -0.0000    -0.0000 </r>
      <r>     4.4659    21.7467    21.7467    21.7467    -0.0000    -0.0000    -0.0000 </r>
      <r>     4.5088    21.2038    21.2038    21.2038    -0.0000    -0.0000    -0.0000 </r>
      <r>     4.5518    20.7680    20.7680    20.7680    -0.0000    -0.0000    -0.0000 </r>
      <r>     4.5947    20.4102    20.4102    20.4102    -0.0000    -0.0000    -0.0000 </r>
      <r>     4.6376    20.0916    20.0916    20.0916    -0.0000    -0.0000    -0.0000 </r>
      <r>     4.6806    19.7877    19.7877    19.7877    -0.0000    -0.0000    -0.0000 </r>
      <r>     4.7235    19.4918    19.4918    19.4918    -0.0000     0.0000     0.0000 </r>
      <r>     4.7665    19.1977    19.1977    19.1977    -0.0000     0.0000     0.0000 </r>
      <r>     4.8094    18.8871    18.8871    18.8871    -0.0000     0.0000     0.0000 </r>
      <r>     4.8523    18.5291    18.5291    18.5291    -0.0000    -0.0000     0.0000 </r>
      <r>     4.8953    18.0853    18.0853    18.0853    -0.0000     0.0000    -0.0000 </r>
      <r>     4.9382    17.5245    17.5245    17.5245     0.0000     0.0000    -0.0000 </r>
      <r>     4.9812    16.8433    16.8433    16.8433     0.0000     0.0000    -0.0000 </r>
      <r>     5.0241    16.0776    16.0776    16.0776     0.0000     0.0000    -0.0000 </r>
      <r>     5.0671    15.2846    15.2846    15.2846    -0.0000     0.0000    -0.0000 </r>
      <r>     5.1100    14.4839    14.4839    14.4839    -0.0000     0.0000    -0.0000 </r>
      <r>     5.1529    13.6496    13.6496    13.6496    -0.0000     0.0000    -0.0000 </r>
      <r>     5.1959    12.8274    12.8274    12.8274    -0.0000     0.0000    -0.0000 </r>
      <r>     5.2388    12.1264    12.1264    12.1264    -0.0000     0.0000    -0.0000 </r>
      <r>     5.2818    11.5749    11.5749    11.5749    -0.0000     0.0000    -0.0000 </r>
      <r>     5.3247    11.1363    11.1363    11.1363    -0.0000     0.0000    -0.0000 </r>
      <r>     5.3676    10.7694    10.7694    10.7694    -0.0000     0.0000    -0.0000 </r>
      <r>     5.4106    10.4443    10.4443    10.4443    -0.0000     0.0000    -0.0000 </r>
      <r>     5.4535    10.1433    10.1433    10.1433    -0.0000     0.0000    -0.0000 </r>
      <r>     5.4965     9.8571     9.8571     9.8571    -0.0000     0.0000     0.0000 </r>
      <r>     5.5394     9.5817     9.5817     9.5817    -0.0000     0.0000     0.0000 </r>
      <r>     5.5823     9.3157     9.3157     9.3157    -0.0000     0.0000     0.0000 </r>
      <r>     5.6253     9.0587     9.0587     9.0587     0.0000     0.0000    -0.0000 </r>
      <r>     5.6682     8.8092     8.8092     8.8092     0.0000     0.0000    -0.0000 </r>
      <r>     5.7112     8.5643     8.5643     8.5643     0.0000     0.0000     0.0000 </r>
      <r>     5.7541     8.3206     8.3206     8.3206     0.0000     0.0000    -0.0000 </r>
      <r>     5.7971     8.0755     8.0755     8.0755     0.0000     0.0000    -0.0000 </r>
      <r>     5.8400     7.8269     7.8269     7.8269     0.0000     0.0000    -0.0000 </r>
      <r>     5.8829     7.5739     7.5739     7.5739    -0.0000     0.0000    -0.0000 </r>
      <r>     5.9259     7.3153     7.3153     7.3153     0.0000     0.0000     0.0000 </r>
      <r>     5.9688     7.0518     7.0518     7.0518     0.0000     0.0000     0.0000 </r>
      <r>     6.0118     6.7868     6.7868     6.7868     0.0000     0.0000     0.0000 </r>
      <r>     6.0547     6.5276     6.5276     6.5276     0.0000     0.0000     0.0000 </r>
      <r>     6.0976     6.2820     6.2820     6.2820     0.0000     0.0000     0.0000 </r>
      <r>     6.1406     6.0513     6.0513     6.0513     0.0000     0.0000     0.0000 </r>
      <r>     6.1835     5.8333     5.8333     5.8333     0.0000     0.0000     0.0000 </r>
      <r>     6.2265     5.6264     5.6264     5.6264     0.0000     0.0000    -0.0000 </r>
      <r>     6.2694     5.4299     5.4299     5.4299     0.0000     0.0000    -0.0000 </r>
      <r>     6.3123     5.2444     5.2444     5.2444     0.0000     0.0000    -0.0000 </r>
      <r>     6.3553     5.0705     5.0705     5.0705     0.0000     0.0000    -0.0000 </r>
      <r>     6.3982     4.9082     4.9082     4.9082     0.0000     0.0000    -0.0000 </r>
      <r>     6.4412     4.7573     4.7573     4.7573     0.0000    -0.0000    -0.0000 </r>
      <r>     6.4841     4.6172     4.6172     4.6172    -0.0000    -0.0000    -0.0000 </r>
      <r>     6.5271     4.4869     4.4869     4.4869    -0.0000    -0.0000    -0.0000 </r>
      <r>     6.5700     4.3651     4.3651     4.3651    -0.0000    -0.0000    -0.0000 </r>
      <r>     6.6129     4.2504     4.2504     4.2504    -0.0000    -0.0000    -0.0000 </r>
      <r>     6.6559     4.1412     4.1412     4.1412    -0.0000    -0.0000    -0.0000 </r>
      <r>     6.6988     4.0370     4.0370     4.0370    -0.0000    -0.0000    -0.0000 </r>
      <r>     6.7418     3.9382     3.9382     3.9382    -0.0000    -0.0000    -0.0000 </r>
      <r>     6.7847     3.8459     3.8459     3.8459    -0.0000    -0.0000    -0.0000 </r>
      <r>     6.8276     3.7614     3.7614     3.7614     0.0000    -0.0000    -0.0000 </r>
      <r>     6.8706     3.6851     3.6851     3.6851     0.0000    -0.0000    -0.0000 </r>
      <r>     6.9135     3.6171     3.6171     3.6171     0.0000    -0.0000     0.0000 </r>
      <r>     6.9565     3.5560     3.5560     3.5560     0.0000    -0.0000     0.0000 </r>
      <r>     6.9994     3.4992     3.4992     3.4992    -0.0000    -0.0000     0.0000 </r>
      <r>     7.0423     3.4429     3.4429     3.4429    -0.0000    -0.0000     0.0000 </r>
      <r>     7.0853     3.3843     3.3843     3.3843    -0.0000    -0.0000     0.0000 </r>
      <r>     7.1282     3.3228     3.3228     3.3228    -0.0000    -0.0000     0.0000 </r>
      <r>     7.1712     3.2600     3.2600     3.2600    -0.0000    -0.0000     0.0000 </r>
      <r>     7.2141     3.1993     3.1993     3.1993    -0.0000    -0.0000     0.0000 </r>
      <r>     7.2570     3.1419     3.1419     3.1419    -0.0000    -0.0000     0.0000 </r>
      <r>     7.3000     3.0888     3.0888     3.0888    -0.0000    -0.0000    -0.0000 </r>
      <r>     7.3429     3.0422     3.0422     3.0422    -0.0000    -0.0000     0.0000 </r>
      <r>     7.3859     3.0022     3.0022     3.0022    -0.0000    -0.0000     0.0000 </r>
      <r>     7.4288     2.9665     2.9665     2.9665    -0.0000    -0.0000     0.0000 </r>
      <r>     7.4718     2.9322     2.9322     2.9322    -0.0000    -0.0000     0.0000 </r>
      <r>     7.5147     2.8953     2.8953     2.8953    -0.0000    -0.0000     0.0000 </r>
      <r>     7.5576     2.8523     2.8523     2.8523    -0.0000    -0.0000    -0.0000 </r>
      <r>     7.6006     2.8037     2.8037     2.8037    -0.0000    -0.0000    -0.0000 </r>
      <r>     7.6435     2.7541     2.7541     2.7541    -0.0000    -0.0000    -0.0000 </r>
      <r>     7.6865     2.7085     2.7085     2.7085    -0.0000    -0.0000    -0.0000 </r>
      <r>     7.7294     2.6684     2.6684     2.6684    -0.0000    -0.0000    -0.0000 </r>
      <r>     7.7723     2.6324     2.6324     2.6324    -0.0000    -0.0000    -0.0000 </r>
      <r>     7.8153     2.5981     2.5981     2.5981    -0.0000    -0.0000    -0.0000 </r>
      <r>     7.8582     2.5631     2.5631     2.5631    -0.0000     0.0000    -0.0000 </r>
      <r>     7.9012     2.5248     2.5248     2.5248    -0.0000     0.0000    -0.0000 </r>
      <r>     7.9441     2.4836     2.4836     2.4836    -0.0000    -0.0000    -0.0000 </r>
      <r>     7.9870     2.4435     2.4435     2.4435    -0.0000    -0.0000     0.0000 </r>
      <r>     8.0300     2.4060     2.4060     2.4060    -0.0000    -0.0000     0.0000 </r>
      <r>     8.0729     2.3698     2.3698     2.3698    -0.0000    -0.0000     0.0000 </r>
      <r>     8.1159     2.3336     2.3336     2.3336    -0.0000    -0.0000     0.0000 </r>
      <r>     8.1588     2.2963     2.2963     2.2963    -0.0000    -0.0000     0.0000 </r>
      <r>     8.2018     2.2574     2.2574     2.2574    -0.0000    -0.0000     0.0000 </r>
      <r>     8.2447     2.2165     2.2165     2.2165    -0.0000    -0.0000     0.0000 </r>
      <r>     8.2876     2.1739     2.1739     2.1739    -0.0000    -0.0000     0.0000 </r>
      <r>     8.3306     2.1296     2.1296     2.1296    -0.0000    -0.0000     0.0000 </r>
      <r>     8.3735     2.0835     2.0835     2.0835    -0.0000    -0.0000     0.0000 </r>
      <r>     8.4165     2.0355     2.0355     2.0355    -0.0000    -0.0000    -0.0000 </r>
      <r>     8.4594     1.9863     1.9863     1.9863    -0.0000    -0.0000    -0.0000 </r>
      <r>     8.5023     1.9366     1.9366     1.9366    -0.0000    -0.0000    -0.0000 </r>
      <r>     8.5453     1.8877     1.8877     1.8877    -0.0000    -0.0000    -0.0000 </r>
      <r>     8.5882     1.8394     1.8394     1.8394    -0.0000    -0.0000    -0.0000 </r>
      <r>     8.6312     1.7901     1.7901     1.7901    -0.0000    -0.0000    -0.0000 </r>
      <r>     8.6741     1.7402     1.7402     1.7402     0.0000    -0.0000    -0.0000 </r>
      <r>     8.7170     1.6933     1.6933     1.6933     0.0000    -0.0000    -0.0000 </r>
      <r>     8.7600     1.6523     1.6523     1.6523     0.0000    -0.0000     0.0000 </r>
      <r>     8.8029     1.6168     1.6168     1.6168     0.0000    -0.0000     0.0000 </r>
      <r>     8.8459     1.5852     1.5852     1.5852     0.0000    -0.0000     0.0000 </r>
      <r>     8.8888     1.5560     1.5560     1.5560     0.0000     0.0000     0.0000 </r>
      <r>     8.9318     1.5280     1.5280     1.5280     0.0000     0.0000     0.0000 </r>
      <r>     8.9747     1.5006     1.5006     1.5006     0.0000     0.0000     0.0000 </r>
      <r>     9.0176     1.4726     1.4726     1.4726     0.0000     0.0000     0.0000 </r>
      <r>     9.0606     1.4426     1.4426     1.4426     0.0000     0.0000     0.0000 </r>
      <r>     9.1035     1.4107     1.4107     1.4107     0.0000     0.0000     0.0000 </r>
      <r>     9.1465     1.3792     1.3792     1.3792     0.0000     0.0000     0.0000 </r>
      <r>     9.1894     1.3500     1.3500     1.3500     0.0000     0.0000     0.0000 </r>
      <r>     9.2323     1.3233     1.3233     1.3233     0.0000     0.0000     0.0000 </r>
      <r>     9.2753     1.2988     1.2988     1.2988    -0.0000     0.0000     0.0000 </r>
      <r>     9.3182     1.2761     1.2761     1.2761    -0.0000     0.0000     0.0000 </r>
      <r>     9.3612     1.2553     1.2553     1.2553    -0.0000     0.0000     0.0000 </r>
      <r>     9.4041     1.2361     1.2361     1.2361    -0.0000    -0.0000    -0.0000 </r>
      <r>     9.4470     1.2186     1.2186     1.2186    -0.0000    -0.0000    -0.0000 </r>
      <r>     9.4900     1.2026     1.2026     1.2026    -0.0000    -0.0000    -0.0000 </r>
      <r>     9.5329     1.1884     1.1884     1.1884    -0.0000    -0.0000    -0.0000 </r>
      <r>     9.5759     1.1763     1.1763     1.1763     0.0000    -0.0000    -0.0000 </r>
      <r>     9.6188     1.1652     1.1652     1.1652     0.0000    -0.0000     0.0000 </r>
      <r>     9.6618     1.1523     1.1523     1.1523     0.0000    -0.0000    -0.0000 </r>
      <r>     9.7047     1.1360     1.1360     1.1360     0.0000    -0.0000    -0.0000 </r>
      <r>     9.7476     1.1167     1.1167     1.1167     0.0000    -0.0000     0.0000 </r>
      <r>     9.7906     1.0954     1.0954     1.0954     0.0000    -0.0000     0.0000 </r>
      <r>     9.8335     1.0730     1.0730     1.0730     0.0000    -0.0000     0.0000 </r>
      <r>     9.8765     1.0501     1.0501     1.0501     0.0000    -0.0000     0.0000 </r>
      <r>     9.9194     1.0274     1.0274     1.0274    -0.0000    -0.0000    -0.0000 </r>
      <r>     9.9623     1.0050     1.0050     1.0050    -0.0000    -0.0000    -0.0000 </r>
      <r>    10.0053     0.9829     0.9829     0.9829    -0.0000    -0.0000    -0.0000 </r>
      <r>    10.0482     0.9609     0.9609     0.9609    -0.0000    -0.0000    -0.0000 </r>
      <r>    10.0912     0.9392     0.9392     0.9392     0.0000    -0.0000    -0.0000 </r>
      <r>    10.1341     0.9191     0.9191     0.9191     0.0000    -0.0000     0.0000 </r>
      <r>    10.1770     0.9016     0.9016     0.9016     0.0000    -0.0000     0.0000 </r>
      <r>    10.2200     0.8876     0.8876     0.8876    -0.0000    -0.0000     0.0000 </r>
      <r>    10.2629     0.8781     0.8781     0.8781    -0.0000    -0.0000     0.0000 </r>
      <r>    10.3059     0.8729     0.8729     0.8729    -0.0000    -0.0000     0.0000 </r>
      <r>    10.3488     0.8701     0.8701     0.8701    -0.0000    -0.0000     0.0000 </r>
      <r>    10.3918     0.8677     0.8677     0.8677    -0.0000    -0.0000     0.0000 </r>
      <r>    10.4347     0.8642     0.8642     0.8642    -0.0000    -0.0000     0.0000 </r>
      <r>    10.4776     0.8592     0.8592     0.8592    -0.0000    -0.0000     0.0000 </r>
      <r>    10.5206     0.8525     0.8525     0.8525    -0.0000    -0.0000     0.0000 </r>
      <r>    10.5635     0.8435     0.8435     0.8435    -0.0000    -0.0000     0.0000 </r>
      <r>    10.6065     0.8320     0.8320     0.8320    -0.0000    -0.0000     0.0000 </r>
      <r>    10.6494     0.8186     0.8186     0.8186    -0.0000    -0.0000     0.0000 </r>
      <r>    10.6923     0.8045     0.8045     0.8045    -0.0000    -0.0000     0.0000 </r>
      <r>    10.7353     0.7906     0.7906     0.7906    -0.0000    -0.0000    -0.0000 </r>
      <r>    10.7782     0.7763     0.7763     0.7763    -0.0000    -0.0000    -0.0000 </r>
      <r>    10.8212     0.7603     0.7603     0.7603    -0.0000    -0.0000    -0.0000 </r>
      <r>    10.8641     0.7431     0.7431     0.7431    -0.0000    -0.0000    -0.0000 </r>
      <r>    10.9070     0.7269     0.7269     0.7269    -0.0000    -0.0000    -0.0000 </r>
      <r>    10.9500     0.7123     0.7123     0.7123    -0.0000    -0.0000     0.0000 </r>
      <r>    10.9929     0.6972     0.6972     0.6972     0.0000    -0.0000     0.0000 </r>
      <r>    11.0359     0.6786     0.6786     0.6786     0.0000    -0.0000    -0.0000 </r>
      <r>    11.0788     0.6585     0.6585     0.6585    -0.0000    -0.0000    -0.0000 </r>
      <r>    11.1217     0.6392     0.6392     0.6392    -0.0000    -0.0000     0.0000 </r>
      <r>    11.1647     0.6218     0.6218     0.6218    -0.0000    -0.0000     0.0000 </r>
      <r>    11.2076     0.6060     0.6060     0.6060    -0.0000    -0.0000    -0.0000 </r>
      <r>    11.2506     0.5918     0.5918     0.5918    -0.0000    -0.0000    -0.0000 </r>
      <r>    11.2935     0.5799     0.5799     0.5799    -0.0000    -0.0000    -0.0000 </r>
      <r>    11.3365     0.5705     0.5705     0.5705    -0.0000    -0.0000    -0.0000 </r>
      <r>    11.3794     0.5632     0.5632     0.5632    -0.0000    -0.0000    -0.0000 </r>
      <r>    11.4223     0.5577     0.5577     0.5577    -0.0000    -0.0000    -0.0000 </r>
      <r>    11.4653     0.5536     0.5536     0.5536    -0.0000    -0.0000    -0.0000 </r>
      <r>    11.5082     0.5499     0.5499     0.5499    -0.0000    -0.0000    -0.0000 </r>
      <r>    11.5512     0.5454     0.5454     0.5454    -0.0000    -0.0000    -0.0000 </r>
      <r>    11.5941     0.5393     0.5393     0.5393    -0.0000    -0.0000    -0.0000 </r>
      <r>    11.6370     0.5318     0.5318     0.5318    -0.0000    -0.0000     0.0000 </r>
      <r>    11.6800     0.5232     0.5232     0.5232    -0.0000    -0.0000     0.0000 </r>
      <r>    11.7229     0.5143     0.5143     0.5143    -0.0000    -0.0000     0.0000 </r>
      <r>    11.7659     0.5053     0.5053     0.5053    -0.0000    -0.0000     0.0000 </r>
      <r>    11.8088     0.4965     0.4965     0.4965    -0.0000    -0.0000     0.0000 </r>
      <r>    11.8517     0.4877     0.4877     0.4877    -0.0000    -0.0000    -0.0000 </r>
[...]
      <r>    41.0517     0.8451     0.8451     0.8451     0.0000     0.0000     0.0000 </r>
      <r>    41.0947     0.8454     0.8454     0.8454     0.0000     0.0000     0.0000 </r>
      <r>    41.1376     0.8458     0.8458     0.8458     0.0000     0.0000     0.0000 </r>
      <r>    41.1805     0.8461     0.8461     0.8461     0.0000     0.0000     0.0000 </r>
      <r>    41.2235     0.8464     0.8464     0.8464     0.0000     0.0000     0.0000 </r>
      <r>    41.2664     0.8468     0.8468     0.8468     0.0000     0.0000     0.0000 </r>
      <r>    41.3094     0.8471     0.8471     0.8471     0.0000     0.0000     0.0000 </r>
      <r>    41.3523     0.8474     0.8474     0.8474     0.0000     0.0000     0.0000 </r>
      <r>    41.3952     0.8477     0.8477     0.8477     0.0000     0.0000     0.0000 </r>
      <r>    41.4382     0.8481     0.8481     0.8481     0.0000     0.0000     0.0000 </r>
      <r>    41.4811     0.8484     0.8484     0.8484     0.0000     0.0000     0.0000 </r>
      <r>    41.5241     0.8487     0.8487     0.8487     0.0000     0.0000     0.0000 </r>
      <r>    41.5670     0.8490     0.8490     0.8490     0.0000     0.0000     0.0000 </r>
      <r>    41.6099     0.8494     0.8494     0.8494     0.0000     0.0000     0.0000 </r>
      <r>    41.6529     0.8497     0.8497     0.8497     0.0000     0.0000     0.0000 </r>
      <r>    41.6958     0.8500     0.8500     0.8500     0.0000     0.0000     0.0000 </r>
      <r>    41.7388     0.8503     0.8503     0.8503     0.0000     0.0000     0.0000 </r>
      <r>    41.7817     0.8506     0.8506     0.8506     0.0000     0.0000     0.0000 </r>
      <r>    41.8246     0.8509     0.8509     0.8509     0.0000     0.0000     0.0000 </r>
      <r>    41.8676     0.8513     0.8513     0.8513     0.0000     0.0000     0.0000 </r>
      <r>    41.9105     0.8516     0.8516     0.8516     0.0000     0.0000     0.0000 </r>
      <r>    41.9535     0.8519     0.8519     0.8519     0.0000     0.0000     0.0000 </r>
      <r>    41.9964     0.8522     0.8522     0.8522     0.0000     0.0000     0.0000 </r>
      <r>    42.0394     0.8525     0.8525     0.8525     0.0000     0.0000     0.0000 </r>
      <r>    42.0823     0.8528     0.8528     0.8528     0.0000     0.0000     0.0000 </r>
      <r>    42.1252     0.8531     0.8531     0.8531     0.0000     0.0000     0.0000 </r>
      <r>    42.1682     0.8534     0.8534     0.8534     0.0000     0.0000     0.0000 </r>
      <r>    42.2111     0.8537     0.8537     0.8537     0.0000     0.0000     0.0000 </r>
      <r>    42.2541     0.8540     0.8540     0.8540     0.0000     0.0000     0.0000 </r>
      <r>    42.2970     0.8543     0.8543     0.8543     0.0000     0.0000     0.0000 </r>
      <r>    42.3399     0.8546     0.8546     0.8546     0.0000     0.0000     0.0000 </r>
      <r>    42.3829     0.8549     0.8549     0.8549     0.0000     0.0000     0.0000 </r>
      <r>    42.4258     0.8552     0.8552     0.8552     0.0000     0.0000     0.0000 </r>
      <r>    42.4688     0.8555     0.8555     0.8555     0.0000     0.0000     0.0000 </r>
      <r>    42.5117     0.8558     0.8558     0.8558     0.0000     0.0000     0.0000 </r>
      <r>    42.5546     0.8561     0.8561     0.8561     0.0000     0.0000     0.0000 </r>
      <r>    42.5976     0.8564     0.8564     0.8564     0.0000     0.0000     0.0000 </r>
      <r>    42.6405     0.8567     0.8567     0.8567     0.0000     0.0000     0.0000 </r>
      <r>    42.6835     0.8570     0.8570     0.8570     0.0000     0.0000     0.0000 </r>
      <r>    42.7264     0.8573     0.8573     0.8573     0.0000     0.0000     0.0000 </r>
      <r>    42.7694     0.8576     0.8576     0.8576     0.0000     0.0000     0.0000 </r>
      <r>    42.8123     0.8579     0.8579     0.8579     0.0000     0.0000     0.0000 </r>
      <r>    42.8552     0.8582     0.8582     0.8582     0.0000     0.0000     0.0000 </r>
      <r>    42.8982     0.8585     0.8585     0.8585     0.0000     0.0000     0.0000 </r>
     </set>
    </array>
   </real>
  </dielectricfunction>
  <dos>
   <i name="efermi">      5.72167802 </i>
   <total>
    <array>
     <dimension dim="1">gridpoints</dimension>
     <dimension dim="2">spin</dimension>
     <field>energy</field>
     <field>total</field>
     <field>integrated</field>
     <set>
      <set comment="spin 1">
       <r>    -8.1986     0.0000     0.0000 </r>
       <r>    -8.0661     0.0000     0.0000 </r>
       <r>    -7.9336     0.0000     0.0000 </r>
       <r>    -7.8011     0.0000     0.0000 </r>
       <r>    -7.6686     0.0000     0.0000 </r>
       <r>    -7.5361     0.0000     0.0000 </r>
       <r>    -7.4036     0.0000     0.0000 </r>
       <r>    -7.2711     0.0000     0.0000 </r>
       <r>    -7.1386     0.0000     0.0000 </r>
       <r>    -7.0061     0.0000     0.0000 </r>
       <r>    -6.8736     0.0000     0.0000 </r>
       <r>    -6.7411     0.0000     0.0000 </r>
       <r>    -6.6086     0.0000     0.0000 </r>
       <r>    -6.4761     0.0000     0.0000 </r>
       <r>    -6.3436     0.0000     0.0000 </r>
       <r>    -6.2111     0.0000     0.0000 </r>
       <r>    -6.0787     0.0888     0.0036 </r>
       <r>    -5.9462     0.1515     0.0214 </r>
       <r>    -5.8137     0.2079     0.0452 </r>
       <r>    -5.6812     0.2565     0.0764 </r>
       <r>    -5.5487     0.2787     0.1116 </r>
       <r>    -5.4162     0.3152     0.1509 </r>
       <r>    -5.2837     0.3534     0.1952 </r>
       <r>    -5.1512     0.3828     0.2442 </r>
       <r>    -5.0187     0.4109     0.2968 </r>
       <r>    -4.8862     0.4403     0.3531 </r>
       <r>    -4.7537     0.4747     0.4137 </r>
       <r>    -4.6212     0.5122     0.4790 </r>
       <r>    -4.4887     0.5495     0.5494 </r>
       <r>    -4.3562     0.5917     0.6248 </r>
       <r>    -4.2237     0.6485     0.7068 </r>
       <r>    -4.0912     0.7296     0.7975 </r>
       <r>    -3.9587     0.8842     0.9056 </r>
       <r>    -3.8262     0.8626     1.0235 </r>
       <r>    -3.6937     0.9371     1.1426 </r>
       <r>    -3.5612     0.8158     1.2578 </r>
       <r>    -3.4288     0.7570     1.3614 </r>
       <r>    -3.2963     0.7265     1.4599 </r>
       <r>    -3.1638     0.6865     1.5535 </r>
       <r>    -3.0313     0.6472     1.6419 </r>
       <r>    -2.8988     0.5994     1.7242 </r>
       <r>    -2.7663     0.5800     1.8026 </r>
       <r>    -2.6338     0.5191     1.8759 </r>
       <r>    -2.5013     0.4694     1.9466 </r>
       <r>    -2.3688     0.1797     1.9895 </r>
       <r>    -2.2363     0.0199     1.9995 </r>
       <r>    -2.1038     0.0000     2.0000 </r>
       <r>    -1.9713     0.0115     2.0002 </r>
       <r>    -1.8388     0.0623     2.0049 </r>
       <r>    -1.7063     0.1558     2.0180 </r>
       <r>    -1.5738     0.3824     2.0534 </r>
       <r>    -1.4413     0.6282     2.1202 </r>
       <r>    -1.3088     0.6384     2.2041 </r>
       <r>    -1.1763     0.7725     2.2942 </r>
       <r>    -1.0438     1.5323     2.4486 </r>
       <r>    -0.9113     1.3854     2.6546 </r>
       <r>    -0.7789     0.9262     2.7980 </r>
       <r>    -0.6464     0.7696     2.9095 </r>
       <r>    -0.5139     0.6632     3.0041 </r>
       <r>    -0.3814     0.5628     3.0844 </r>
       <r>    -0.2489     0.5197     3.1559 </r>
       <r>    -0.1164     0.4850     3.2224 </r>
       <r>     0.0161     0.4531     3.2846 </r>
       <r>     0.1486     0.4217     3.3425 </r>
       <r>     0.2811     0.3909     3.3963 </r>
       <r>     0.4136     0.3391     3.4451 </r>
       <r>     0.5461     0.3086     3.4879 </r>
       <r>     0.6786     0.2884     3.5273 </r>
       <r>     0.8111     0.2751     3.5647 </r>
       <r>     0.9436     0.2624     3.6003 </r>
       <r>     1.0761     0.2490     3.6342 </r>
       <r>     1.2086     0.2336     3.6662 </r>
       <r>     1.3411     0.2263     3.6961 </r>
       <r>     1.4736     0.4265     3.7362 </r>
       <r>     1.6061     1.6855     3.8354 </r>
       <r>     1.7385     1.1535     4.0448 </r>
       <r>     1.8710     1.0706     4.1916 </r>
       <r>     2.0035     1.0273     4.3304 </r>
       <r>     2.1360     0.9965     4.4643 </r>
       <r>     2.2685     0.9745     4.5948 </r>
       <r>     2.4010     1.1492     4.7484 </r>
       <r>     2.5335     1.3581     4.9112 </r>
       <r>     2.6660     1.2920     5.0898 </r>
       <r>     2.7985     1.4449     5.2708 </r>
       <r>     2.9310     1.5037     5.4769 </r>
       <r>     3.0635     1.5207     5.6771 </r>
       <r>     3.1960     1.5290     5.8801 </r>
       <r>     3.3285     1.4714     6.0782 </r>
       <r>     3.4610     1.4313     6.2711 </r>
       <r>     3.5935     1.3750     6.4568 </r>
       <r>     3.7260     1.3966     6.6394 </r>
       <r>     3.8585     1.3775     6.8237 </r>
       <r>     3.9910     1.3325     7.0035 </r>
       <r>     4.1235     1.2684     7.1758 </r>
       <r>     4.2560     1.2638     7.3430 </r>
       <r>     4.3884     1.0992     7.5012 </r>
       <r>     4.5209     0.8702     7.6308 </r>
       <r>     4.6534     0.6406     7.7288 </r>
       <r>     4.7859     0.5201     7.8055 </r>
       <r>     4.9184     0.4100     7.8670 </r>
       <r>     5.0509     0.3126     7.9147 </r>
       <r>     5.1834     0.2390     7.9510 </r>
       <r>     5.3159     0.1928     7.9793 </r>
       <r>     5.4484     0.0527     7.9971 </r>
       <r>     5.5809     0.0024     8.0000 </r>
       <r>     5.7134     0.0000     8.0000 </r>
       <r>     5.8459     0.0000     8.0000 </r>
       <r>     5.9784     0.0000     8.0000 </r>
       <r>     6.1109     0.0000     8.0000 </r>
       <r>     6.2434     0.0024     8.0000 </r>
       <r>     6.3759     0.0959     8.0063 </r>
       <r>     6.5084     0.1671     8.0240 </r>
       <r>     6.6409     0.2317     8.0504 </r>
       <r>     6.7734     0.3228     8.0871 </r>
       <r>     6.9059     0.4143     8.1359 </r>
       <r>     7.0383     0.5145     8.1974 </r>
       <r>     7.1708     0.6290     8.2726 </r>
       <r>     7.3033     0.7827     8.3656 </r>
       <r>     7.4358     0.9633     8.4813 </r>
       <r>     7.5683     1.1447     8.6210 </r>
       <r>     7.7008     1.3951     8.7876 </r>
       <r>     7.8333     1.7872     8.9967 </r>
       <r>     7.9658     2.0454     9.2539 </r>
       <r>     8.0983     2.1195     9.5295 </r>
       <r>     8.2308     1.9638     9.7998 </r>
       <r>     8.3633     1.1552    10.0188 </r>
       <r>     8.4958     0.6152    10.1325 </r>
       <r>     8.6283     0.5700    10.2072 </r>
       <r>     8.7608     0.6972    10.2909 </r>
       <r>     8.8933     1.0838    10.4012 </r>
       <r>     9.0258     2.3179    10.6375 </r>
       <r>     9.1583     2.8424    11.0409 </r>
       <r>     9.2908     1.6732    11.3130 </r>
       <r>     9.4233     1.6668    11.5332 </r>
       <r>     9.5558     1.8821    11.7550 </r>
       <r>     9.6882     1.3981    11.9592 </r>
       <r>     9.8207     1.2765    12.1362 </r>
       <r>     9.9532     1.1283    12.2962 </r>
       <r>    10.0857     0.9424    12.4333 </r>
       <r>    10.2182     0.9056    12.5561 </r>
       <r>    10.3507     1.0811    12.6834 </r>
       <r>    10.4832     1.2954    12.8419 </r>
       <r>    10.6157     1.4034    13.0253 </r>
       <r>    10.7482     1.3980    13.2100 </r>
       <r>    10.8807     1.2951    13.3947 </r>
       <r>    11.0132     1.1791    13.5553 </r>
       <r>    11.1457     1.1357    13.7092 </r>
       <r>    11.2782     0.9937    13.8510 </r>
       <r>    11.4107     0.8868    13.9747 </r>
       <r>    11.5432     0.8029    14.0869 </r>
       <r>    11.6757     0.7402    14.1874 </r>
       <r>    11.8082     0.7687    14.2869 </r>
       <r>    11.9407     0.9713    14.3987 </r>
       <r>    12.0732     1.4142    14.5571 </r>
       <r>    12.2056     1.5861    14.7657 </r>
       <r>    12.3381     1.7270    14.9871 </r>
       <r>    12.4706     1.6841    15.2151 </r>
       <r>    12.6031     1.4991    15.4273 </r>
       <r>    12.7356     1.1386    15.6038 </r>
       <r>    12.8681     0.9807    15.7436 </r>
       <r>    13.0006     1.0979    15.8805 </r>
       <r>    13.1331     1.1165    16.0283 </r>
       <r>    13.2656     1.1009    16.1756 </r>
       <r>    13.3981     1.0749    16.3187 </r>
       <r>    13.5306     1.1154    16.4638 </r>
       <r>    13.6631     1.0416    16.6077 </r>
       <r>    13.7956     1.0374    16.7438 </r>
       <r>    13.9281     1.1039    16.8850 </r>
       <r>    14.0606     1.2072    17.0389 </r>
       <r>    14.1931     1.2340    17.2011 </r>
       <r>    14.3256     1.3220    17.3700 </r>
       <r>    14.4581     1.4417    17.5531 </r>
       <r>    14.5906     1.4406    17.7498 </r>
       <r>    14.7231     1.3994    17.9295 </r>
       <r>    14.8555     1.5089    18.1244 </r>
       <r>    14.9880     1.7289    18.3533 </r>
       <r>    15.1205     1.7268    18.5812 </r>
       <r>    15.2530     1.6618    18.8074 </r>
       <r>    15.3855     1.4950    19.0158 </r>
       <r>    15.5180     1.6075    19.2094 </r>
       <r>    15.6505     1.2864    19.3898 </r>
       <r>    15.7830     1.2406    19.5570 </r>
       <r>    15.9155     1.1719    19.7188 </r>
       <r>    16.0480     1.0906    19.8681 </r>
       <r>    16.1805     1.0018    20.0070 </r>
       <r>    16.3130     1.0045    20.1357 </r>
       <r>    16.4455     1.1702    20.2845 </r>
       <r>    16.5780     1.1169    20.4343 </r>
       <r>    16.7105     1.1287    20.5828 </r>
       <r>    16.8430     1.1663    20.7343 </r>
       <r>    16.9755     1.1065    20.8820 </r>
       <r>    17.1080     1.0187    21.0312 </r>
       <r>    17.2405     0.8630    21.1509 </r>
       <r>    17.3730     1.0483    21.2742 </r>
       <r>    17.5054     1.2461    21.4193 </r>
       <r>    17.6379     1.8605    21.6270 </r>
       <r>    17.7704     1.6954    21.8709 </r>
       <r>    17.9029     1.6986    22.0946 </r>
       <r>    18.0354     1.6941    22.3197 </r>
       <r>    18.1679     1.7698    22.5470 </r>
       <r>    18.3004     1.8913    22.7925 </r>
       <r>    18.4329     1.6962    23.0340 </r>
       <r>    18.5654     1.3998    23.2351 </r>
       <r>    18.6979     1.3935    23.4202 </r>
       <r>    18.8304     1.3570    23.6012 </r>
       <r>    18.9629     1.4690    23.7867 </r>
       <r>    19.0954     1.8858    24.0159 </r>
       <r>    19.2279     2.3047    24.2883 </r>
       <r>    19.3604     2.5529    24.6277 </r>
       <r>    19.4929     1.9592    24.9271 </r>
       <r>    19.6254     1.8010    25.1811 </r>
       <r>    19.7579     1.4223    25.4040 </r>
       <r>    19.8904     1.1988    25.5741 </r>
       <r>    20.0228     1.0030    25.7205 </r>
       <r>    20.1553     0.8128    25.8393 </r>
       <r>    20.2878     0.7695    25.9419 </r>
       <r>    20.4203     1.0730    26.0594 </r>
       <r>    20.5528     1.3917    26.2303 </r>
       <r>    20.6853     1.4569    26.4095 </r>
       <r>    20.8178     1.7167    26.6233 </r>
       <r>    20.9503     1.6287    26.8530 </r>
       <r>    21.0828     1.3601    27.0508 </r>
       <r>    21.2153     1.2008    27.2162 </r>
       <r>    21.3478     1.4465    27.3889 </r>
       <r>    21.4803     1.5714    27.5995 </r>
       <r>    21.6128     1.4621    27.7987 </r>
       <r>    21.7453     1.5187    27.9963 </r>
       <r>    21.8778     1.5579    28.2010 </r>
       <r>    22.0103     1.3381    28.3965 </r>
       <r>    22.1428     1.1200    28.5534 </r>
       <r>    22.2753     1.1315    28.7025 </r>
       <r>    22.4078     1.1339    28.8528 </r>
       <r>    22.5403     1.1211    29.0023 </r>
       <r>    22.6727     1.1129    29.1509 </r>
       <r>    22.8052     1.0609    29.3131 </r>
       <r>    22.9377     1.0007    29.4482 </r>
       <r>    23.0702     1.0360    29.5888 </r>
       <r>    23.2027     1.0580    29.7281 </r>
       <r>    23.3352     1.0521    29.8681 </r>
       <r>    23.4677     1.0321    30.0062 </r>
       <r>    23.6002     0.9976    30.1408 </r>
       <r>    23.7327     0.9516    30.2700 </r>
       <r>    23.8652     0.9255    30.3953 </r>
       <r>    23.9977     0.8868    30.5148 </r>
       <r>    24.1302     0.9974    30.6362 </r>
       <r>    24.2627     1.1016    30.7764 </r>
       <r>    24.3952     1.1087    30.9238 </r>
       <r>    24.5277     1.0435    31.0663 </r>
       <r>    24.6602     0.9882    31.2008 </r>
       <r>    24.7927     0.9277    31.3283 </r>
       <r>    24.9252     0.8582    31.4487 </r>
       <r>    25.0577     0.8589    31.5612 </r>
       <r>    25.1902     0.6500    31.6754 </r>
       <r>    25.3226     0.4749    31.7499 </r>
       <r>    25.4551     0.3180    31.8019 </r>
       <r>    25.5876     0.2164    31.8367 </r>
       <r>    25.7201     0.1761    31.8620 </r>
       <r>    25.8526     0.1638    31.8846 </r>
       <r>    25.9851     0.1482    31.9053 </r>
       <r>    26.1176     0.1293    31.9237 </r>
       <r>    26.2501     0.1070    31.9394 </r>
       <r>    26.3826     0.0811    31.9519 </r>
       <r>    26.5151     0.0501    31.9606 </r>
       <r>    26.6476     0.0333    31.9658 </r>
       <r>    26.7801     0.0271    31.9697 </r>
       <r>    26.9126     0.0287    31.9733 </r>
       <r>    27.0451     0.0320    31.9774 </r>
       <r>    27.1776     0.0276    31.9814 </r>
       <r>    27.3101     0.0236    31.9848 </r>
       <r>    27.4426     0.0200    31.9877 </r>
       <r>    27.5751     0.0168    31.9901 </r>
       <r>    27.7076     0.0139    31.9921 </r>
       <r>    27.8401     0.0115    31.9938 </r>
       <r>    27.9725     0.0094    31.9952 </r>
       <r>    28.1050     0.0077    31.9963 </r>
       <r>    28.2375     0.0063    31.9972 </r>
       <r>    28.3700     0.0051    31.9980 </r>
       <r>    28.5025     0.0040    31.9986 </r>
       <r>    28.6350     0.0031    31.9991 </r>
       <r>    28.7675     0.0022    31.9994 </r>
       <r>    28.9000     0.0015    31.9997 </r>
       <r>    29.0325     0.0010    31.9998 </r>
       <r>    29.1650     0.0005    31.9999 </r>
       <r>    29.2975     0.0002    32.0000 </r>
       <r>    29.4300     0.0001    32.0000 </r>
       <r>    29.5625     0.0000    32.0000 </r>
       <r>    29.6950     0.0000    32.0000 </r>
       <r>    29.8275     0.0000    32.0000 </r>
       <r>    29.9600     0.0000    32.0000 </r>
       <r>    30.0925     0.0000    32.0000 </r>
       <r>    30.2250     0.0000    32.0000 </r>
       <r>    30.3575     0.0000    32.0000 </r>
       <r>    30.4899     0.0000    32.0000 </r>
       <r>    30.6224     0.0000    32.0000 </r>
       <r>    30.7549     0.0000    32.0000 </r>
       <r>    30.8874     0.0000    32.0000 </r>
       <r>    31.0199     0.0000    32.0000 </r>
       <r>    31.1524     0.0000    32.0000 </r>
       <r>    31.2849     0.0000    32.0000 </r>
       <r>    31.4174     0.0000    32.0000 </r>
       <r>    31.5499     0.0000    32.0000 </r>
      </set>
     </set>
    </array>
   </total>
  </dos>
 </calculation>
 <structure name="finalpos" >
  <crystal>
   <varray name="basis" >
    <v>       0.00000000       2.73436400       2.73436400 </v>
    <v>       2.73436400       0.00000000       2.73436400 </v>
    <v>       2.73436400       2.73436400       0.00000000 </v>
   </varray>
   <i name="volume">     40.88829285 </i>
   <varray name="rec_basis" >
    <v>      -0.18285788       0.18285788       0.18285788 </v>
    <v>       0.18285788      -0.18285788       0.18285788 </v>
    <v>       0.18285788       0.18285788      -0.18285788 </v>
   </varray>
  </crystal>
  <varray name="positions" >
   <v>       0.37500000       0.37500000       0.37500000 </v>
   <v>       0.62500000       0.62500000       0.62500000 </v>
  </varray>
 </structure>
</modeling>
