<?xml version="1.0" encoding="ISO-8859-1"?>
<modeling>
 <generator>
  <i name="program" type="string">vasp </i>
  <i name="version" type="string">6.3.0  </i>
  <i name="subversion" type="string">20Jan22 (build Jan 30 2022 14:28:26) gamma-only                       parallel </i>
  <i name="platform" type="string">LinuxIFC </i>
  <i name="date" type="string">2022 03 30 </i>
  <i name="time" type="string">18:05:19 </i>
 </generator>
 <incar>
  <i type="string" name="PREC">Normal</i>
  <i type="string" name="ALGO">Fast</i>
  <i type="int" name="NSIM">     8</i>
  <i type="logical" name="ADDGRID"> T  </i>
  <i type="int" name="ISPIN">     1</i>
  <i type="int" name="MAXMIX">    20</i>
  <i name="BMIX">      1.00000000</i>
  <i type="int" name="NELM">   500</i>
  <i type="int" name="NELMIN">     4</i>
  <i type="int" name="IBRION">     0</i>
  <i name="EDIFF">      0.00010000</i>
  <i type="int" name="NSW">   100</i>
  <i type="int" name="ISIF">     0</i>
  <i type="int" name="ISYM">     0</i>
  <i type="int" name="NBLOCK">    10</i>
  <i type="int" name="KBLOCK">   100</i>
  <i name="ENCUT">    520.00000000</i>
  <i name="POTIM">      1.00000000</i>
  <i name="TEBEG">    300.00000000</i>
  <i name="TEEND">    300.00000000</i>
  <i name="SMASS">      0.00000000</i>
  <i type="logical" name="LREAL"> T  </i>
  <i type="logical" name="LPLANE"> T  </i>
  <i type="int" name="ISMEAR">     0</i>
  <i name="SIGMA">      0.05000000</i>
  <i type="logical" name="LWAVE"> T  </i>
  <i type="logical" name="LCHARG"> F  </i>
  <i type="int" name="LORBIT">    11</i>
  <i type="logical" name="LSCALU"> F  </i>
  <i type="logical" name="LASPH"> T  </i>
  <i type="logical" name="ML_LMLFF"> T  </i>
  <i type="int" name="ML_ISTART">     0</i>
  <i type="int" name="ML_MB">  3000</i>
 </incar>
 <primitive_cell>
  <structure name="primitive_cell" >
   <crystal>
    <varray name="basis" >
     <v>       9.87288000       0.00000000       0.00000000 </v>
     <v>      -4.93644000       8.55016500       0.00000000 </v>
     <v>       0.00000000       0.00000000      20.00000000 </v>
    </varray>
    <i name="volume">   1688.29506050 </i>
    <varray name="rec_basis" >
     <v>       0.10128757       0.05847840       0.00000000 </v>
     <v>       0.00000000       0.11695681       0.00000000 </v>
     <v>       0.00000000       0.00000000       0.05000000 </v>
    </varray>
   </crystal>
   <varray name="positions" >
    <v>       0.55604900       0.05471400       0.88122000 </v>
    <v>       0.44094400       0.08352100       0.92472400 </v>
    <v>       0.71068600       0.27922200       0.27940300 </v>
    <v>       0.59558200       0.30803000       0.32290700 </v>
    <v>       0.11909200       0.77056100       0.99457100 </v>
    <v>       0.00398800       0.79936900       0.03807500 </v>
    <v>       0.95652500       0.32945100       0.73693900 </v>
    <v>       0.84142100       0.35825900       0.78044300 </v>
    <v>       0.28204200       0.65373500       0.14554900 </v>
    <v>       0.16693800       0.68254300       0.18905300 </v>
    <v>       0.54811000       0.14539800       0.07365500 </v>
    <v>       0.43300600       0.17420600       0.11715900 </v>
    <v>       0.12992600       0.13203500       0.89257100 </v>
    <v>       0.01482200       0.16084300       0.93607500 </v>
    <v>       0.32831700       0.56830700       0.90693700 </v>
    <v>       0.21321200       0.59711500       0.95044100 </v>
    <v>       0.06767800       0.03488700       0.18005200 </v>
    <v>       0.95257400       0.06369500       0.22355600 </v>
    <v>       0.14745000       0.73742200       0.65591700 </v>
    <v>       0.03234600       0.76623000       0.69942100 </v>
    <v>       0.26168200       0.19648600       0.65722200 </v>
    <v>       0.14657700       0.22529300       0.70072600 </v>
    <v>       0.27654000       0.96403100       0.27458200 </v>
    <v>       0.16143500       0.99283900       0.31808600 </v>
    <v>       0.82794000       0.99964800       0.03031600 </v>
    <v>       0.71283600       0.02845500       0.07382000 </v>
    <v>       0.34338500       0.55485600       0.65992700 </v>
    <v>       0.22828000       0.58366300       0.70343100 </v>
    <v>       0.66046900       0.93363300       0.71372600 </v>
    <v>       0.54536400       0.96244000       0.75723000 </v>
    <v>       0.53843100       0.53097400       0.35411300 </v>
    <v>       0.42332700       0.55978200       0.39761700 </v>
    <v>       0.00000000       0.00000000       0.50000000 </v>
    <v>       0.00000000       0.25000000       0.50000000 </v>
    <v>       0.00000000       0.50000000       0.50000000 </v>
    <v>       0.00000000       0.75000000       0.50000000 </v>
    <v>       0.25000000       0.00000000       0.50000000 </v>
    <v>       0.25000000       0.25000000       0.50000000 </v>
    <v>       0.25000000       0.50000000       0.50000000 </v>
    <v>       0.25000000       0.75000000       0.50000000 </v>
    <v>       0.50000000       0.00000000       0.50000000 </v>
    <v>       0.50000000       0.25000000       0.50000000 </v>
    <v>       0.50000000       0.50000000       0.50000000 </v>
    <v>       0.50000000       0.75000000       0.50000000 </v>
    <v>       0.75000000       0.00000000       0.50000000 </v>
    <v>       0.75000000       0.25000000       0.50000000 </v>
    <v>       0.75000000       0.50000000       0.50000000 </v>
    <v>       0.75000000       0.75000000       0.50000000 </v>
    <v>       0.08333300       0.16666700       0.50000000 </v>
    <v>       0.08333300       0.41666700       0.50000000 </v>
    <v>       0.08333300       0.66666700       0.50000000 </v>
    <v>       0.08333300       0.91666700       0.50000000 </v>
    <v>       0.33333300       0.16666700       0.50000000 </v>
    <v>       0.33333300       0.41666700       0.50000000 </v>
    <v>       0.33333300       0.66666700       0.50000000 </v>
    <v>       0.33333300       0.91666700       0.50000000 </v>
    <v>       0.58333300       0.16666700       0.50000000 </v>
    <v>       0.58333300       0.41666700       0.50000000 </v>
    <v>       0.58333300       0.66666700       0.50000000 </v>
    <v>       0.58333300       0.91666700       0.50000000 </v>
    <v>       0.83333300       0.16666700       0.50000000 </v>
    <v>       0.83333300       0.41666700       0.50000000 </v>
    <v>       0.83333300       0.66666700       0.50000000 </v>
    <v>       0.83333300       0.91666700       0.50000000 </v>
    <v>       0.45658000       0.05618900       0.87916100 </v>
    <v>       0.61121700       0.28069700       0.27734500 </v>
    <v>       0.01962300       0.77203700       0.99251200 </v>
    <v>       0.85705600       0.33092700       0.73488100 </v>
    <v>       0.18257300       0.65521000       0.14349000 </v>
    <v>       0.44864100       0.14687400       0.07159700 </v>
    <v>       0.03045700       0.13351000       0.89051200 </v>
    <v>       0.22884800       0.56978300       0.90487900 </v>
    <v>       0.96820900       0.03636300       0.17799400 </v>
    <v>       0.04798100       0.73889700       0.65385800 </v>
    <v>       0.16221200       0.19796100       0.65516400 </v>
    <v>       0.17707000       0.96550600       0.27252400 </v>
    <v>       0.72847100       0.00112300       0.02825800 </v>
    <v>       0.24391600       0.55633100       0.65786800 </v>
    <v>       0.56099900       0.93510800       0.71166700 </v>
    <v>       0.43896200       0.53244900       0.35205400 </v>
   </varray>
  </structure>
  <varray name="primitive_index" >
   <v type="int" >        1 </v>
   <v type="int" >        2 </v>
   <v type="int" >        3 </v>
   <v type="int" >        4 </v>
   <v type="int" >        5 </v>
   <v type="int" >        6 </v>
   <v type="int" >        7 </v>
   <v type="int" >        8 </v>
   <v type="int" >        9 </v>
   <v type="int" >       10 </v>
   <v type="int" >       11 </v>
   <v type="int" >       12 </v>
   <v type="int" >       13 </v>
   <v type="int" >       14 </v>
   <v type="int" >       15 </v>
   <v type="int" >       16 </v>
   <v type="int" >       17 </v>
   <v type="int" >       18 </v>
   <v type="int" >       19 </v>
   <v type="int" >       20 </v>
   <v type="int" >       21 </v>
   <v type="int" >       22 </v>
   <v type="int" >       23 </v>
   <v type="int" >       24 </v>
   <v type="int" >       25 </v>
   <v type="int" >       26 </v>
   <v type="int" >       27 </v>
   <v type="int" >       28 </v>
   <v type="int" >       29 </v>
   <v type="int" >       30 </v>
   <v type="int" >       31 </v>
   <v type="int" >       32 </v>
   <v type="int" >       33 </v>
   <v type="int" >       34 </v>
   <v type="int" >       35 </v>
   <v type="int" >       36 </v>
   <v type="int" >       37 </v>
   <v type="int" >       38 </v>
   <v type="int" >       39 </v>
   <v type="int" >       40 </v>
   <v type="int" >       41 </v>
   <v type="int" >       42 </v>
   <v type="int" >       43 </v>
   <v type="int" >       44 </v>
   <v type="int" >       45 </v>
   <v type="int" >       46 </v>
   <v type="int" >       47 </v>
   <v type="int" >       48 </v>
   <v type="int" >       49 </v>
   <v type="int" >       50 </v>
   <v type="int" >       51 </v>
   <v type="int" >       52 </v>
   <v type="int" >       53 </v>
   <v type="int" >       54 </v>
   <v type="int" >       55 </v>
   <v type="int" >       56 </v>
   <v type="int" >       57 </v>
   <v type="int" >       58 </v>
   <v type="int" >       59 </v>
   <v type="int" >       60 </v>
   <v type="int" >       61 </v>
   <v type="int" >       62 </v>
   <v type="int" >       63 </v>
   <v type="int" >       64 </v>
   <v type="int" >       65 </v>
   <v type="int" >       66 </v>
   <v type="int" >       67 </v>
   <v type="int" >       68 </v>
   <v type="int" >       69 </v>
   <v type="int" >       70 </v>
   <v type="int" >       71 </v>
   <v type="int" >       72 </v>
   <v type="int" >       73 </v>
   <v type="int" >       74 </v>
   <v type="int" >       75 </v>
   <v type="int" >       76 </v>
   <v type="int" >       77 </v>
   <v type="int" >       78 </v>
   <v type="int" >       79 </v>
   <v type="int" >       80 </v>
  </varray>
 </primitive_cell>
 <kpoints>
  <generation param="Gamma">
   <v type="int" name="divisions">       1        1        1 </v>
   <v name="usershift">      0.00000000       0.00000000       0.00000000 </v>
   <v name="genvec1">      1.00000000       0.00000000       0.00000000 </v>
   <v name="genvec2">      0.00000000       1.00000000       0.00000000 </v>
   <v name="genvec3">      0.00000000       0.00000000       1.00000000 </v>
   <v name="shift">      0.00000000       0.00000000       0.00000000 </v>
  </generation>
  <varray name="kpointlist" >
   <v>       0.00000000       0.00000000       0.00000000 </v>
  </varray>
  <varray name="weights" >
   <v>       1.00000000 </v>
  </varray>
 </kpoints>
 <parameters>
  <separator name="general" >
   <i type="string" name="SYSTEM">unknown system</i>
   <i type="logical" name="LCOMPAT"> F  </i>
  </separator>
  <separator name="electronic" >
   <i type="string" name="PREC">normal</i>
   <i name="ENMAX">    520.00000000</i>
   <i name="ENAUG">    644.87300000</i>
   <i name="EDIFF">      0.00010000</i>
   <i type="int" name="IALGO">    68</i>
   <i type="int" name="IWAVPR">    11</i>
   <i type="int" name="NBANDS">   172</i>
   <i type="int" name="NBANDSLOW">    -1</i>
   <i type="int" name="NBANDSHIGH">    -1</i>
   <i name="NELECT">    256.00000000</i>
   <i type="int" name="TURBO">     0</i>
   <i type="int" name="IRESTART">     0</i>
   <i type="int" name="NREBOOT">     0</i>
   <i type="int" name="NMIN">     0</i>
   <i name="EREF">      0.00000000</i>
   <separator name="electronic smearing" >
    <i type="int" name="ISMEAR">     0</i>
    <i name="SIGMA">      0.05000000</i>
    <i name="KSPACING">      0.50000000</i>
    <i type="logical" name="KGAMMA"> T  </i>
    <i type="logical" name="KBLOWUP"> T  </i>
   </separator>
   <separator name="electronic projectors" >
    <i type="logical" name="LREAL"> T  </i>
    <v name="ROPT">      0.00000000      0.00000000      0.00000000</v>
    <i type="int" name="LMAXPAW">  -100</i>
    <i type="int" name="LMAXMIX">     2</i>
    <i type="logical" name="NLSPLINE"> F  </i>
   </separator>
   <separator name="electronic startup" >
    <i type="int" name="ISTART">     0</i>
    <i type="int" name="ICHARG">     2</i>
    <i type="int" name="INIWAV">     1</i>
   </separator>
   <separator name="electronic spin" >
    <i type="int" name="ISPIN">     1</i>
    <i type="logical" name="LNONCOLLINEAR"> F  </i>
    <v name="MAGMOM">      1.00000000      1.00000000      1.00000000      1.00000000      1.00000000      1.00000000      1.00000000      1.00000000      1.00000000      1.00000000      1.00000000      1.00000000      1.00000000      1.00000000      1.00000000      1.00000000      1.00000000      1.00000000      1.00000000      1.00000000
      1.00000000      1.00000000      1.00000000      1.00000000      1.00000000      1.00000000      1.00000000      1.00000000      1.00000000      1.00000000      1.00000000      1.00000000      1.00000000      1.00000000      1.00000000      1.00000000      1.00000000      1.00000000      1.00000000      1.00000000
      1.00000000      1.00000000      1.00000000      1.00000000      1.00000000      1.00000000      1.00000000      1.00000000      1.00000000      1.00000000      1.00000000      1.00000000      1.00000000      1.00000000      1.00000000      1.00000000      1.00000000      1.00000000      1.00000000      1.00000000
      1.00000000      1.00000000      1.00000000      1.00000000      1.00000000      1.00000000      1.00000000      1.00000000      1.00000000      1.00000000      1.00000000      1.00000000      1.00000000      1.00000000      1.00000000      1.00000000      1.00000000      1.00000000      1.00000000      1.00000000
</v>
    <i name="NUPDOWN">     -1.00000000</i>
    <i type="logical" name="LSORBIT"> F  </i>
    <v name="SAXIS">      0.00000000      0.00000000      1.00000000</v>
    <i type="logical" name="LSPIRAL"> F  </i>
    <v name="QSPIRAL">      0.00000000      0.00000000      0.00000000</v>
    <i type="logical" name="LZEROZ"> F  </i>
   </separator>
   <separator name="electronic exchange-correlation" >
    <i type="logical" name="LASPH"> T  </i>
    <i type="logical" name="LMETAGGA"> F  </i>
   </separator>
   <separator name="electronic convergence" >
    <i type="int" name="NELM">   500</i>
    <i type="int" name="NELMDL">    -5</i>
    <i type="int" name="NELMIN">     4</i>
    <i name="ENINI">    520.00000000</i>
    <separator name="electronic convergence detail" >
     <i type="logical" name="LDIAG"> T  </i>
     <i type="logical" name="LSUBROT"> F  </i>
     <i name="WEIMIN">      0.00100000</i>
     <i name="EBREAK">      0.00000015</i>
     <i name="DEPER">      0.30000000</i>
     <i type="int" name="NRMM">     4</i>
     <i name="TIME">      0.40000000</i>
    </separator>
   </separator>
   <separator name="electronic mixer" >
    <i name="AMIX">      0.40000000</i>
    <i name="BMIX">      1.00000000</i>
    <i name="AMIN">      0.10000000</i>
    <i name="AMIX_MAG">      1.60000000</i>
    <i name="BMIX_MAG">      1.00000000</i>
    <separator name="electronic mixer details" >
     <i type="int" name="IMIX">     4</i>
     <i type="logical" name="MIXFIRST"> F  </i>
     <i type="int" name="MAXMIX">    20</i>
     <i name="WC">    100.00000000</i>
     <i type="int" name="INIMIX">     1</i>
     <i type="int" name="MIXPRE">     1</i>
     <i type="int" name="MREMOVE">     5</i>
    </separator>
   </separator>
   <separator name="electronic dipolcorrection" >
    <i type="logical" name="LDIPOL"> F  </i>
    <i type="logical" name="LMONO"> F  </i>
    <i type="int" name="IDIPOL">     0</i>
    <i name="EPSILON">      1.00000000</i>
    <v name="DIPOL">   -100.00000000   -100.00000000   -100.00000000</v>
    <i name="EFIELD">      0.00000000</i>
   </separator>
  </separator>
  <separator name="grids" >
   <i type="int" name="NGX">    56</i>
   <i type="int" name="NGY">    56</i>
   <i type="int" name="NGZ">   112</i>
   <i type="int" name="NGXF">   112</i>
   <i type="int" name="NGYF">   112</i>
   <i type="int" name="NGZF">   224</i>
   <i type="logical" name="ADDGRID"> T  </i>
  </separator>
  <separator name="ionic" >
   <i type="int" name="NSW">   100</i>
   <i type="int" name="IBRION">     0</i>
   <i type="int" name="MDALGO">     0</i>
   <i type="int" name="ISIF">     0</i>
   <i name="PSTRESS">      0.00000000</i>
   <i name="EDIFFG">      0.00100000</i>
   <i type="int" name="NFREE">     0</i>
   <i name="POTIM">      1.00000000</i>
   <i name="SMASS">      0.04915966</i>
   <i name="SCALEE">      1.00000000</i>
  </separator>
  <separator name="ionic md" >
   <i name="TEBEG">    300.00000000</i>
   <i name="TEEND">    300.00000000</i>
   <i type="int" name="NBLOCK">    10</i>
   <i type="int" name="KBLOCK">     1</i>
   <i type="int" name="NPACO">   256</i>
   <i name="APACO">     10.00000000</i>
  </separator>
  <separator name="symmetry" >
   <i type="int" name="ISYM">     0</i>
   <i name="SYMPREC">      0.00001000</i>
  </separator>
  <separator name="dos" >
   <i type="int" name="LORBIT">    11</i>
   <v name="RWIGS">     -1.00000000     -1.00000000     -1.00000000</v>
   <i type="int" name="NEDOS">   301</i>
   <i name="EMIN">     10.00000000</i>
   <i name="EMAX">    -10.00000000</i>
   <i name="EFERMI">      0.00000000</i>
  </separator>
  <separator name="writing" >
   <i type="int" name="NWRITE">     2</i>
   <i type="logical" name="LWAVE"> T  </i>
   <i type="logical" name="LDOWNSAMPLE"> F  </i>
   <i type="logical" name="LCHARG"> F  </i>
   <i type="logical" name="LPARD"> F  </i>
   <i type="logical" name="LVTOT"> F  </i>
   <i type="logical" name="LVHAR"> F  </i>
   <i type="logical" name="LELF"> F  </i>
   <i type="logical" name="LOPTICS"> F  </i>
   <v name="STM">      0.00000000      0.00000000      0.00000000      0.00000000      0.00000000      0.00000000      0.00000000</v>
  </separator>
  <separator name="performance" >
   <i type="int" name="NPAR">     4</i>
   <i type="int" name="NSIM">     8</i>
   <i type="int" name="NBLK">    -1</i>
   <i type="logical" name="LPLANE"> T  </i>
   <i type="logical" name="LSCALAPACK"> T  </i>
   <i type="logical" name="LSCAAWARE"> F  </i>
   <i type="logical" name="LSCALU"> F  </i>
   <i type="logical" name="LASYNC"> F  </i>
   <i type="logical" name="LORBITALREAL"> F  </i>
  </separator>
  <separator name="miscellaneous" >
   <i type="int" name="IDIOT">     3</i>
   <i type="int" name="PHON_NSTRUCT">    -1</i>
   <i type="logical" name="LMUSIC"> F  </i>
   <v name="POMASS">      1.00000000     12.01100000     16.00000000</v>
   <v name="DARWINR">      0.00000000      0.00000000      0.00000000</v>
   <v name="DARWINV">      1.00000000      1.00000000      1.00000000</v>
   <i type="logical" name="LCORR"> T  </i>
  </separator>
  <i type="logical" name="GGA_COMPAT"> T  </i>
  <i type="logical" name="LBERRY"> F  </i>
  <i type="int" name="ICORELEVEL">     0</i>
  <i type="logical" name="LDAU"> F  </i>
  <i type="int" name="I_CONSTRAINED_M">     0</i>
  <separator name="electronic exchange-correlation" >
   <i type="string" name="GGA">--</i>
   <i type="int" name="VOSKOWN">     0</i>
   <i type="logical" name="LHFCALC"> F  </i>
   <i type="string" name="PRECFOCK"></i>
   <i type="logical" name="LSYMGRAD"> F  </i>
   <i type="logical" name="LHFONE"> F  </i>
   <i type="logical" name="LRHFCALC"> F  </i>
   <i type="logical" name="LTHOMAS"> F  </i>
   <i type="logical" name="LMODELHF"> F  </i>
   <i type="logical" name="LFOCKACE"> F  </i>
   <i name="ENCUT4O">     -1.00000000</i>
   <i type="int" name="EXXOEP">     0</i>
   <i type="int" name="FOURORBIT">     0</i>
   <i name="AEXX">      0.00000000</i>
   <i name="HFALPHA">      0.00000000</i>
   <i name="MCALPHA">      0.00000000</i>
   <i name="ALDAX">      1.00000000</i>
   <i name="AGGAX">      1.00000000</i>
   <i name="ALDAC">      1.00000000</i>
   <i name="AGGAC">      1.00000000</i>
   <i type="int" name="NKREDX">     1</i>
   <i type="int" name="NKREDY">     1</i>
   <i type="int" name="NKREDZ">     1</i>
   <i type="logical" name="SHIFTRED"> F  </i>
   <i type="logical" name="ODDONLY"> F  </i>
   <i type="logical" name="EVENONLY"> F  </i>
   <i type="int" name="LMAXFOCK">     0</i>
   <i type="int" name="NMAXFOCKAE">     0</i>
   <i type="logical" name="LFOCKAEDFT"> F  </i>
   <i name="HFSCREEN">      0.00000000</i>
   <i name="HFSCREENC">      0.00000000</i>
   <i type="int" name="NBANDSGWLOW">     0</i>
  </separator>
  <separator name="vdW DFT" >
   <i type="logical" name="LUSE_VDW"> F  </i>
   <i name="Zab_VDW">     -0.84910000</i>
   <i name="PARAM1">      0.12340000</i>
   <i name="PARAM2">      1.00000000</i>
   <i name="PARAM3">      0.00000000</i>
  </separator>
  <separator name="model GW" >
   <i type="int" name="MODEL_GW">     0</i>
   <i name="MODEL_EPS0">     12.66221295</i>
   <i name="MODEL_ALPHA">      1.00000000</i>
  </separator>
  <separator name="linear response parameters" >
   <i type="logical" name="LEPSILON"> F  </i>
   <i type="logical" name="LRPA"> F  </i>
   <i type="logical" name="LNABLA"> F  </i>
   <i type="logical" name="LVEL"> F  </i>
   <i name="CSHIFT">      0.10000000</i>
   <i name="OMEGAMAX">     -1.00000000</i>
   <i name="DEG_THRESHOLD">      0.00200000</i>
   <i name="RTIME">     -0.10000000</i>
   <i name="WPLASMAI">      0.00000000</i>
   <v name="DFIELD">      0.00000000      0.00000000      0.00000000</v>
   <v name="WPLASMA">      0.00000000      0.00000000      0.00000000      0.00000000      0.00000000      0.00000000      0.00000000      0.00000000      0.00000000</v>
  </separator>
  <separator name="orbital magnetization" >
   <i type="logical" name="NUCIND"> F  </i>
   <v name="MAGPOS">      0.00000000      0.00000000      0.00000000</v>
   <i type="logical" name="LNICSALL"> T  </i>
   <i type="logical" name="ORBITALMAG"> F  </i>
   <i type="logical" name="LMAGBLOCH"> F  </i>
   <i type="logical" name="LCHIMAG"> F  </i>
   <i type="logical" name="LGAUGE"> T  </i>
   <i type="int" name="MAGATOM">     0</i>
   <v name="MAGDIPOL">      0.00000000      0.00000000      0.00000000</v>
   <v name="AVECCONST">      0.00000000      0.00000000      0.00000000</v>
  </separator>
  <separator name="response functions" >
   <i type="logical" name="LFINITE_TEMPERATURE"> F  </i>
   <i type="logical" name="LADDER"> F  </i>
   <i type="logical" name="LRPAFORCE"> F  </i>
   <i type="logical" name="LFXC"> F  </i>
   <i type="logical" name="LHARTREE"> T  </i>
   <i type="int" name="IBSE">     0</i>
   <v type="int" name="KPOINT">    -1     0     0     0</v>
   <i type="logical" name="LTCTC"> F  </i>
   <i type="logical" name="LTCTE"> F  </i>
   <i type="logical" name="LTETE"> F  </i>
   <i type="logical" name="LTRIPLET"> F  </i>
   <i type="logical" name="LFXCEPS"> F  </i>
   <i type="logical" name="LFXHEG"> F  </i>
   <i type="int" name="NATURALO">     2</i>
   <i type="logical" name="LHOLEGF"> F  </i>
   <i type="logical" name="L2ORDER"> F  </i>
   <i type="logical" name="LDMP1"> F  </i>
   <i type="logical" name="LMP2LT"> F  </i>
   <i type="logical" name="LSMP2LT"> F  </i>
   <i type="logical" name="LGWLF"> F  </i>
   <i name="ENCUTGW">     -2.00000000</i>
   <i name="ENCUTGWSOFT">     -2.00000000</i>
   <i name="ENCUTLF">     -1.00000000</i>
   <i type="logical" name="LESF_SPLINES"> F  </i>
   <i type="int" name="LMAXMP2">    -1</i>
   <i name="SCISSOR">      0.00000000</i>
   <i type="int" name="NOMEGA">     0</i>
   <i type="int" name="NOMEGAR">     0</i>
   <i type="int" name="NBANDSGW">    -1</i>
   <i type="int" name="NBANDSO">    -1</i>
   <i type="int" name="NBANDSV">    -1</i>
   <i type="int" name="NELMGW">     1</i>
   <i type="int" name="NELMHF">     1</i>
   <i type="int" name="DIM">     3</i>
   <i type="int" name="IESPILON">     4</i>
   <i type="int" name="ANTIRES">     0</i>
   <i name="OMEGAMAX">    -30.00000000</i>
   <i name="OMEGAMIN">    -30.00000000</i>
   <i name="OMEGATL">   -200.00000000</i>
   <i type="int" name="OMEGAGRID">     0</i>
   <i name="CSHIFT">     -0.10000000</i>
   <i type="logical" name="LSELFENERGY"> F  </i>
   <i type="logical" name="LSPECTRAL"> F  </i>
   <i type="logical" name="LSPECTRALGW"> F  </i>
   <i type="logical" name="LSINGLES"> F  </i>
   <i type="logical" name="LFERMIGW"> F  </i>
   <i type="logical" name="ODDONLYGW"> F  </i>
   <i type="logical" name="EVENONLYGW"> F  </i>
   <i type="int" name="NKREDLFX">     1</i>
   <i type="int" name="NKREDLFY">     1</i>
   <i type="int" name="NKREDLFZ">     1</i>
   <i type="int" name="MAXMEM">  2800</i>
   <i type="int" name="TELESCOPE">     0</i>
   <i type="int" name="NTAUPAR">    -1</i>
   <i type="int" name="NOMEGAPAR">    -1</i>
   <i name="DAMP_NEWTON">      0.80000001</i>
   <i name="LAMBDA">      1.00000000</i>
  </separator>
  <separator name="External order field" >
   <i name="OFIELD_KAPPA">      0.00000000</i>
   <v name="OFIELD_K">      0.00000000      0.00000000      0.00000000</v>
   <i name="OFIELD_Q6_NEAR">      0.00000000</i>
   <i name="OFIELD_Q6_FAR">      0.00000000</i>
   <i name="OFIELD_A">      0.00000000</i>
  </separator>
  <separator name="optional k-points parameters" >
   <i type="int" name="KPOINTS_OPT_MODE">     1</i>
   <i type="logical" name="LKPOINTS_OPT"> F  </i>
  </separator>
 </parameters>
 <atominfo>
  <atoms>      80 </atoms>
  <types>       3 </types>
  <array name="atoms" >
   <dimension dim="1">ion</dimension>
   <field type="string">element</field>
   <field type="int">atomtype</field>
   <set>
    <rc><c>H </c><c>   1</c></rc>
    <rc><c>H </c><c>   1</c></rc>
    <rc><c>H </c><c>   1</c></rc>
    <rc><c>H </c><c>   1</c></rc>
    <rc><c>H </c><c>   1</c></rc>
    <rc><c>H </c><c>   1</c></rc>
    <rc><c>H </c><c>   1</c></rc>
    <rc><c>H </c><c>   1</c></rc>
    <rc><c>H </c><c>   1</c></rc>
    <rc><c>H </c><c>   1</c></rc>
    <rc><c>H </c><c>   1</c></rc>
    <rc><c>H </c><c>   1</c></rc>
    <rc><c>H </c><c>   1</c></rc>
    <rc><c>H </c><c>   1</c></rc>
    <rc><c>H </c><c>   1</c></rc>
    <rc><c>H </c><c>   1</c></rc>
    <rc><c>H </c><c>   1</c></rc>
    <rc><c>H </c><c>   1</c></rc>
    <rc><c>H </c><c>   1</c></rc>
    <rc><c>H </c><c>   1</c></rc>
    <rc><c>H </c><c>   1</c></rc>
    <rc><c>H </c><c>   1</c></rc>
    <rc><c>H </c><c>   1</c></rc>
    <rc><c>H </c><c>   1</c></rc>
    <rc><c>H </c><c>   1</c></rc>
    <rc><c>H </c><c>   1</c></rc>
    <rc><c>H </c><c>   1</c></rc>
    <rc><c>H </c><c>   1</c></rc>
    <rc><c>H </c><c>   1</c></rc>
    <rc><c>H </c><c>   1</c></rc>
    <rc><c>H </c><c>   1</c></rc>
    <rc><c>H </c><c>   1</c></rc>
    <rc><c>C </c><c>   2</c></rc>
    <rc><c>C </c><c>   2</c></rc>
    <rc><c>C </c><c>   2</c></rc>
    <rc><c>C </c><c>   2</c></rc>
    <rc><c>C </c><c>   2</c></rc>
    <rc><c>C </c><c>   2</c></rc>
    <rc><c>C </c><c>   2</c></rc>
    <rc><c>C </c><c>   2</c></rc>
    <rc><c>C </c><c>   2</c></rc>
    <rc><c>C </c><c>   2</c></rc>
    <rc><c>C </c><c>   2</c></rc>
    <rc><c>C </c><c>   2</c></rc>
    <rc><c>C </c><c>   2</c></rc>
    <rc><c>C </c><c>   2</c></rc>
    <rc><c>C </c><c>   2</c></rc>
    <rc><c>C </c><c>   2</c></rc>
    <rc><c>C </c><c>   2</c></rc>
    <rc><c>C </c><c>   2</c></rc>
    <rc><c>C </c><c>   2</c></rc>
    <rc><c>C </c><c>   2</c></rc>
    <rc><c>C </c><c>   2</c></rc>
    <rc><c>C </c><c>   2</c></rc>
    <rc><c>C </c><c>   2</c></rc>
    <rc><c>C </c><c>   2</c></rc>
    <rc><c>C </c><c>   2</c></rc>
    <rc><c>C </c><c>   2</c></rc>
    <rc><c>C </c><c>   2</c></rc>
    <rc><c>C </c><c>   2</c></rc>
    <rc><c>C </c><c>   2</c></rc>
    <rc><c>C </c><c>   2</c></rc>
    <rc><c>C </c><c>   2</c></rc>
    <rc><c>C </c><c>   2</c></rc>
    <rc><c>O </c><c>   3</c></rc>
    <rc><c>O </c><c>   3</c></rc>
    <rc><c>O </c><c>   3</c></rc>
    <rc><c>O </c><c>   3</c></rc>
    <rc><c>O </c><c>   3</c></rc>
    <rc><c>O </c><c>   3</c></rc>
    <rc><c>O </c><c>   3</c></rc>
    <rc><c>O </c><c>   3</c></rc>
    <rc><c>O </c><c>   3</c></rc>
    <rc><c>O </c><c>   3</c></rc>
    <rc><c>O </c><c>   3</c></rc>
    <rc><c>O </c><c>   3</c></rc>
    <rc><c>O </c><c>   3</c></rc>
    <rc><c>O </c><c>   3</c></rc>
    <rc><c>O </c><c>   3</c></rc>
    <rc><c>O </c><c>   3</c></rc>
   </set>
  </array>
  <array name="atomtypes" >
   <dimension dim="1">type</dimension>
   <field type="int">atomspertype</field>
   <field type="string">element</field>
   <field>mass</field>
   <field>valence</field>
   <field type="string">pseudopotential</field>
   <set>
    <rc><c>  32</c><c>H </c><c>      1.00000000</c><c>      1.00000000</c><c>  PAW_PBE H 15Jun2001                   </c></rc>
    <rc><c>  32</c><c>C </c><c>     12.01100000</c><c>      4.00000000</c><c>  PAW_PBE C 08Apr2002                   </c></rc>
    <rc><c>  16</c><c>O </c><c>     16.00000000</c><c>      6.00000000</c><c>  PAW_PBE O 08Apr2002                   </c></rc>
   </set>
  </array>
 </atominfo>
 <structure name="initialpos" >
  <crystal>
   <varray name="basis" >
    <v>       9.87288000       0.00000000       0.00000000 </v>
    <v>      -4.93644000       8.55016500       0.00000000 </v>
    <v>       0.00000000       0.00000000      20.00000000 </v>
   </varray>
   <i name="volume">   1688.29506050 </i>
   <varray name="rec_basis" >
    <v>       0.10128757       0.05847840       0.00000000 </v>
    <v>       0.00000000       0.11695681       0.00000000 </v>
    <v>       0.00000000       0.00000000       0.05000000 </v>
   </varray>
  </crystal>
  <varray name="positions" >
   <v>       0.55604900       0.05471400       0.88122000 </v>
   <v>       0.44094400       0.08352100       0.92472400 </v>
   <v>       0.71068600       0.27922200       0.27940300 </v>
   <v>       0.59558200       0.30803000       0.32290700 </v>
   <v>       0.11909200       0.77056100       0.99457100 </v>
   <v>       0.00398800       0.79936900       0.03807500 </v>
   <v>       0.95652500       0.32945100       0.73693900 </v>
   <v>       0.84142100       0.35825900       0.78044300 </v>
   <v>       0.28204200       0.65373500       0.14554900 </v>
   <v>       0.16693800       0.68254300       0.18905300 </v>
   <v>       0.54811000       0.14539800       0.07365500 </v>
   <v>       0.43300600       0.17420600       0.11715900 </v>
   <v>       0.12992600       0.13203500       0.89257100 </v>
   <v>       0.01482200       0.16084300       0.93607500 </v>
   <v>       0.32831700       0.56830700       0.90693700 </v>
   <v>       0.21321200       0.59711500       0.95044100 </v>
   <v>       0.06767800       0.03488700       0.18005200 </v>
   <v>       0.95257400       0.06369500       0.22355600 </v>
   <v>       0.14745000       0.73742200       0.65591700 </v>
   <v>       0.03234600       0.76623000       0.69942100 </v>
   <v>       0.26168200       0.19648600       0.65722200 </v>
   <v>       0.14657700       0.22529300       0.70072600 </v>
   <v>       0.27654000       0.96403100       0.27458200 </v>
   <v>       0.16143500       0.99283900       0.31808600 </v>
   <v>       0.82794000       0.99964800       0.03031600 </v>
   <v>       0.71283600       0.02845500       0.07382000 </v>
   <v>       0.34338500       0.55485600       0.65992700 </v>
   <v>       0.22828000       0.58366300       0.70343100 </v>
   <v>       0.66046900       0.93363300       0.71372600 </v>
   <v>       0.54536400       0.96244000       0.75723000 </v>
   <v>       0.53843100       0.53097400       0.35411300 </v>
   <v>       0.42332700       0.55978200       0.39761700 </v>
   <v>       0.00000000       0.00000000       0.50000000 </v>
   <v>       0.00000000       0.25000000       0.50000000 </v>
   <v>       0.00000000       0.50000000       0.50000000 </v>
   <v>       0.00000000       0.75000000       0.50000000 </v>
   <v>       0.25000000       0.00000000       0.50000000 </v>
   <v>       0.25000000       0.25000000       0.50000000 </v>
   <v>       0.25000000       0.50000000       0.50000000 </v>
   <v>       0.25000000       0.75000000       0.50000000 </v>
   <v>       0.50000000       0.00000000       0.50000000 </v>
   <v>       0.50000000       0.25000000       0.50000000 </v>
   <v>       0.50000000       0.50000000       0.50000000 </v>
   <v>       0.50000000       0.75000000       0.50000000 </v>
   <v>       0.75000000       0.00000000       0.50000000 </v>
   <v>       0.75000000       0.25000000       0.50000000 </v>
   <v>       0.75000000       0.50000000       0.50000000 </v>
   <v>       0.75000000       0.75000000       0.50000000 </v>
   <v>       0.08333300       0.16666700       0.50000000 </v>
   <v>       0.08333300       0.41666700       0.50000000 </v>
   <v>       0.08333300       0.66666700       0.50000000 </v>
   <v>       0.08333300       0.91666700       0.50000000 </v>
   <v>       0.33333300       0.16666700       0.50000000 </v>
   <v>       0.33333300       0.41666700       0.50000000 </v>
   <v>       0.33333300       0.66666700       0.50000000 </v>
   <v>       0.33333300       0.91666700       0.50000000 </v>
   <v>       0.58333300       0.16666700       0.50000000 </v>
   <v>       0.58333300       0.41666700       0.50000000 </v>
   <v>       0.58333300       0.66666700       0.50000000 </v>
   <v>       0.58333300       0.91666700       0.50000000 </v>
   <v>       0.83333300       0.16666700       0.50000000 </v>
   <v>       0.83333300       0.41666700       0.50000000 </v>
   <v>       0.83333300       0.66666700       0.50000000 </v>
   <v>       0.83333300       0.91666700       0.50000000 </v>
   <v>       0.45658000       0.05618900       0.87916100 </v>
   <v>       0.61121700       0.28069700       0.27734500 </v>
   <v>       0.01962300       0.77203700       0.99251200 </v>
   <v>       0.85705600       0.33092700       0.73488100 </v>
   <v>       0.18257300       0.65521000       0.14349000 </v>
   <v>       0.44864100       0.14687400       0.07159700 </v>
   <v>       0.03045700       0.13351000       0.89051200 </v>
   <v>       0.22884800       0.56978300       0.90487900 </v>
   <v>       0.96820900       0.03636300       0.17799400 </v>
   <v>       0.04798100       0.73889700       0.65385800 </v>
   <v>       0.16221200       0.19796100       0.65516400 </v>
   <v>       0.17707000       0.96550600       0.27252400 </v>
   <v>       0.72847100       0.00112300       0.02825800 </v>
   <v>       0.24391600       0.55633100       0.65786800 </v>
   <v>       0.56099900       0.93510800       0.71166700 </v>
   <v>       0.43896200       0.53244900       0.35205400 </v>
  </varray>
  <varray name="velocities" >
   <v>       0.00321231       0.00258766      -0.00070682 </v>
   <v>      -0.00149822      -0.00271395      -0.00028415 </v>
   <v>       0.00277143       0.00163293      -0.00041795 </v>
   <v>      -0.00186594      -0.00029156       0.00138331 </v>
   <v>       0.00158228       0.00182515       0.00013998 </v>
   <v>      -0.00161910      -0.00215244       0.00035913 </v>
   <v>      -0.00417105      -0.00223220      -0.00195901 </v>
   <v>      -0.00030755       0.00013029      -0.00008700 </v>
   <v>       0.00050936      -0.00200498      -0.00000479 </v>
   <v>      -0.00004644       0.00129613      -0.00010171 </v>
   <v>       0.00272517       0.00165172      -0.00118296 </v>
   <v>      -0.00160054       0.00003756      -0.00005189 </v>
   <v>       0.00393449       0.00360632      -0.00115068 </v>
   <v>       0.00386980       0.00306100      -0.00039382 </v>
   <v>      -0.00085746       0.00010395       0.00008141 </v>
   <v>       0.00147117      -0.00018109      -0.00058353 </v>
   <v>      -0.00049708      -0.00102203      -0.00116632 </v>
   <v>      -0.00273854      -0.00312630       0.00023555 </v>
   <v>       0.00088109       0.00248244       0.00047012 </v>
   <v>       0.00368232       0.00037542      -0.00010098 </v>
   <v>      -0.00322398      -0.00122075      -0.00002361 </v>
   <v>      -0.00158641       0.00005920      -0.00022356 </v>
   <v>      -0.00195354      -0.00197880       0.00008204 </v>
   <v>      -0.00058722       0.00253082      -0.00112988 </v>
   <v>       0.00085480       0.00019691      -0.00105660 </v>
   <v>       0.00237263       0.00082121      -0.00045848 </v>
   <v>       0.00015112      -0.00091282       0.00000614 </v>
   <v>       0.00021910      -0.00027913       0.00078445 </v>
   <v>      -0.00333143      -0.00483828       0.00017274 </v>
   <v>       0.00089902       0.00207636       0.00074351 </v>
   <v>      -0.00396816      -0.00337154       0.00023150 </v>
   <v>      -0.00046513      -0.00200444      -0.00096413 </v>
   <v>      -0.00044294      -0.00008727       0.00019054 </v>
   <v>       0.00015702       0.00038132       0.00016583 </v>
   <v>      -0.00031670      -0.00045494       0.00012199 </v>
   <v>       0.00010264      -0.00016390       0.00008725 </v>
   <v>       0.00028998      -0.00080373       0.00035345 </v>
   <v>       0.00032452      -0.00011405       0.00038985 </v>
   <v>      -0.00055656      -0.00071973      -0.00001923 </v>
   <v>       0.00045424       0.00069587      -0.00000827 </v>
   <v>      -0.00011759      -0.00017090      -0.00014006 </v>
   <v>      -0.00061814      -0.00010445      -0.00068202 </v>
   <v>      -0.00042329       0.00014999      -0.00009626 </v>
   <v>      -0.00005888       0.00054614      -0.00054937 </v>
   <v>       0.00099018       0.00052303      -0.00032985 </v>
   <v>      -0.00049639       0.00053002       0.00015464 </v>
   <v>      -0.00005412       0.00007085       0.00020043 </v>
   <v>       0.00045854       0.00044044      -0.00017564 </v>
   <v>       0.00027617      -0.00006837       0.00023039 </v>
   <v>      -0.00059429      -0.00102230       0.00036880 </v>
   <v>       0.00108168       0.00020312      -0.00003186 </v>
   <v>       0.00033083      -0.00034365      -0.00003314 </v>
   <v>       0.00043264      -0.00000743       0.00028347 </v>
   <v>      -0.00079465      -0.00070657      -0.00038556 </v>
   <v>      -0.00001718      -0.00057054       0.00001274 </v>
   <v>       0.00048900       0.00005978      -0.00003111 </v>
   <v>       0.00054639       0.00009033      -0.00000832 </v>
   <v>      -0.00017346      -0.00058241       0.00032232 </v>
   <v>       0.00029063       0.00023360       0.00007550 </v>
   <v>      -0.00083037      -0.00073616       0.00032806 </v>
   <v>       0.00005414       0.00078942      -0.00021890 </v>
   <v>      -0.00079170      -0.00001093      -0.00034962 </v>
   <v>       0.00071336       0.00034060      -0.00003630 </v>
   <v>      -0.00016785       0.00024006       0.00017009 </v>
   <v>       0.00021493      -0.00065417      -0.00018709 </v>
   <v>       0.00015371       0.00072138       0.00014091 </v>
   <v>      -0.00047882      -0.00004423      -0.00024104 </v>
   <v>       0.00002647      -0.00023193       0.00038785 </v>
   <v>      -0.00007770       0.00007767      -0.00017655 </v>
   <v>      -0.00030638      -0.00045335      -0.00009488 </v>
   <v>       0.00071858       0.00042943       0.00026105 </v>
   <v>      -0.00034793      -0.00076382       0.00003027 </v>
   <v>       0.00068118       0.00059767      -0.00005378 </v>
   <v>       0.00045772       0.00037299      -0.00008992 </v>
   <v>      -0.00084140       0.00005983       0.00005285 </v>
   <v>      -0.00039468      -0.00025740       0.00003716 </v>
   <v>      -0.00014848       0.00059271       0.00000077 </v>
   <v>      -0.00011425       0.00001024      -0.00011835 </v>
   <v>       0.00056477       0.00044268       0.00019306 </v>
   <v>      -0.00043766       0.00037178       0.00004746 </v>
  </varray>
 </structure>
 <calculation>
  <scstep>
   <time name="dav">    0.48    0.50</time>
   <time name="total">    0.76    0.77</time>
   <energy>
    <i name="alphaZ">    167.65619970 </i>
    <i name="ewald">  10550.57602207 </i>
    <i name="hartreedc"> -20401.62011626 </i>
    <i name="XCdc">    937.05055303 </i>
    <i name="pawpsdc">   9085.78599236 </i>
    <i name="pawaedc">  -9133.06979798 </i>
    <i name="eentropy">     -0.04597623 </i>
    <i name="bandstr">   -709.05004642 </i>
    <i name="atom">  12026.07543848 </i>
    <i name="e_fr_energy">   2523.35826875 </i>
    <i name="e_wo_entrp">   2523.40424498 </i>
    <i name="e_0_energy">   2523.38125686 </i>
   </energy>
  </scstep>
  <scstep>
   <time name="dav">    0.60    0.60</time>
   <time name="total">    0.60    0.60</time>
   <energy>
    <i name="e_fr_energy">   -174.53842331 </i>
    <i name="e_wo_entrp">   -174.53842331 </i>
    <i name="e_0_energy">   -174.53842331 </i>
   </energy>
  </scstep>
  <scstep>
   <time name="dav">    0.43    0.43</time>
   <time name="total">    0.43    0.43</time>
   <energy>
    <i name="e_fr_energy">   -563.72832954 </i>
    <i name="e_wo_entrp">   -563.72832954 </i>
    <i name="e_0_energy">   -563.72832954 </i>
   </energy>
  </scstep>
  <scstep>
   <time name="dav">    0.43    0.44</time>
   <time name="total">    0.43    0.44</time>
   <energy>
    <i name="e_fr_energy">   -574.95526939 </i>
    <i name="e_wo_entrp">   -574.95526939 </i>
    <i name="e_0_energy">   -574.95526939 </i>
   </energy>
  </scstep>
  <scstep>
   <time name="dav">    0.51    0.52</time>
   <time name="total">    0.56    0.57</time>
   <energy>
    <i name="e_fr_energy">   -575.23873490 </i>
    <i name="e_wo_entrp">   -575.23873490 </i>
    <i name="e_0_energy">   -575.23873490 </i>
   </energy>
  </scstep>
  <scstep>
   <time name="diag">    0.06    0.06</time>
   <time name="diis">    0.23    0.25</time>
   <time name="orth">    0.01    0.01</time>
   <time name="total">    0.60    0.62</time>
   <energy>
    <i name="e_fr_energy">   -531.31038337 </i>
    <i name="e_wo_entrp">   -531.31038337 </i>
    <i name="e_0_energy">   -531.31038337 </i>
   </energy>
  </scstep>
  <scstep>
   <time name="diag">    0.07    0.07</time>
   <time name="diis">    0.23    0.23</time>
   <time name="orth">    0.01    0.01</time>
   <time name="total">    0.61    0.61</time>
   <energy>
    <i name="e_fr_energy">   -526.49326321 </i>
    <i name="e_wo_entrp">   -526.49326321 </i>
    <i name="e_0_energy">   -526.49326321 </i>
   </energy>
  </scstep>
  <scstep>
   <time name="diag">    0.06    0.06</time>
   <time name="diis">    0.23    0.23</time>
   <time name="orth">    0.01    0.01</time>
   <time name="total">    0.62    0.62</time>
   <energy>
    <i name="e_fr_energy">   -525.01151645 </i>
    <i name="e_wo_entrp">   -525.01151645 </i>
    <i name="e_0_energy">   -525.01151645 </i>
   </energy>
  </scstep>
  <scstep>
   <time name="diag">    0.07    0.07</time>
   <time name="diis">    0.23    0.23</time>
   <time name="orth">    0.01    0.01</time>
   <time name="total">    0.61    0.62</time>
   <energy>
    <i name="e_fr_energy">   -525.08406817 </i>
    <i name="e_wo_entrp">   -525.08406817 </i>
    <i name="e_0_energy">   -525.08406817 </i>
   </energy>
  </scstep>
  <scstep>
   <time name="diag">    0.06    0.06</time>
   <time name="diis">    0.26    0.26</time>
   <time name="orth">    0.01    0.01</time>
   <time name="total">    0.64    0.65</time>
   <energy>
    <i name="e_fr_energy">   -525.07938434 </i>
    <i name="e_wo_entrp">   -525.07938434 </i>
    <i name="e_0_energy">   -525.07938434 </i>
   </energy>
  </scstep>
  <scstep>
   <time name="diag">    0.06    0.06</time>
   <time name="diis">    0.25    0.25</time>
   <time name="orth">    0.01    0.01</time>
   <time name="total">    0.62    0.63</time>
   <energy>
    <i name="e_fr_energy">   -525.08094484 </i>
    <i name="e_wo_entrp">   -525.08094484 </i>
    <i name="e_0_energy">   -525.08094484 </i>
   </energy>
  </scstep>
  <scstep>
   <time name="diag">    0.06    0.06</time>
   <time name="diis">    0.23    0.23</time>
   <time name="orth">    0.01    0.01</time>
   <time name="total">    0.61    0.61</time>
   <energy>
    <i name="e_fr_energy">   -525.07779753 </i>
    <i name="e_wo_entrp">   -525.07779753 </i>
    <i name="e_0_energy">   -525.07779753 </i>
   </energy>
  </scstep>
  <scstep>
   <time name="diag">    0.07    0.07</time>
   <time name="diis">    0.21    0.21</time>
   <time name="orth">    0.01    0.01</time>
   <time name="total">    0.60    0.60</time>
   <energy>
    <i name="e_fr_energy">   -525.07288077 </i>
    <i name="e_wo_entrp">   -525.07288077 </i>
    <i name="e_0_energy">   -525.07288077 </i>
   </energy>
  </scstep>
  <scstep>
   <time name="diag">    0.07    0.07</time>
   <time name="diis">    0.22    0.22</time>
   <time name="orth">    0.01    0.01</time>
   <time name="total">    0.60    0.60</time>
   <energy>
    <i name="e_fr_energy">   -525.07146589 </i>
    <i name="e_wo_entrp">   -525.07146589 </i>
    <i name="e_0_energy">   -525.07146589 </i>
   </energy>
  </scstep>
  <scstep>
   <time name="diag">    0.06    0.06</time>
   <time name="diis">    0.21    0.21</time>
   <time name="orth">    0.01    0.01</time>
   <time name="total">    0.57    0.58</time>
   <energy>
    <i name="e_fr_energy">   -525.07145671 </i>
    <i name="e_wo_entrp">   -525.07145671 </i>
    <i name="e_0_energy">   -525.07145671 </i>
   </energy>
  </scstep>
  <scstep>
   <time name="diag">    0.06    0.06</time>
   <time name="diis">    0.19    0.19</time>
   <time name="orth">    0.01    0.01</time>
   <time name="total">    0.55    0.56</time>
   <energy>
    <i name="e_fr_energy">   -525.07180529 </i>
    <i name="e_wo_entrp">   -525.07180529 </i>
    <i name="e_0_energy">   -525.07180529 </i>
   </energy>
  </scstep>
  <scstep>
   <time name="diag">    0.06    0.06</time>
   <time name="diis">    0.18    0.18</time>
   <time name="orth">    0.01    0.01</time>
   <time name="total">    0.55    0.55</time>
   <energy>
    <i name="e_fr_energy">   -525.07192714 </i>
    <i name="e_wo_entrp">   -525.07192714 </i>
    <i name="e_0_energy">   -525.07192714 </i>
   </energy>
  </scstep>
  <scstep>
   <time name="diag">    0.06    0.06</time>
   <time name="diis">    0.18    0.18</time>
   <time name="orth">    0.01    0.01</time>
   <time name="total">    0.50    0.50</time>
   <energy>
    <i name="alphaZ">    167.65619970 </i>
    <i name="ewald">  10550.57602207 </i>
    <i name="hartreedc"> -21366.18824633 </i>
    <i name="XCdc">    983.61869801 </i>
    <i name="pawpsdc">  21595.08662442 </i>
    <i name="pawaedc"> -21650.35042023 </i>
    <i name="eentropy">     -0.00000000 </i>
    <i name="bandstr">  -2831.54627180 </i>
    <i name="atom">  12026.07543848 </i>
    <i name="e_fr_energy">   -525.07195568 </i>
    <i name="e_wo_entrp">   -525.07195568 </i>
    <i name="e_0_energy">   -525.07195568 </i>
   </energy>
  </scstep>
  <structure>
   <crystal>
    <varray name="basis" >
     <v>       9.87288000       0.00000000       0.00000000 </v>
     <v>      -4.93644000       8.55016500       0.00000000 </v>
     <v>       0.00000000       0.00000000      20.00000000 </v>
    </varray>
    <i name="volume">   1688.29506050 </i>
    <varray name="rec_basis" >
     <v>       0.10128757       0.05847840       0.00000000 </v>
     <v>       0.00000000       0.11695681       0.00000000 </v>
     <v>       0.00000000       0.00000000       0.05000000 </v>
    </varray>
   </crystal>
   <varray name="positions" >
    <v>       0.55604900       0.05471400       0.88122000 </v>
    <v>       0.44094400       0.08352100       0.92472400 </v>
    <v>       0.71068600       0.27922200       0.27940300 </v>
    <v>       0.59558200       0.30803000       0.32290700 </v>
    <v>       0.11909200       0.77056100       0.99457100 </v>
    <v>       0.00398800       0.79936900       0.03807500 </v>
    <v>       0.95652500       0.32945100       0.73693900 </v>
    <v>       0.84142100       0.35825900       0.78044300 </v>
    <v>       0.28204200       0.65373500       0.14554900 </v>
    <v>       0.16693800       0.68254300       0.18905300 </v>
    <v>       0.54811000       0.14539800       0.07365500 </v>
    <v>       0.43300600       0.17420600       0.11715900 </v>
    <v>       0.12992600       0.13203500       0.89257100 </v>
    <v>       0.01482200       0.16084300       0.93607500 </v>
    <v>       0.32831700       0.56830700       0.90693700 </v>
    <v>       0.21321200       0.59711500       0.95044100 </v>
    <v>       0.06767800       0.03488700       0.18005200 </v>
    <v>       0.95257400       0.06369500       0.22355600 </v>
    <v>       0.14745000       0.73742200       0.65591700 </v>
    <v>       0.03234600       0.76623000       0.69942100 </v>
    <v>       0.26168200       0.19648600       0.65722200 </v>
    <v>       0.14657700       0.22529300       0.70072600 </v>
    <v>       0.27654000       0.96403100       0.27458200 </v>
    <v>       0.16143500       0.99283900       0.31808600 </v>
    <v>       0.82794000       0.99964800       0.03031600 </v>
    <v>       0.71283600       0.02845500       0.07382000 </v>
    <v>       0.34338500       0.55485600       0.65992700 </v>
    <v>       0.22828000       0.58366300       0.70343100 </v>
    <v>       0.66046900       0.93363300       0.71372600 </v>
    <v>       0.54536400       0.96244000       0.75723000 </v>
    <v>       0.53843100       0.53097400       0.35411300 </v>
    <v>       0.42332700       0.55978200       0.39761700 </v>
    <v>       0.00000000       0.00000000       0.50000000 </v>
    <v>       0.00000000       0.25000000       0.50000000 </v>
    <v>       0.00000000       0.50000000       0.50000000 </v>
    <v>       0.00000000       0.75000000       0.50000000 </v>
    <v>       0.25000000       0.00000000       0.50000000 </v>
    <v>       0.25000000       0.25000000       0.50000000 </v>
    <v>       0.25000000       0.50000000       0.50000000 </v>
    <v>       0.25000000       0.75000000       0.50000000 </v>
    <v>       0.50000000       0.00000000       0.50000000 </v>
    <v>       0.50000000       0.25000000       0.50000000 </v>
    <v>       0.50000000       0.50000000       0.50000000 </v>
    <v>       0.50000000       0.75000000       0.50000000 </v>
    <v>       0.75000000       0.00000000       0.50000000 </v>
    <v>       0.75000000       0.25000000       0.50000000 </v>
    <v>       0.75000000       0.50000000       0.50000000 </v>
    <v>       0.75000000       0.75000000       0.50000000 </v>
    <v>       0.08333300       0.16666700       0.50000000 </v>
    <v>       0.08333300       0.41666700       0.50000000 </v>
    <v>       0.08333300       0.66666700       0.50000000 </v>
    <v>       0.08333300       0.91666700       0.50000000 </v>
    <v>       0.33333300       0.16666700       0.50000000 </v>
    <v>       0.33333300       0.41666700       0.50000000 </v>
    <v>       0.33333300       0.66666700       0.50000000 </v>
    <v>       0.33333300       0.91666700       0.50000000 </v>
    <v>       0.58333300       0.16666700       0.50000000 </v>
    <v>       0.58333300       0.41666700       0.50000000 </v>
    <v>       0.58333300       0.66666700       0.50000000 </v>
    <v>       0.58333300       0.91666700       0.50000000 </v>
    <v>       0.83333300       0.16666700       0.50000000 </v>
    <v>       0.83333300       0.41666700       0.50000000 </v>
    <v>       0.83333300       0.66666700       0.50000000 </v>
    <v>       0.83333300       0.91666700       0.50000000 </v>
    <v>       0.45658000       0.05618900       0.87916100 </v>
    <v>       0.61121700       0.28069700       0.27734500 </v>
    <v>       0.01962300       0.77203700       0.99251200 </v>
    <v>       0.85705600       0.33092700       0.73488100 </v>
    <v>       0.18257300       0.65521000       0.14349000 </v>
    <v>       0.44864100       0.14687400       0.07159700 </v>
    <v>       0.03045700       0.13351000       0.89051200 </v>
    <v>       0.22884800       0.56978300       0.90487900 </v>
    <v>       0.96820900       0.03636300       0.17799400 </v>
    <v>       0.04798100       0.73889700       0.65385800 </v>
    <v>       0.16221200       0.19796100       0.65516400 </v>
    <v>       0.17707000       0.96550600       0.27252400 </v>
    <v>       0.72847100       0.00112300       0.02825800 </v>
    <v>       0.24391600       0.55633100       0.65786800 </v>
    <v>       0.56099900       0.93510800       0.71166700 </v>
    <v>       0.43896200       0.53244900       0.35205400 </v>
   </varray>
  </structure>
  <varray name="forces" >
   <v>       0.17677989       0.48309874       1.85806696 </v>
   <v>      -0.40947029      -1.09848061      -0.04620162 </v>
   <v>      -1.31264736      -0.88662637      -0.17325354 </v>
   <v>       0.76719545      -0.38870718      -0.75350389 </v>
   <v>       0.28708241       0.28544335      -0.23324233 </v>
   <v>       1.06852774      -0.57140020      -2.23717295 </v>
   <v>      -0.42325686      -0.13863964       0.41357494 </v>
   <v>       1.24825391       0.11459121      -2.03178886 </v>
   <v>      -1.09317925      -0.75678999       0.03481911 </v>
   <v>       0.86435713      -0.25903845      -0.98708124 </v>
   <v>       0.26717712       0.08159235      -0.76148327 </v>
   <v>       0.47554391      -0.24704725      -0.68871949 </v>
   <v>      -0.67714359       0.49406336       0.32725866 </v>
   <v>       0.26059032       0.06917022       0.70640354 </v>
   <v>      -0.54541147       0.00902884      -0.34651778 </v>
   <v>       0.31948228       0.04217892      -1.79828875 </v>
   <v>      -2.39087040       0.26701196      -0.50391577 </v>
   <v>       0.44798883       0.19683668       0.57746259 </v>
   <v>       0.00956644       1.56114824      -0.00916669 </v>
   <v>      -0.83479481      -0.87698102      -2.75489312 </v>
   <v>      -1.00303567      -0.06408756       0.81589787 </v>
   <v>       0.72275337      -0.05826248      -1.22971953 </v>
   <v>       0.43604304       0.39600091       0.38377698 </v>
   <v>       0.40125919       0.10896082      -0.20027179 </v>
   <v>      -0.28398669      -0.33643256       0.56512746 </v>
   <v>       0.45336965      -0.35111681      -1.90838529 </v>
   <v>      -1.30270449       0.24552716       0.23823721 </v>
   <v>       0.45975332      -0.07768088       0.65111912 </v>
   <v>      -2.36966829       0.59674365       0.21915225 </v>
   <v>       0.24206966       0.09301286       0.44521692 </v>
   <v>      -0.29195089      -0.18839132      -0.14238199 </v>
   <v>      -0.11637845      -0.13432617      -1.07613264 </v>
   <v>       0.01805902       0.03576611      -0.01648289 </v>
   <v>       0.03293293       0.02917945      -0.00992202 </v>
   <v>       0.04053840       0.00642749       0.00427843 </v>
   <v>       0.01473879      -0.00209290      -0.05038662 </v>
   <v>      -0.01760720      -0.03827808      -0.00395582 </v>
   <v>      -0.05399286      -0.02413874      -0.03874146 </v>
   <v>      -0.05345468      -0.02976193       0.00582561 </v>
   <v>      -0.04812347      -0.00853250      -0.01739209 </v>
   <v>       0.01189080      -0.01852209       0.00184886 </v>
   <v>       0.01589815      -0.01328683      -0.01183681 </v>
   <v>       0.02790356      -0.04344604       0.19720955 </v>
   <v>      -0.05138795       0.05049037       0.03075804 </v>
   <v>      -0.01478344      -0.00106790       0.00469512 </v>
   <v>       0.01213433       0.01231050      -0.00064158 </v>
   <v>       0.03474378       0.01981671      -0.00265858 </v>
   <v>       0.05891124       0.02229202       0.00266930 </v>
   <v>      -0.00163190       0.00735831      -0.04348183 </v>
   <v>      -0.03624037      -0.02351233      -0.01525049 </v>
   <v>      -0.02255136       0.00410497      -0.03354824 </v>
   <v>      -0.02750054      -0.04714123      -0.02994093 </v>
   <v>      -0.05941814       0.01513409      -0.00935498 </v>
   <v>      -0.06599395      -0.08998235       0.13008107 </v>
   <v>      -0.02595619       0.00569015      -0.01725189 </v>
   <v>       0.01222062      -0.02173998       0.00332451 </v>
   <v>       0.02923283      -0.01628322      -0.00295177 </v>
   <v>       0.04455044       0.00255412      -0.00285595 </v>
   <v>       0.04582888       0.06609177       0.10449691 </v>
   <v>       0.00070395       0.03918042      -0.00342043 </v>
   <v>       0.01712351       0.00879261       0.00371854 </v>
   <v>       0.02625532       0.00595506       0.00374414 </v>
   <v>       0.04136230       0.03886915      -0.01474812 </v>
   <v>       0.00710737       0.00523492       0.00552469 </v>
   <v>       0.07835445       0.54004311       2.11110009 </v>
   <v>       1.48697663      -0.96468000       0.85034072 </v>
   <v>       0.51401819      -2.32570842       2.37008701 </v>
   <v>       0.14236222       0.87972966       5.95013532 </v>
   <v>       1.70977201      -0.76864628       0.29569415 </v>
   <v>      -0.40344170      -5.23025097       0.63232978 </v>
   <v>       2.01366408       0.00578244      -4.28540512 </v>
   <v>       0.08208672      -0.34290847       3.39009172 </v>
   <v>      -3.27315478      -0.11527204      -0.61937314 </v>
   <v>       0.15197376       1.03703050       3.73556037 </v>
   <v>      -1.17806455      -2.13527142       4.42215332 </v>
   <v>       3.88153114      -1.31085910      -0.75008520 </v>
   <v>       3.36945234      -0.29760689       1.84214718 </v>
   <v>       1.31932499       0.24303965      -3.84033182 </v>
   <v>       1.44408558      -2.05586647      -3.52635176 </v>
   <v>      -0.16534328      -0.11306726       2.23191636 </v>
  </varray>
  <energy>
   <i name="e_fr_energy">   -525.07195568 </i>
   <i name="e_wo_entrp">   -525.07195568 </i>
   <i name="e_0_energy">   -525.07195568 </i>
   <i name="kinetic">      3.17809233 </i>
   <i name="lattice kinetic">      0.00000000 </i>
   <i name="nosepot">      0.00000000 </i>
   <i name="nosekinetic">      0.00001323 </i>
   <i name="total">   -521.89385012 </i>
  </energy>
  <time name="totalsc">   13.38   13.67</time>
 </calculation>
 <calculation>
  <scstep>
   <time name="dav">    0.40    0.40</time>
   <time name="total">    0.69    0.69</time>
   <energy>
    <i name="alphaZ">    167.65619970 </i>
    <i name="ewald">  10571.02066104 </i>
    <i name="hartreedc"> -21373.83801786 </i>
    <i name="XCdc">    984.21992139 </i>
    <i name="pawpsdc">  21593.47755190 </i>
    <i name="pawaedc"> -21648.73905404 </i>
    <i name="eentropy">     -0.00000000 </i>
    <i name="bandstr">  -2845.19729752 </i>
    <i name="atom">  12026.07543848 </i>
    <i name="e_fr_energy">   -525.32459690 </i>
    <i name="e_wo_entrp">   -525.32459690 </i>
    <i name="e_0_energy">   -525.32459690 </i>
   </energy>
  </scstep>
  <scstep>
   <time name="diag">    0.06    0.06</time>
   <time name="diis">    0.21    0.21</time>
   <time name="orth">    0.01    0.01</time>
   <time name="total">    0.56    0.57</time>
   <energy>
    <i name="e_fr_energy">   -525.34167830 </i>
    <i name="e_wo_entrp">   -525.34167830 </i>
    <i name="e_0_energy">   -525.34167830 </i>
   </energy>
  </scstep>
  <scstep>
   <time name="diag">    0.06    0.06</time>
   <time name="diis">    0.21    0.22</time>
   <time name="orth">    0.01    0.01</time>
   <time name="total">    0.58    0.58</time>
   <energy>
    <i name="e_fr_energy">   -525.34869734 </i>
    <i name="e_wo_entrp">   -525.34869734 </i>
    <i name="e_0_energy">   -525.34869734 </i>
   </energy>
  </scstep>
  <scstep>
   <time name="diag">    0.06    0.06</time>
   <time name="diis">    0.22    0.22</time>
   <time name="orth">    0.01    0.01</time>
   <time name="total">    0.58    0.58</time>
   <energy>
    <i name="e_fr_energy">   -525.34163491 </i>
    <i name="e_wo_entrp">   -525.34163491 </i>
    <i name="e_0_energy">   -525.34163491 </i>
   </energy>
  </scstep>
  <scstep>
   <time name="diag">    0.06    0.06</time>
   <time name="diis">    0.21    0.21</time>
   <time name="orth">    0.01    0.01</time>
   <time name="total">    0.58    0.58</time>
   <energy>
    <i name="e_fr_energy">   -525.34343043 </i>
    <i name="e_wo_entrp">   -525.34343043 </i>
    <i name="e_0_energy">   -525.34343043 </i>
   </energy>
  </scstep>
  <scstep>
   <time name="diag">    0.06    0.06</time>
   <time name="diis">    0.21    0.21</time>
   <time name="orth">    0.01    0.01</time>
   <time name="total">    0.57    0.58</time>
   <energy>
    <i name="e_fr_energy">   -525.34316913 </i>
    <i name="e_wo_entrp">   -525.34316913 </i>
    <i name="e_0_energy">   -525.34316913 </i>
   </energy>
  </scstep>
  <scstep>
   <time name="diag">    0.06    0.06</time>
   <time name="diis">    0.18    0.18</time>
   <time name="orth">    0.01    0.01</time>
   <time name="total">    0.55    0.55</time>
   <energy>
    <i name="e_fr_energy">   -525.34308373 </i>
    <i name="e_wo_entrp">   -525.34308373 </i>
    <i name="e_0_energy">   -525.34308373 </i>
   </energy>
  </scstep>
  <scstep>
   <time name="diag">    0.06    0.06</time>
   <time name="diis">    0.15    0.15</time>
   <time name="orth">    0.01    0.01</time>
   <time name="total">    0.45    0.45</time>
   <energy>
    <i name="alphaZ">    167.65619970 </i>
    <i name="ewald">  10571.02066104 </i>
    <i name="hartreedc"> -21381.93423022 </i>
    <i name="XCdc">    984.63637085 </i>
    <i name="pawpsdc">  21600.58158848 </i>
    <i name="pawaedc"> -21656.01285498 </i>
    <i name="eentropy">     -0.00000000 </i>
    <i name="bandstr">  -2837.36624948 </i>
    <i name="atom">  12026.07543848 </i>
    <i name="e_fr_energy">   -525.34307612 </i>
    <i name="e_wo_entrp">   -525.34307612 </i>
    <i name="e_0_energy">   -525.34307612 </i>
   </energy>
  </scstep>
  <structure>
   <crystal>
    <varray name="basis" >
     <v>       9.87288000       0.00000000       0.00000000 </v>
     <v>      -4.93644000       8.55016500       0.00000000 </v>
     <v>       0.00000000       0.00000000      20.00000000 </v>
    </varray>
    <i name="volume">   1688.29506050 </i>
    <varray name="rec_basis" >
     <v>       0.10128757       0.05847840       0.00000000 </v>
     <v>       0.00000000       0.11695681       0.00000000 </v>
     <v>       0.00000000       0.00000000       0.05000000 </v>
    </varray>
   </crystal>
   <varray name="positions" >
    <v>       0.55970767       0.05787023       0.88140651 </v>
    <v>       0.43842809       0.07959230       0.92441452 </v>
    <v>       0.71167572       0.27987822       0.27889846 </v>
    <v>       0.59424867       0.30732399       0.32392341 </v>
    <v>       0.12111729       0.77273188       0.99459533 </v>
    <v>       0.00309284       0.79659641       0.03735179 </v>
    <v>       0.95186491       0.32708696       0.73517683 </v>
    <v>       0.84239973       0.35854263       0.77937283 </v>
    <v>       0.28105788       0.65090065       0.14555790 </v>
    <v>       0.16759185       0.68357063       0.18847206 </v>
    <v>       0.55114346       0.14716548       0.07210188 </v>
    <v>       0.43173294       0.17398887       0.11677179 </v>
    <v>       0.13347845       0.13622203       0.89157533 </v>
    <v>       0.01898638       0.16400542       0.93601890 </v>
    <v>       0.32693368       0.56844519       0.90684813 </v>
    <v>       0.21502062       0.59700562       0.94898705 </v>
    <v>       0.06499721       0.03419056       0.17863976 </v>
    <v>       0.95038670       0.06081560       0.22406693 </v>
    <v>       0.14922279       0.74168944       0.65637948 </v>
    <v>       0.03471879       0.76563989       0.69798805 </v>
    <v>       0.25744428       0.19521730       0.65758885 </v>
    <v>       0.14566614       0.22531052       0.69990620 </v>
    <v>       0.27523822       0.96252355       0.27484604 </v>
    <v>       0.16130329       0.99551626       0.31685666 </v>
    <v>       0.82832911       0.99948933       0.02952913 </v>
    <v>       0.71545482       0.02890392       0.07243796 </v>
    <v>       0.34240346       0.55424450       0.66004494 </v>
    <v>       0.22890628       0.58332036       0.70452624 </v>
    <v>       0.65516126       0.92949324       0.71400130 </v>
    <v>       0.54655363       0.96464491       0.75818499 </v>
    <v>       0.53407399       0.52741475       0.35427265 </v>
    <v>       0.42267428       0.55765053       0.39613089 </v>
    <v>       0.99956212       0.99994018       0.50018672 </v>
    <v>       0.00016284       0.25040805       0.50016228 </v>
    <v>       0.99968877       0.49956985       0.50011903 </v>
    <v>       0.00010552       0.74986002       0.50008210 </v>
    <v>       0.25028849       0.99921694       0.50035010 </v>
    <v>       0.25032073       0.24990779       0.50038509 </v>
    <v>       0.24943963       0.49930171       0.49997790 </v>
    <v>       0.25045163       0.75071898       0.49998792 </v>
    <v>       0.49988434       0.99985147       0.49985693 </v>
    <v>       0.49938448       0.24991840       0.49931455 </v>
    <v>       0.49957884       0.50016995       0.49990857 </v>
    <v>       0.49994114       0.75057483       0.49944888 </v>
    <v>       0.75099050       0.00054689       0.49966730 </v>
    <v>       0.74950709       0.25055513       0.50015147 </v>
    <v>       0.74995145       0.50009677       0.50019717 </v>
    <v>       0.75046608       0.75046651       0.49982140 </v>
    <v>       0.08361113       0.16662341       0.50022548 </v>
    <v>       0.08273660       0.41566680       0.50036499 </v>
    <v>       0.08441460       0.66689454       0.49996369 </v>
    <v>       0.08366111       0.91634307       0.49996255 </v>
    <v>       0.33376322       0.16668507       0.50027991 </v>
    <v>       0.33253074       0.41597622       0.49961664 </v>
    <v>       0.33331578       0.66612120       0.50000893 </v>
    <v>       0.33382366       0.91674880       0.49996591 </v>
    <v>       0.58388268       0.16677985       0.49998845 </v>
    <v>       0.58316513       0.41610904       0.50031902 </v>
    <v>       0.58363221       0.66693083       0.50007657 </v>
    <v>       0.58250653       0.91595877       0.50032473 </v>
    <v>       0.83339074       0.16748114       0.49977819 </v>
    <v>       0.83254571       0.41668070       0.49964750 </v>
    <v>       0.83405320       0.66703525       0.49996001 </v>
    <v>       0.83316782       0.91693158       0.50016716 </v>
    <v>       0.45682052       0.05559714       0.87903448 </v>
    <v>       0.61142928       0.28137426       0.27750840 </v>
    <v>       0.01909548       0.77185285       0.99233936 </v>
    <v>       0.85712398       0.33078124       0.73544504 </v>
    <v>       0.18257444       0.65525753       0.14331929 </v>
    <v>       0.44812744       0.14607599       0.07151809 </v>
    <v>       0.03130041       0.13396382       0.89064068 </v>
    <v>       0.22849488       0.56901925       0.90500836 </v>
    <v>       0.96868787       0.03697648       0.17791845 </v>
    <v>       0.04848627       0.73936712       0.65387761 </v>
    <v>       0.16122536       0.19789431       0.65534705 </v>
    <v>       0.17686805       0.96518029       0.27253542 </v>
    <v>       0.72851964       0.00171866       0.02831120 </v>
    <v>       0.24389273       0.55638245       0.65763078 </v>
    <v>       0.56158115       0.93542968       0.71175059 </v>
    <v>       0.43851216       0.53283679       0.35216562 </v>
   </varray>
  </structure>
  <varray name="forces" >
   <v>      -0.64723783       0.50009680       0.45784008 </v>
   <v>       0.65563528      -0.28624827      -1.53887686 </v>
   <v>      -1.25469271      -0.63003916      -0.39663342 </v>
   <v>       1.82066611       0.26013432      -3.72998248 </v>
   <v>      -1.84627589      -0.60680101      -0.12335539 </v>
   <v>       0.17322317       0.20606619       0.57885514 </v>
   <v>       1.08171126       0.73667854      -0.39565597 </v>
   <v>       1.35851630       0.63487164      -2.12782454 </v>
   <v>      -1.19135401      -0.03593087      -0.19156341 </v>
   <v>       0.44025914      -0.18620712       0.18442983 </v>
   <v>      -2.48818518      -0.24334750      -0.08152722 </v>
   <v>       0.65836311       0.25537451       0.45530693 </v>
   <v>      -1.28109347       0.47324295       0.55278802 </v>
   <v>       0.26164007       0.00492329       0.55294790 </v>
   <v>       0.11963586       0.09286567       0.22276149 </v>
   <v>      -0.75541302       0.81966389      -0.65950701 </v>
   <v>      -0.55403499       0.13662091       0.46061050 </v>
   <v>       0.41719605      -0.18114641      -0.52482353 </v>
   <v>      -0.46055806       1.19078735      -0.28262212 </v>
   <v>      -0.04559764      -0.83549256      -1.90397701 </v>
   <v>       0.64373144       0.34958396       0.47268955 </v>
   <v>      -0.17136850       0.15545785      -0.87351397 </v>
   <v>       0.40974005       0.59846378       0.48311962 </v>
   <v>       0.97638623      -0.94440139      -0.67169320 </v>
   <v>      -0.11782944       0.15800033      -0.08075416 </v>
   <v>       0.07353034       0.27063487       1.76049288 </v>
   <v>      -0.49816143       0.25038937       0.23893970 </v>
   <v>       0.61966213      -0.70921982      -0.25831794 </v>
   <v>       0.53190778      -0.02391981       0.04563313 </v>
   <v>       0.17146098      -0.22379743       0.56036941 </v>
   <v>      -0.01477707      -0.35779657       0.35665685 </v>
   <v>      -0.28971884       0.74671801      -0.24110243 </v>
   <v>       1.66658380       0.26880927      -0.28427909 </v>
   <v>       0.19233765      -1.46572480      -0.23030042 </v>
   <v>       0.39716992       1.22644716      -0.18754018 </v>
   <v>      -0.27626473       0.39688053      -0.22527686 </v>
   <v>      -2.04914558       1.94316431      -0.53939647 </v>
   <v>      -1.24735203       0.06445756      -0.72789465 </v>
   <v>       0.64988299       1.79242531       0.03185484 </v>
   <v>       0.01090151      -2.36721631       0.00454981 </v>
   <v>       0.34642064       0.50971882       0.29353117 </v>
   <v>       2.18361381       0.16164710       1.75024509 </v>
   <v>       1.73300129      -0.55625802       0.32853963 </v>
   <v>       1.07100484      -1.88326082       1.30663694 </v>
   <v>      -2.46217927      -1.27967936       0.59113391 </v>
   <v>       2.23108985      -1.35948771      -0.25886409 </v>
   <v>       0.21934256      -0.18662825      -0.33323472 </v>
   <v>      -0.63321635      -1.42016519       0.31917489 </v>
   <v>       0.48868564      -0.09822723       0.65879414 </v>
   <v>      -0.20055503      -0.43371255       0.50069561 </v>
   <v>       0.68220265      -0.04423577      -0.03193546 </v>
   <v>       0.80505245      -0.54437124      -0.01556378 </v>
   <v>       0.51687347      -0.21571425       0.65110892 </v>
   <v>      -0.32442647      -0.52672281      -0.38387804 </v>
   <v>       0.35297334      -0.86031876      -0.07430012 </v>
   <v>       1.00436808       0.13147442      -0.05075310 </v>
   <v>       0.66944448       0.10624978      -0.11194223 </v>
   <v>      -0.09042029      -0.46921185       0.61825663 </v>
   <v>       0.38080650       0.68064134       0.23077269 </v>
   <v>      -0.18083011      -0.15933366       0.29031254 </v>
   <v>      -0.38154430       0.83865442      -0.27961217 </v>
   <v>      -0.60482576       0.25992090      -0.39725826 </v>
   <v>       0.82897688       0.57068467      -0.05781287 </v>
   <v>      -0.47740190       0.54059019       0.40176784 </v>
   <v>       2.27066865       1.62960935       2.00682624 </v>
   <v>       1.29798613      -0.23226969       2.30512091 </v>
   <v>       1.96944530      -2.67384225       0.92723118 </v>
   <v>      -0.58610241      -0.34766754       1.62169318 </v>
   <v>       2.72871405      -1.05276756      -0.09046388 </v>
   <v>       0.37029782      -4.57644811       0.30771652 </v>
   <v>       0.48245925      -0.77910455      -4.01336654 </v>
   <v>      -0.52066475      -0.78764902       2.27194346 </v>
   <v>      -3.73397486      -1.18209937      -0.56406985 </v>
   <v>       0.15939637       0.30819434       2.27007503 </v>
   <v>       0.22208648      -5.17141179       5.63633934 </v>
   <v>       4.62511456      -0.96186930      -1.05384427 </v>
   <v>       4.11230598      -0.17607013       0.48394393 </v>
   <v>       0.79399347       0.09597199      -1.76405764 </v>
   <v>      -0.60673626      -2.23674722      -3.41923635 </v>
   <v>       0.41849018      -0.36279792       0.59460309 </v>
  </varray>
  <energy>
   <i name="e_fr_energy">   -525.34307612 </i>
   <i name="e_wo_entrp">   -525.34307612 </i>
   <i name="e_0_energy">   -525.34307612 </i>
   <i name="kinetic">      3.46097043 </i>
   <i name="lattice kinetic">      0.00000000 </i>
   <i name="nosepot">      0.00282760 </i>
   <i name="nosekinetic">      0.00039583 </i>
   <i name="total">   -521.87888225 </i>
  </energy>
  <time name="totalsc">    7.22    7.38</time>
 </calculation>
 <calculation>
  <scstep>
   <time name="dav">    0.38    0.39</time>
   <time name="total">    0.69    0.71</time>
   <energy>
    <i name="alphaZ">    167.65619970 </i>
    <i name="ewald">  10606.61216989 </i>
    <i name="hartreedc"> -21395.72349692 </i>
    <i name="XCdc">    985.63308692 </i>
    <i name="pawpsdc">  21600.78773606 </i>
    <i name="pawaedc"> -21656.21818671 </i>
    <i name="eentropy">     -0.00000000 </i>
    <i name="bandstr">  -2859.59741496 </i>
    <i name="atom">  12026.07543848 </i>
    <i name="e_fr_energy">   -524.77446752 </i>
    <i name="e_wo_entrp">   -524.77446752 </i>
    <i name="e_0_energy">   -524.77446752 </i>
   </energy>
  </scstep>
  <scstep>
   <time name="diag">    0.07    0.07</time>
   <time name="diis">    0.21    0.21</time>
   <time name="orth">    0.01    0.01</time>
   <time name="total">    0.58    0.59</time>
   <energy>
    <i name="e_fr_energy">   -524.77616810 </i>
    <i name="e_wo_entrp">   -524.77616810 </i>
    <i name="e_0_energy">   -524.77616810 </i>
   </energy>
  </scstep>
  <scstep>
   <time name="diag">    0.06    0.06</time>
   <time name="diis">    0.22    0.22</time>
   <time name="orth">    0.01    0.01</time>
   <time name="total">    0.58    0.59</time>
   <energy>
    <i name="e_fr_energy">   -524.78426461 </i>
    <i name="e_wo_entrp">   -524.78426461 </i>
    <i name="e_0_energy">   -524.78426461 </i>
   </energy>
  </scstep>
  <scstep>
   <time name="diag">    0.06    0.06</time>
   <time name="diis">    0.22    0.22</time>
   <time name="orth">    0.01    0.01</time>
   <time name="total">    0.58    0.58</time>
   <energy>
    <i name="e_fr_energy">   -524.77939351 </i>
    <i name="e_wo_entrp">   -524.77939351 </i>
    <i name="e_0_energy">   -524.77939351 </i>
   </energy>
  </scstep>
  <scstep>
   <time name="diag">    0.06    0.06</time>
   <time name="diis">    0.21    0.21</time>
   <time name="orth">    0.01    0.01</time>
   <time name="total">    0.57    0.57</time>
   <energy>
    <i name="e_fr_energy">   -524.77856868 </i>
    <i name="e_wo_entrp">   -524.77856868 </i>
    <i name="e_0_energy">   -524.77856868 </i>
   </energy>
  </scstep>
  <scstep>
   <time name="diag">    0.06    0.06</time>
   <time name="diis">    0.19    0.19</time>
   <time name="orth">    0.01    0.01</time>
   <time name="total">    0.55    0.55</time>
   <energy>
    <i name="e_fr_energy">   -524.77829629 </i>
    <i name="e_wo_entrp">   -524.77829629 </i>
    <i name="e_0_energy">   -524.77829629 </i>
   </energy>
  </scstep>
  <scstep>
   <time name="diag">    0.06    0.06</time>
   <time name="diis">    0.17    0.17</time>
   <time name="orth">    0.01    0.01</time>
   <time name="total">    0.53    0.53</time>
   <energy>
    <i name="e_fr_energy">   -524.77842188 </i>
    <i name="e_wo_entrp">   -524.77842188 </i>
    <i name="e_0_energy">   -524.77842188 </i>
   </energy>
  </scstep>
  <scstep>
   <time name="diag">    0.06    0.06</time>
   <time name="diis">    0.15    0.15</time>
   <time name="orth">    0.01    0.01</time>
   <time name="total">    0.45    0.46</time>
   <energy>
    <i name="alphaZ">    167.65619970 </i>
    <i name="ewald">  10606.61216989 </i>
    <i name="hartreedc"> -21408.01147904 </i>
    <i name="XCdc">    986.29877920 </i>
    <i name="pawpsdc">  21725.64248528 </i>
    <i name="pawaedc"> -21781.36085583 </i>
    <i name="eentropy">     -0.00000000 </i>
    <i name="bandstr">  -2847.69116283 </i>
    <i name="atom">  12026.07543848 </i>
    <i name="e_fr_energy">   -524.77842514 </i>
    <i name="e_wo_entrp">   -524.77842514 </i>
    <i name="e_0_energy">   -524.77842514 </i>
   </energy>
  </scstep>
  <structure>
   <crystal>
    <varray name="basis" >
     <v>       9.87288000       0.00000000       0.00000000 </v>
     <v>      -4.93644000       8.55016500       0.00000000 </v>
     <v>       0.00000000       0.00000000      20.00000000 </v>
    </varray>
    <i name="volume">   1688.29506050 </i>
    <varray name="rec_basis" >
     <v>       0.10128757       0.05847840       0.00000000 </v>
     <v>       0.00000000       0.11695681       0.00000000 </v>
     <v>       0.00000000       0.00000000       0.05000000 </v>
    </varray>
   </crystal>
   <varray name="positions" >
    <v>       0.56299912       0.06162053       0.88181020 </v>
    <v>       0.43638182       0.07537981       0.92336020 </v>
    <v>       0.71107106       0.27985715       0.27820003 </v>
    <v>       0.59482943       0.30694630       0.32313693 </v>
    <v>       0.12098222       0.77424977       0.99455685 </v>
    <v>       0.00247173       0.79409376       0.03690526 </v>
    <v>       0.94867009       0.32559075       0.73322282 </v>
    <v>       0.84504955       0.35957595       0.77727483 </v>
    <v>       0.27887874       0.64806341       0.14547112 </v>
    <v>       0.16855741       0.68442103       0.18797747 </v>
    <v>       0.55159330       0.14869036       0.07050811 </v>
    <v>       0.43123602       0.17409408       0.11660128 </v>
    <v>       0.13602961       0.14097154       0.89084412 </v>
    <v>       0.02339135       0.16720347       0.93622616 </v>
    <v>       0.32570885       0.56872199       0.90686346 </v>
    <v>       0.21653891       0.59785482       0.94721366 </v>
    <v>       0.06184327       0.03368314       0.17744807 </v>
    <v>       0.94849502       0.05776961       0.22432089 </v>
    <v>       0.15120252       0.74732846       0.65670181 </v>
    <v>       0.03656047       0.76414236       0.69563566 </v>
    <v>       0.25402528       0.19437851       0.65817983 </v>
    <v>       0.14466426       0.22553741       0.69866298 </v>
    <v>       0.27466325       0.96172699       0.27533936 </v>
    <v>       0.16158036       0.99715916       0.31530173 </v>
    <v>       0.82867928       0.99954311       0.02870102 </v>
    <v>       0.71828229       0.02969155       0.07190314 </v>
    <v>       0.34106535       0.55395022       0.66027463 </v>
    <v>       0.22972460       0.58221240       0.70549226 </v>
    <v>       0.65035376       0.92536580       0.71429495 </v>
    <v>       0.54777057       0.96662871       0.75940564 </v>
    <v>       0.52949383       0.52349055       0.35460074 </v>
    <v>       0.42214803       0.55639793       0.39452710 </v>
    <v>       0.99926047       0.99993974       0.50035849 </v>
    <v>       0.00025985       0.25071202       0.50031181 </v>
    <v>       0.99945536       0.49928946       0.50022707 </v>
    <v>       0.00019462       0.74979154       0.50015175 </v>
    <v>       0.25048876       0.99865138       0.50067480 </v>
    <v>       0.25053019       0.24985581       0.50073717 </v>
    <v>       0.24900450       0.49880667       0.49995379 </v>
[...]
   <v>       0.24594490       0.22690599       0.67770205 </v>
   <v>       0.06021133       0.08827479       0.69500370 </v>
   <v>       0.30345005       0.01687942       0.27050175 </v>
   <v>       0.18198621       0.02770395       0.31271078 </v>
   <v>       0.86512662       0.00941363       0.04198057 </v>
   <v>       0.75746052       0.05650908       0.07934467 </v>
   <v>       0.27610605       0.56296269       0.72519948 </v>
   <v>       0.27860575       0.67663686       0.66702676 </v>
   <v>       0.70549813       0.02857209       0.66716107 </v>
   <v>       0.58896113       0.97144995       0.72737841 </v>
   <v>       0.52605098       0.52775640       0.35562605 </v>
   <v>       0.38284446       0.52806303       0.38744771 </v>
   <v>       0.00026552       0.00085233       0.50867844 </v>
   <v>       0.99946967       0.25018605       0.50517240 </v>
   <v>       0.99898231       0.49951202       0.50120314 </v>
   <v>       0.99969492       0.75027888       0.50658715 </v>
   <v>       0.24956048       0.99939223       0.49354498 </v>
   <v>       0.24877363       0.24947814       0.48351917 </v>
   <v>       0.24952118       0.49974872       0.49988865 </v>
   <v>       0.24905505       0.74978358       0.50937430 </v>
   <v>       0.49917069       0.00098996       0.51105219 </v>
   <v>       0.50021513       0.24851968       0.47579556 </v>
   <v>       0.49992708       0.50044166       0.48988816 </v>
   <v>       0.49847931       0.74836493       0.51486307 </v>
   <v>       0.74964613       0.99978675       0.52233662 </v>
   <v>       0.74860125       0.24970611       0.50138848 </v>
   <v>       0.74975917       0.50062084       0.48983774 </v>
   <v>       0.74938528       0.74901776       0.51187883 </v>
   <v>       0.08289969       0.16679850       0.50110457 </v>
   <v>       0.08326477       0.41655225       0.49986553 </v>
   <v>       0.08199733       0.66645663       0.50501745 </v>
   <v>       0.08292330       0.91703382       0.50402382 </v>
   <v>       0.33145867       0.16456155       0.47848502 </v>
   <v>       0.33209359       0.41642663       0.49063761 </v>
   <v>       0.33305942       0.66566370       0.50672290 </v>
   <v>       0.33343975       0.91741693       0.50512496 </v>
   <v>       0.58271117       0.16585851       0.49559471 </v>
   <v>       0.58423051       0.41938195       0.47927478 </v>
   <v>       0.58190656       0.66558275       0.50671080 </v>
   <v>       0.58197569       0.91698067       0.52322959 </v>
   <v>       0.83257488       0.16705074       0.51418334 </v>
   <v>       0.83247174       0.41603213       0.49484622 </v>
   <v>       0.83181699       0.66560931       0.50472035 </v>
   <v>       0.83313431       0.91649777       0.51892003 </v>
   <v>       0.45902125       0.07291667       0.86572953 </v>
   <v>       0.58628256       0.26440462       0.28735291 </v>
   <v>       0.99490224       0.79715033       0.98718256 </v>
   <v>       0.86421042       0.32110793       0.70463204 </v>
   <v>       0.18199905       0.65582434       0.14679117 </v>
   <v>       0.46477236       0.16709210       0.07016687 </v>
   <v>       0.07210081       0.11151341       0.89327583 </v>
   <v>       0.22274067       0.54103347       0.90652762 </v>
   <v>       0.94799542       0.01027716       0.17530114 </v>
   <v>       0.04161290       0.75448894       0.66558096 </v>
   <v>       0.13800019       0.16007200       0.66420382 </v>
   <v>       0.19261352       0.99021365       0.27002298 </v>
   <v>       0.76307200       0.99923727       0.04101631 </v>
   <v>       0.22932072       0.55881293       0.68027680 </v>
   <v>       0.60002988       0.96539429       0.67474562 </v>
   <v>       0.42302131       0.51534910       0.34847224 </v>
  </varray>
 </structure>
 <varray name="forces" >
  <v>       0.16903146       0.18947903       0.02395824 </v>
  <v>      -0.61193976       0.11544402       0.31070691 </v>
  <v>      -0.05136959      -0.50870566       0.07547475 </v>
  <v>      -0.07869766       0.17357257       0.33672571 </v>
  <v>      -1.27374757      -0.09026559      -1.03127952 </v>
  <v>       0.09265199      -0.61680278       0.13805473 </v>
  <v>      -0.03616228       0.21371598       1.46007671 </v>
  <v>      -0.09553470      -0.36531953      -0.60246771 </v>
  <v>      -0.20820116       0.52756315      -0.09781038 </v>
  <v>      -0.08434375       0.06467407       0.38190750 </v>
  <v>      -0.76034514      -0.41115690      -0.51108705 </v>
  <v>      -1.01432346       1.33386794       0.79333373 </v>
  <v>       1.40164029      -0.10537915      -0.22320740 </v>
  <v>      -0.15494719       0.53709073      -0.38177808 </v>
  <v>      -0.19452409      -0.21859048      -0.24094127 </v>
  <v>      -0.37546349       0.19175285       0.23194612 </v>
  <v>       0.24495700      -0.17180020      -0.14179295 </v>
  <v>      -0.15966538      -0.69974294      -0.59376203 </v>
  <v>      -0.39781984      -0.36589228       0.33066316 </v>
  <v>       0.88280367      -1.10084514      -0.70072954 </v>
  <v>      -0.46827896      -0.86944950       1.41038624 </v>
  <v>       1.03712508       1.41325894       1.73022467 </v>
  <v>      -0.58565962      -0.42681621      -0.79967600 </v>
  <v>      -0.77376329       0.28161669       0.79263817 </v>
  <v>       0.75884931       0.11290388      -0.60510243 </v>
  <v>      -0.65289689       0.31203020       0.66053202 </v>
  <v>      -0.20197212       0.33354343      -0.73063123 </v>
  <v>       0.52109250      -3.32610316       1.23707845 </v>
  <v>       1.15469488       0.81597155      -0.65755212 </v>
  <v>       0.25706122       0.17258543      -3.44115837 </v>
  <v>      -0.90871891      -0.22685113       0.09804995 </v>
  <v>      -0.33676514       0.08187642       1.84157166 </v>
  <v>       0.31453726       0.28407543       0.13356263 </v>
  <v>       0.18548241      -0.16400575       0.14549402 </v>
  <v>      -0.01498430       0.19744478       0.22530223 </v>
  <v>       0.01711635      -0.14116905       0.68726762 </v>
  <v>      -0.07590277       0.16973289       0.01661404 </v>
  <v>      -0.05305040      -0.06238769      -0.21753542 </v>
  <v>       0.24555987       0.07837070      -0.62622381 </v>
  <v>      -0.11519102       0.17426973       0.34622773 </v>
  <v>      -0.13940903       0.06838979      -0.15694891 </v>
  <v>      -0.12773564      -0.02713413       0.09058046 </v>
  <v>      -0.22348262       0.05666250      -0.42203189 </v>
  <v>       0.14115340      -0.01666095       0.41189280 </v>
  <v>      -0.21311186       0.15583686       0.28291934 </v>
  <v>      -0.06525183      -0.07218739      -0.32615621 </v>
  <v>      -0.06480634       0.07468338      -0.13764994 </v>
  <v>      -0.11099442      -0.21772080       0.40929511 </v>
  <v>       0.15030214      -0.24678019       0.20080572 </v>
  <v>      -0.08360195      -0.00958929       0.07085427 </v>
  <v>      -0.01881627       0.01033627       0.02928025 </v>
  <v>       0.12778289       0.06490111       0.07420115 </v>
  <v>       0.02213214      -0.02864652       0.21794421 </v>
  <v>       0.06215189       0.16949857      -0.86771506 </v>
  <v>      -0.08065904      -0.11655810       0.26547623 </v>
  <v>      -0.17800185       0.09246704       0.05017659 </v>
  <v>      -0.03962165      -0.04870069      -0.09863678 </v>
  <v>       0.17764980      -0.23444699      -0.18059954 </v>
  <v>       0.09491788      -0.06788781       0.27058621 </v>
  <v>      -0.06998879      -0.06360485       0.30228125 </v>
  <v>       0.06768026      -0.03603487      -0.21016667 </v>
  <v>      -0.16265033       0.14409142      -0.47633436 </v>
  <v>       0.15951433       0.09723636      -0.27646793 </v>
  <v>       0.04962349      -0.03290234       0.70509358 </v>
  <v>       0.58492400      -0.21777171      -0.44895306 </v>
  <v>       0.51721286       0.19344953      -1.29006997 </v>
  <v>       1.43446734       0.10546803       1.48175484 </v>
  <v>      -0.18583150      -0.25516243       1.23172619 </v>
  <v>      -0.09734659      -0.29814089      -0.40245429 </v>
  <v>       1.70609158      -1.05260816      -0.26261580 </v>
  <v>      -0.90660867      -0.01673004       0.02408585 </v>
  <v>       0.16701257       0.24186986       0.00181970 </v>
  <v>       0.75357166       0.73948387       1.02365332 </v>
  <v>       0.03931014       0.67449576      -1.50967913 </v>
  <v>      -0.45024551       0.22289448      -3.77810968 </v>
  <v>       0.78730563       0.10177598      -1.25825429 </v>
  <v>      -0.11656865      -0.41252548       0.22534461 </v>
  <v>      -1.13769872       2.37793704       0.58178825 </v>
  <v>      -1.14373291      -0.02103815       4.00551365 </v>
  <v>       0.97502537      -0.00220337      -1.65929174 </v>
 </varray>
 <energy>
  <i name="e_fr_energy">   -524.69015916 </i>
  <i name="e_wo_entrp">   -524.69015916 </i>
  <i name="e_0_energy">   -524.69015916 </i>
  <i name="kinetic">      2.48383334 </i>
  <i name="lattice kinetic">      0.00000000 </i>
  <i name="nosepot">     30.26612280 </i>
  <i name="nosekinetic">      0.42188313 </i>
  <i name="total">   -491.51831988 </i>
 </energy>
 <time name="totalsc">    0.00    0.00</time>
 <structure name="finalpos" >
  <crystal>
   <varray name="basis" >
    <v>       9.87288000       0.00000000       0.00000000 </v>
    <v>      -4.93644000       8.55016500       0.00000000 </v>
    <v>       0.00000000       0.00000000      20.00000000 </v>
   </varray>
   <i name="volume">   1688.29506050 </i>
   <varray name="rec_basis" >
    <v>       0.10128757       0.05847840       0.00000000 </v>
    <v>       0.00000000       0.11695681       0.00000000 </v>
    <v>       0.00000000       0.00000000       0.05000000 </v>
   </varray>
  </crystal>
  <varray name="positions" >
   <v>       0.56432823       0.13215929       0.84768121 </v>
   <v>       0.42592626       0.14739576       0.87457384 </v>
   <v>       0.69065812       0.29823448       0.26947697 </v>
   <v>       0.59783482       0.33268766       0.32424576 </v>
   <v>       0.06491970       0.77936773       0.01636356 </v>
   <v>       0.95995123       0.85978099       0.01228583 </v>
   <v>       0.87989256       0.28250820       0.66207372 </v>
   <v>       0.97387793       0.39268964       0.72366987 </v>
   <v>       0.15373407       0.54721223       0.15671782 </v>
   <v>       0.19867991       0.71208161       0.18809385 </v>
   <v>       0.55844149       0.16292554       0.08344133 </v>
   <v>       0.47564589       0.26133348       0.09199060 </v>
   <v>       0.15477023       0.08863777       0.90150214 </v>
   <v>       0.03270726       0.11269056       0.93938365 </v>
   <v>       0.32233649       0.58041730       0.92913000 </v>
   <v>       0.18822318       0.61388634       0.92107859 </v>
   <v>       0.98454995       0.94219880       0.19527083 </v>
   <v>       0.01349944       0.10043984       0.20535653 </v>
   <v>       0.13969760       0.78631217       0.63981872 </v>
   <v>       0.05767563       0.83964989       0.69731259 </v>
   <v>       0.24774374       0.22755903       0.67765364 </v>
   <v>       0.05903052       0.08919051       0.69497380 </v>
   <v>       0.30409028       0.01871844       0.27026053 </v>
   <v>       0.18328557       0.02915713       0.31261911 </v>
   <v>       0.86580538       0.00748695       0.04122526 </v>
   <v>       0.75737436       0.05781135       0.07946746 </v>
   <v>       0.28037783       0.56228662       0.72718985 </v>
   <v>       0.27789018       0.67445085       0.66790041 </v>
   <v>       0.70669410       0.02804790       0.66727906 </v>
   <v>       0.59046931       0.97310888       0.72579457 </v>
   <v>       0.52662995       0.52753580       0.35541184 </v>
   <v>       0.38135708       0.52887089       0.38838478 </v>
   <v>       0.00034681       0.00088301       0.50884103 </v>
   <v>       0.99945947       0.25014356       0.50543738 </v>
   <v>       0.99884183       0.49946150       0.50127685 </v>
   <v>       0.99983162       0.75029331       0.50678626 </v>
   <v>       0.24953740       0.99925091       0.49347200 </v>
   <v>       0.24876030       0.24950042       0.48317157 </v>
   <v>       0.24951075       0.49974298       0.49977664 </v>
   <v>       0.24904059       0.74988923       0.50964511 </v>
   <v>       0.49923142       0.00108434       0.51124134 </v>
   <v>       0.50029641       0.24846985       0.47545900 </v>
   <v>       0.49992584       0.50047085       0.48943990 </v>
   <v>       0.49845247       0.74819637       0.51526353 </v>
   <v>       0.74959885       0.99974111       0.52287400 </v>
   <v>       0.74843104       0.24970486       0.50132431 </v>
   <v>       0.74978041       0.50070061       0.48956017 </v>
   <v>       0.74941375       0.74904269       0.51216870 </v>
   <v>       0.08289713       0.16678418       0.50115516 </v>
   <v>       0.08321171       0.41648486       0.49995230 </v>
   <v>       0.08202645       0.66649988       0.50516234 </v>
   <v>       0.08303868       0.91703773       0.50405931 </v>
   <v>       0.33145870       0.16439540       0.47814028 </v>
   <v>       0.33213890       0.41652438       0.49028973 </v>
   <v>       0.33306122       0.66557493       0.50690742 </v>
   <v>       0.33347406       0.91745612       0.50515834 </v>
   <v>       0.58271696       0.16581012       0.49559046 </v>
   <v>       0.58427828       0.41947449       0.47894338 </v>
   <v>       0.58185868       0.66544556       0.50689166 </v>
   <v>       0.58201207       0.91702074       0.52371412 </v>
   <v>       0.83255932       0.16704329       0.51441253 </v>
   <v>       0.83247208       0.41598457       0.49474801 </v>
   <v>       0.83186775       0.66557581       0.50473322 </v>
   <v>       0.83308482       0.91648319       0.51941243 </v>
   <v>       0.45928799       0.07327918       0.86528326 </v>
   <v>       0.58610536       0.26400406       0.28707578 </v>
   <v>       0.99506266       0.79766285       0.98735253 </v>
   <v>       0.86475693       0.32094629       0.70445450 </v>
   <v>       0.18199786       0.65623590       0.14670164 </v>
   <v>       0.46504369       0.16701990       0.07003827 </v>
   <v>       0.07209752       0.11073010       0.89326529 </v>
   <v>       0.22246428       0.54133908       0.90653127 </v>
   <v>       0.94809843       0.01035012       0.17533192 </v>
   <v>       0.04199236       0.75492662       0.66529435 </v>
   <v>       0.13772357       0.16010818       0.66446069 </v>
   <v>       0.19220171       0.98999047       0.26955069 </v>
   <v>       0.76338883       0.99919235       0.04123295 </v>
   <v>       0.22809016       0.55824450       0.68063012 </v>
   <v>       0.59996947       0.96554460       0.67459699 </v>
   <v>       0.42313733       0.51519675       0.34828436 </v>
  </varray>
  <varray name="velocities" >
   <v>       0.00067139       0.00156171       0.00095371 </v>
   <v>      -0.00150167      -0.00154257       0.00133284 </v>
   <v>      -0.00238206      -0.00301518       0.00002124 </v>
   <v>       0.00012790       0.00158734      -0.00005216 </v>
   <v>      -0.00278859       0.00056135      -0.00062989 </v>
   <v>      -0.00299588      -0.00214212       0.00106324 </v>
   <v>       0.00388765       0.00315372      -0.00027688 </v>
   <v>       0.00380689       0.00068297      -0.00006230 </v>
   <v>      -0.00314831      -0.00065694       0.00036820 </v>
   <v>      -0.00079032       0.00039976      -0.00094468 </v>
   <v>      -0.00059633      -0.00118558      -0.00127586 </v>
   <v>      -0.00043478       0.00340492       0.00065467 </v>
   <v>       0.00017646      -0.00156660       0.00093421 </v>
   <v>       0.00235475       0.00587907       0.00024063 </v>
   <v>      -0.00058454       0.00013875      -0.00045991 </v>
   <v>      -0.00040814       0.00041723       0.00049366 </v>
   <v>      -0.00032663      -0.00074745       0.00025432 </v>
   <v>       0.00108923      -0.00062957      -0.00097298 </v>
   <v>      -0.00319489      -0.00419109      -0.00098761 </v>
   <v>       0.00116117       0.00162609      -0.00110268 </v>
   <v>       0.00179884       0.00065304      -0.00004841 </v>
   <v>      -0.00118081       0.00091571      -0.00002990 </v>
   <v>       0.00064023       0.00183902      -0.00024122 </v>
   <v>       0.00129936       0.00145318      -0.00009167 </v>
   <v>       0.00067876      -0.00192668      -0.00075532 </v>
   <v>      -0.00008616       0.00130227       0.00012279 </v>
   <v>       0.00427178      -0.00067607       0.00199038 </v>
   <v>      -0.00071557      -0.00218601       0.00087365 </v>
   <v>       0.00119597      -0.00052420       0.00011799 </v>
   <v>       0.00150818       0.00165893      -0.00158383 </v>
   <v>       0.00057897      -0.00022059      -0.00021421 </v>
   <v>      -0.00148738       0.00080785       0.00093707 </v>
   <v>       0.00008129       0.00003068       0.00016259 </v>
   <v>      -0.00001020      -0.00004249       0.00026498 </v>
   <v>      -0.00014048      -0.00005053       0.00007371 </v>
   <v>       0.00013671       0.00001443       0.00019911 </v>
   <v>      -0.00002309      -0.00014132      -0.00007298 </v>
   <v>      -0.00001333       0.00002228      -0.00034760 </v>
   <v>      -0.00001042      -0.00000575      -0.00011201 </v>
   <v>      -0.00001446       0.00010565       0.00027081 </v>
   <v>       0.00006073       0.00009438       0.00018915 </v>
   <v>       0.00008128      -0.00004983      -0.00033656 </v>
   <v>      -0.00000124       0.00002919      -0.00044826 </v>
   <v>      -0.00002684      -0.00016856       0.00040046 </v>
   <v>      -0.00004728      -0.00004565       0.00053737 </v>
   <v>      -0.00017020      -0.00000125      -0.00006417 </v>
   <v>       0.00002123       0.00007976      -0.00027757 </v>
   <v>       0.00002846       0.00002493       0.00028986 </v>
   <v>      -0.00000257      -0.00001432       0.00005059 </v>
   <v>      -0.00005306      -0.00006739       0.00008677 </v>
   <v>       0.00002912       0.00004325       0.00014488 </v>
   <v>       0.00011538       0.00000391       0.00003549 </v>
   <v>       0.00000003      -0.00016614      -0.00034475 </v>
   <v>       0.00004531       0.00009775      -0.00034788 </v>
   <v>       0.00000180      -0.00008877       0.00018452 </v>
   <v>       0.00003431       0.00003919       0.00003338 </v>
   <v>       0.00000579      -0.00004838      -0.00000425 </v>
   <v>       0.00004777       0.00009254      -0.00033140 </v>
   <v>      -0.00004787      -0.00013720       0.00018086 </v>
   <v>       0.00003639       0.00004007       0.00048453 </v>
   <v>      -0.00001556      -0.00000745       0.00022919 </v>
   <v>       0.00000034      -0.00004756      -0.00009821 </v>
   <v>       0.00005075      -0.00003350       0.00001287 </v>
   <v>      -0.00004949      -0.00001458       0.00049240 </v>
   <v>       0.00026674       0.00036251      -0.00044627 </v>
   <v>      -0.00017719      -0.00040056      -0.00027713 </v>
   <v>       0.00016042       0.00051252       0.00016997 </v>
   <v>       0.00054651      -0.00016164      -0.00017754 </v>
   <v>      -0.00000120       0.00041157      -0.00008953 </v>
   <v>       0.00027132      -0.00007220      -0.00012861 </v>
   <v>      -0.00000328      -0.00078331      -0.00001053 </v>
   <v>      -0.00027640       0.00030561       0.00000364 </v>
   <v>       0.00010301       0.00007296       0.00003078 </v>
   <v>       0.00037947       0.00043769      -0.00028661 </v>
   <v>      -0.00027662       0.00003618       0.00025686 </v>
   <v>      -0.00041181      -0.00022317      -0.00047229 </v>
   <v>       0.00031683      -0.00004493       0.00021664 </v>
   <v>      -0.00123055      -0.00056843       0.00035332 </v>
   <v>      -0.00006042       0.00015031      -0.00014863 </v>
   <v>       0.00011602      -0.00015235      -0.00018788 </v>
  </varray>
 </structure>
</modeling>
