<?xml version="1.0" encoding="ISO-8859-1"?>
<modeling>
 <generator>
  <i name="program" type="string">vasp </i>
  <i name="version" type="string">5.2.11  </i>
  <i name="subversion" type="string">01Dec10 complex  parallel </i>
  <i name="platform" type="string">LinuxIFC </i>
  <i name="date" type="string">2013 02 13 </i>
  <i name="time" type="string">22:14:15 </i>
 </generator>
 <incar>
  <i type="string" name="PREC">accurate</i>
  <i type="string" name="ALGO"> Fast</i>
  <i type="int" name="ISPIN">     2</i>
  <i type="int" name="IMIX">     1</i>
  <i type="int" name="ICHARG">     1</i>
  <i type="int" name="NELM">   100</i>
  <i type="int" name="NELMIN">     6</i>
  <i type="int" name="IBRION">     2</i>
  <i name="EDIFF">      0.00070000</i>
  <i type="int" name="NSW">    99</i>
  <i type="int" name="ISIF">     3</i>
  <i name="ENCUT">    520.00000000</i>
  <v name="MAGMOM">      5.00000000      5.00000000      5.00000000      5.00000000      0.60000000      0.60000000      0.60000000      0.60000000      0.60000000      0.60000000      0.60000000      0.60000000      0.60000000      0.60000000</v>
  <i type="string" name="LREAL"> Auto</i>
  <i type="int" name="ISMEAR">    -5</i>
  <i name="SIGMA">      0.05000000</i>
  <i type="int" name="LMAXMIX">     4</i>
  <i type="logical" name="LWAVE"> F  </i>
  <i type="logical" name="LORBIT"> F  </i>
  <i type="int" name="NELM">   100</i>
  <i type="logical" name="LPEAD"> F  </i>
  <i type="logical" name="LCALCPOL"> F  </i>
  <i type="logical" name="LCALCEPS"> F  </i>
  <v name="EFIELD_PEAD">      0.00000000      0.00000000      0.00000000</v>
  <i type="logical" name="LEFG"> F  </i>
  <i type="logical" name="LDAU"> T  </i>
  <v type="int" name="LDAUTYPE">     2</v>
  <v type="int" name="LDAUL">     2     0</v>
  <v name="LDAUU">      3.10000000      0.00000000</v>
  <v name="LDAUJ">      0.00000000      0.00000000</v>
  <i type="logical" name="LRHFATM"> F  </i>
  <i type="string" name="METAGGA">--</i>
  <i type="int" name="LMAXTAU">     0</i>
 </incar>
 <kpoints>
  <generation param="Monkhorst-Pack">
   <v type="int" name="divisions">       2        8        6 </v>
   <v name="usershift">      0.00000000       0.00000000       0.00000000 </v>
   <v name="genvec1">      0.50000000       0.00000000       0.00000000 </v>
   <v name="genvec2">      0.00000000       0.12500000       0.00000000 </v>
   <v name="genvec3">      0.00000000       0.00000000       0.16666667 </v>
   <v name="shift">      0.50000000       0.50000000       0.50000000 </v>
  </generation>
  <varray name="kpointlist" >
   <v>       0.25000000       0.06250000       0.08333333 </v>
   <v>       0.25000000       0.18750000       0.08333333 </v>
   <v>       0.25000000       0.31250000       0.08333333 </v>
   <v>       0.25000000       0.43750000       0.08333333 </v>
   <v>       0.25000000       0.06250000       0.25000000 </v>
   <v>       0.25000000       0.18750000       0.25000000 </v>
   <v>       0.25000000       0.31250000       0.25000000 </v>
   <v>       0.25000000       0.43750000       0.25000000 </v>
   <v>       0.25000000       0.06250000       0.41666667 </v>
   <v>       0.25000000       0.18750000       0.41666667 </v>
   <v>       0.25000000       0.31250000       0.41666667 </v>
   <v>       0.25000000       0.43750000       0.41666667 </v>
  </varray>
  <varray name="weights" >
   <v>       0.08333333 </v>
   <v>       0.08333333 </v>
   <v>       0.08333333 </v>
   <v>       0.08333333 </v>
   <v>       0.08333333 </v>
   <v>       0.08333333 </v>
   <v>       0.08333333 </v>
   <v>       0.08333333 </v>
   <v>       0.08333333 </v>
   <v>       0.08333333 </v>
   <v>       0.08333333 </v>
   <v>       0.08333333 </v>
  </varray>
  <varray name="tetrahedronlist"  type="int" >
   <v type="int" >        4        1        1        2        5 </v>
   <v type="int" >        4        1        2        2        5 </v>
   <v type="int" >        4        2        2        5        6 </v>
   <v type="int" >        4        1        2        5        5 </v>
   <v type="int" >        4        2        5        5        6 </v>
   <v type="int" >        4        2        5        6        6 </v>
   <v type="int" >        4        2        2        3        6 </v>
   <v type="int" >        4        2        3        3        6 </v>
   <v type="int" >        4        3        3        6        7 </v>
   <v type="int" >        4        2        3        6        6 </v>
   <v type="int" >        4        3        6        6        7 </v>
   <v type="int" >        4        3        6        7        7 </v>
   <v type="int" >        4        3        3        4        7 </v>
   <v type="int" >        4        3        4        4        7 </v>
   <v type="int" >        4        4        4        7        8 </v>
   <v type="int" >        4        3        4        7        7 </v>
   <v type="int" >        4        4        7        7        8 </v>
   <v type="int" >        4        4        7        8        8 </v>
   <v type="int" >        8        4        4        4        8 </v>
   <v type="int" >        8        4        4        8        8 </v>
   <v type="int" >        8        4        8        8        8 </v>
   <v type="int" >        4        3        4        4        8 </v>
   <v type="int" >        4        3        3        4        8 </v>
   <v type="int" >        4        3        3        7        8 </v>
   <v type="int" >        4        3        4        8        8 </v>
   <v type="int" >        4        3        7        8        8 </v>
   <v type="int" >        4        3        7        7        8 </v>
   <v type="int" >        4        2        3        3        7 </v>
   <v type="int" >        4        2        2        3        7 </v>
   <v type="int" >        4        2        2        6        7 </v>
   <v type="int" >        4        2        3        7        7 </v>
   <v type="int" >        4        2        6        7        7 </v>
   <v type="int" >        4        2        6        6        7 </v>
   <v type="int" >        4        1        2        2        6 </v>
   <v type="int" >        4        1        1        2        6 </v>
   <v type="int" >        4        1        1        5        6 </v>
   <v type="int" >        4        1        2        6        6 </v>
   <v type="int" >        4        1        5        6        6 </v>
   <v type="int" >        4        1        5        5        6 </v>
   <v type="int" >        8        1        1        1        5 </v>
   <v type="int" >        8        1        1        5        5 </v>
   <v type="int" >        8        1        5        5        5 </v>
   <v type="int" >        4        5        5        6        9 </v>
   <v type="int" >        4        5        6        6        9 </v>
   <v type="int" >        4        6        6        9       10 </v>
   <v type="int" >        4        5        6        9        9 </v>
   <v type="int" >        4        6        9        9       10 </v>
   <v type="int" >        4        6        9       10       10 </v>
   <v type="int" >        4        6        6        7       10 </v>
   <v type="int" >        4        6        7        7       10 </v>
   <v type="int" >        4        7        7       10       11 </v>
   <v type="int" >        4        6        7       10       10 </v>
   <v type="int" >        4        7       10       10       11 </v>
   <v type="int" >        4        7       10       11       11 </v>
   <v type="int" >        4        7        7        8       11 </v>
   <v type="int" >        4        7        8        8       11 </v>
   <v type="int" >        4        8        8       11       12 </v>
   <v type="int" >        4        7        8       11       11 </v>
   <v type="int" >        4        8       11       11       12 </v>
   <v type="int" >        4        8       11       12       12 </v>
   <v type="int" >        8        8        8        8       12 </v>
   <v type="int" >        8        8        8       12       12 </v>
   <v type="int" >        8        8       12       12       12 </v>
   <v type="int" >        4        7        8        8       12 </v>
   <v type="int" >        4        7        7        8       12 </v>
   <v type="int" >        4        7        7       11       12 </v>
   <v type="int" >        4        7        8       12       12 </v>
   <v type="int" >        4        7       11       12       12 </v>
   <v type="int" >        4        7       11       11       12 </v>
   <v type="int" >        4        6        7        7       11 </v>
   <v type="int" >        4        6        6        7       11 </v>
   <v type="int" >        4        6        6       10       11 </v>
   <v type="int" >        4        6        7       11       11 </v>
   <v type="int" >        4        6       10       11       11 </v>
   <v type="int" >        4        6       10       10       11 </v>
   <v type="int" >        4        5        6        6       10 </v>
   <v type="int" >        4        5        5        6       10 </v>
   <v type="int" >        4        5        5        9       10 </v>
   <v type="int" >        4        5        6       10       10 </v>
   <v type="int" >        4        5        9       10       10 </v>
   <v type="int" >        4        5        9        9       10 </v>
   <v type="int" >        8        5        5        5        9 </v>
   <v type="int" >        8        5        5        9        9 </v>
   <v type="int" >        8        5        9        9        9 </v>
   <v type="int" >        8        9        9        9       10 </v>
   <v type="int" >        8        9        9       10       10 </v>
   <v type="int" >        8        9       10       10       10 </v>
   <v type="int" >        8       10       10       10       11 </v>
   <v type="int" >        8       10       10       11       11 </v>
   <v type="int" >        8       10       11       11       11 </v>
   <v type="int" >        8       11       11       11       12 </v>
   <v type="int" >        8       11       11       12       12 </v>
   <v type="int" >        8       11       12       12       12 </v>
   <v type="int" >       12       12       12       12       12 </v>
   <v type="int" >       12        9        9        9        9 </v>
   <v type="int" >        8        1        1        1        2 </v>
   <v type="int" >        8        1        1        2        2 </v>
   <v type="int" >        8        1        2        2        2 </v>
   <v type="int" >        8        2        2        2        3 </v>
   <v type="int" >        8        2        2        3        3 </v>
   <v type="int" >        8        2        3        3        3 </v>
   <v type="int" >        8        3        3        3        4 </v>
   <v type="int" >        8        3        3        4        4 </v>
   <v type="int" >        8        3        4        4        4 </v>
   <v type="int" >       12        4        4        4        4 </v>
   <v type="int" >       12        1        1        1        1 </v>
  </varray>
  <i name="volumeweight">      0.00173611 </i>
 </kpoints>
 <parameters>
  <separator name="general" >
   <i type="string" name="SYSTEM">unknown system</i>
   <i type="logical" name="LCOMPAT"> F  </i>
  </separator>
  <separator name="electronic" >
   <i type="string" name="PREC">accura</i>
   <i name="ENMAX">    520.00000000</i>
   <i name="ENAUG">    605.39200000</i>
   <i name="EDIFF">      0.00070000</i>
   <i type="int" name="IALGO">    68</i>
   <i type="int" name="IWAVPR">    11</i>
   <i type="int" name="NBANDS">    75</i>
   <i name="NELECT">    104.00000000</i>
   <i type="int" name="TURBO">     0</i>
   <i type="int" name="IRESTART">     0</i>
   <i type="int" name="NREBOOT">     0</i>
   <i type="int" name="NMIN">     0</i>
   <i name="EREF">      0.00000000</i>
   <separator name="electronic smearing" >
    <i type="int" name="ISMEAR">    -5</i>
    <i name="SIGMA">      0.05000000</i>
    <i name="KSPACING">      0.50000000</i>
    <i type="logical" name="KGAMMA"> T  </i>
   </separator>
   <separator name="electronic projectors" >
    <i type="logical" name="LREAL"> T  </i>
    <v name="ROPT">     -0.00025000     -0.00025000</v>
    <i type="int" name="LMAXPAW">  -100</i>
    <i type="int" name="LMAXMIX">     4</i>
   </separator>
   <separator name="electronic startup" >
    <i type="int" name="ISTART">     0</i>
    <i type="int" name="ICHARG">     1</i>
    <i type="int" name="INIWAV">     1</i>
   </separator>
   <separator name="electronic spin" >
    <i type="int" name="ISPIN">     2</i>
    <i type="logical" name="LNONCOLLINEAR"> F  </i>
    <v name="MAGMOM">      5.00000000      5.00000000      5.00000000      5.00000000      0.60000000      0.60000000      0.60000000      0.60000000      0.60000000      0.60000000      0.60000000      0.60000000      0.60000000      0.60000000</v>
    <i name="NUPDOWN">     -1.00000000</i>
    <i type="logical" name="LSORBIT"> F  </i>
    <v name="SAXIS">      0.00000000      0.00000000      1.00000000</v>
    <i type="logical" name="LSPIRAL"> F  </i>
    <v name="QSPIRAL">      0.00000000      0.00000000      0.00000000</v>
    <i type="logical" name="LZEROZ"> F  </i>
   </separator>
   <separator name="electronic exchange-correlation" >
    <i type="logical" name="LASPH"> F  </i>
    <i type="logical" name="LMETAGGA"> F  </i>
   </separator>
   <separator name="electronic convergence" >
    <i type="int" name="NELM">   100</i>
    <i type="int" name="NELMDL">    -5</i>
    <i type="int" name="NELMIN">     6</i>
    <i name="ENINI">    520.00000000</i>
    <separator name="electronic convergence detail" >
     <i type="logical" name="LDIAG"> T  </i>
     <i type="logical" name="LSUBROT"> T  </i>
     <i name="WEIMIN">      0.00100000</i>
     <i name="EBREAK">      0.00000233</i>
     <i name="DEPER">      0.30000000</i>
     <i type="int" name="NRMM">     4</i>
     <i name="TIME">      0.40000000</i>
    </separator>
   </separator>
   <separator name="electronic mixer" >
    <i name="AMIX">      0.40000000</i>
    <i name="BMIX">      1.00000000</i>
    <i name="AMIN">      0.10000000</i>
    <i name="AMIX_MAG">      1.60000000</i>
    <i name="BMIX_MAG">      1.00000000</i>
    <separator name="electronic mixer details" >
     <i type="int" name="IMIX">     1</i>
     <i type="int" name="MAXMIX">   -45</i>
     <i name="WC">    100.00000000</i>
     <i type="int" name="INIMIX">     1</i>
     <i type="int" name="MIXPRE">     1</i>
     <i type="int" name="MREMOVE">     5</i>
    </separator>
   </separator>
   <separator name="electronic dipolcorrection" >
    <i type="logical" name="LDIPOL"> F  </i>
    <i type="logical" name="LMONO"> F  </i>
    <i type="int" name="IDIPOL">     0</i>
    <i name="EPSILON">      1.00000000</i>
    <v name="DIPOL">   -100.00000000   -100.00000000   -100.00000000</v>
    <i name="EFIELD">      0.00000000</i>
   </separator>
  </separator>
  <separator name="grids" >
   <i type="int" name="NGX">    90</i>
   <i type="int" name="NGY">    28</i>
   <i type="int" name="NGZ">    36</i>
   <i type="int" name="NGXF">   180</i>
   <i type="int" name="NGYF">    56</i>
   <i type="int" name="NGZF">    72</i>
   <i type="logical" name="ADDGRID"> F  </i>
  </separator>
  <separator name="ionic" >
   <i type="int" name="NSW">    99</i>
   <i type="int" name="IBRION">     2</i>
   <i type="int" name="ISIF">     3</i>
   <i name="PSTRESS">      0.00000000</i>
   <i name="EDIFFG">      0.00700000</i>
   <i type="int" name="NFREE">     1</i>
   <i name="POTIM">      0.50000000</i>
   <i name="SMASS">     -3.00000000</i>
  </separator>
  <separator name="ionic md" >
   <i name="TEBEG">      0.00010000</i>
   <i name="TEEND">      0.00010000</i>
   <i type="int" name="NBLOCK">     1</i>
   <i type="int" name="KBLOCK">    99</i>
   <i type="int" name="NPACO">   256</i>
   <i name="APACO">     16.00000000</i>
  </separator>
  <separator name="symmetry" >
   <i type="int" name="ISYM">     2</i>
   <i name="SYMPREC">      0.00001000</i>
  </separator>
  <separator name="dos" >
   <i type="logical" name="LORBIT"> F  </i>
   <v name="RWIGS">     -1.00000000     -1.00000000</v>
   <i type="int" name="NEDOS">   301</i>
   <i name="EMIN">     10.00000000</i>
   <i name="EMAX">    -10.00000000</i>
   <i name="EFERMI">      0.00000000</i>
  </separator>
  <separator name="writing" >
   <i type="int" name="NWRITE">     2</i>
   <i type="logical" name="LWAVE"> F  </i>
   <i type="logical" name="LCHARG"> T  </i>
   <i type="logical" name="LPARD"> F  </i>
   <i type="logical" name="LVTOT"> F  </i>
   <i type="logical" name="LVHAR"> F  </i>
   <i type="logical" name="LELF"> F  </i>
   <i type="logical" name="LOPTICS"> F  </i>
   <v name="STM">      0.00000000      0.00000000      0.00000000      0.00000000      0.00000000</v>
  </separator>
  <separator name="performance" >
   <i type="int" name="NPAR">     1</i>
   <i type="int" name="NSIM">     4</i>
   <i type="int" name="NBLK">    -1</i>
   <i type="logical" name="LPLANE"> T  </i>
   <i type="logical" name="LSCALAPACK"> F  </i>
   <i type="logical" name="LSCAAWARE"> F  </i>
   <i type="logical" name="LSCALU"> F  </i>
   <i type="logical" name="LASYNC"> F  </i>
   <i type="logical" name="LORBITALREAL"> F  </i>
  </separator>
  <separator name="miscellaneous" >
   <i type="int" name="IDIOT">     3</i>
   <i type="logical" name="LMUSIC"> F  </i>
   <v name="POMASS">     50.94100000     16.00000000</v>
   <v name="DARWINR">      0.00000000      0.00000000</v>
   <v name="DARWINV">      1.00000000      1.00000000</v>
   <i type="logical" name="LCORR"> T  </i>
  </separator>
  <i type="logical" name="GGA_COMPAT"> T  </i>
  <i type="logical" name="LBERRY"> F  </i>
  <i type="int" name="ICORELEVEL">     0</i>
  <i type="logical" name="LDAU"> T  </i>
  <v type="int" name="LDAUTYPE">     2</v>
  <v type="int" name="LDAUL">     2</v>
  <v name="LDAUU">      3.10000000</v>
  <v name="LDAUJ">      0.00000000</v>
  <i type="int" name="LDAUPRINT">     0</i>
  <i type="int" name="I_CONSTRAINED_M">     0</i>
  <separator name="electronic exchange-correlation" >
   <i type="string" name="GGA">--</i>
   <i type="int" name="VOSKOWN">     0</i>
   <i type="logical" name="LHFCALC"> F  </i>
   <i type="string" name="PRECFOCK"></i>
   <i type="logical" name="LHFONE"> F  </i>
   <i type="logical" name="LRHFCALC"> F  </i>
   <i type="logical" name="LTHOMAS"> F  </i>
   <i type="logical" name="LMODELHF"> F  </i>
   <i name="ENCUT4O">     -1.00000000</i>
   <i type="int" name="EXXOEP">     0</i>
   <i type="int" name="FOURORBIT">     0</i>
   <i name="AEXX">      0.00000000</i>
   <i name="HFALPHA">      0.00000000</i>
   <i name="ALDAX">      1.00000000</i>
   <i name="AGGAX">      1.00000000</i>
   <i name="ALDAC">      1.00000000</i>
   <i name="AGGAC">      1.00000000</i>
   <i type="int" name="NKREDX">     1</i>
   <i type="int" name="NKREDY">     1</i>
   <i type="int" name="NKREDZ">     1</i>
   <i type="logical" name="SHIFTRED"> F  </i>
   <i type="logical" name="ODDONLY"> F  </i>
   <i type="logical" name="EVENONLY"> F  </i>
   <i type="int" name="LMAXFOCK">     0</i>
   <i type="int" name="NMAXFOCKAE">     0</i>
   <i type="logical" name="LFOCKAEDFT"> F  </i>
   <i name="HFSCREEN">      0.00000000</i>
   <i name="HFSCREENC">      0.00000000</i>
  </separator>
  <separator name="model GW" >
   <i type="int" name="MODEL_GW">     0</i>
   <i name="MODEL_EPS0">      7.74356331</i>
   <i name="MODEL_ALPHA">      1.00000000</i>
  </separator>
  <separator name="linear response parameters" >
   <i type="logical" name="LEPSILON"> F  </i>
   <i type="logical" name="LRPA"> F  </i>
   <i type="logical" name="LNABLA"> F  </i>
   <i type="logical" name="LVEL"> F  </i>
   <i type="int" name="KINTER">     0</i>
   <i name="CSHIFT">      0.10000000</i>
   <i name="OMEGAMAX">     -1.00000000</i>
  </separator>
  <separator name="orbital magnetization" >
   <i type="logical" name="ORBITALMAG"> F  </i>
   <i type="logical" name="LMAGBLOCH"> F  </i>
   <i type="logical" name="LCHIMAG"> F  </i>
   <i type="logical" name="LGAUGE"> T  </i>
   <i type="int" name="MAGATOM">     0</i>
   <v name="MAGDIPOL">      0.00000000      0.00000000      0.00000000</v>
   <v name="AVECCONST">      0.00000000      0.00000000      0.00000000</v>
  </separator>
  <separator name="response functions" >
   <i type="logical" name="LRPA"> T  </i>
   <i type="logical" name="LTCTE"> F  </i>
   <i type="logical" name="LTETE"> F  </i>
   <i type="logical" name="L2ORDER"> F  </i>
   <i type="logical" name="LUSEW"> F  </i>
   <i name="ENCUTGW">     -2.00000000</i>
   <i name="ENCUTGWSOFT">     -2.00000000</i>
   <i name="ENCUTLF">     -1.00000000</i>
   <i type="int" name="LMAXMP2">    -1</i>
   <i name="SCISSOR">      0.00000000</i>
   <i type="int" name="NOMEGA">     0</i>
   <i type="int" name="NOMEGAR">     0</i>
   <i type="int" name="NBANDSGW">    -1</i>
   <i type="int" name="NBANDSO">    -1</i>
   <i type="int" name="NBANDSV">    -1</i>
   <i type="int" name="NELM">   100</i>
   <i type="int" name="DIM">     3</i>
   <i type="int" name="ANTIRES">     0</i>
   <i name="OMEGAMAX">    -30.00000000</i>
   <i name="OMEGATL">   -200.00000000</i>
   <i type="int" name="OMEGAGRID">     0</i>
   <i name="CSHIFT">     -0.10000000</i>
   <i type="logical" name="SELFENERGY"> F  </i>
   <i type="logical" name="LSPECTRAL"> F  </i>
   <i type="logical" name="ODDONLYGW"> F  </i>
   <i type="logical" name="EVENONLYGW"> F  </i>
   <i type="int" name="NKREDLFX">     1</i>
   <i type="int" name="NKREDLFY">     1</i>
   <i type="int" name="NKREDLFZ">     1</i>
   <i type="int" name="MAXMEM">  1800</i>
   <i type="int" name="TELESCOPE">     0</i>
  </separator>
 </parameters>
 <atominfo>
  <atoms>      14 </atoms>
  <types>       2 </types>
  <array name="atoms" >
   <dimension dim="1">ion</dimension>
   <field type="string">element</field>
   <field type="int">atomtype</field>
   <set>
    <rc><c>V </c><c>   1</c></rc>
    <rc><c>V </c><c>   1</c></rc>
    <rc><c>V </c><c>   1</c></rc>
    <rc><c>V </c><c>   1</c></rc>
    <rc><c>O </c><c>   2</c></rc>
    <rc><c>O </c><c>   2</c></rc>
    <rc><c>O </c><c>   2</c></rc>
    <rc><c>O </c><c>   2</c></rc>
    <rc><c>O </c><c>   2</c></rc>
    <rc><c>O </c><c>   2</c></rc>
    <rc><c>O </c><c>   2</c></rc>
    <rc><c>O </c><c>   2</c></rc>
    <rc><c>O </c><c>   2</c></rc>
    <rc><c>O </c><c>   2</c></rc>
   </set>
  </array>
  <array name="atomtypes" >
   <dimension dim="1">type</dimension>
   <field type="int">atomspertype</field>
   <field type="string">element</field>
   <field>mass</field>
   <field>valence</field>
   <field type="string">pseudopotential</field>
   <set>
    <rc><c>   4</c><c>V </c><c>     50.94100000</c><c>     11.00000000</c><c> PAW_PBE V_pv 07Sep2000                 </c></rc>
    <rc><c>  10</c><c>O </c><c>     16.00000000</c><c>      6.00000000</c><c> PAW_PBE O 08Apr2002                    </c></rc>
   </set>
  </array>
 </atominfo>
 <structure name="initialpos" >
  <crystal>
   <varray name="basis" >
    <v>      11.54400000       0.00000000       0.00000000 </v>
    <v>       0.00000000       3.57100000       0.00000000 </v>
    <v>       0.00000000       0.00000000       4.38300000 </v>
   </varray>
   <i name="volume">    180.68314399 </i>
   <varray name="rec_basis" >
    <v>       0.08662509       0.00000000       0.00000000 </v>
    <v>       0.00000000       0.28003360       0.00000000 </v>
    <v>       0.00000000       0.00000000       0.22815423 </v>
   </varray>
  </crystal>
  <varray name="positions" >
   <v>       0.10123000       0.75000000       0.89140000 </v>
   <v>       0.39877000       0.75000000       0.89140000 </v>
   <v>       0.89877000       0.25000000       0.10860000 </v>
   <v>       0.60123000       0.25000000       0.10860000 </v>
   <v>       0.93090000       0.75000000       0.00280000 </v>
   <v>       0.56910000       0.75000000       0.00280000 </v>
   <v>       0.06910000       0.25000000       0.99720000 </v>
   <v>       0.43090000       0.25000000       0.99720000 </v>
   <v>       0.60450000       0.75000000       0.53030000 </v>
   <v>       0.89550000       0.75000000       0.53030000 </v>
   <v>       0.39550000       0.25000000       0.46970000 </v>
   <v>       0.10450000       0.25000000       0.46970000 </v>
   <v>       0.25000000       0.75000000       0.99920000 </v>
   <v>       0.75000000       0.25000000       0.00080000 </v>
  </varray>
 </structure>
 <calculation>
  <scstep>
   <time name="dav">   12.94   12.97</time>
   <time name="total">   13.25   13.28</time>
   <energy>
    <i name="alphaZ">    421.50278326 </i>
    <i name="ewald">  -6054.86498592 </i>
    <i name="hartreedc">  -3224.61181511 </i>
    <i name="XCdc">    393.99728782 </i>
    <i name="pawpsdc">   6299.50654673 </i>
    <i name="pawaedc">  -6213.65381539 </i>
    <i name="eentropy">      0.00000000 </i>
    <i name="bandstr">    102.91887208 </i>
    <i name="atom">   9608.91914622 </i>
    <i name="e_fr_energy">   1333.71401968 </i>
    <i name="e_wo_entrp">   1333.71401968 </i>
    <i name="e_0_energy">   1333.71401968 </i>
   </energy>
  </scstep>
  <scstep>
   <time name="dav">   12.91   12.93</time>
   <time name="total">   12.95   12.97</time>
   <energy>
    <i name="e_fr_energy">     61.59696793 </i>
    <i name="e_wo_entrp">     61.59696793 </i>
    <i name="e_0_energy">     61.59696793 </i>
   </energy>
  </scstep>
  <scstep>
   <time name="dav">   14.98   15.12</time>
   <time name="total">   14.99   15.13</time>
   <energy>
    <i name="e_fr_energy">   -116.80822617 </i>
    <i name="e_wo_entrp">   -116.80822617 </i>
    <i name="e_0_energy">   -116.80822617 </i>
   </energy>
  </scstep>
  <scstep>
   <time name="dav">   14.63   14.66</time>
   <time name="total">   14.64   14.67</time>
   <energy>
    <i name="e_fr_energy">   -126.53604310 </i>
    <i name="e_wo_entrp">   -126.53604310 </i>
    <i name="e_0_energy">   -126.53604310 </i>
   </energy>
  </scstep>
  <scstep>
   <time name="dav">   14.43   14.45</time>
   <time name="total">   15.24   15.27</time>
   <energy>
    <i name="e_fr_energy">   -126.80173905 </i>
    <i name="e_wo_entrp">   -126.80173905 </i>
    <i name="e_0_energy">   -126.80173905 </i>
   </energy>
  </scstep>
  <scstep>
   <time name="diag">    2.37    2.37</time>
   <time name="diis">    8.85    8.86</time>
   <time name="orth">    0.12    0.12</time>
   <time name="total">   12.48   12.51</time>
   <energy>
    <i name="e_fr_energy">   -178.64344883 </i>
    <i name="e_wo_entrp">   -178.64344883 </i>
    <i name="e_0_energy">   -178.64344883 </i>
   </energy>
  </scstep>
  <scstep>
   <time name="diag">    2.37    2.37</time>
   <time name="diis">    9.65    9.70</time>
   <time name="orth">    0.12    0.12</time>
   <time name="total">   13.23   13.29</time>
   <energy>
    <i name="e_fr_energy">   -397.67937927 </i>
    <i name="e_wo_entrp">   -397.67937927 </i>
    <i name="e_0_energy">   -397.67937927 </i>
   </energy>
  </scstep>
  <scstep>
   <time name="diag">    2.36    2.37</time>
   <time name="diis">    9.16    9.18</time>
   <time name="orth">    0.12    0.12</time>
   <time name="total">   12.78   12.81</time>
   <energy>
    <i name="e_fr_energy">   -100.97212117 </i>
    <i name="e_wo_entrp">   -100.97212117 </i>
    <i name="e_0_energy">   -100.97212117 </i>
   </energy>
  </scstep>
  <scstep>
   <time name="diag">    2.36    2.37</time>
   <time name="diis">    8.68    8.72</time>
   <time name="orth">    0.12    0.12</time>
   <time name="total">   12.31   12.36</time>
   <energy>
    <i name="e_fr_energy">   -121.35110139 </i>
    <i name="e_wo_entrp">   -121.35110139 </i>
    <i name="e_0_energy">   -121.35110139 </i>
   </energy>
  </scstep>
  <scstep>
   <time name="diag">    2.36    2.37</time>
   <time name="diis">    9.26    9.27</time>
   <time name="orth">    0.12    0.12</time>
   <time name="total">   12.83   12.85</time>
   <energy>
    <i name="e_fr_energy">   -285.89207493 </i>
    <i name="e_wo_entrp">   -285.89207493 </i>
    <i name="e_0_energy">   -285.89207493 </i>
   </energy>
  </scstep>
  <scstep>
   <time name="diag">    2.35    2.35</time>
   <time name="diis">    8.98    8.99</time>
   <time name="orth">    0.12    0.12</time>
   <time name="total">   12.58   12.60</time>
   <energy>
    <i name="e_fr_energy">   -106.53821406 </i>
    <i name="e_wo_entrp">   -106.53821406 </i>
    <i name="e_0_energy">   -106.53821406 </i>
   </energy>
  </scstep>
  <scstep>
   <time name="diag">    2.41    2.41</time>
   <time name="diis">    8.80    8.81</time>
   <time name="orth">    0.12    0.12</time>
   <time name="total">   12.42   12.44</time>
   <energy>
    <i name="e_fr_energy">   -153.17217316 </i>
    <i name="e_wo_entrp">   -153.17217316 </i>
    <i name="e_0_energy">   -153.17217316 </i>
   </energy>
  </scstep>
  <scstep>
   <time name="diag">    2.35    2.35</time>
   <time name="diis">    8.87    8.89</time>
   <time name="orth">    0.12    0.12</time>
   <time name="total">   12.48   12.50</time>
   <energy>
    <i name="e_fr_energy">   -174.39842496 </i>
    <i name="e_wo_entrp">   -174.39842496 </i>
    <i name="e_0_energy">   -174.39842496 </i>
   </energy>
  </scstep>
  <scstep>
   <time name="diag">    2.36    2.37</time>
   <time name="diis">   10.00   10.02</time>
   <time name="orth">    0.12    0.12</time>
   <time name="total">   13.58   13.60</time>
   <energy>
    <i name="e_fr_energy">   -382.17692735 </i>
    <i name="e_wo_entrp">   -382.17692735 </i>
    <i name="e_0_energy">   -382.17692735 </i>
   </energy>
  </scstep>
  <scstep>
   <time name="diag">    2.36    2.37</time>
   <time name="diis">    9.44    9.46</time>
   <time name="orth">    0.12    0.12</time>
   <time name="total">   13.07   13.10</time>
   <energy>
    <i name="e_fr_energy">    -99.73424378 </i>
    <i name="e_wo_entrp">    -99.73424378 </i>
    <i name="e_0_energy">    -99.73424378 </i>
   </energy>
  </scstep>
  <scstep>
   <time name="diag">    2.36    2.36</time>
   <time name="diis">    9.08    9.13</time>
   <time name="orth">    0.12    0.12</time>
   <time name="total">   12.71   12.77</time>
   <energy>
    <i name="e_fr_energy">   -104.93025445 </i>
    <i name="e_wo_entrp">   -104.93025445 </i>
    <i name="e_0_energy">   -104.93025445 </i>
   </energy>
  </scstep>
  <scstep>
   <time name="diag">    2.36    2.37</time>
   <time name="diis">    9.99   10.00</time>
   <time name="orth">    0.12    0.12</time>
   <time name="total">   13.57   13.59</time>
   <energy>
    <i name="e_fr_energy">   -230.28593099 </i>
    <i name="e_wo_entrp">   -230.28593099 </i>
    <i name="e_0_energy">   -230.28593099 </i>
   </energy>
  </scstep>
  <scstep>
   <time name="diag">    2.36    2.37</time>
   <time name="diis">    8.72    8.74</time>
   <time name="orth">    0.12    0.12</time>
   <time name="total">   12.35   12.37</time>
   <energy>
    <i name="e_fr_energy">   -128.44758231 </i>
    <i name="e_wo_entrp">   -128.44758231 </i>
    <i name="e_0_energy">   -128.44758231 </i>
   </energy>
  </scstep>
  <scstep>
   <time name="diag">    2.37    2.37</time>
   <time name="diis">    9.57    9.58</time>
   <time name="orth">    0.12    0.12</time>
   <time name="total">   13.14   13.16</time>
   <energy>
    <i name="e_fr_energy">   -289.14183903 </i>
    <i name="e_wo_entrp">   -289.14183903 </i>
    <i name="e_0_energy">   -289.14183903 </i>
   </energy>
  </scstep>
  <scstep>
   <time name="diag">    2.35    2.35</time>
   <time name="diis">    8.70    8.72</time>
   <time name="orth">    0.12    0.12</time>
   <time name="total">   12.31   12.33</time>
   <energy>
    <i name="e_fr_energy">   -105.39481902 </i>
    <i name="e_wo_entrp">   -105.39481902 </i>
    <i name="e_0_energy">   -105.39481902 </i>
   </energy>
  </scstep>
  <scstep>
   <time name="diag">    2.35    2.35</time>
   <time name="diis">    8.77    8.90</time>
   <time name="orth">    0.12    0.12</time>
   <time name="total">   12.34   12.47</time>
   <energy>
    <i name="e_fr_energy">   -157.85898394 </i>
    <i name="e_wo_entrp">   -157.85898394 </i>
    <i name="e_0_energy">   -157.85898394 </i>
   </energy>
  </scstep>
  <scstep>
   <time name="diag">    2.36    2.37</time>
   <time name="diis">    8.88    8.92</time>
   <time name="orth">    0.12    0.12</time>
   <time name="total">   12.51   12.56</time>
   <energy>
    <i name="e_fr_energy">   -164.78126543 </i>
    <i name="e_wo_entrp">   -164.78126543 </i>
    <i name="e_0_energy">   -164.78126543 </i>
   </energy>
  </scstep>
  <scstep>
   <time name="diag">    2.36    2.37</time>
   <time name="diis">    9.77    9.81</time>
   <time name="orth">    0.12    0.12</time>
   <time name="total">   13.36   13.41</time>
   <energy>
    <i name="e_fr_energy">   -373.40883743 </i>
    <i name="e_wo_entrp">   -373.40883743 </i>
    <i name="e_0_energy">   -373.40883743 </i>
   </energy>
  </scstep>
  <scstep>
   <time name="diag">    2.36    2.37</time>
   <time name="diis">    9.19    9.22</time>
   <time name="orth">    0.12    0.12</time>
   <time name="total">   12.82   12.87</time>
   <energy>
    <i name="e_fr_energy">    -98.96299456 </i>
    <i name="e_wo_entrp">    -98.96299456 </i>
    <i name="e_0_energy">    -98.96299456 </i>
   </energy>
  </scstep>
  <scstep>
   <time name="diag">    2.36    2.37</time>
   <time name="diis">    8.88    8.91</time>
   <time name="orth">    0.12    0.12</time>
   <time name="total">   12.51   12.56</time>
   <energy>
    <i name="e_fr_energy">    -96.18371647 </i>
    <i name="e_wo_entrp">    -96.18371647 </i>
    <i name="e_0_energy">    -96.18371647 </i>
   </energy>
  </scstep>
  <scstep>
   <time name="diag">    2.36    2.37</time>
   <time name="diis">    9.52    9.56</time>
   <time name="orth">    0.12    0.12</time>
   <time name="total">   13.10   13.15</time>
   <energy>
    <i name="e_fr_energy">   -179.12989895 </i>
    <i name="e_wo_entrp">   -179.12989895 </i>
    <i name="e_0_energy">   -179.12989895 </i>
   </energy>
  </scstep>
  <scstep>
   <time name="diag">    2.34    2.35</time>
   <time name="diis">    8.86    8.89</time>
   <time name="orth">    0.12    0.12</time>
   <time name="total">   12.47   12.52</time>
   <energy>
    <i name="e_fr_energy">   -156.58044531 </i>
    <i name="e_wo_entrp">   -156.58044531 </i>
    <i name="e_0_energy">   -156.58044531 </i>
   </energy>
  </scstep>
  <scstep>
   <time name="diag">    2.36    2.37</time>
   <time name="diis">    9.60    9.64</time>
   <time name="orth">    0.12    0.12</time>
   <time name="total">   13.19   13.24</time>
   <energy>
    <i name="e_fr_energy">   -370.60547024 </i>
    <i name="e_wo_entrp">   -370.60547024 </i>
    <i name="e_0_energy">   -370.60547024 </i>
   </energy>
  </scstep>
  <scstep>
   <time name="diag">    2.35    2.36</time>
   <time name="diis">    8.99    9.03</time>
   <time name="orth">    0.12    0.12</time>
   <time name="total">   12.60   12.65</time>
   <energy>
    <i name="e_fr_energy">    -98.43809146 </i>
    <i name="e_wo_entrp">    -98.43809146 </i>
    <i name="e_0_energy">    -98.43809146 </i>
   </energy>
  </scstep>
  <scstep>
   <time name="diag">    2.35    2.36</time>
   <time name="diis">    8.86    8.89</time>
   <time name="orth">    0.12    0.12</time>
   <time name="total">   12.48   12.53</time>
   <energy>
    <i name="e_fr_energy">    -92.76971926 </i>
    <i name="e_wo_entrp">    -92.76971926 </i>
    <i name="e_0_energy">    -92.76971926 </i>
   </energy>
  </scstep>
  <scstep>
   <time name="diag">    2.36    2.37</time>
   <time name="diis">    9.31    9.34</time>
   <time name="orth">    0.12    0.12</time>
   <time name="total">   12.89   12.94</time>
   <energy>
    <i name="e_fr_energy">   -147.02013489 </i>
    <i name="e_wo_entrp">   -147.02013489 </i>
    <i name="e_0_energy">   -147.02013489 </i>
   </energy>
  </scstep>
  <scstep>
   <time name="diag">    2.35    2.36</time>
   <time name="diis">    8.84    8.87</time>
   <time name="orth">    0.12    0.12</time>
   <time name="total">   12.46   12.51</time>
   <energy>
    <i name="e_fr_energy">   -173.84121129 </i>
    <i name="e_wo_entrp">   -173.84121129 </i>
    <i name="e_0_energy">   -173.84121129 </i>
   </energy>
  </scstep>
  <scstep>
   <time name="diag">    2.36    2.37</time>
   <time name="diis">    9.71    9.75</time>
   <time name="orth">    0.12    0.12</time>
   <time name="total">   13.29   13.34</time>
   <energy>
    <i name="e_fr_energy">   -399.08395053 </i>
    <i name="e_wo_entrp">   -399.08395053 </i>
    <i name="e_0_energy">   -399.08395053 </i>
   </energy>
  </scstep>
  <scstep>
   <time name="diag">    2.35    2.36</time>
   <time name="diis">    9.08    9.11</time>
   <time name="orth">    0.12    0.12</time>
   <time name="total">   12.70   12.75</time>
   <energy>
    <i name="e_fr_energy">   -100.43173760 </i>
    <i name="e_wo_entrp">   -100.43173760 </i>
    <i name="e_0_energy">   -100.43173760 </i>
   </energy>
  </scstep>
  <scstep>
   <time name="diag">    2.34    2.35</time>
   <time name="diis">    8.84    8.88</time>
   <time name="orth">    0.12    0.12</time>
   <time name="total">   12.46   12.51</time>
   <energy>
    <i name="e_fr_energy">   -118.95446869 </i>
    <i name="e_wo_entrp">   -118.95446869 </i>
    <i name="e_0_energy">   -118.95446869 </i>
   </energy>
  </scstep>
  <scstep>
   <time name="diag">    2.35    2.36</time>
   <time name="diis">    9.59    9.62</time>
   <time name="orth">    0.12    0.12</time>
   <time name="total">   13.15   13.21</time>
   <energy>
    <i name="e_fr_energy">   -281.79936208 </i>
    <i name="e_wo_entrp">   -281.79936208 </i>
    <i name="e_0_energy">   -281.79936208 </i>
   </energy>
  </scstep>
  <scstep>
   <time name="diag">    2.35    2.36</time>
   <time name="diis">    8.70    8.74</time>
   <time name="orth">    0.12    0.12</time>
   <time name="total">   12.32   12.37</time>
   <energy>
    <i name="e_fr_energy">   -108.12835644 </i>
    <i name="e_wo_entrp">   -108.12835644 </i>
    <i name="e_0_energy">   -108.12835644 </i>
   </energy>
  </scstep>
  <scstep>
   <time name="diag">    2.36    2.37</time>
   <time name="diis">    8.86    8.89</time>
   <time name="orth">    0.12    0.12</time>
   <time name="total">   12.44   12.49</time>
   <energy>
    <i name="e_fr_energy">   -166.18802946 </i>
    <i name="e_wo_entrp">   -166.18802946 </i>
    <i name="e_0_energy">   -166.18802946 </i>
   </energy>
  </scstep>
  <scstep>
   <time name="diag">    2.35    2.36</time>
   <time name="diis">    8.85    8.89</time>
   <time name="orth">    0.12    0.12</time>
   <time name="total">   12.48   12.53</time>
   <energy>
    <i name="e_fr_energy">   -166.29959509 </i>
    <i name="e_wo_entrp">   -166.29959509 </i>
    <i name="e_0_energy">   -166.29959509 </i>
   </energy>
  </scstep>
  <scstep>
   <time name="diag">    2.36    2.36</time>
   <time name="diis">    9.70    9.74</time>
   <time name="orth">    0.12    0.12</time>
   <time name="total">   13.29   13.34</time>
   <energy>
    <i name="e_fr_energy">   -370.98213393 </i>
    <i name="e_wo_entrp">   -370.98213393 </i>
    <i name="e_0_energy">   -370.98213393 </i>
   </energy>
  </scstep>
  <scstep>
   <time name="diag">    2.35    2.37</time>
   <time name="diis">    9.14    9.18</time>
   <time name="orth">    0.12    0.12</time>
   <time name="total">   12.78   12.84</time>
   <energy>
    <i name="e_fr_energy">    -99.34750147 </i>
    <i name="e_wo_entrp">    -99.34750147 </i>
    <i name="e_0_energy">    -99.34750147 </i>
   </energy>
  </scstep>
  <scstep>
   <time name="diag">    2.35    2.37</time>
   <time name="diis">    8.56    8.59</time>
   <time name="orth">    0.12    0.12</time>
   <time name="total">   12.18   12.24</time>
   <energy>
    <i name="e_fr_energy">    -95.56651791 </i>
    <i name="e_wo_entrp">    -95.56651791 </i>
    <i name="e_0_energy">    -95.56651791 </i>
   </energy>
  </scstep>
  <scstep>
   <time name="diag">    2.35    2.36</time>
   <time name="diis">    9.46    9.50</time>
   <time name="orth">    0.12    0.12</time>
   <time name="total">   13.03   13.09</time>
   <energy>
    <i name="e_fr_energy">   -172.63179408 </i>
    <i name="e_wo_entrp">   -172.63179408 </i>
    <i name="e_0_energy">   -172.63179408 </i>
   </energy>
  </scstep>
  <scstep>
   <time name="diag">    2.35    2.36</time>
   <time name="diis">    8.69    8.72</time>
   <time name="orth">    0.12    0.12</time>
   <time name="total">   12.31   12.37</time>
   <energy>
    <i name="e_fr_energy">   -159.68512335 </i>
    <i name="e_wo_entrp">   -159.68512335 </i>
    <i name="e_0_energy">   -159.68512335 </i>
   </energy>
  </scstep>
  <scstep>
   <time name="diag">    2.35    2.36</time>
   <time name="diis">    9.62    9.65</time>
   <time name="orth">    0.12    0.12</time>
   <time name="total">   13.19   13.24</time>
   <energy>
    <i name="e_fr_energy">   -377.28188863 </i>
    <i name="e_wo_entrp">   -377.28188863 </i>
    <i name="e_0_energy">   -377.28188863 </i>
   </energy>
  </scstep>
  <scstep>
   <time name="diag">    2.36    2.37</time>
   <time name="diis">    9.17    9.20</time>
   <time name="orth">    0.12    0.12</time>
   <time name="total">   12.80   12.85</time>
   <energy>
    <i name="e_fr_energy">    -98.67895003 </i>
    <i name="e_wo_entrp">    -98.67895003 </i>
    <i name="e_0_energy">    -98.67895003 </i>
   </energy>
  </scstep>
  <scstep>
   <time name="diag">    2.36    2.37</time>
   <time name="diis">    8.82    8.85</time>
   <time name="orth">    0.12    0.12</time>
   <time name="total">   12.45   12.50</time>
   <energy>
    <i name="e_fr_energy">    -96.93379684 </i>
    <i name="e_wo_entrp">    -96.93379684 </i>
    <i name="e_0_energy">    -96.93379684 </i>
   </energy>
  </scstep>
  <scstep>
   <time name="diag">    2.36    2.37</time>
   <time name="diis">    9.54    9.57</time>
   <time name="orth">    0.12    0.12</time>
   <time name="total">   13.12   13.17</time>
   <energy>
    <i name="e_fr_energy">   -185.35238022 </i>
    <i name="e_wo_entrp">   -185.35238022 </i>
    <i name="e_0_energy">   -185.35238022 </i>
   </energy>
  </scstep>
  <scstep>
   <time name="diag">    2.36    2.37</time>
   <time name="diis">    8.83    8.86</time>
   <time name="orth">    0.12    0.12</time>
   <time name="total">   12.46   12.51</time>
   <energy>
    <i name="e_fr_energy">   -153.18213420 </i>
    <i name="e_wo_entrp">   -153.18213420 </i>
    <i name="e_0_energy">   -153.18213420 </i>
   </energy>
  </scstep>
  <scstep>
   <time name="diag">    2.38    2.38</time>
   <time name="diis">    9.87    9.89</time>
   <time name="orth">    0.12    0.12</time>
   <time name="total">   13.48   13.51</time>
   <energy>
    <i name="e_fr_energy">   -363.38232016 </i>
    <i name="e_wo_entrp">   -363.38232016 </i>
    <i name="e_0_energy">   -363.38232016 </i>
   </energy>
  </scstep>
  <scstep>
   <time name="diag">    2.36    2.36</time>
   <time name="diis">    9.23    9.25</time>
   <time name="orth">    0.13    0.13</time>
   <time name="total">   12.88   12.90</time>
   <energy>
    <i name="e_fr_energy">    -98.27155162 </i>
    <i name="e_wo_entrp">    -98.27155162 </i>
    <i name="e_0_energy">    -98.27155162 </i>
   </energy>
  </scstep>
  <scstep>
   <time name="diag">    2.37    2.38</time>
   <time name="diis">    9.04    9.06</time>
   <time name="orth">    0.12    0.12</time>
   <time name="total">   12.70   12.72</time>
   <energy>
    <i name="e_fr_energy">    -89.86225037 </i>
    <i name="e_wo_entrp">    -89.86225037 </i>
    <i name="e_0_energy">    -89.86225037 </i>
   </energy>
  </scstep>
  <scstep>
   <time name="diag">    2.37    2.38</time>
   <time name="diis">    8.97    8.98</time>
   <time name="orth">    0.12    0.12</time>
   <time name="total">   12.56   12.58</time>
   <energy>
    <i name="e_fr_energy">   -103.10155002 </i>
    <i name="e_wo_entrp">   -103.10155002 </i>
    <i name="e_0_energy">   -103.10155002 </i>
   </energy>
  </scstep>
  <scstep>
   <time name="diag">    2.38    2.38</time>
   <time name="diis">    9.09    9.10</time>
   <time name="orth">    0.12    0.12</time>
   <time name="total">   12.76   12.78</time>
   <energy>
    <i name="e_fr_energy">   -179.20224675 </i>
    <i name="e_wo_entrp">   -179.20224675 </i>
    <i name="e_0_energy">   -179.20224675 </i>
   </energy>
  </scstep>
  <scstep>
   <time name="diag">    2.38    2.39</time>
   <time name="diis">    9.97    9.99</time>
   <time name="orth">    0.12    0.12</time>
   <time name="total">   13.58   13.61</time>
   <energy>
    <i name="e_fr_energy">   -400.81109418 </i>
    <i name="e_wo_entrp">   -400.81109418 </i>
    <i name="e_0_energy">   -400.81109418 </i>
   </energy>
  </scstep>
  <scstep>
   <time name="diag">    2.38    2.39</time>
   <time name="diis">    9.49    9.51</time>
   <time name="orth">    0.12    0.12</time>
   <time name="total">   13.16   13.19</time>
   <energy>
    <i name="e_fr_energy">   -101.45231876 </i>
    <i name="e_wo_entrp">   -101.45231876 </i>
    <i name="e_0_energy">   -101.45231876 </i>
   </energy>
  </scstep>
  <scstep>
   <time name="diag">    2.38    2.38</time>
   <time name="diis">    9.08    9.10</time>
   <time name="orth">    0.12    0.12</time>
   <time name="total">   12.76   12.79</time>
   <energy>
    <i name="e_fr_energy">   -118.12930318 </i>
    <i name="e_wo_entrp">   -118.12930318 </i>
    <i name="e_0_energy">   -118.12930318 </i>
   </energy>
  </scstep>
  <scstep>
   <time name="diag">    2.38    2.39</time>
   <time name="diis">   10.00   10.01</time>
   <time name="orth">    0.12    0.12</time>
   <time name="total">   13.61   13.63</time>
   <energy>
    <i name="e_fr_energy">   -278.81079947 </i>
    <i name="e_wo_entrp">   -278.81079947 </i>
    <i name="e_0_energy">   -278.81079947 </i>
   </energy>
  </scstep>
  <scstep>
   <time name="diag">    2.38    2.38</time>
   <time name="diis">    8.91    8.92</time>
   <time name="orth">    0.12    0.12</time>
   <time name="total">   12.56   12.58</time>
   <energy>
    <i name="e_fr_energy">   -108.99878180 </i>
    <i name="e_wo_entrp">   -108.99878180 </i>
    <i name="e_0_energy">   -108.99878180 </i>
   </energy>
  </scstep>
  <scstep>
   <time name="diag">    2.37    2.37</time>
   <time name="diis">    9.08    9.09</time>
   <time name="orth">    0.12    0.12</time>
   <time name="total">   12.66   12.68</time>
   <energy>
    <i name="e_fr_energy">   -172.94901988 </i>
    <i name="e_wo_entrp">   -172.94901988 </i>
    <i name="e_0_energy">   -172.94901988 </i>
   </energy>
  </scstep>
  <scstep>
   <time name="diag">    2.37    2.38</time>
   <time name="diis">    8.92    8.93</time>
   <time name="orth">    0.12    0.12</time>
   <time name="total">   12.59   12.60</time>
   <energy>
    <i name="e_fr_energy">   -162.16197931 </i>
    <i name="e_wo_entrp">   -162.16197931 </i>
    <i name="e_0_energy">   -162.16197931 </i>
   </energy>
  </scstep>
  <scstep>
   <time name="diag">    2.38    2.38</time>
   <time name="diis">    9.73    9.74</time>
   <time name="orth">    0.12    0.12</time>
   <time name="total">   13.33   13.36</time>
   <energy>
    <i name="e_fr_energy">   -363.88537766 </i>
    <i name="e_wo_entrp">   -363.88537766 </i>
    <i name="e_0_energy">   -363.88537766 </i>
   </energy>
  </scstep>
  <scstep>
   <time name="diag">    2.38    2.38</time>
   <time name="diis">    9.45    9.47</time>
   <time name="orth">    0.12    0.13</time>
   <time name="total">   13.11   13.13</time>
   <energy>
    <i name="e_fr_energy">    -99.22466626 </i>
    <i name="e_wo_entrp">    -99.22466626 </i>
    <i name="e_0_energy">    -99.22466626 </i>
   </energy>
  </scstep>
  <scstep>
   <time name="diag">    2.38    2.39</time>
   <time name="diis">    9.29    9.30</time>
   <time name="orth">    0.12    0.12</time>
   <time name="total">   12.96   12.98</time>
   <energy>
    <i name="e_fr_energy">    -91.85129303 </i>
    <i name="e_wo_entrp">    -91.85129303 </i>
    <i name="e_0_energy">    -91.85129303 </i>
   </energy>
  </scstep>
  <scstep>
   <time name="diag">    2.37    2.38</time>
   <time name="diis">    9.47    9.48</time>
   <time name="orth">    0.12    0.12</time>
   <time name="total">   13.07   13.09</time>
   <energy>
    <i name="e_fr_energy">   -130.76694166 </i>
    <i name="e_wo_entrp">   -130.76694166 </i>
    <i name="e_0_energy">   -130.76694166 </i>
   </energy>
  </scstep>
  <scstep>
   <time name="diag">    2.38    2.38</time>
   <time name="diis">    9.21    9.22</time>
   <time name="orth">    0.12    0.13</time>
   <time name="total">   12.87   12.89</time>
   <energy>
    <i name="e_fr_energy">   -179.12187340 </i>
    <i name="e_wo_entrp">   -179.12187340 </i>
    <i name="e_0_energy">   -179.12187340 </i>
   </energy>
  </scstep>
  <scstep>
   <time name="diag">    2.38    2.39</time>
   <time name="diis">    9.79    9.81</time>
   <time name="orth">    0.12    0.12</time>
   <time name="total">   13.41   13.43</time>
   <energy>
    <i name="e_fr_energy">   -405.23979342 </i>
    <i name="e_wo_entrp">   -405.23979342 </i>
    <i name="e_0_energy">   -405.23979342 </i>
   </energy>
  </scstep>
  <scstep>
   <time name="diag">    2.36    2.36</time>
   <time name="diis">    9.53    9.54</time>
   <time name="orth">    0.12    0.12</time>
   <time name="total">   13.15   13.16</time>
   <energy>
    <i name="e_fr_energy">   -101.09496204 </i>
    <i name="e_wo_entrp">   -101.09496204 </i>
    <i name="e_0_energy">   -101.09496204 </i>
   </energy>
  </scstep>
  <scstep>
   <time name="diag">    2.37    2.37</time>
   <time name="diis">    8.80    8.81</time>
   <time name="orth">    0.12    0.12</time>
   <time name="total">   12.44   12.46</time>
   <energy>
    <i name="e_fr_energy">   -124.82170249 </i>
    <i name="e_wo_entrp">   -124.82170249 </i>
    <i name="e_0_energy">   -124.82170249 </i>
   </energy>
  </scstep>
  <scstep>
   <time name="diag">    2.37    2.37</time>
   <time name="diis">    9.75    9.76</time>
   <time name="orth">    0.12    0.12</time>
   <time name="total">   13.34   13.36</time>
   <energy>
    <i name="e_fr_energy">   -297.20982713 </i>
    <i name="e_wo_entrp">   -297.20982713 </i>
    <i name="e_0_energy">   -297.20982713 </i>
   </energy>
  </scstep>
  <scstep>
   <time name="diag">    2.37    2.37</time>
   <time name="diis">    9.09    9.10</time>
   <time name="orth">    0.12    0.12</time>
   <time name="total">   12.73   12.76</time>
   <energy>
    <i name="e_fr_energy">   -104.83569463 </i>
    <i name="e_wo_entrp">   -104.83569463 </i>
    <i name="e_0_energy">   -104.83569463 </i>
   </energy>
  </scstep>
  <scstep>
   <time name="diag">    2.37    2.38</time>
   <time name="diis">    9.12    9.14</time>
   <time name="orth">    0.12    0.12</time>
   <time name="total">   12.72   12.74</time>
   <energy>
    <i name="e_fr_energy">   -133.09311342 </i>
    <i name="e_wo_entrp">   -133.09311342 </i>
    <i name="e_0_energy">   -133.09311342 </i>
   </energy>
  </scstep>
  <scstep>
   <time name="diag">    2.42    2.43</time>
   <time name="diis">    9.06    9.08</time>
   <time name="orth">    0.12    0.12</time>
   <time name="total">   12.76   12.78</time>
   <energy>
    <i name="e_fr_energy">   -186.56129918 </i>
    <i name="e_wo_entrp">   -186.56129918 </i>
    <i name="e_0_energy">   -186.56129918 </i>
   </energy>
  </scstep>
  <scstep>
   <time name="diag">    2.37    2.37</time>
   <time name="diis">    9.96    9.97</time>
   <time name="orth">    0.12    0.12</time>
   <time name="total">   13.56   13.58</time>
   <energy>
    <i name="e_fr_energy">   -399.73795537 </i>
    <i name="e_wo_entrp">   -399.73795537 </i>
    <i name="e_0_energy">   -399.73795537 </i>
   </energy>
  </scstep>
  <scstep>
   <time name="diag">    2.37    2.37</time>
   <time name="diis">    9.53    9.56</time>
   <time name="orth">    0.12    0.12</time>
   <time name="total">   13.16   13.21</time>
   <energy>
    <i name="e_fr_energy">   -100.75802364 </i>
    <i name="e_wo_entrp">   -100.75802364 </i>
    <i name="e_0_energy">   -100.75802364 </i>
   </energy>
  </scstep>
  <scstep>
   <time name="diag">    2.37    2.38</time>
   <time name="diis">    8.73    8.76</time>
   <time name="orth">    0.12    0.12</time>
   <time name="total">   12.37   12.41</time>
   <energy>
    <i name="e_fr_energy">   -121.80110030 </i>
    <i name="e_wo_entrp">   -121.80110030 </i>
    <i name="e_0_energy">   -121.80110030 </i>
   </energy>
  </scstep>
  <scstep>
   <time name="diag">    2.35    2.36</time>
   <time name="diis">   10.04   10.07</time>
   <time name="orth">    0.12    0.12</time>
   <time name="total">   13.60   13.65</time>
   <energy>
    <i name="e_fr_energy">   -288.80735703 </i>
    <i name="e_wo_entrp">   -288.80735703 </i>
    <i name="e_0_energy">   -288.80735703 </i>
   </energy>
  </scstep>
  <scstep>
   <time name="diag">    2.36    2.37</time>
   <time name="diis">    8.82    8.84</time>
   <time name="orth">    0.12    0.12</time>
   <time name="total">   12.45   12.49</time>
   <energy>
    <i name="e_fr_energy">   -106.37152534 </i>
    <i name="e_wo_entrp">   -106.37152534 </i>
    <i name="e_0_energy">   -106.37152534 </i>
   </energy>
  </scstep>
  <scstep>
   <time name="diag">    2.36    2.37</time>
   <time name="diis">    8.86    8.88</time>
   <time name="orth">    0.12    0.12</time>
   <time name="total">   12.44   12.48</time>
   <energy>
    <i name="e_fr_energy">   -148.72281540 </i>
    <i name="e_wo_entrp">   -148.72281540 </i>
    <i name="e_0_energy">   -148.72281540 </i>
   </energy>
  </scstep>
  <scstep>
   <time name="diag">    2.37    2.38</time>
   <time name="diis">    9.10    9.12</time>
   <time name="orth">    0.12    0.12</time>
   <time name="total">   12.76   12.80</time>
   <energy>
    <i name="e_fr_energy">   -178.28230063 </i>
    <i name="e_wo_entrp">   -178.28230063 </i>
    <i name="e_0_energy">   -178.28230063 </i>
   </energy>
  </scstep>
  <scstep>
   <time name="diag">    2.37    2.37</time>
   <time name="diis">   10.01   10.02</time>
   <time name="orth">    0.12    0.12</time>
   <time name="total">   13.61   13.63</time>
   <energy>
    <i name="e_fr_energy">   -388.26531341 </i>
    <i name="e_wo_entrp">   -388.26531341 </i>
    <i name="e_0_energy">   -388.26531341 </i>
   </energy>
  </scstep>
  <scstep>
   <time name="diag">    2.37    2.37</time>
   <time name="diis">    9.47    9.49</time>
   <time name="orth">    0.12    0.12</time>
   <time name="total">   13.12   13.14</time>
   <energy>
    <i name="e_fr_energy">   -100.22004132 </i>
    <i name="e_wo_entrp">   -100.22004132 </i>
    <i name="e_0_energy">   -100.22004132 </i>
   </energy>
  </scstep>
  <scstep>
   <time name="diag">    2.37    2.37</time>
   <time name="diis">    9.11    9.12</time>
   <time name="orth">    0.13    0.13</time>
   <time name="total">   12.75   12.77</time>
   <energy>
    <i name="e_fr_energy">   -110.49296359 </i>
    <i name="e_wo_entrp">   -110.49296359 </i>
    <i name="e_0_energy">   -110.49296359 </i>
   </energy>
  </scstep>
  <scstep>
   <time name="diag">    2.37    2.38</time>
   <time name="diis">    9.99   10.01</time>
   <time name="orth">    0.12    0.12</time>
   <time name="total">   13.59   13.61</time>
   <energy>
    <i name="e_fr_energy">   -252.87443884 </i>
    <i name="e_wo_entrp">   -252.87443884 </i>
    <i name="e_0_energy">   -252.87443884 </i>
   </energy>
  </scstep>
  <scstep>
   <time name="diag">    2.37    2.37</time>
   <time name="diis">    8.76    8.79</time>
   <time name="orth">    0.12    0.12</time>
   <time name="total">   12.40   12.44</time>
   <energy>
    <i name="e_fr_energy">   -118.25881175 </i>
    <i name="e_wo_entrp">   -118.25881175 </i>
    <i name="e_0_energy">   -118.25881175 </i>
   </energy>
  </scstep>
  <scstep>
   <time name="diag">    2.35    2.36</time>
   <time name="diis">    9.82    9.85</time>
   <time name="orth">    0.12    0.12</time>
   <time name="total">   13.39   13.43</time>
   <energy>
    <i name="e_fr_energy">   -241.14566298 </i>
    <i name="e_wo_entrp">   -241.14566298 </i>
    <i name="e_0_energy">   -241.14566298 </i>
   </energy>
  </scstep>
  <scstep>
   <time name="diag">    2.36    2.37</time>
   <time name="diis">    8.77    8.79</time>
   <time name="orth">    0.12    0.12</time>
   <time name="total">   12.40   12.43</time>
   <energy>
    <i name="e_fr_energy">   -124.57007142 </i>
    <i name="e_wo_entrp">   -124.57007142 </i>
    <i name="e_0_energy">   -124.57007142 </i>
   </energy>
  </scstep>
  <scstep>
   <time name="diag">    2.36    2.37</time>
   <time name="diis">    9.46    9.49</time>
   <time name="orth">    0.12    0.12</time>
   <time name="total">   13.05   13.09</time>
   <energy>
    <i name="e_fr_energy">   -262.59027493 </i>
    <i name="e_wo_entrp">   -262.59027493 </i>
    <i name="e_0_energy">   -262.59027493 </i>
   </energy>
  </scstep>
  <scstep>
   <time name="diag">    2.37    2.38</time>
   <time name="diis">    9.03    9.06</time>
   <time name="orth">    0.12    0.12</time>
   <time name="total">   12.68   12.72</time>
   <energy>
    <i name="e_fr_energy">   -113.09117187 </i>
    <i name="e_wo_entrp">   -113.09117187 </i>
    <i name="e_0_energy">   -113.09117187 </i>
   </energy>
  </scstep>
  <scstep>
   <time name="diag">    2.39    2.39</time>
   <time name="diis">   10.04   10.05</time>
   <time name="orth">    0.12    0.12</time>
   <time name="total">   13.67   13.69</time>
   <energy>
    <i name="e_fr_energy">   -206.48545296 </i>
    <i name="e_wo_entrp">   -206.48545296 </i>
    <i name="e_0_energy">   -206.48545296 </i>
   </energy>
  </scstep>
  <scstep>
   <time name="diag">    2.38    2.39</time>
   <time name="diis">    9.36    9.38</time>
   <time name="orth">    0.12    0.12</time>
   <time name="total">   13.03   13.05</time>
   <energy>
    <i name="e_fr_energy">   -140.03786105 </i>
    <i name="e_wo_entrp">   -140.03786105 </i>
    <i name="e_0_energy">   -140.03786105 </i>
   </energy>
  </scstep>
  <scstep>
   <time name="diag">    2.38    2.39</time>
   <time name="diis">   10.19   10.20</time>
   <time name="orth">    0.12    0.12</time>
   <time name="total">   13.81   13.83</time>
   <energy>
    <i name="e_fr_energy">   -313.67697765 </i>
    <i name="e_wo_entrp">   -313.67697765 </i>
    <i name="e_0_energy">   -313.67697765 </i>
   </energy>
  </scstep>
  <scstep>
   <time name="diag">    2.38    2.38</time>
   <time name="diis">    9.39    9.41</time>
   <time name="orth">    0.12    0.12</time>
   <time name="total">   13.06   13.08</time>
   <energy>
    <i name="e_fr_energy">   -100.76658134 </i>
    <i name="e_wo_entrp">   -100.76658134 </i>
    <i name="e_0_energy">   -100.76658134 </i>
   </energy>
  </scstep>
  <scstep>
   <time name="diag">    2.38    2.39</time>
   <time name="diis">    8.73    8.74</time>
   <time name="orth">    0.12    0.12</time>
   <time name="total">   12.34   12.36</time>
   <energy>
    <i name="e_fr_energy">   -111.41139827 </i>
    <i name="e_wo_entrp">   -111.41139827 </i>
    <i name="e_0_energy">   -111.41139827 </i>
   </energy>
  </scstep>
  <scstep>
   <time name="diag">    2.37    2.38</time>
   <time name="diis">    8.95    8.96</time>
   <time name="orth">    0.12    0.12</time>
   <time name="total">   12.59   12.61</time>
   <energy>
    <i name="e_fr_energy">   -185.77038674 </i>
    <i name="e_wo_entrp">   -185.77038674 </i>
    <i name="e_0_energy">   -185.77038674 </i>
   </energy>
  </scstep>
  <scstep>
   <time name="diag">    2.35    2.36</time>
   <time name="diis">    9.48    9.50</time>
   <time name="orth">    0.12    0.12</time>
   <time name="total">   13.05   13.07</time>
   <energy>
    <i name="e_fr_energy">   -402.19804152 </i>
    <i name="e_wo_entrp">   -402.19804152 </i>
    <i name="e_0_energy">   -402.19804152 </i>
   </energy>
  </scstep>
  <scstep>
   <time name="diag">    2.35    2.35</time>
   <time name="diis">    9.15    9.16</time>
   <time name="orth">    0.12    0.12</time>
   <time name="total">   12.77   12.79</time>
   <energy>
    <i name="e_fr_energy">   -101.06119534 </i>
    <i name="e_wo_entrp">   -101.06119534 </i>
    <i name="e_0_energy">   -101.06119534 </i>
   </energy>
  </scstep>
  <scstep>
   <time name="diag">    2.36    2.36</time>
   <time name="diis">    8.91    8.92</time>
   <time name="orth">    0.12    0.12</time>
   <time name="total">   12.53   12.55</time>
   <energy>
    <i name="e_fr_energy">   -123.06673166 </i>
    <i name="e_wo_entrp">   -123.06673166 </i>
    <i name="e_0_energy">   -123.06673166 </i>
   </energy>
  </scstep>
  <scstep>
   <time name="diag">    2.36    2.37</time>
   <time name="diis">    9.89    9.90</time>
   <time name="orth">    0.12    0.12</time>
   <time name="total">   13.47   13.49</time>
   <energy>
    <i name="e_fr_energy">   -292.18145687 </i>
    <i name="e_wo_entrp">   -292.18145687 </i>
    <i name="e_0_energy">   -292.18145687 </i>
   </energy>
  </scstep>
  <scstep>
   <time name="diag">    2.35    2.36</time>
   <time name="diis">    8.95    8.96</time>
   <time name="orth">    0.12    0.12</time>
   <time name="total">   11.75   11.76</time>
   <energy>
    <i name="alphaZ">    421.50278326 </i>
    <i name="ewald">  -6054.86498592 </i>
    <i name="hartreedc">  -3274.69891800 </i>
    <i name="XCdc">    392.35686476 </i>
    <i name="pawpsdc">   6664.11995014 </i>
    <i name="pawaedc">  -6609.92022068 </i>
    <i name="eentropy">      0.00000000 </i>
    <i name="bandstr">  -1253.10386747 </i>
    <i name="atom">   9608.91914622 </i>
    <i name="e_fr_energy">   -105.68924771 </i>
    <i name="e_wo_entrp">   -105.68924771 </i>
    <i name="e_0_energy">   -105.68924771 </i>
   </energy>
  </scstep>
  <v type="logical" name="LVDW"> F  </v>
  <structure>
   <crystal>
    <varray name="basis" >
     <v>      11.54400000       0.00000000       0.00000000 </v>
     <v>       0.00000000       3.57100000       0.00000000 </v>
     <v>       0.00000000       0.00000000       4.38300000 </v>
    </varray>
    <i name="volume">    180.68314399 </i>
    <varray name="rec_basis" >
     <v>       0.08662509       0.00000000       0.00000000 </v>
     <v>       0.00000000       0.28003360       0.00000000 </v>
     <v>       0.00000000       0.00000000       0.22815423 </v>
    </varray>
   </crystal>
   <varray name="positions" >
    <v>       0.10123000       0.75000000       0.89140000 </v>
    <v>       0.39877000       0.75000000       0.89140000 </v>
    <v>       0.89877000       0.25000000       0.10860000 </v>
    <v>       0.60123000       0.25000000       0.10860000 </v>
    <v>       0.93090000       0.75000000       0.00280000 </v>
    <v>       0.56910000       0.75000000       0.00280000 </v>
    <v>       0.06910000       0.25000000       0.99720000 </v>
    <v>       0.43090000       0.25000000       0.99720000 </v>
    <v>       0.60450000       0.75000000       0.53030000 </v>
    <v>       0.89550000       0.75000000       0.53030000 </v>
    <v>       0.39550000       0.25000000       0.46970000 </v>
    <v>       0.10450000       0.25000000       0.46970000 </v>
    <v>       0.25000000       0.75000000       0.99920000 </v>
    <v>       0.75000000       0.25000000       0.00080000 </v>
   </varray>
  </structure>
  <varray name="forces" >
   <v>       1.10443719       0.00000000      -2.23866598 </v>
   <v>      -1.10443719       0.00000000      -2.23866598 </v>
   <v>      -1.10443719       0.00000000       2.23866598 </v>
   <v>       1.10443719      -0.00000000       2.23866598 </v>
   <v>      -0.67587770       0.00000000      -0.74402474 </v>
   <v>       0.67587770       0.00000000      -0.74402474 </v>
   <v>       0.67587770      -0.00000000       0.74402474 </v>
   <v>      -0.67587770       0.00000000       0.74402474 </v>
   <v>      -0.62377062       0.00000000      -0.43671563 </v>
   <v>       0.62377062       0.00000000      -0.43671563 </v>
   <v>       0.62377062      -0.00000000       0.43671563 </v>
   <v>      -0.62377062       0.00000000       0.43671563 </v>
   <v>       0.00000000       0.00000000       0.26343486 </v>
   <v>      -0.00000000      -0.00000000      -0.26343486 </v>
  </varray>
  <varray name="stress" >
   <v>     -83.02362413       0.00000000       0.00000000 </v>
   <v>       0.00000000    -111.67560368       0.00000000 </v>
   <v>       0.00000000       0.00000000       8.32280521 </v>
  </varray>
  <energy>
   <i name="e_fr_energy">   -105.68924771 </i>
   <i name="e_wo_entrp">   -105.68924771 </i>
   <i name="e_0_energy">      0.00000000 </i>
  </energy>
  <time name="totalsc"> 1313.53 1317.34</time>
 </calculation>
 <calculation>
  <scstep>
   <time name="dav">   17.56   17.58</time>
   <time name="total">   18.64   18.67</time>
   <energy>
    <i name="alphaZ">    453.84716785 </i>
    <i name="ewald">  -6273.25614033 </i>
    <i name="hartreedc">  -3301.63235108 </i>
    <i name="XCdc">    397.64660471 </i>
    <i name="pawpsdc">   6799.45437636 </i>
    <i name="pawaedc">  -6724.80784115 </i>
    <i name="eentropy">      0.00000000 </i>
    <i name="bandstr">  -1099.60404386 </i>
    <i name="atom">   9608.91914622 </i>
    <i name="e_fr_energy">   -139.43308128 </i>
    <i name="e_wo_entrp">   -139.43308128 </i>
    <i name="e_0_energy">   -139.43308128 </i>
   </energy>
  </scstep>
  <scstep>
   <time name="diag">    2.37    2.37</time>
   <time name="diis">    8.96    8.97</time>
   <time name="orth">    0.12    0.12</time>
   <time name="total">   12.59   12.61</time>
   <energy>
    <i name="e_fr_energy">   -135.83975772 </i>
    <i name="e_wo_entrp">   -135.83975772 </i>
    <i name="e_0_energy">   -135.83975772 </i>
   </energy>
  </scstep>
  <scstep>
   <time name="diag">    2.35    2.35</time>
   <time name="diis">    9.55    9.56</time>
   <time name="orth">    0.12    0.12</time>
   <time name="total">   13.11   13.13</time>
   <energy>
    <i name="e_fr_energy">   -270.58962681 </i>
    <i name="e_wo_entrp">   -270.58962681 </i>
    <i name="e_0_energy">   -270.58962681 </i>
   </energy>
  </scstep>
  <scstep>
   <time name="diag">    2.35    2.35</time>
   <time name="diis">    8.92    8.93</time>
   <time name="orth">    0.12    0.12</time>
   <time name="total">   12.53   12.55</time>
   <energy>
    <i name="e_fr_energy">   -106.39336418 </i>
    <i name="e_wo_entrp">   -106.39336418 </i>
    <i name="e_0_energy">   -106.39336418 </i>
   </energy>
  </scstep>
  <scstep>
   <time name="diag">    2.36    2.36</time>
   <time name="diis">    9.02    9.03</time>
   <time name="orth">    0.12    0.12</time>
   <time name="total">   12.59   12.61</time>
   <energy>
    <i name="e_fr_energy">   -145.56648060 </i>
    <i name="e_wo_entrp">   -145.56648060 </i>
    <i name="e_0_energy">   -145.56648060 </i>
   </energy>
  </scstep>
  <scstep>
   <time name="diag">    2.35    2.36</time>
   <time name="diis">    9.00    9.01</time>
   <time name="orth">    0.12    0.12</time>
   <time name="total">   12.62   12.64</time>
   <energy>
    <i name="e_fr_energy">   -160.66044350 </i>
    <i name="e_wo_entrp">   -160.66044350 </i>
    <i name="e_0_energy">   -160.66044350 </i>
   </energy>
  </scstep>
  <scstep>
   <time name="diag">    2.36    2.36</time>
   <time name="diis">    9.91    9.92</time>
   <time name="orth">    0.12    0.12</time>
   <time name="total">   13.48   13.50</time>
   <energy>
    <i name="e_fr_energy">   -349.70109435 </i>
    <i name="e_wo_entrp">   -349.70109435 </i>
    <i name="e_0_energy">   -349.70109435 </i>
   </energy>
  </scstep>
  <scstep>
   <time name="diag">    2.36    2.36</time>
   <time name="diis">    9.38    9.39</time>
   <time name="orth">    0.12    0.12</time>
   <time name="total">   12.99   13.01</time>
   <energy>
    <i name="e_fr_energy">   -100.58255427 </i>
    <i name="e_wo_entrp">   -100.58255427 </i>
    <i name="e_0_energy">   -100.58255427 </i>
   </energy>
  </scstep>
  <scstep>
   <time name="diag">    2.36    2.36</time>
   <time name="diis">    9.01    9.02</time>
   <time name="orth">    0.12    0.12</time>
   <time name="total">   12.62   12.64</time>
   <energy>
    <i name="e_fr_energy">    -93.53990734 </i>
    <i name="e_wo_entrp">    -93.53990734 </i>
    <i name="e_0_energy">    -93.53990734 </i>
   </energy>
  </scstep>
  <scstep>
   <time name="diag">    2.35    2.35</time>
   <time name="diis">    8.97    8.98</time>
   <time name="orth">    0.12    0.12</time>
   <time name="total">   12.52   12.54</time>
   <energy>
    <i name="e_fr_energy">   -121.11896447 </i>
    <i name="e_wo_entrp">   -121.11896447 </i>
    <i name="e_0_energy">   -121.11896447 </i>
   </energy>
  </scstep>
  <scstep>
   <time name="diag">    2.37    2.37</time>
   <time name="diis">    8.83    8.84</time>
   <time name="orth">    0.12    0.12</time>
   <time name="total">   12.44   12.46</time>
   <energy>
    <i name="e_fr_energy">   -162.39861144 </i>
    <i name="e_wo_entrp">   -162.39861144 </i>
    <i name="e_0_energy">   -162.39861144 </i>
   </energy>
  </scstep>
  <scstep>
   <time name="diag">    2.36    2.36</time>
   <time name="diis">    9.68    9.70</time>
   <time name="orth">    0.12    0.12</time>
   <time name="total">   13.25   13.27</time>
   <energy>
    <i name="e_fr_energy">   -368.97692513 </i>
    <i name="e_wo_entrp">   -368.97692513 </i>
    <i name="e_0_energy">   -368.97692513 </i>
   </energy>
  </scstep>
  <scstep>
   <time name="diag">    2.35    2.35</time>
   <time name="diis">    9.35    9.36</time>
   <time name="orth">    0.12    0.12</time>
   <time name="total">   12.95   12.97</time>
   <energy>
    <i name="e_fr_energy">   -101.51228000 </i>
    <i name="e_wo_entrp">   -101.51228000 </i>
    <i name="e_0_energy">   -101.51228000 </i>
   </energy>
  </scstep>
  <scstep>
   <time name="diag">    2.35    2.36</time>
   <time name="diis">    8.95    8.96</time>
   <time name="orth">    0.12    0.12</time>
   <time name="total">   12.56   12.58</time>
   <energy>
    <i name="e_fr_energy">   -100.90568020 </i>
    <i name="e_wo_entrp">   -100.90568020 </i>
    <i name="e_0_energy">   -100.90568020 </i>
   </energy>
  </scstep>
  <scstep>
   <time name="diag">    2.35    2.36</time>
   <time name="diis">    9.68    9.70</time>
   <time name="orth">    0.12    0.12</time>
   <time name="total">   13.25   13.27</time>
   <energy>
    <i name="e_fr_energy">   -182.28869217 </i>
    <i name="e_wo_entrp">   -182.28869217 </i>
    <i name="e_0_energy">   -182.28869217 </i>
   </energy>
  </scstep>
  <scstep>
   <time name="diag">    2.35    2.35</time>
   <time name="diis">    8.98    9.00</time>
   <time name="orth">    0.12    0.12</time>
   <time name="total">   12.59   12.61</time>
   <energy>
    <i name="e_fr_energy">   -140.04176345 </i>
    <i name="e_wo_entrp">   -140.04176345 </i>
    <i name="e_0_energy">   -140.04176345 </i>
   </energy>
  </scstep>
  <scstep>
   <time name="diag">    2.35    2.35</time>
   <time name="diis">    9.71    9.72</time>
   <time name="orth">    0.12    0.12</time>
   <time name="total">   13.27   13.29</time>
   <energy>
    <i name="e_fr_energy">   -312.91806603 </i>
    <i name="e_wo_entrp">   -312.91806603 </i>
    <i name="e_0_energy">   -312.91806603 </i>
   </energy>
  </scstep>
  <scstep>
   <time name="diag">    2.35    2.35</time>
   <time name="diis">    9.10    9.12</time>
   <time name="orth">    0.12    0.12</time>
   <time name="total">   12.72   12.74</time>
   <energy>
    <i name="e_fr_energy">   -100.36308315 </i>
    <i name="e_wo_entrp">   -100.36308315 </i>
    <i name="e_0_energy">   -100.36308315 </i>
   </energy>
  </scstep>
  <scstep>
   <time name="diag">    2.35    2.35</time>
   <time name="diis">    8.73    8.75</time>
   <time name="orth">    0.12    0.12</time>
   <time name="total">   12.29   12.31</time>
   <energy>
    <i name="e_fr_energy">    -99.00835808 </i>
    <i name="e_wo_entrp">    -99.00835808 </i>
    <i name="e_0_energy">    -99.00835808 </i>
   </energy>
  </scstep>
  <scstep>
   <time name="diag">    2.34    2.35</time>
   <time name="diis">    8.97    8.98</time>
   <time name="orth">    0.12    0.12</time>
   <time name="total">   12.56   12.58</time>
   <energy>
    <i name="e_fr_energy">   -150.69325043 </i>
    <i name="e_wo_entrp">   -150.69325043 </i>
    <i name="e_0_energy">   -150.69325043 </i>
   </energy>
  </scstep>
  <scstep>
   <time name="diag">    2.35    2.35</time>
   <time name="diis">    9.65    9.67</time>
   <time name="orth">    0.12    0.12</time>
   <time name="total">   13.22   13.24</time>
   <energy>
    <i name="e_fr_energy">   -349.00388740 </i>
    <i name="e_wo_entrp">   -349.00388740 </i>
    <i name="e_0_energy">   -349.00388740 </i>
   </energy>
  </scstep>
  <scstep>
   <time name="diag">    2.35    2.36</time>
   <time name="diis">    9.36    9.37</time>
   <time name="orth">    0.12    0.12</time>
   <time name="total">   12.96   12.98</time>
   <energy>
    <i name="e_fr_energy">   -101.36615307 </i>
    <i name="e_wo_entrp">   -101.36615307 </i>
    <i name="e_0_energy">   -101.36615307 </i>
   </energy>
  </scstep>
  <scstep>
   <time name="diag">    2.36    2.36</time>
   <time name="diis">    9.25    9.26</time>
   <time name="orth">    0.12    0.12</time>
   <time name="total">   12.86   12.88</time>
   <energy>
    <i name="e_fr_energy">    -92.86104187 </i>
    <i name="e_wo_entrp">    -92.86104187 </i>
    <i name="e_0_energy">    -92.86104187 </i>
   </energy>
  </scstep>
  <scstep>
   <time name="diag">    2.36    2.36</time>
   <time name="diis">    9.09    9.10</time>
   <time name="orth">    0.12    0.12</time>
   <time name="total">   12.66   12.68</time>
   <energy>
    <i name="e_fr_energy">   -102.74378091 </i>
    <i name="e_wo_entrp">   -102.74378091 </i>
    <i name="e_0_energy">   -102.74378091 </i>
   </energy>
  </scstep>
  <scstep>
   <time name="diag">    2.35    2.36</time>
   <time name="diis">    9.09    9.10</time>
   <time name="orth">    0.12    0.12</time>
   <time name="total">   12.71   12.73</time>
   <energy>
    <i name="e_fr_energy">   -153.96256422 </i>
    <i name="e_wo_entrp">   -153.96256422 </i>
    <i name="e_0_energy">   -153.96256422 </i>
   </energy>
  </scstep>
  <scstep>
   <time name="diag">    2.37    2.38</time>
   <time name="diis">   10.06   10.08</time>
   <time name="orth">    0.12    0.12</time>
   <time name="total">   13.67   13.69</time>
   <energy>
    <i name="e_fr_energy">   -356.51254935 </i>
    <i name="e_wo_entrp">   -356.51254935 </i>
    <i name="e_0_energy">   -356.51254935 </i>
   </energy>
  </scstep>
  <scstep>
   <time name="diag">    2.36    2.36</time>
   <time name="diis">    8.98    8.99</time>
   <time name="orth">    0.12    0.12</time>
   <time name="total">   12.60   12.62</time>
   <energy>
    <i name="e_fr_energy">   -101.96001812 </i>
    <i name="e_wo_entrp">   -101.96001812 </i>
    <i name="e_0_energy">   -101.96001812 </i>
   </energy>
  </scstep>
  <scstep>
   <time name="diag">    2.35    2.35</time>
   <time name="diis">    9.05    9.07</time>
   <time name="orth">    0.12    0.12</time>
   <time name="total">   12.66   12.68</time>
   <energy>
    <i name="e_fr_energy">    -94.91394947 </i>
    <i name="e_wo_entrp">    -94.91394947 </i>
    <i name="e_0_energy">    -94.91394947 </i>
   </energy>
  </scstep>
  <scstep>
   <time name="diag">    2.35    2.35</time>
   <time name="diis">    8.91    8.92</time>
   <time name="orth">    0.12    0.12</time>
   <time name="total">   12.47   12.49</time>
   <energy>
    <i name="e_fr_energy">   -128.25607555 </i>
    <i name="e_wo_entrp">   -128.25607555 </i>
    <i name="e_0_energy">   -128.25607555 </i>
   </energy>
  </scstep>
  <scstep>
   <time name="diag">    2.34    2.35</time>
   <time name="diis">    8.88    8.89</time>
   <time name="orth">    0.12    0.12</time>
   <time name="total">   12.48   12.50</time>
   <energy>
    <i name="e_fr_energy">   -159.96210241 </i>
    <i name="e_wo_entrp">   -159.96210241 </i>
    <i name="e_0_energy">   -159.96210241 </i>
   </energy>
  </scstep>
  <scstep>
   <time name="diag">    2.35    2.36</time>
   <time name="diis">    9.91    9.93</time>
   <time name="orth">    0.12    0.12</time>
   <time name="total">   13.48   13.51</time>
   <energy>
    <i name="e_fr_energy">   -365.93208166 </i>
    <i name="e_wo_entrp">   -365.93208166 </i>
    <i name="e_0_energy">   -365.93208166 </i>
   </energy>
  </scstep>
  <scstep>
   <time name="diag">    2.35    2.35</time>
   <time name="diis">    9.36    9.37</time>
   <time name="orth">    0.12    0.12</time>
   <time name="total">   12.95   12.97</time>
   <energy>
    <i name="e_fr_energy">   -101.17197493 </i>
    <i name="e_wo_entrp">   -101.17197493 </i>
    <i name="e_0_energy">   -101.17197493 </i>
   </energy>
  </scstep>
  <scstep>
   <time name="diag">    2.35    2.35</time>
   <time name="diis">    8.99    9.00</time>
   <time name="orth">    0.12    0.12</time>
   <time name="total">   12.60   12.62</time>
   <energy>
    <i name="e_fr_energy">    -99.52264148 </i>
    <i name="e_wo_entrp">    -99.52264148 </i>
    <i name="e_0_energy">    -99.52264148 </i>
   </energy>
  </scstep>
  <scstep>
   <time name="diag">    2.35    2.35</time>
   <time name="diis">    9.73    9.75</time>
   <time name="orth">    0.12    0.12</time>
   <time name="total">   13.30   13.32</time>
   <energy>
    <i name="e_fr_energy">   -173.89562880 </i>
    <i name="e_wo_entrp">   -173.89562880 </i>
    <i name="e_0_energy">   -173.89562880 </i>
   </energy>
  </scstep>
  <scstep>
   <time name="diag">    2.35    2.35</time>
   <time name="diis">    8.94    8.95</time>
   <time name="orth">    0.12    0.12</time>
   <time name="total">   12.55   12.57</time>
   <energy>
    <i name="e_fr_energy">   -144.04766606 </i>
    <i name="e_wo_entrp">   -144.04766606 </i>
    <i name="e_0_energy">   -144.04766606 </i>
   </energy>
  </scstep>
  <scstep>
   <time name="diag">    2.35    2.35</time>
   <time name="diis">    9.60    9.61</time>
   <time name="orth">    0.12    0.12</time>
   <time name="total">   13.15   13.17</time>
   <energy>
    <i name="e_fr_energy">   -325.39557137 </i>
    <i name="e_wo_entrp">   -325.39557137 </i>
    <i name="e_0_energy">   -325.39557137 </i>
   </energy>
  </scstep>
  <scstep>
   <time name="diag">    2.37    2.37</time>
   <time name="diis">    9.12    9.13</time>
   <time name="orth">    0.12    0.12</time>
   <time name="total">   12.77   12.78</time>
   <energy>
    <i name="e_fr_energy">   -100.01087179 </i>
    <i name="e_wo_entrp">   -100.01087179 </i>
    <i name="e_0_energy">   -100.01087179 </i>
   </energy>
  </scstep>
  <scstep>
   <time name="diag">    2.35    2.36</time>
   <time name="diis">    9.06    9.07</time>
   <time name="orth">    0.12    0.12</time>
   <time name="total">   12.62   12.64</time>
   <energy>
    <i name="e_fr_energy">    -93.83045539 </i>
    <i name="e_wo_entrp">    -93.83045539 </i>
    <i name="e_0_energy">    -93.83045539 </i>
   </energy>
  </scstep>
  <scstep>
   <time name="diag">    2.35    2.36</time>
   <time name="diis">    9.04    9.05</time>
   <time name="orth">    0.12    0.12</time>
   <time name="total">   12.65   12.67</time>
   <energy>
    <i name="e_fr_energy">   -122.31034625 </i>
    <i name="e_wo_entrp">   -122.31034625 </i>
    <i name="e_0_energy">   -122.31034625 </i>
   </energy>
  </scstep>
  <scstep>
   <time name="diag">    2.35    2.36</time>
   <time name="diis">    9.86    9.87</time>
   <time name="orth">    0.12    0.12</time>
   <time name="total">   13.43   13.45</time>
   <energy>
    <i name="e_fr_energy">   -288.35542973 </i>
[...]
        <r>  0.0004  0.0002  0.0032  0.0009  0.0000  0.0000  0.0000  0.0000  0.0000 </r>
        <r>  0.0001  0.0027  0.0015  0.0012  0.0000  0.0000  0.0000  0.0000  0.0000 </r>
        <r>  0.0001  0.0027  0.0015  0.0012  0.0000  0.0000  0.0000  0.0000  0.0000 </r>
       </set>
       <set comment="band 62">
        <r>  0.0003  0.0000  0.0001  0.0029  0.0357  0.1096  0.0007  0.1116  0.0034 </r>
        <r>  0.0005  0.0000  0.0001  0.0027  0.0136  0.0424  0.0014  0.0959  0.0060 </r>
        <r>  0.0003  0.0000  0.0001  0.0029  0.0357  0.1096  0.0007  0.1115  0.0034 </r>
        <r>  0.0005  0.0000  0.0001  0.0027  0.0136  0.0424  0.0014  0.0958  0.0060 </r>
        <r>  0.0020  0.0001  0.0033  0.0034  0.0000  0.0000  0.0000  0.0000  0.0000 </r>
        <r>  0.0011  0.0001  0.0008  0.0041  0.0000  0.0000  0.0000  0.0000  0.0000 </r>
        <r>  0.0020  0.0001  0.0033  0.0034  0.0000  0.0000  0.0000  0.0000  0.0000 </r>
        <r>  0.0011  0.0001  0.0008  0.0041  0.0000  0.0000  0.0000  0.0000  0.0000 </r>
        <r>  0.0001  0.0001  0.0011  0.0007  0.0000  0.0000  0.0000  0.0000  0.0000 </r>
        <r>  0.0001  0.0001  0.0030  0.0011  0.0000  0.0000  0.0000  0.0000  0.0000 </r>
        <r>  0.0001  0.0001  0.0011  0.0007  0.0000  0.0000  0.0000  0.0000  0.0000 </r>
        <r>  0.0001  0.0001  0.0030  0.0011  0.0000  0.0000  0.0000  0.0000  0.0000 </r>
        <r>  0.0000  0.0013  0.0010  0.0060  0.0000  0.0000  0.0000  0.0000  0.0000 </r>
        <r>  0.0000  0.0013  0.0010  0.0060  0.0000  0.0000  0.0000  0.0000  0.0000 </r>
       </set>
       <set comment="band 63">
        <r>  0.0084  0.0001  0.0001  0.0003  0.0013  0.1120  0.0549  0.0738  0.0003 </r>
        <r>  0.0027  0.0000  0.0002  0.0001  0.0112  0.0407  0.0244  0.0779  0.0015 </r>
        <r>  0.0084  0.0001  0.0001  0.0003  0.0013  0.1120  0.0549  0.0738  0.0003 </r>
        <r>  0.0027  0.0000  0.0002  0.0001  0.0112  0.0407  0.0244  0.0779  0.0015 </r>
        <r>  0.0007  0.0016  0.0075  0.0007  0.0000  0.0000  0.0000  0.0000  0.0000 </r>
        <r>  0.0002  0.0005  0.0015  0.0010  0.0000  0.0000  0.0000  0.0000  0.0000 </r>
        <r>  0.0007  0.0016  0.0075  0.0007  0.0000  0.0000  0.0000  0.0000  0.0000 </r>
        <r>  0.0002  0.0005  0.0015  0.0010  0.0000  0.0000  0.0000  0.0000  0.0000 </r>
        <r>  0.0000  0.0003  0.0016  0.0004  0.0000  0.0000  0.0000  0.0000  0.0000 </r>
        <r>  0.0002  0.0016  0.0030  0.0015  0.0000  0.0000  0.0000  0.0000  0.0000 </r>
        <r>  0.0000  0.0003  0.0016  0.0004  0.0000  0.0000  0.0000  0.0000  0.0000 </r>
        <r>  0.0002  0.0016  0.0030  0.0015  0.0000  0.0000  0.0000  0.0000  0.0000 </r>
        <r>  0.0009  0.0011  0.0172  0.0001  0.0000  0.0000  0.0000  0.0000  0.0000 </r>
        <r>  0.0009  0.0011  0.0172  0.0001  0.0000  0.0000  0.0000  0.0000  0.0000 </r>
       </set>
       <set comment="band 64">
        <r>  0.0023  0.0000  0.0002  0.0001  0.0128  0.0203  0.0209  0.0843  0.0011 </r>
        <r>  0.0086  0.0001  0.0001  0.0002  0.0044  0.1284  0.0522  0.0734  0.0003 </r>
        <r>  0.0023  0.0000  0.0002  0.0001  0.0128  0.0203  0.0209  0.0843  0.0011 </r>
        <r>  0.0086  0.0001  0.0001  0.0002  0.0044  0.1284  0.0522  0.0734  0.0003 </r>
        <r>  0.0001  0.0004  0.0006  0.0008  0.0000  0.0000  0.0000  0.0000  0.0000 </r>
        <r>  0.0009  0.0017  0.0086  0.0007  0.0000  0.0000  0.0000  0.0000  0.0000 </r>
        <r>  0.0001  0.0004  0.0006  0.0008  0.0000  0.0000  0.0000  0.0000  0.0000 </r>
        <r>  0.0009  0.0017  0.0086  0.0007  0.0000  0.0000  0.0000  0.0000  0.0000 </r>
        <r>  0.0000  0.0015  0.0037  0.0014  0.0000  0.0000  0.0000  0.0000  0.0000 </r>
        <r>  0.0001  0.0005  0.0010  0.0007  0.0000  0.0000  0.0000  0.0000  0.0000 </r>
        <r>  0.0000  0.0015  0.0037  0.0014  0.0000  0.0000  0.0000  0.0000  0.0000 </r>
        <r>  0.0001  0.0005  0.0010  0.0007  0.0000  0.0000  0.0000  0.0000  0.0000 </r>
        <r>  0.0009  0.0020  0.0175  0.0002  0.0000  0.0000  0.0000  0.0000  0.0000 </r>
        <r>  0.0009  0.0020  0.0175  0.0002  0.0000  0.0000  0.0000  0.0000  0.0000 </r>
       </set>
       <set comment="band 65">
        <r>  0.0028  0.0000  0.0000  0.0015  0.0570  0.0678  0.0080  0.0597  0.0039 </r>
        <r>  0.0031  0.0000  0.0000  0.0014  0.0538  0.0685  0.0125  0.0562  0.0043 </r>
        <r>  0.0028  0.0000  0.0000  0.0015  0.0569  0.0677  0.0080  0.0597  0.0039 </r>
        <r>  0.0031  0.0000  0.0000  0.0014  0.0538  0.0685  0.0125  0.0562  0.0043 </r>
        <r>  0.0002  0.0007  0.0109  0.0114  0.0000  0.0000  0.0000  0.0000  0.0000 </r>
        <r>  0.0002  0.0008  0.0107  0.0104  0.0000  0.0000  0.0000  0.0000  0.0000 </r>
        <r>  0.0002  0.0007  0.0109  0.0114  0.0000  0.0000  0.0000  0.0000  0.0000 </r>
        <r>  0.0002  0.0008  0.0107  0.0104  0.0000  0.0000  0.0000  0.0000  0.0000 </r>
        <r>  0.0002  0.0008  0.0006  0.0006  0.0000  0.0000  0.0000  0.0000  0.0000 </r>
        <r>  0.0002  0.0004  0.0007  0.0008  0.0000  0.0000  0.0000  0.0000  0.0000 </r>
        <r>  0.0002  0.0008  0.0006  0.0006  0.0000  0.0000  0.0000  0.0000  0.0000 </r>
        <r>  0.0002  0.0004  0.0007  0.0008  0.0000  0.0000  0.0000  0.0000  0.0000 </r>
        <r>  0.0008  0.0000  0.0066  0.0009  0.0000  0.0000  0.0000  0.0000  0.0000 </r>
        <r>  0.0008  0.0000  0.0066  0.0009  0.0000  0.0000  0.0000  0.0000  0.0000 </r>
       </set>
       <set comment="band 66">
        <r>  0.0022  0.0000  0.0000  0.0009  0.0399  0.0971  0.0090  0.0512  0.0023 </r>
        <r>  0.0018  0.0000  0.0000  0.0010  0.0479  0.0799  0.0044  0.0542  0.0025 </r>
        <r>  0.0022  0.0000  0.0000  0.0009  0.0400  0.0972  0.0090  0.0512  0.0023 </r>
        <r>  0.0018  0.0000  0.0000  0.0010  0.0479  0.0800  0.0044  0.0542  0.0025 </r>
        <r>  0.0002  0.0005  0.0142  0.0117  0.0000  0.0000  0.0000  0.0000  0.0000 </r>
        <r>  0.0002  0.0005  0.0139  0.0124  0.0000  0.0000  0.0000  0.0000  0.0000 </r>
        <r>  0.0002  0.0005  0.0142  0.0117  0.0000  0.0000  0.0000  0.0000  0.0000 </r>
        <r>  0.0002  0.0005  0.0139  0.0123  0.0000  0.0000  0.0000  0.0000  0.0000 </r>
        <r>  0.0003  0.0003  0.0010  0.0009  0.0000  0.0000  0.0000  0.0000  0.0000 </r>
        <r>  0.0002  0.0002  0.0015  0.0004  0.0000  0.0000  0.0000  0.0000  0.0000 </r>
        <r>  0.0003  0.0003  0.0010  0.0009  0.0000  0.0000  0.0000  0.0000  0.0000 </r>
        <r>  0.0002  0.0002  0.0015  0.0004  0.0000  0.0000  0.0000  0.0000  0.0000 </r>
        <r>  0.0006  0.0000  0.0058  0.0013  0.0000  0.0000  0.0000  0.0000  0.0000 </r>
        <r>  0.0006  0.0000  0.0058  0.0013  0.0000  0.0000  0.0000  0.0000  0.0000 </r>
       </set>
       <set comment="band 67">
        <r>  0.0017  0.0002  0.0000  0.0004  0.1406  0.0467  0.0013  0.0056  0.0026 </r>
        <r>  0.0016  0.0002  0.0000  0.0007  0.1477  0.0441  0.0023  0.0058  0.0013 </r>
        <r>  0.0017  0.0002  0.0000  0.0004  0.1403  0.0466  0.0013  0.0056  0.0026 </r>
        <r>  0.0016  0.0002  0.0000  0.0007  0.1474  0.0440  0.0023  0.0059  0.0013 </r>
        <r>  0.0002  0.0004  0.0084  0.0095  0.0000  0.0000  0.0000  0.0000  0.0000 </r>
        <r>  0.0000  0.0004  0.0079  0.0082  0.0000  0.0000  0.0000  0.0000  0.0000 </r>
        <r>  0.0002  0.0004  0.0084  0.0095  0.0000  0.0000  0.0000  0.0000  0.0000 </r>
        <r>  0.0000  0.0004  0.0079  0.0082  0.0000  0.0000  0.0000  0.0000  0.0000 </r>
        <r>  0.0000  0.0005  0.0006  0.0006  0.0000  0.0000  0.0000  0.0000  0.0000 </r>
        <r>  0.0001  0.0006  0.0009  0.0008  0.0000  0.0000  0.0000  0.0000  0.0000 </r>
        <r>  0.0000  0.0005  0.0006  0.0006  0.0000  0.0000  0.0000  0.0000  0.0000 </r>
        <r>  0.0001  0.0006  0.0009  0.0008  0.0000  0.0000  0.0000  0.0000  0.0000 </r>
        <r>  0.0002  0.0260  0.0003  0.0002  0.0000  0.0000  0.0000  0.0000  0.0000 </r>
        <r>  0.0002  0.0259  0.0003  0.0002  0.0000  0.0000  0.0000  0.0000  0.0000 </r>
       </set>
       <set comment="band 68">
        <r>  0.0015  0.0002  0.0000  0.0006  0.1491  0.0425  0.0018  0.0076  0.0002 </r>
        <r>  0.0016  0.0002  0.0000  0.0003  0.1406  0.0464  0.0007  0.0072  0.0011 </r>
        <r>  0.0015  0.0002  0.0000  0.0006  0.1494  0.0426  0.0018  0.0076  0.0002 </r>
        <r>  0.0016  0.0002  0.0000  0.0003  0.1409  0.0464  0.0007  0.0072  0.0011 </r>
        <r>  0.0001  0.0005  0.0074  0.0095  0.0000  0.0000  0.0000  0.0000  0.0000 </r>
        <r>  0.0002  0.0005  0.0077  0.0109  0.0000  0.0000  0.0000  0.0000  0.0000 </r>
        <r>  0.0001  0.0005  0.0074  0.0095  0.0000  0.0000  0.0000  0.0000  0.0000 </r>
        <r>  0.0002  0.0005  0.0076  0.0109  0.0000  0.0000  0.0000  0.0000  0.0000 </r>
        <r>  0.0001  0.0002  0.0011  0.0006  0.0000  0.0000  0.0000  0.0000  0.0000 </r>
        <r>  0.0000  0.0003  0.0007  0.0007  0.0000  0.0000  0.0000  0.0000  0.0000 </r>
        <r>  0.0001  0.0002  0.0011  0.0006  0.0000  0.0000  0.0000  0.0000  0.0000 </r>
        <r>  0.0000  0.0003  0.0007  0.0007  0.0000  0.0000  0.0000  0.0000  0.0000 </r>
        <r>  0.0002  0.0253  0.0006  0.0003  0.0000  0.0000  0.0000  0.0000  0.0000 </r>
        <r>  0.0002  0.0253  0.0006  0.0003  0.0000  0.0000  0.0000  0.0000  0.0000 </r>
       </set>
       <set comment="band 69">
        <r>  0.0001  0.0007  0.0022  0.0022  0.0008  0.0001  0.0016  0.0015  0.1767 </r>
        <r>  0.0002  0.0007  0.0019  0.0023  0.0010  0.0001  0.0018  0.0019  0.1809 </r>
        <r>  0.0001  0.0007  0.0022  0.0022  0.0008  0.0001  0.0016  0.0015  0.1767 </r>
        <r>  0.0002  0.0007  0.0019  0.0023  0.0010  0.0001  0.0018  0.0019  0.1809 </r>
        <r>  0.0035  0.0138  0.0000  0.0101  0.0000  0.0000  0.0000  0.0000  0.0000 </r>
        <r>  0.0037  0.0143  0.0001  0.0103  0.0000  0.0000  0.0000  0.0000  0.0000 </r>
        <r>  0.0035  0.0138  0.0000  0.0101  0.0000  0.0000  0.0000  0.0000  0.0000 </r>
        <r>  0.0037  0.0143  0.0001  0.0103  0.0000  0.0000  0.0000  0.0000  0.0000 </r>
        <r>  0.0001  0.0022  0.0005  0.0001  0.0000  0.0000  0.0000  0.0000  0.0000 </r>
        <r>  0.0001  0.0026  0.0005  0.0001  0.0000  0.0000  0.0000  0.0000  0.0000 </r>
        <r>  0.0001  0.0022  0.0005  0.0001  0.0000  0.0000  0.0000  0.0000  0.0000 </r>
        <r>  0.0001  0.0026  0.0005  0.0001  0.0000  0.0000  0.0000  0.0000  0.0000 </r>
        <r>  0.0035  0.0021  0.0039  0.0006  0.0000  0.0000  0.0000  0.0000  0.0000 </r>
        <r>  0.0035  0.0021  0.0039  0.0006  0.0000  0.0000  0.0000  0.0000  0.0000 </r>
       </set>
       <set comment="band 70">
        <r>  0.0001  0.0005  0.0024  0.0019  0.0022  0.0005  0.0023  0.0020  0.1712 </r>
        <r>  0.0001  0.0005  0.0024  0.0020  0.0022  0.0008  0.0025  0.0018  0.1742 </r>
        <r>  0.0001  0.0005  0.0024  0.0019  0.0022  0.0005  0.0023  0.0020  0.1712 </r>
        <r>  0.0001  0.0005  0.0024  0.0020  0.0022  0.0008  0.0025  0.0018  0.1742 </r>
        <r>  0.0026  0.0142  0.0007  0.0148  0.0000  0.0000  0.0000  0.0000  0.0000 </r>
        <r>  0.0026  0.0144  0.0006  0.0150  0.0000  0.0000  0.0000  0.0000  0.0000 </r>
        <r>  0.0026  0.0142  0.0007  0.0148  0.0000  0.0000  0.0000  0.0000  0.0000 </r>
        <r>  0.0026  0.0144  0.0006  0.0150  0.0000  0.0000  0.0000  0.0000  0.0000 </r>
        <r>  0.0000  0.0028  0.0002  0.0003  0.0000  0.0000  0.0000  0.0000  0.0000 </r>
        <r>  0.0000  0.0028  0.0002  0.0002  0.0000  0.0000  0.0000  0.0000  0.0000 </r>
        <r>  0.0000  0.0028  0.0002  0.0003  0.0000  0.0000  0.0000  0.0000  0.0000 </r>
        <r>  0.0000  0.0028  0.0002  0.0002  0.0000  0.0000  0.0000  0.0000  0.0000 </r>
        <r>  0.0041  0.0001  0.0034  0.0017  0.0000  0.0000  0.0000  0.0000  0.0000 </r>
        <r>  0.0041  0.0001  0.0034  0.0017  0.0000  0.0000  0.0000  0.0000  0.0000 </r>
       </set>
       <set comment="band 71">
        <r>  0.0003  0.0006  0.0030  0.0087  0.0004  0.0013  0.0006  0.0074  0.1544 </r>
        <r>  0.0000  0.0006  0.0017  0.0085  0.0002  0.0003  0.0003  0.0077  0.1379 </r>
        <r>  0.0003  0.0006  0.0030  0.0087  0.0004  0.0013  0.0006  0.0074  0.1544 </r>
        <r>  0.0000  0.0006  0.0017  0.0085  0.0002  0.0003  0.0003  0.0077  0.1379 </r>
        <r>  0.0026  0.0178  0.0024  0.0073  0.0000  0.0000  0.0000  0.0000  0.0000 </r>
        <r>  0.0024  0.0169  0.0018  0.0058  0.0000  0.0000  0.0000  0.0000  0.0000 </r>
        <r>  0.0026  0.0178  0.0024  0.0073  0.0000  0.0000  0.0000  0.0000  0.0000 </r>
        <r>  0.0024  0.0169  0.0018  0.0058  0.0000  0.0000  0.0000  0.0000  0.0000 </r>
        <r>  0.0002  0.0009  0.0004  0.0011  0.0000  0.0000  0.0000  0.0000  0.0000 </r>
        <r>  0.0004  0.0021  0.0004  0.0014  0.0000  0.0000  0.0000  0.0000  0.0000 </r>
        <r>  0.0002  0.0009  0.0004  0.0011  0.0000  0.0000  0.0000  0.0000  0.0000 </r>
        <r>  0.0004  0.0021  0.0004  0.0014  0.0000  0.0000  0.0000  0.0000  0.0000 </r>
        <r>  0.0004  0.0009  0.0002  0.0279  0.0000  0.0000  0.0000  0.0000  0.0000 </r>
        <r>  0.0004  0.0009  0.0002  0.0279  0.0000  0.0000  0.0000  0.0000  0.0000 </r>
       </set>
       <set comment="band 72">
        <r>  0.0001  0.0002  0.0008  0.0079  0.0008  0.0003  0.0003  0.0080  0.1441 </r>
        <r>  0.0004  0.0003  0.0030  0.0076  0.0013  0.0011  0.0003  0.0087  0.1449 </r>
        <r>  0.0001  0.0002  0.0008  0.0079  0.0008  0.0003  0.0003  0.0080  0.1441 </r>
        <r>  0.0004  0.0003  0.0030  0.0076  0.0013  0.0011  0.0003  0.0087  0.1449 </r>
        <r>  0.0014  0.0195  0.0023  0.0103  0.0000  0.0000  0.0000  0.0000  0.0000 </r>
        <r>  0.0017  0.0175  0.0029  0.0107  0.0000  0.0000  0.0000  0.0000  0.0000 </r>
        <r>  0.0013  0.0195  0.0023  0.0103  0.0000  0.0000  0.0000  0.0000  0.0000 </r>
        <r>  0.0017  0.0175  0.0029  0.0107  0.0000  0.0000  0.0000  0.0000  0.0000 </r>
        <r>  0.0005  0.0028  0.0001  0.0007  0.0000  0.0000  0.0000  0.0000  0.0000 </r>
        <r>  0.0002  0.0008  0.0001  0.0001  0.0000  0.0000  0.0000  0.0000  0.0000 </r>
        <r>  0.0005  0.0028  0.0001  0.0007  0.0000  0.0000  0.0000  0.0000  0.0000 </r>
        <r>  0.0002  0.0008  0.0001  0.0001  0.0000  0.0000  0.0000  0.0000  0.0000 </r>
        <r>  0.0001  0.0005  0.0014  0.0304  0.0000  0.0000  0.0000  0.0000  0.0000 </r>
        <r>  0.0001  0.0005  0.0014  0.0304  0.0000  0.0000  0.0000  0.0000  0.0000 </r>
       </set>
       <set comment="band 73">
        <r>  0.0063  0.0001  0.0178  0.0002  0.0011  0.0016  0.0077  0.0022  0.0059 </r>
        <r>  0.0068  0.0000  0.0188  0.0007  0.0002  0.0016  0.0063  0.0012  0.0211 </r>
        <r>  0.0063  0.0001  0.0178  0.0002  0.0011  0.0016  0.0077  0.0022  0.0059 </r>
        <r>  0.0068  0.0000  0.0188  0.0007  0.0002  0.0016  0.0063  0.0012  0.0211 </r>
        <r>  0.0004  0.0000  0.0038  0.0006  0.0000  0.0000  0.0000  0.0000  0.0000 </r>
        <r>  0.0000  0.0038  0.0048  0.0015  0.0000  0.0000  0.0000  0.0000  0.0000 </r>
        <r>  0.0004  0.0000  0.0038  0.0006  0.0000  0.0000  0.0000  0.0000  0.0000 </r>
        <r>  0.0000  0.0038  0.0048  0.0015  0.0000  0.0000  0.0000  0.0000  0.0000 </r>
        <r>  0.0026  0.0258  0.0001  0.0008  0.0000  0.0000  0.0000  0.0000  0.0000 </r>
        <r>  0.0026  0.0254  0.0001  0.0009  0.0000  0.0000  0.0000  0.0000  0.0000 </r>
        <r>  0.0026  0.0258  0.0001  0.0008  0.0000  0.0000  0.0000  0.0000  0.0000 </r>
        <r>  0.0026  0.0254  0.0001  0.0009  0.0000  0.0000  0.0000  0.0000  0.0000 </r>
        <r>  0.0012  0.0004  0.0419  0.0018  0.0000  0.0000  0.0000  0.0000  0.0000 </r>
        <r>  0.0012  0.0004  0.0419  0.0018  0.0000  0.0000  0.0000  0.0000  0.0000 </r>
       </set>
       <set comment="band 74">
        <r>  0.0084  0.0001  0.0208  0.0005  0.0017  0.0004  0.0046  0.0015  0.0135 </r>
        <r>  0.0073  0.0001  0.0192  0.0000  0.0022  0.0004  0.0073  0.0020  0.0046 </r>
        <r>  0.0084  0.0001  0.0208  0.0005  0.0017  0.0004  0.0046  0.0015  0.0135 </r>
        <r>  0.0073  0.0001  0.0192  0.0000  0.0022  0.0004  0.0073  0.0020  0.0046 </r>
        <r>  0.0001  0.0019  0.0032  0.0008  0.0000  0.0000  0.0000  0.0000  0.0000 </r>
        <r>  0.0003  0.0000  0.0015  0.0004  0.0000  0.0000  0.0000  0.0000  0.0000 </r>
        <r>  0.0001  0.0019  0.0032  0.0008  0.0000  0.0000  0.0000  0.0000  0.0000 </r>
        <r>  0.0003  0.0000  0.0015  0.0004  0.0000  0.0000  0.0000  0.0000  0.0000 </r>
        <r>  0.0009  0.0272  0.0001  0.0031  0.0000  0.0000  0.0000  0.0000  0.0000 </r>
        <r>  0.0011  0.0275  0.0001  0.0033  0.0000  0.0000  0.0000  0.0000  0.0000 </r>
        <r>  0.0009  0.0272  0.0001  0.0031  0.0000  0.0000  0.0000  0.0000  0.0000 </r>
        <r>  0.0011  0.0275  0.0001  0.0033  0.0000  0.0000  0.0000  0.0000  0.0000 </r>
        <r>  0.0018  0.0001  0.0424  0.0009  0.0000  0.0000  0.0000  0.0000  0.0000 </r>
        <r>  0.0018  0.0001  0.0424  0.0009  0.0000  0.0000  0.0000  0.0000  0.0000 </r>
       </set>
       <set comment="band 75">
        <r>  0.0121  0.0001  0.0296  0.0004  0.0010  0.0013  0.0032  0.0049  0.0056 </r>
        <r>  0.0130  0.0002  0.0301  0.0006  0.0012  0.0011  0.0002  0.0047  0.0085 </r>
        <r>  0.0121  0.0001  0.0296  0.0004  0.0010  0.0013  0.0032  0.0049  0.0056 </r>
        <r>  0.0130  0.0002  0.0301  0.0006  0.0012  0.0011  0.0002  0.0047  0.0085 </r>
        <r>  0.0002  0.0008  0.0024  0.0001  0.0000  0.0000  0.0000  0.0000  0.0000 </r>
        <r>  0.0002  0.0014  0.0037  0.0000  0.0000  0.0000  0.0000  0.0000  0.0000 </r>
        <r>  0.0002  0.0008  0.0024  0.0001  0.0000  0.0000  0.0000  0.0000  0.0000 </r>
        <r>  0.0002  0.0014  0.0037  0.0000  0.0000  0.0000  0.0000  0.0000  0.0000 </r>
        <r>  0.0021  0.0328  0.0002  0.0030  0.0000  0.0000  0.0000  0.0000  0.0000 </r>
        <r>  0.0020  0.0342  0.0002  0.0029  0.0000  0.0000  0.0000  0.0000  0.0000 </r>
        <r>  0.0021  0.0328  0.0002  0.0030  0.0000  0.0000  0.0000  0.0000  0.0000 </r>
        <r>  0.0020  0.0341  0.0002  0.0029  0.0000  0.0000  0.0000  0.0000  0.0000 </r>
        <r>  0.0002  0.0005  0.0048  0.0023  0.0000  0.0000  0.0000  0.0000  0.0000 </r>
        <r>  0.0002  0.0005  0.0048  0.0023  0.0000  0.0000  0.0000  0.0000  0.0000 </r>
       </set>
      </set>
     </set>
    </set>
   </array>
  </projected>
 </calculation>
 <structure name="finalpos" >
  <crystal>
   <varray name="basis" >
    <v>      11.54278775       0.00000000       0.00000000 </v>
    <v>       0.00000000       3.57049559       0.00000000 </v>
    <v>       0.00000000       0.00000000       4.38304614 </v>
   </varray>
   <i name="volume">    180.64055290 </i>
   <varray name="rec_basis" >
    <v>       0.08663418       0.00000000       0.00000000 </v>
    <v>       0.00000000       0.28007316      -0.00000000 </v>
    <v>       0.00000000       0.00000000       0.22815183 </v>
   </varray>
  </crystal>
  <varray name="positions" >
   <v>       0.10112838       0.75000000       0.89125918 </v>
   <v>       0.39887162       0.75000000       0.89125918 </v>
   <v>       0.89887162       0.25000000       0.10874082 </v>
   <v>       0.60112838       0.25000000       0.10874082 </v>
   <v>       0.93096219       0.75000000       0.00275320 </v>
   <v>       0.56903781       0.75000000       0.00275320 </v>
   <v>       0.06903781       0.25000000      -0.00275320 </v>
   <v>       0.43096219       0.25000000      -0.00275320 </v>
   <v>       0.60455739       0.75000000       0.53027253 </v>
   <v>       0.89544261       0.75000000       0.53027253 </v>
   <v>       0.39544261       0.25000000       0.46972747 </v>
   <v>       0.10455739       0.25000000       0.46972747 </v>
   <v>       0.25000000       0.75000000      -0.00078343 </v>
   <v>       0.75000000       0.25000000       0.00078343 </v>
  </varray>
 </structure>
</modeling>
