<?xml version="1.0" encoding="ISO-8859-1"?>
<modeling>
 <generator>
  <i name="program" type="string">vasp </i>
  <i name="version" type="string">6.0.8  </i>
  <i name="subversion" type="string">29Jun18 (build Jun 13 2019 12:54:56) complex                          parallel </i>
  <i name="platform" type="string">IFC18_CrayMPICH </i>
  <i name="date" type="string">2019 07 03 </i>
  <i name="time" type="string">14:45:30 </i>
 </generator>
 <incar>
  <i type="int" name="NCORE">     8</i>
  <i type="string" name="SYSTEM"> Li6Bi2O7</i>
  <i type="int" name="ISTART">     1</i>
  <i type="string" name="PREC"> Accurate  ! Precision level</i>
  <i type="int" name="IALGO">    53</i>
  <i type="string" name="ALGO"> All      ! SCF Combo</i>
  <i type="logical" name="LDIAG"> T  </i>
  <i type="logical" name="LSORBIT"> T  </i>
  <i type="int" name="ISPIN">     2</i>
  <i type="int" name="INIWAV">     1</i>
  <i type="int" name="NELM">   200</i>
  <i type="int" name="NELMIN">     6</i>
  <i type="int" name="IBRION">     2</i>
  <i name="EDIFF">      0.00000010</i>
  <i name="EDIFFG">     -0.00500000</i>
  <i type="int" name="NSW">     0</i>
  <i type="int" name="ISIF">     3</i>
  <i type="int" name="ISYM">    -1</i>
  <i name="ENCUT">    650.00000000</i>
  <i type="int" name="NBANDS">   384</i>
  <i type="int" name="NEDOS">  2000</i>
  <i type="logical" name="LREAL"> F  </i>
  <i name="TIME">      0.30000000</i>
  <i type="int" name="ISMEAR">    -5</i>
  <i name="SIGMA">      0.01000000</i>
  <i type="int" name="NWRITE">     2</i>
  <i type="logical" name="LOPTICS"> T  </i>
  <i type="logical" name="LASPH"> T  </i>
  <i type="int" name="ICORELEVEL">     1</i>
  <i type="string" name="ALGO"> All      ! SCF Combo</i>
  <i type="int" name="NELM">   200</i>
  <i name="HFSCREEN">      0.20700000</i>
  <i type="logical" name="LHFCALC"> T  </i>
  <i type="string" name="GGA"> PE        ! PBEsol exchange-correlation</i>
  <i type="int" name="ISIF">     3</i>
  <i type="int" name="ISYM">    -1</i>
  <i name="HFSCREEN">      0.20700000</i>
  <i name="AEXX">      0.25000000</i>
  <i type="string" name="PRECFOCK"> F</i>
  <i name="EDIFF">      0.00000010</i>
  <i type="logical" name="LASPH"> T  </i>
  <i type="int" name="ISPIN">     2</i>
  <i type="logical" name="LSORBIT"> T  </i>
 </incar>
 <structure name="primitive_cell" >
  <crystal>
   <varray name="basis" >
    <v>       5.54368872       0.00000000       0.00097366 </v>
    <v>       0.00000000       6.07261634       0.00000000 </v>
    <v>      -1.94241631       0.00000000      10.08266628 </v>
   </varray>
   <i name="volume">    339.44136677 </i>
   <varray name="rec_basis" >
    <v>       0.18037921       0.00000000       0.03474989 </v>
    <v>       0.00000000       0.16467367       0.00000000 </v>
    <v>      -0.00001742       0.00000000       0.09917676 </v>
   </varray>
  </crystal>
  <varray name="positions" >
   <v>       0.72526798       0.99336499       0.35601049 </v>
   <v>       0.78755946       0.99880507       0.11855268 </v>
   <v>       0.27473202       0.49336499       0.64398951 </v>
   <v>       0.21244054       0.49880507       0.88144732 </v>
   <v>       0.93868724       0.78611823       0.61712046 </v>
   <v>       0.59317839       0.21861708       0.90141957 </v>
   <v>       0.06131276       0.28611823       0.38287954 </v>
   <v>       0.40682161       0.71861708       0.09858043 </v>
   <v>       0.41280831       0.25361642       0.12471332 </v>
   <v>       0.09600208       0.76224377       0.38797207 </v>
   <v>       0.58719169       0.75361642       0.87528668 </v>
   <v>       0.90399792       0.26224377       0.61202793 </v>
   <v>       0.10882626       0.98009557       0.88030157 </v>
   <v>       0.39581426       0.01907584       0.60511735 </v>
   <v>       0.89117374       0.48009557       0.11969843 </v>
   <v>       0.60418574       0.51907584       0.39488265 </v>
   <v>       0.74793098       0.24448349       0.24069838 </v>
   <v>       0.79040006       0.74297740       0.23340037 </v>
   <v>       0.25206902       0.74448349       0.75930162 </v>
   <v>       0.20959994       0.24297740       0.76659963 </v>
   <v>       0.45469708       0.99342647       0.00312662 </v>
   <v>       0.01636307       0.03247921       0.49666074 </v>
   <v>       0.54530292       0.49342647       0.99687338 </v>
   <v>       0.98363693       0.53247921       0.50333926 </v>
   <v>       0.46553227       0.84586001       0.42589702 </v>
   <v>       0.94984000       0.19485029       0.00195559 </v>
   <v>       0.53446773       0.34586001       0.57410298 </v>
   <v>       0.05016000       0.69485029       0.99804441 </v>
   <v>       0.76850286       0.93316417       0.76026165 </v>
   <v>       0.23149714       0.43316417       0.23973835 </v>
  </varray>
 </structure>
 <varray name="primitive_index" >
  <v type="int" >        1 </v>
  <v type="int" >        2 </v>
  <v type="int" >        3 </v>
  <v type="int" >        4 </v>
  <v type="int" >        5 </v>
  <v type="int" >        6 </v>
  <v type="int" >        7 </v>
  <v type="int" >        8 </v>
  <v type="int" >        9 </v>
  <v type="int" >       10 </v>
  <v type="int" >       11 </v>
  <v type="int" >       12 </v>
  <v type="int" >       13 </v>
  <v type="int" >       14 </v>
  <v type="int" >       15 </v>
  <v type="int" >       16 </v>
  <v type="int" >       17 </v>
  <v type="int" >       18 </v>
  <v type="int" >       19 </v>
  <v type="int" >       20 </v>
  <v type="int" >       21 </v>
  <v type="int" >       22 </v>
  <v type="int" >       23 </v>
  <v type="int" >       24 </v>
  <v type="int" >       25 </v>
  <v type="int" >       26 </v>
  <v type="int" >       27 </v>
  <v type="int" >       28 </v>
  <v type="int" >       29 </v>
  <v type="int" >       30 </v>
 </varray>
 <kpoints>
  <generation param="Gamma">
   <v type="int" name="divisions">       2        2        2 </v>
   <v name="usershift">      0.00000000       0.00000000       0.00000000 </v>
   <v name="genvec1">      0.50000000       0.00000000       0.00000000 </v>
   <v name="genvec2">      0.00000000       0.50000000       0.00000000 </v>
   <v name="genvec3">      0.00000000       0.00000000       0.50000000 </v>
   <v name="shift">      0.00000000       0.00000000       0.00000000 </v>
  </generation>
  <varray name="kpointlist" >
   <v>       0.00000000       0.00000000       0.00000000 </v>
   <v>       0.50000000       0.00000000       0.00000000 </v>
   <v>       0.00000000       0.50000000       0.00000000 </v>
   <v>       0.50000000       0.50000000       0.00000000 </v>
   <v>      -0.00000000       0.00000000       0.50000000 </v>
   <v>       0.50000000       0.00000000       0.50000000 </v>
   <v>      -0.00000000       0.50000000       0.50000000 </v>
   <v>       0.50000000       0.50000000       0.50000000 </v>
  </varray>
  <varray name="weights" >
   <v>       0.12500000 </v>
   <v>       0.12500000 </v>
   <v>       0.12500000 </v>
   <v>       0.12500000 </v>
   <v>       0.12500000 </v>
   <v>       0.12500000 </v>
   <v>       0.12500000 </v>
   <v>       0.12500000 </v>
  </varray>
  <varray name="tetrahedronlist"  type="int" >
   <v type="int" >        2        1        2        4        5 </v>
   <v type="int" >        2        1        3        4        5 </v>
   <v type="int" >        2        3        4        5        7 </v>
   <v type="int" >        2        2        4        5        6 </v>
   <v type="int" >        2        4        5        6        8 </v>
   <v type="int" >        2        4        5        7        8 </v>
   <v type="int" >        2        1        2        3        6 </v>
   <v type="int" >        2        2        3        4        6 </v>
   <v type="int" >        2        3        4        6        8 </v>
   <v type="int" >        2        1        3        5        6 </v>
   <v type="int" >        2        3        5        6        7 </v>
   <v type="int" >        2        3        6        7        8 </v>
   <v type="int" >        2        2        3        4        7 </v>
   <v type="int" >        2        1        2        3        7 </v>
   <v type="int" >        2        1        2        5        7 </v>
   <v type="int" >        2        2        4        7        8 </v>
   <v type="int" >        2        2        6        7        8 </v>
   <v type="int" >        2        2        5        6        7 </v>
   <v type="int" >        2        1        3        4        8 </v>
   <v type="int" >        2        1        2        4        8 </v>
   <v type="int" >        2        1        2        6        8 </v>
   <v type="int" >        2        1        3        7        8 </v>
   <v type="int" >        2        1        5        7        8 </v>
   <v type="int" >        2        1        5        6        8 </v>
  </varray>
  <i name="volumeweight">      0.02083333 </i>
 </kpoints>
 <parameters>
  <separator name="general" >
   <i type="string" name="SYSTEM">Li6Bi2O7</i>
   <i type="logical" name="LCOMPAT"> F  </i>
  </separator>
  <separator name="electronic" >
   <i type="string" name="PREC">accura</i>
   <i name="ENMAX">    650.00000000</i>
   <i name="ENAUG">    628.94500000</i>
   <i name="EDIFF">      0.00000010</i>
   <i type="int" name="IALGO">    58</i>
   <i type="int" name="IWAVPR">    10</i>
   <i type="int" name="NBANDS">   384</i>
   <i type="int" name="NBANDSLOW">    -1</i>
   <i type="int" name="NBANDSHIGH">    -1</i>
   <i name="NELECT">    180.00000000</i>
   <i type="int" name="TURBO">     0</i>
   <i type="int" name="IRESTART">     0</i>
   <i type="int" name="NREBOOT">     0</i>
   <i type="int" name="NMIN">     0</i>
   <i name="EREF">      0.00000000</i>
   <separator name="electronic smearing" >
    <i type="int" name="ISMEAR">    -5</i>
    <i name="SIGMA">      0.01000000</i>
    <i name="KSPACING">      0.50000000</i>
    <i type="logical" name="KGAMMA"> T  </i>
    <i type="logical" name="KBLOWUP"> T  </i>
   </separator>
   <separator name="electronic projectors" >
    <i type="logical" name="LREAL"> F  </i>
    <v name="ROPT">      0.00000000      0.00000000      0.00000000</v>
    <i type="int" name="LMAXPAW">  -100</i>
    <i type="int" name="LMAXMIX">     2</i>
    <i type="logical" name="NLSPLINE"> F  </i>
   </separator>
   <separator name="electronic startup" >
    <i type="int" name="ISTART">     0</i>
    <i type="int" name="ICHARG">     2</i>
    <i type="int" name="INIWAV">     1</i>
   </separator>
   <separator name="electronic spin" >
    <i type="int" name="ISPIN">     1</i>
    <i type="logical" name="LNONCOLLINEAR"> T  </i>
    <v name="MAGMOM">      1.00000000      1.00000000      1.00000000      1.00000000      1.00000000      1.00000000      1.00000000      1.00000000      1.00000000      1.00000000      1.00000000      1.00000000      1.00000000      1.00000000      1.00000000      1.00000000      1.00000000      1.00000000      1.00000000      1.00000000
      1.00000000      1.00000000      1.00000000      1.00000000      1.00000000      1.00000000      1.00000000      1.00000000      1.00000000      1.00000000      1.00000000      1.00000000      1.00000000      1.00000000      1.00000000      1.00000000      1.00000000      1.00000000      1.00000000      1.00000000
      1.00000000      1.00000000      1.00000000      1.00000000      1.00000000      1.00000000      1.00000000      1.00000000      1.00000000      1.00000000      1.00000000      1.00000000      1.00000000      1.00000000      1.00000000      1.00000000      1.00000000      1.00000000      1.00000000      1.00000000
      1.00000000      1.00000000      1.00000000      1.00000000      1.00000000      1.00000000      1.00000000      1.00000000      1.00000000      1.00000000      1.00000000      1.00000000      1.00000000      1.00000000      1.00000000      1.00000000      1.00000000      1.00000000      1.00000000      1.00000000
      1.00000000      1.00000000      1.00000000      1.00000000      1.00000000      1.00000000      1.00000000      1.00000000      1.00000000      1.00000000</v>
    <i name="NUPDOWN">     -1.00000000</i>
    <i type="logical" name="LSORBIT"> T  </i>
    <v name="SAXIS">      0.00000000      0.00000000      1.00000000</v>
    <i type="logical" name="LSPIRAL"> F  </i>
    <v name="QSPIRAL">      0.00000000      0.00000000      0.00000000</v>
    <i type="logical" name="LZEROZ"> F  </i>
   </separator>
   <separator name="electronic exchange-correlation" >
    <i type="logical" name="LASPH"> T  </i>
    <i type="logical" name="LMETAGGA"> F  </i>
   </separator>
   <separator name="electronic convergence" >
    <i type="int" name="NELM">   200</i>
    <i type="int" name="NELMDL">     0</i>
    <i type="int" name="NELMIN">     6</i>
    <i name="ENINI">    650.00000000</i>
    <separator name="electronic convergence detail" >
     <i type="logical" name="LDIAG"> T  </i>
     <i type="logical" name="LSUBROT"> F  </i>
     <i name="WEIMIN">      0.00000000</i>
     <i name="EBREAK">      0.00000000</i>
     <i name="DEPER">      0.30000000</i>
     <i type="int" name="NRMM">     4</i>
     <i name="TIME">      0.30000000</i>
    </separator>
   </separator>
   <separator name="electronic mixer" >
    <i name="AMIX">      0.40000000</i>
    <i name="BMIX">      1.00000000</i>
    <i name="AMIN">      0.10000000</i>
    <i name="AMIX_MAG">      1.60000000</i>
    <i name="BMIX_MAG">      1.00000000</i>
    <separator name="electronic mixer details" >
     <i type="int" name="IMIX">     4</i>
     <i type="logical" name="MIXFIRST"> F  </i>
     <i type="int" name="MAXMIX">   -45</i>
     <i name="WC">    100.00000000</i>
     <i type="int" name="INIMIX">     1</i>
     <i type="int" name="MIXPRE">     1</i>
     <i type="int" name="MREMOVE">     5</i>
    </separator>
   </separator>
   <separator name="electronic dipolcorrection" >
    <i type="logical" name="LDIPOL"> F  </i>
    <i type="logical" name="LMONO"> F  </i>
    <i type="int" name="IDIPOL">     0</i>
    <i name="EPSILON">      1.00000000</i>
    <v name="DIPOL">   -100.00000000   -100.00000000   -100.00000000</v>
    <i name="EFIELD">      0.00000000</i>
   </separator>
  </separator>
  <separator name="grids" >
   <i type="int" name="NGX">    48</i>
   <i type="int" name="NGY">    50</i>
   <i type="int" name="NGZ">    90</i>
   <i type="int" name="NGXF">    96</i>
   <i type="int" name="NGYF">   100</i>
   <i type="int" name="NGZF">   180</i>
   <i type="logical" name="ADDGRID"> F  </i>
  </separator>
  <separator name="ionic" >
   <i type="int" name="NSW">     0</i>
   <i type="int" name="IBRION">    -1</i>
   <i type="int" name="MDALGO">     0</i>
   <i type="int" name="ISIF">     3</i>
   <i name="PSTRESS">      0.00000000</i>
   <i name="EDIFFG">     -0.00500000</i>
   <i type="int" name="NFREE">     1</i>
   <i name="POTIM">      0.50000000</i>
   <i name="SMASS">     -3.00000000</i>
   <i name="SCALEE">      1.00000000</i>
  </separator>
  <separator name="ionic md" >
   <i name="TEBEG">      0.00010000</i>
   <i name="TEEND">      0.00010000</i>
   <i type="int" name="NBLOCK">     1</i>
   <i type="int" name="KBLOCK">     1</i>
   <i type="int" name="NPACO">   256</i>
   <i name="APACO">     16.00000000</i>
  </separator>
  <separator name="symmetry" >
   <i type="int" name="ISYM">    -1</i>
   <i name="SYMPREC">      0.00001000</i>
  </separator>
  <separator name="dos" >
   <i type="int" name="LORBIT">     0</i>
   <v name="RWIGS">     -1.00000000     -1.00000000     -1.00000000</v>
   <i type="int" name="NEDOS">  2000</i>
   <i name="EMIN">     10.00000000</i>
   <i name="EMAX">    -10.00000000</i>
   <i name="EFERMI">      0.00000000</i>
  </separator>
  <separator name="writing" >
   <i type="int" name="NWRITE">     2</i>
   <i type="logical" name="LWAVE"> T  </i>
   <i type="logical" name="LDOWNSAMPLE"> F  </i>
   <i type="logical" name="LCHARG"> T  </i>
   <i type="logical" name="LPARD"> F  </i>
   <i type="logical" name="LVTOT"> F  </i>
   <i type="logical" name="LVHAR"> F  </i>
   <i type="logical" name="LELF"> F  </i>
   <i type="logical" name="LOPTICS"> T  </i>
   <v name="STM">      0.00000000      0.00000000      0.00000000      0.00000000      0.00000000      0.00000000      0.00000000</v>
  </separator>
  <separator name="performance" >
   <i type="int" name="NPAR">   128</i>
   <i type="int" name="NSIM">     4</i>
   <i type="int" name="NBLK">    -1</i>
   <i type="logical" name="LPLANE"> T  </i>
   <i type="logical" name="LSCALAPACK"> T  </i>
   <i type="logical" name="LSCAAWARE"> T  </i>
   <i type="logical" name="LSCALU"> F  </i>
   <i type="logical" name="LASYNC"> F  </i>
   <i type="logical" name="LORBITALREAL"> F  </i>
  </separator>
  <separator name="miscellaneous" >
   <i type="int" name="IDIOT">     3</i>
   <i type="int" name="PHON_NSTRUCT">    -1</i>
   <i type="logical" name="LMUSIC"> F  </i>
   <v name="POMASS">      7.01000000    208.98000000     16.00000000</v>
   <v name="DARWINR">      0.00000000      0.00000000      0.00000000</v>
   <v name="DARWINV">      1.00000000      1.00000000      1.00000000</v>
   <i type="logical" name="LCORR"> T  </i>
  </separator>
  <i type="logical" name="GGA_COMPAT"> T  </i>
  <i type="logical" name="LBERRY"> F  </i>
  <i type="int" name="ICORELEVEL">     1</i>
  <i type="int" name="CLNT">     1</i>
  <i type="int" name="CLN">     1</i>
  <i type="int" name="CLL">     0</i>
  <i name="CLZ">      0.00000000</i>
  <i type="logical" name="LDAU"> F  </i>
  <i type="int" name="I_CONSTRAINED_M">     0</i>
  <separator name="electronic exchange-correlation" >
   <i type="string" name="GGA">PE</i>
   <i type="int" name="VOSKOWN">     0</i>
   <i type="logical" name="LHFCALC"> T  </i>
   <i type="string" name="PRECFOCK">fast</i>
   <i type="logical" name="LSYMGRAD"> F  </i>
   <i type="logical" name="LHFONE"> F  </i>
   <i type="logical" name="LRHFCALC"> F  </i>
   <i type="logical" name="LTHOMAS"> F  </i>
   <i type="logical" name="LMODELHF"> F  </i>
   <i type="logical" name="LFOCKACE"> F  </i>
   <i name="ENCUT4O">     -1.00000000</i>
   <i type="int" name="EXXOEP">     0</i>
   <i type="int" name="FOURORBIT">     0</i>
   <i name="AEXX">      0.25000000</i>
   <i name="HFALPHA">     -1.00000000</i>
   <i name="MCALPHA">      0.00000000</i>
   <i name="ALDAX">      0.75000000</i>
   <i name="AGGAX">      0.75000000</i>
   <i name="ALDAC">      1.00000000</i>
   <i name="AGGAC">      1.00000000</i>
   <i type="int" name="NKREDX">     1</i>
   <i type="int" name="NKREDY">     1</i>
   <i type="int" name="NKREDZ">     1</i>
   <i type="logical" name="SHIFTRED"> F  </i>
   <i type="logical" name="ODDONLY"> F  </i>
   <i type="logical" name="EVENONLY"> F  </i>
   <i type="int" name="LMAXFOCK">     4</i>
   <i type="int" name="NMAXFOCKAE">     1</i>
   <i type="logical" name="LFOCKAEDFT"> F  </i>
   <i name="HFSCREEN">      0.20700000</i>
   <i name="HFSCREENC">      0.20700000</i>
   <i type="int" name="NBANDSGWLOW">     1</i>
  </separator>
  <separator name="vdW DFT" >
   <i type="logical" name="LUSE_VDW"> F  </i>
   <i name="Zab_VDW">     -0.84910000</i>
   <i name="PARAM1">      0.12340000</i>
   <i name="PARAM2">      1.00000000</i>
   <i name="PARAM3">      0.00000000</i>
  </separator>
  <separator name="model GW" >
   <i type="int" name="MODEL_GW">     0</i>
   <i name="MODEL_EPS0">      6.78882734</i>
   <i name="MODEL_ALPHA">      1.00000000</i>
  </separator>
  <separator name="linear response parameters" >
   <i type="logical" name="LEPSILON"> F  </i>
   <i type="logical" name="LRPA"> F  </i>
   <i type="logical" name="LNABLA"> F  </i>
   <i type="logical" name="LVEL"> F  </i>
   <i type="int" name="KINTER">     0</i>
   <i name="CSHIFT">      0.10000000</i>
   <i name="OMEGAMAX">     -1.00000000</i>
   <i name="DEG_THRESHOLD">      0.00200000</i>
   <i name="RTIME">     -0.10000000</i>
   <i name="WPLASMAI">      0.00000000</i>
   <v name="DFIELD">      0.00000000      0.00000000      0.00000000</v>
   <v name="WPLASMA">      0.00000000      0.00000000      0.00000000      0.00000000      0.00000000      0.00000000      0.00000000      0.00000000      0.00000000</v>
  </separator>
  <separator name="orbital magnetization" >
   <i type="logical" name="NUCIND"> F  </i>
   <v name="MAGPOS">      0.00000000      0.00000000      0.00000000</v>
   <i type="logical" name="LNICSALL"> T  </i>
   <i type="logical" name="ORBITALMAG"> F  </i>
   <i type="logical" name="LMAGBLOCH"> F  </i>
   <i type="logical" name="LCHIMAG"> F  </i>
   <i type="logical" name="LGAUGE"> T  </i>
   <i type="int" name="MAGATOM">     0</i>
   <v name="MAGDIPOL">      0.00000000      0.00000000      0.00000000</v>
   <v name="AVECCONST">      0.00000000      0.00000000      0.00000000</v>
  </separator>
  <separator name="response functions" >
   <i type="logical" name="LFINITE_TEMPERATURE"> F  </i>
   <i type="logical" name="LADDER"> F  </i>
   <i type="logical" name="LRPAFORCE"> F  </i>
   <i type="logical" name="LFXC"> F  </i>
   <i type="logical" name="LHARTREE"> T  </i>
   <i type="int" name="IBSE">     0</i>
   <v type="int" name="KPOINT">    -1     0     0     0</v>
   <i type="logical" name="LTCTC"> F  </i>
   <i type="logical" name="LTCTE"> F  </i>
   <i type="logical" name="LTETE"> F  </i>
   <i type="logical" name="LTRIPLET"> F  </i>
   <i type="logical" name="LFXCEPS"> F  </i>
   <i type="logical" name="LFXHEG"> F  </i>
   <i type="int" name="NATURALO">     2</i>
   <i type="logical" name="L2ORDER"> F  </i>
   <i type="logical" name="LDMP1"> F  </i>
   <i type="logical" name="LMP2LT"> F  </i>
   <i type="logical" name="LSMP2LT"> F  </i>
   <i type="logical" name="LUSEW"> F  </i>
   <i name="ENCUTGW">     -2.00000000</i>
   <i name="ENCUTGWSOFT">     -2.00000000</i>
   <i name="ENCUTLF">     -1.00000000</i>
   <i type="int" name="LMAXMP2">    -1</i>
   <i name="SCISSOR">      0.00000000</i>
   <i type="int" name="NOMEGA">     0</i>
   <i type="int" name="NOMEGAR">     0</i>
   <i type="int" name="NBANDSGW">    -1</i>
   <i type="int" name="NBANDSO">    -1</i>
   <i type="int" name="NBANDSV">    -1</i>
   <i type="int" name="NELM">   200</i>
   <i type="int" name="NELMHF">     1</i>
   <i type="int" name="DIM">     3</i>
   <i type="int" name="IESPILON">     4</i>
   <i type="int" name="ANTIRES">     0</i>
   <i name="OMEGAMAX">    -30.00000000</i>
   <i name="OMEGAMIN">    -30.00000000</i>
   <i name="OMEGATL">   -200.00000000</i>
   <i type="int" name="OMEGAGRID">   145</i>
   <i name="CSHIFT">     -0.10000000</i>
   <i type="logical" name="LSELFENERGY"> F  </i>
   <i type="logical" name="LSPECTRAL"> F  </i>
   <i type="logical" name="LSPECTRALGW"> F  </i>
   <i type="logical" name="LSINGLES"> F  </i>
   <i type="logical" name="LFERMIGW"> F  </i>
   <i type="logical" name="ODDONLYGW"> F  </i>
   <i type="logical" name="EVENONLYGW"> F  </i>
   <i type="int" name="NKREDLFX">     1</i>
   <i type="int" name="NKREDLFY">     1</i>
   <i type="int" name="NKREDLFZ">     1</i>
   <i type="int" name="MAXMEM">  2800</i>
   <i type="int" name="TELESCOPE">     0</i>
   <i type="int" name="NTAUPAR">     1</i>
   <i type="int" name="NOMEGAPAR">    -1</i>
   <i name="LAMBDA">      1.00000000</i>
  </separator>
  <separator name="External order field" >
   <i name="OFIELD_KAPPA">      0.00000000</i>
   <v name="OFIELD_K">      0.00000000      0.00000000      0.00000000</v>
   <i name="OFIELD_Q6_NEAR">      0.00000000</i>
   <i name="OFIELD_Q6_FAR">      0.00000000</i>
   <i name="OFIELD_A">      0.00000000</i>
  </separator>
 </parameters>
 <atominfo>
  <atoms>      30 </atoms>
  <types>       3 </types>
  <array name="atoms" >
   <dimension dim="1">ion</dimension>
   <field type="string">element</field>
   <field type="int">atomtype</field>
   <set>
    <rc><c>Li</c><c>   1</c></rc>
    <rc><c>Li</c><c>   1</c></rc>
    <rc><c>Li</c><c>   1</c></rc>
    <rc><c>Li</c><c>   1</c></rc>
    <rc><c>Li</c><c>   1</c></rc>
    <rc><c>Li</c><c>   1</c></rc>
    <rc><c>Li</c><c>   1</c></rc>
    <rc><c>Li</c><c>   1</c></rc>
    <rc><c>Li</c><c>   1</c></rc>
    <rc><c>Li</c><c>   1</c></rc>
    <rc><c>Li</c><c>   1</c></rc>
    <rc><c>Li</c><c>   1</c></rc>
    <rc><c>Bi</c><c>   2</c></rc>
    <rc><c>Bi</c><c>   2</c></rc>
    <rc><c>Bi</c><c>   2</c></rc>
    <rc><c>Bi</c><c>   2</c></rc>
    <rc><c>O </c><c>   3</c></rc>
    <rc><c>O </c><c>   3</c></rc>
    <rc><c>O </c><c>   3</c></rc>
    <rc><c>O </c><c>   3</c></rc>
    <rc><c>O </c><c>   3</c></rc>
    <rc><c>O </c><c>   3</c></rc>
    <rc><c>O </c><c>   3</c></rc>
    <rc><c>O </c><c>   3</c></rc>
    <rc><c>O </c><c>   3</c></rc>
    <rc><c>O </c><c>   3</c></rc>
    <rc><c>O </c><c>   3</c></rc>
    <rc><c>O </c><c>   3</c></rc>
    <rc><c>O </c><c>   3</c></rc>
    <rc><c>O </c><c>   3</c></rc>
   </set>
  </array>
  <array name="atomtypes" >
   <dimension dim="1">type</dimension>
   <field type="int">atomspertype</field>
   <field type="string">element</field>
   <field>mass</field>
   <field>valence</field>
   <field type="string">pseudopotential</field>
   <set>
    <rc><c>  12</c><c>Li</c><c>      7.01000000</c><c>      3.00000000</c><c>  PAW_PBE Li_sv 10Sep2004               </c></rc>
    <rc><c>   4</c><c>Bi</c><c>    208.98000000</c><c>     15.00000000</c><c>  PAW_PBE Bi_d 06Sep2000                </c></rc>
    <rc><c>  14</c><c>O </c><c>     16.00000000</c><c>      6.00000000</c><c>  PAW_PBE O 08Apr2002                   </c></rc>
   </set>
  </array>
 </atominfo>
 <structure name="initialpos" >
  <crystal>
   <varray name="basis" >
    <v>       5.54368872       0.00000000       0.00097366 </v>
    <v>       0.00000000       6.07261634       0.00000000 </v>
    <v>      -1.94241631       0.00000000      10.08266628 </v>
   </varray>
   <i name="volume">    339.44136677 </i>
   <varray name="rec_basis" >
    <v>       0.18037921       0.00000000       0.03474989 </v>
    <v>       0.00000000       0.16467367       0.00000000 </v>
    <v>      -0.00001742       0.00000000       0.09917676 </v>
   </varray>
  </crystal>
  <varray name="positions" >
   <v>       0.72526798       0.99336499       0.35601049 </v>
   <v>       0.78755946       0.99880507       0.11855268 </v>
   <v>       0.27473202       0.49336499       0.64398951 </v>
   <v>       0.21244054       0.49880507       0.88144732 </v>
   <v>       0.93868724       0.78611823       0.61712046 </v>
   <v>       0.59317839       0.21861708       0.90141957 </v>
   <v>       0.06131276       0.28611823       0.38287954 </v>
   <v>       0.40682161       0.71861708       0.09858043 </v>
   <v>       0.41280831       0.25361642       0.12471332 </v>
   <v>       0.09600208       0.76224377       0.38797207 </v>
   <v>       0.58719169       0.75361642       0.87528668 </v>
   <v>       0.90399792       0.26224377       0.61202793 </v>
   <v>       0.10882626       0.98009557       0.88030157 </v>
   <v>       0.39581426       0.01907584       0.60511735 </v>
   <v>       0.89117374       0.48009557       0.11969843 </v>
   <v>       0.60418574       0.51907584       0.39488265 </v>
   <v>       0.74793098       0.24448349       0.24069838 </v>
   <v>       0.79040006       0.74297740       0.23340037 </v>
   <v>       0.25206902       0.74448349       0.75930162 </v>
   <v>       0.20959994       0.24297740       0.76659963 </v>
   <v>       0.45469708       0.99342647       0.00312662 </v>
   <v>       0.01636307       0.03247921       0.49666074 </v>
   <v>       0.54530292       0.49342647       0.99687338 </v>
   <v>       0.98363693       0.53247921       0.50333926 </v>
   <v>       0.46553227       0.84586001       0.42589702 </v>
   <v>       0.94984000       0.19485029       0.00195559 </v>
   <v>       0.53446773       0.34586001       0.57410298 </v>
   <v>       0.05016000       0.69485029       0.99804441 </v>
   <v>       0.76850286       0.93316417       0.76026165 </v>
   <v>       0.23149714       0.43316417       0.23973835 </v>
  </varray>
 </structure>
 <calculation>
  <scstep>
   <time name="total">   56.55   18.23</time>
   <energy>
    <i name="alphaZ">    463.10949902 </i>
    <i name="ewald"> -10785.34789941 </i>
    <i name="hartreedc">  -4645.58043822 </i>
    <i name="XCdc">    576.77343519 </i>
    <i name="pawpsdc">  12661.59419686 </i>
    <i name="pawaedc"> -12697.06655415 </i>
    <i name="eentropy">      0.00000000 </i>
    <i name="bandstr">    207.62612368 </i>
    <i name="atom">  16282.86469006 </i>
    <i name="e_fr_energy">   2063.97305303 </i>
    <i name="e_wo_entrp">   2063.97305303 </i>
    <i name="e_0_energy">   2063.97305303 </i>
   </energy>
  </scstep>
  <scstep>
   <time name="total">   45.37   11.35</time>
   <energy>
    <i name="e_fr_energy">    500.78945260 </i>
    <i name="e_wo_entrp">    500.78945260 </i>
    <i name="e_0_energy">    500.78945260 </i>
   </energy>
  </scstep>
  <scstep>
   <time name="total">   99.41   25.36</time>
   <energy>
    <i name="e_fr_energy">    358.91882008 </i>
    <i name="e_wo_entrp">    358.91882008 </i>
    <i name="e_0_energy">    358.91882008 </i>
   </energy>
  </scstep>
  <scstep>
   <time name="total">   68.12   17.03</time>
   <energy>
    <i name="e_fr_energy">    354.42000975 </i>
    <i name="e_wo_entrp">    354.42000975 </i>
    <i name="e_0_energy">    354.42000975 </i>
   </energy>
  </scstep>
  <scstep>
   <time name="total">   76.52   19.14</time>
   <energy>
    <i name="e_fr_energy">    354.35341266 </i>
    <i name="e_wo_entrp">    354.35341266 </i>
    <i name="e_0_energy">    354.35341266 </i>
   </energy>
  </scstep>
  <scstep>
   <time name="total">  865.33  223.96</time>
   <energy>
    <i name="e_fr_energy">   -174.66328553 </i>
    <i name="e_wo_entrp">   -174.66328553 </i>
    <i name="e_0_energy">   -174.66328553 </i>
   </energy>
  </scstep>
  <scstep>
   <time name="total">  859.61  222.29</time>
   <energy>
    <i name="e_fr_energy">   -183.97706161 </i>
    <i name="e_wo_entrp">   -183.97706161 </i>
    <i name="e_0_energy">   -183.97706161 </i>
   </energy>
  </scstep>
  <scstep>
   <time name="total">  863.39  223.23</time>
   <energy>
    <i name="e_fr_energy">   -187.19573837 </i>
    <i name="e_wo_entrp">   -187.19573837 </i>
    <i name="e_0_energy">   -187.19573837 </i>
   </energy>
  </scstep>
  <scstep>
   <time name="total">  859.87  222.36</time>
   <energy>
    <i name="e_fr_energy">   -188.60768602 </i>
    <i name="e_wo_entrp">   -188.60768602 </i>
    <i name="e_0_energy">   -188.60768602 </i>
   </energy>
  </scstep>
  <scstep>
   <time name="total">  856.34  221.49</time>
   <energy>
    <i name="e_fr_energy">   -189.27801428 </i>
    <i name="e_wo_entrp">   -189.27801428 </i>
    <i name="e_0_energy">   -189.27801428 </i>
   </energy>
  </scstep>
  <scstep>
   <time name="total">  858.82  222.08</time>
   <energy>
    <i name="e_fr_energy">   -189.63748373 </i>
    <i name="e_wo_entrp">   -189.63748373 </i>
    <i name="e_0_energy">   -189.63748373 </i>
   </energy>
  </scstep>
  <scstep>
   <time name="total">  855.59  221.27</time>
   <energy>
    <i name="e_fr_energy">   -189.76469594 </i>
    <i name="e_wo_entrp">   -189.76469594 </i>
    <i name="e_0_energy">   -189.76469594 </i>
   </energy>
  </scstep>
  <scstep>
   <time name="total">  859.23  222.18</time>
   <energy>
    <i name="e_fr_energy">   -189.80725589 </i>
    <i name="e_wo_entrp">   -189.80725589 </i>
    <i name="e_0_energy">   -189.80725589 </i>
   </energy>
  </scstep>
  <scstep>
   <time name="total">  857.92  221.85</time>
   <energy>
    <i name="e_fr_energy">   -189.83167780 </i>
    <i name="e_wo_entrp">   -189.83167780 </i>
    <i name="e_0_energy">   -189.83167780 </i>
   </energy>
  </scstep>
  <scstep>
   <time name="total">  857.78  221.82</time>
   <energy>
    <i name="e_fr_energy">   -189.84338989 </i>
    <i name="e_wo_entrp">   -189.84338989 </i>
    <i name="e_0_energy">   -189.84338989 </i>
   </energy>
  </scstep>
  <scstep>
   <time name="total">  859.90  222.34</time>
   <energy>
    <i name="e_fr_energy">   -189.84970710 </i>
    <i name="e_wo_entrp">   -189.84970710 </i>
    <i name="e_0_energy">   -189.84970710 </i>
   </energy>
  </scstep>
  <scstep>
   <time name="total">  859.06  222.13</time>
   <energy>
    <i name="e_fr_energy">   -189.85230545 </i>
    <i name="e_wo_entrp">   -189.85230545 </i>
    <i name="e_0_energy">   -189.85230545 </i>
   </energy>
  </scstep>
  <scstep>
   <time name="total">  858.40  221.97</time>
   <energy>
    <i name="e_fr_energy">   -189.85371122 </i>
    <i name="e_wo_entrp">   -189.85371122 </i>
    <i name="e_0_energy">   -189.85371122 </i>
   </energy>
  </scstep>
  <scstep>
   <time name="total">  857.13  221.65</time>
   <energy>
    <i name="e_fr_energy">   -189.85427648 </i>
    <i name="e_wo_entrp">   -189.85427648 </i>
    <i name="e_0_energy">   -189.85427648 </i>
   </energy>
  </scstep>
  <scstep>
   <time name="total">  858.03  221.88</time>
   <energy>
    <i name="e_fr_energy">   -189.85455390 </i>
    <i name="e_wo_entrp">   -189.85455390 </i>
    <i name="e_0_energy">   -189.85455390 </i>
   </energy>
  </scstep>
  <scstep>
   <time name="total">  859.30  222.19</time>
   <energy>
    <i name="e_fr_energy">   -189.85465493 </i>
    <i name="e_wo_entrp">   -189.85465493 </i>
    <i name="e_0_energy">   -189.85465493 </i>
   </energy>
  </scstep>
  <scstep>
   <time name="total">  858.73  222.05</time>
   <energy>
    <i name="e_fr_energy">   -189.85471225 </i>
    <i name="e_wo_entrp">   -189.85471225 </i>
    <i name="e_0_energy">   -189.85471225 </i>
   </energy>
  </scstep>
  <scstep>
   <time name="total">  858.06  221.88</time>
   <energy>
    <i name="e_fr_energy">   -189.85473425 </i>
    <i name="e_wo_entrp">   -189.85473425 </i>
    <i name="e_0_energy">   -189.85473425 </i>
   </energy>
  </scstep>
  <scstep>
   <time name="total">  858.41  221.97</time>
   <energy>
    <i name="e_fr_energy">   -189.85474474 </i>
    <i name="e_wo_entrp">   -189.85474474 </i>
    <i name="e_0_energy">   -189.85474474 </i>
   </energy>
  </scstep>
  <scstep>
   <time name="total">  857.83  221.83</time>
   <energy>
    <i name="e_fr_energy">   -189.85475022 </i>
    <i name="e_wo_entrp">   -189.85475022 </i>
    <i name="e_0_energy">   -189.85475022 </i>
   </energy>
  </scstep>
  <scstep>
   <time name="total">  858.68  222.04</time>
   <energy>
    <i name="e_fr_energy">   -189.85475436 </i>
    <i name="e_wo_entrp">   -189.85475436 </i>
    <i name="e_0_energy">   -189.85475436 </i>
   </energy>
  </scstep>
  <scstep>
   <time name="total">  858.83  222.08</time>
   <energy>
    <i name="e_fr_energy">   -189.85475625 </i>
    <i name="e_wo_entrp">   -189.85475625 </i>
    <i name="e_0_energy">   -189.85475625 </i>
   </energy>
  </scstep>
  <scstep>
   <time name="total">  858.99  222.12</time>
   <energy>
    <i name="e_fr_energy">   -189.85475710 </i>
    <i name="e_wo_entrp">   -189.85475710 </i>
    <i name="e_0_energy">   -189.85475710 </i>
   </energy>
  </scstep>
  <scstep>
   <time name="total">  859.19  222.16</time>
   <energy>
    <i name="e_fr_energy">   -189.85475759 </i>
    <i name="e_wo_entrp">   -189.85475759 </i>
    <i name="e_0_energy">   -189.85475759 </i>
   </energy>
  </scstep>
  <scstep>
   <time name="total">  907.01  269.60</time>
   <energy>
    <i name="e_fr_energy">   -189.85475800 </i>
    <i name="e_wo_entrp">   -189.85475800 </i>
    <i name="e_0_energy">   -189.85475800 </i>
   </energy>
  </scstep>
  <scstep>
   <time name="total">  857.53  221.75</time>
   <energy>
    <i name="e_fr_energy">   -189.85475814 </i>
    <i name="e_wo_entrp">   -189.85475814 </i>
    <i name="e_0_energy">   -189.85475814 </i>
   </energy>
  </scstep>
  <scstep>
   <time name="total"> 1271.73  325.31</time>
   <energy>
    <i name="alphaZ">    463.10949902 </i>
    <i name="ewald"> -10785.34789941 </i>
    <i name="hartreedc">  -4835.98827379 </i>
    <i name="XCdc">    575.50816389 </i>
    <i name="pawpsdc">  14816.75649399 </i>
    <i name="pawaedc"> -14853.32701434 </i>
    <i name="eentropy">      0.00000000 </i>
    <i name="bandstr">  -2370.48315228 </i>
    <i name="atom">  16282.86469006 </i>
    <i name="e_fr_energy">   -189.85475819 </i>
    <i name="e_wo_entrp">   -189.85475819 </i>
    <i name="e_0_energy">   -189.85475819 </i>
   </energy>
  </scstep>
  <structure>
   <crystal>
    <varray name="basis" >
     <v>       5.54368872       0.00000000       0.00097366 </v>
     <v>       0.00000000       6.07261634       0.00000000 </v>
     <v>      -1.94241631       0.00000000      10.08266628 </v>
    </varray>
    <i name="volume">    339.44136677 </i>
    <varray name="rec_basis" >
     <v>       0.18037921       0.00000000       0.03474989 </v>
     <v>       0.00000000       0.16467367       0.00000000 </v>
     <v>      -0.00001742       0.00000000       0.09917676 </v>
    </varray>
   </crystal>
   <varray name="positions" >
    <v>       0.72526798       0.99336499       0.35601049 </v>
    <v>       0.78755946       0.99880507       0.11855268 </v>
    <v>       0.27473202       0.49336499       0.64398951 </v>
    <v>       0.21244054       0.49880507       0.88144732 </v>
    <v>       0.93868724       0.78611823       0.61712046 </v>
    <v>       0.59317839       0.21861708       0.90141957 </v>
    <v>       0.06131276       0.28611823       0.38287954 </v>
    <v>       0.40682161       0.71861708       0.09858043 </v>
    <v>       0.41280831       0.25361642       0.12471332 </v>
    <v>       0.09600208       0.76224377       0.38797207 </v>
    <v>       0.58719169       0.75361642       0.87528668 </v>
    <v>       0.90399792       0.26224377       0.61202793 </v>
    <v>       0.10882626       0.98009557       0.88030157 </v>
    <v>       0.39581426       0.01907584       0.60511735 </v>
    <v>       0.89117374       0.48009557       0.11969843 </v>
    <v>       0.60418574       0.51907584       0.39488265 </v>
    <v>       0.74793098       0.24448349       0.24069838 </v>
    <v>       0.79040006       0.74297740       0.23340037 </v>
    <v>       0.25206902       0.74448349       0.75930162 </v>
    <v>       0.20959994       0.24297740       0.76659963 </v>
    <v>       0.45469708       0.99342647       0.00312662 </v>
    <v>       0.01636307       0.03247921       0.49666074 </v>
    <v>       0.54530292       0.49342647       0.99687338 </v>
    <v>       0.98363693       0.53247921       0.50333926 </v>
    <v>       0.46553227       0.84586001       0.42589702 </v>
    <v>       0.94984000       0.19485029       0.00195559 </v>
    <v>       0.53446773       0.34586001       0.57410298 </v>
    <v>       0.05016000       0.69485029       0.99804441 </v>
    <v>       0.76850286       0.93316417       0.76026165 </v>
    <v>       0.23149714       0.43316417       0.23973835 </v>
   </varray>
  </structure>
  <varray name="forces" >
   <v>      -0.03137667      -0.01073587       0.03472821 </v>
   <v>       0.03072909       0.02339903       0.08334963 </v>
   <v>       0.03137673      -0.01073467      -0.03472642 </v>
   <v>      -0.03072929       0.02339911      -0.08335158 </v>
   <v>       0.01631163      -0.00869846      -0.05340258 </v>
   <v>       0.00365940      -0.00259873      -0.05500103 </v>
   <v>      -0.01631086      -0.00869787       0.05340403 </v>
   <v>      -0.00366050      -0.00259882       0.05500245 </v>
   <v>       0.02118648       0.00275938       0.07193994 </v>
   <v>       0.03723485       0.01316724       0.04394552 </v>
   <v>      -0.02118792       0.00276001      -0.07194044 </v>
   <v>      -0.03723467       0.01316629      -0.04394566 </v>
   <v>       0.07063241      -0.01784013      -0.38680666 </v>
   <v>      -0.00110974      -0.02848662      -0.26026326 </v>
   <v>      -0.07063120      -0.01784082       0.38680484 </v>
   <v>       0.00110814      -0.02848632       0.26026108 </v>
   <v>       0.21080897      -0.03390070      -0.36042611 </v>
   <v>       0.13746993      -0.04284924      -0.26006749 </v>
   <v>      -0.21080830      -0.03390231       0.36042639 </v>
   <v>      -0.13747015      -0.04284914       0.26006870 </v>
   <v>      -0.32373327      -0.02364579      -0.12101499 </v>
   <v>       0.04687003       0.03329087      -0.03958484 </v>
   <v>       0.32373658      -0.02364450       0.12101561 </v>
   <v>      -0.04687330       0.03328920       0.03958231 </v>
   <v>       0.00608060       0.07145378      -0.13016959 </v>
   <v>      -0.04323505      -0.05165685      -0.02837117 </v>
   <v>      -0.00607944       0.07145637       0.13016994 </v>
   <v>       0.04323397      -0.05165795       0.02837202 </v>
   <v>       0.43533890       0.07634127       0.45155671 </v>
   <v>      -0.43533737       0.07634222      -0.45155556 </v>
  </varray>
  <varray name="stress" >
   <v>       1.10989246      -0.00000523      -4.25654221 </v>
   <v>      -0.00000575       5.82622652      -0.00000750 </v>
   <v>      -4.25653768      -0.00000692       1.84292836 </v>
  </varray>
  <energy>
   <i name="e_fr_energy">   -189.85475819 </i>
   <i name="e_wo_entrp">   -189.85475819 </i>
   <i name="e_0_energy">      0.00000000 </i>
  </energy>
  <time name="totalsc">26405.56 6972.63</time>
  <eigenvalues>
   <array>
    <dimension dim="1">band</dimension>
    <dimension dim="2">kpoint</dimension>
    <dimension dim="3">spin</dimension>
    <field>eigene</field>
    <field>occ</field>
    <set>
     <set comment="spin 1">
      <set comment="kpoint 1">
       <r>  -43.9838    1.0000 </r>
       <r>  -43.9838    1.0000 </r>
       <r>  -43.9810    1.0000 </r>
       <r>  -43.9810    1.0000 </r>
       <r>  -43.8514    1.0000 </r>
       <r>  -43.8514    1.0000 </r>
       <r>  -43.8506    1.0000 </r>
       <r>  -43.8506    1.0000 </r>
       <r>  -43.6351    1.0000 </r>
       <r>  -43.6351    1.0000 </r>
       <r>  -43.6341    1.0000 </r>
       <r>  -43.6340    1.0000 </r>
       <r>  -43.6148    1.0000 </r>
       <r>  -43.6148    1.0000 </r>
       <r>  -43.6092    1.0000 </r>
       <r>  -43.6092    1.0000 </r>
       <r>  -43.5709    1.0000 </r>
       <r>  -43.5709    1.0000 </r>
       <r>  -43.5671    1.0000 </r>
       <r>  -43.5670    1.0000 </r>
       <r>  -43.4393    1.0000 </r>
       <r>  -43.4393    1.0000 </r>
       <r>  -43.4380    1.0000 </r>
       <r>  -43.4380    1.0000 </r>
       <r>  -22.9872    1.0000 </r>
       <r>  -22.9872    1.0000 </r>
       <r>  -22.9631    1.0000 </r>
       <r>  -22.9631    1.0000 </r>
       <r>  -22.9419    1.0000 </r>
       <r>  -22.9419    1.0000 </r>
       <r>  -22.9130    1.0000 </r>
       <r>  -22.9130    1.0000 </r>
       <r>  -22.1191    1.0000 </r>
       <r>  -22.1191    1.0000 </r>
       <r>  -22.0763    1.0000 </r>
       <r>  -22.0763    1.0000 </r>
       <r>  -22.0559    1.0000 </r>
       <r>  -22.0559    1.0000 </r>
       <r>  -22.0429    1.0000 </r>
       <r>  -22.0429    1.0000 </r>
       <r>  -20.1996    1.0000 </r>
       <r>  -20.1996    1.0000 </r>
       <r>  -20.1725    1.0000 </r>
       <r>  -20.1725    1.0000 </r>
       <r>  -20.1233    1.0000 </r>
       <r>  -20.1233    1.0000 </r>
       <r>  -20.0079    1.0000 </r>
       <r>  -20.0079    1.0000 </r>
       <r>  -19.6996    1.0000 </r>
       <r>  -19.6996    1.0000 </r>
       <r>  -19.6868    1.0000 </r>
       <r>  -19.6868    1.0000 </r>
       <r>  -19.2409    1.0000 </r>
       <r>  -19.2409    1.0000 </r>
       <r>  -19.1376    1.0000 </r>
       <r>  -19.1376    1.0000 </r>
       <r>  -19.0665    1.0000 </r>
       <r>  -19.0665    1.0000 </r>
       <r>  -19.0177    1.0000 </r>
       <r>  -19.0177    1.0000 </r>
       <r>  -18.9427    1.0000 </r>
       <r>  -18.9427    1.0000 </r>
       <r>  -18.9338    1.0000 </r>
       <r>  -18.9338    1.0000 </r>
       <r>  -17.6988    1.0000 </r>
       <r>  -17.6987    1.0000 </r>
       <r>  -16.8840    1.0000 </r>
       <r>  -16.8839    1.0000 </r>
       <r>  -16.5014    1.0000 </r>
       <r>  -16.5014    1.0000 </r>
       <r>  -16.2705    1.0000 </r>
       <r>  -16.2705    1.0000 </r>
       <r>  -16.1470    1.0000 </r>
       <r>  -16.1470    1.0000 </r>
       <r>  -16.0037    1.0000 </r>
       <r>  -16.0036    1.0000 </r>
       <r>  -15.9805    1.0000 </r>
       <r>  -15.9805    1.0000 </r>
       <r>  -15.3857    1.0000 </r>
       <r>  -15.3856    1.0000 </r>
       <r>  -15.2672    1.0000 </r>
       <r>  -15.2672    1.0000 </r>
       <r>  -15.2146    1.0000 </r>
       <r>  -15.2146    1.0000 </r>
       <r>  -15.0361    1.0000 </r>
       <r>  -15.0361    1.0000 </r>
       <r>  -14.9199    1.0000 </r>
       <r>  -14.9199    1.0000 </r>
       <r>  -14.7719    1.0000 </r>
       <r>  -14.7719    1.0000 </r>
       <r>  -14.6933    1.0000 </r>
       <r>  -14.6932    1.0000 </r>
       <r>   -8.2618    1.0000 </r>
       <r>   -8.2618    1.0000 </r>
       <r>   -7.0494    1.0000 </r>
       <r>   -7.0494    1.0000 </r>
       <r>   -6.3818    1.0000 </r>
       <r>   -6.3817    1.0000 </r>
       <r>   -5.4284    1.0000 </r>
       <r>   -5.4284    1.0000 </r>
       <r>   -3.2660    1.0000 </r>
       <r>   -3.2660    1.0000 </r>
       <r>   -2.8573    1.0000 </r>
       <r>   -2.8573    1.0000 </r>
       <r>   -2.5888    1.0000 </r>
       <r>   -2.5888    1.0000 </r>
       <r>   -2.0778    1.0000 </r>
       <r>   -2.0778    1.0000 </r>
       <r>   -1.9431    1.0000 </r>
       <r>   -1.9431    1.0000 </r>
       <r>   -1.7029    1.0000 </r>
       <r>   -1.7029    1.0000 </r>
       <r>   -1.5615    1.0000 </r>
       <r>   -1.5615    1.0000 </r>
       <r>   -1.3264    1.0000 </r>
       <r>   -1.3264    1.0000 </r>
       <r>   -1.0945    1.0000 </r>
       <r>   -1.0945    1.0000 </r>
       <r>   -1.0634    1.0000 </r>
       <r>   -1.0634    1.0000 </r>
       <r>   -0.8461    1.0000 </r>
       <r>   -0.8461    1.0000 </r>
       <r>   -0.6812    1.0000 </r>
       <r>   -0.6811    1.0000 </r>
       <r>   -0.4458    1.0000 </r>
       <r>   -0.4458    1.0000 </r>
       <r>   -0.4127    1.0000 </r>
       <r>   -0.4127    1.0000 </r>
       <r>   -0.2650    1.0000 </r>
       <r>   -0.2649    1.0000 </r>
       <r>   -0.1933    1.0000 </r>
       <r>   -0.1933    1.0000 </r>
       <r>    0.1210    1.0000 </r>
       <r>    0.1211    1.0000 </r>
       <r>    0.1525    1.0000 </r>
       <r>    0.1525    1.0000 </r>
       <r>    0.1656    1.0000 </r>
       <r>    0.1656    1.0000 </r>
       <r>    0.2381    1.0000 </r>
       <r>    0.2381    1.0000 </r>
       <r>    0.2825    1.0000 </r>
       <r>    0.2825    1.0000 </r>
       <r>    0.3596    1.0000 </r>
       <r>    0.3597    1.0000 </r>
       <r>    0.4571    1.0000 </r>
       <r>    0.4572    1.0000 </r>
       <r>    0.5760    1.0000 </r>
       <r>    0.5760    1.0000 </r>
       <r>    0.6266    1.0000 </r>
       <r>    0.6267    1.0000 </r>
       <r>    0.7700    1.0000 </r>
       <r>    0.7700    1.0000 </r>
       <r>    0.8307    1.0000 </r>
       <r>    0.8308    1.0000 </r>
       <r>    0.8625    1.0000 </r>
       <r>    0.8626    1.0000 </r>
       <r>    0.9553    1.0000 </r>
       <r>    0.9553    1.0000 </r>
       <r>    1.0252    1.0000 </r>
       <r>    1.0252    1.0000 </r>
       <r>    1.0464    1.0000 </r>
       <r>    1.0465    1.0000 </r>
       <r>    1.0798    1.0000 </r>
       <r>    1.0798    1.0000 </r>
       <r>    1.1701    1.0000 </r>
       <r>    1.1702    1.0000 </r>
       <r>    1.2108    1.0000 </r>
       <r>    1.2109    1.0000 </r>
       <r>    1.3251    1.0000 </r>
       <r>    1.3252    1.0000 </r>
       <r>    1.3923    1.0000 </r>
       <r>    1.3924    1.0000 </r>
       <r>    1.5806    1.0000 </r>
       <r>    1.5806    1.0000 </r>
       <r>    1.7814    1.0000 </r>
       <r>    1.7814    1.0000 </r>
       <r>    2.1517    1.0000 </r>
       <r>    2.1517    1.0000 </r>
       <r>    3.6632    1.0000 </r>
       <r>    3.6632    1.0000 </r>
       <r>    4.8511    0.0000 </r>
       <r>    4.8511    0.0000 </r>
       <r>    6.6452    0.0000 </r>
       <r>    6.6452    0.0000 </r>
       <r>    7.5391    0.0000 </r>
       <r>    7.5391    0.0000 </r>
       <r>    8.4292    0.0000 </r>
       <r>    8.4292    0.0000 </r>
       <r>    8.6698    0.0000 </r>
       <r>    8.6698    0.0000 </r>
       <r>    8.9492    0.0000 </r>
       <r>    8.9492    0.0000 </r>
       <r>    9.2755    0.0000 </r>
       <r>    9.2755    0.0000 </r>
       <r>    9.5658    0.0000 </r>
       <r>    9.5658    0.0000 </r>
       <r>    9.8837    0.0000 </r>
       <r>    9.8837    0.0000 </r>
       <r>   10.1725    0.0000 </r>
       <r>   10.1725    0.0000 </r>
       <r>   10.6888    0.0000 </r>
       <r>   10.6888    0.0000 </r>
       <r>   11.0055    0.0000 </r>
       <r>   11.0056    0.0000 </r>
       <r>   11.3773    0.0000 </r>
       <r>   11.3773    0.0000 </r>
       <r>   11.4839    0.0000 </r>
       <r>   11.4839    0.0000 </r>
       <r>   12.0828    0.0000 </r>
       <r>   12.0828    0.0000 </r>
       <r>   12.2521    0.0000 </r>
       <r>   12.2521    0.0000 </r>
       <r>   12.5650    0.0000 </r>
       <r>   12.5650    0.0000 </r>
       <r>   12.6977    0.0000 </r>
       <r>   12.6977    0.0000 </r>
       <r>   12.9765    0.0000 </r>
       <r>   12.9765    0.0000 </r>
       <r>   13.1208    0.0000 </r>
       <r>   13.1208    0.0000 </r>
       <r>   13.2566    0.0000 </r>
       <r>   13.2566    0.0000 </r>
       <r>   13.4562    0.0000 </r>
       <r>   13.4562    0.0000 </r>
       <r>   13.9009    0.0000 </r>
       <r>   13.9009    0.0000 </r>
       <r>   14.0578    0.0000 </r>
       <r>   14.0578    0.0000 </r>
       <r>   14.1780    0.0000 </r>
       <r>   14.1780    0.0000 </r>
       <r>   14.3473    0.0000 </r>
       <r>   14.3473    0.0000 </r>
       <r>   14.5426    0.0000 </r>
       <r>   14.5426    0.0000 </r>
       <r>   14.8165    0.0000 </r>
       <r>   14.8165    0.0000 </r>
       <r>   14.9070    0.0000 </r>
       <r>   14.9070    0.0000 </r>
       <r>   15.0799    0.0000 </r>
       <r>   15.0799    0.0000 </r>
       <r>   15.1754    0.0000 </r>
       <r>   15.1754    0.0000 </r>
       <r>   15.2718    0.0000 </r>
       <r>   15.2718    0.0000 </r>
       <r>   15.5460    0.0000 </r>
       <r>   15.5460    0.0000 </r>
       <r>   15.9277    0.0000 </r>
       <r>   15.9277    0.0000 </r>
       <r>   16.0392    0.0000 </r>
       <r>   16.0392    0.0000 </r>
       <r>   16.3422    0.0000 </r>
       <r>   16.3422    0.0000 </r>
       <r>   16.5249    0.0000 </r>
       <r>   16.5249    0.0000 </r>
       <r>   16.7468    0.0000 </r>
       <r>   16.7468    0.0000 </r>
       <r>   16.8167    0.0000 </r>
       <r>   16.8167    0.0000 </r>
       <r>   16.9265    0.0000 </r>
       <r>   16.9266    0.0000 </r>
       <r>   17.0448    0.0000 </r>
       <r>   17.0449    0.0000 </r>
       <r>   17.3399    0.0000 </r>
       <r>   17.3399    0.0000 </r>
       <r>   17.5037    0.0000 </r>
       <r>   17.5038    0.0000 </r>
       <r>   17.6623    0.0000 </r>
       <r>   17.6623    0.0000 </r>
       <r>   17.9363    0.0000 </r>
       <r>   17.9363    0.0000 </r>
       <r>   18.0153    0.0000 </r>
       <r>   18.0153    0.0000 </r>
       <r>   18.2718    0.0000 </r>
       <r>   18.2718    0.0000 </r>
       <r>   18.3443    0.0000 </r>
       <r>   18.3443    0.0000 </r>
       <r>   18.5732    0.0000 </r>
       <r>   18.5732    0.0000 </r>
       <r>   18.6668    0.0000 </r>
       <r>   18.6668    0.0000 </r>
       <r>   18.9382    0.0000 </r>
       <r>   18.9382    0.0000 </r>
       <r>   19.0580    0.0000 </r>
       <r>   19.0580    0.0000 </r>
       <r>   19.4034    0.0000 </r>
       <r>   19.4034    0.0000 </r>
       <r>   19.5359    0.0000 </r>
       <r>   19.5359    0.0000 </r>
       <r>   19.6825    0.0000 </r>
       <r>   19.6825    0.0000 </r>
       <r>   19.7459    0.0000 </r>
       <r>   19.7459    0.0000 </r>
       <r>   20.2636    0.0000 </r>
       <r>   20.2636    0.0000 </r>
       <r>   20.3292    0.0000 </r>
       <r>   20.3293    0.0000 </r>
       <r>   20.3645    0.0000 </r>
       <r>   20.3645    0.0000 </r>
       <r>   20.5208    0.0000 </r>
       <r>   20.5208    0.0000 </r>
       <r>   20.7407    0.0000 </r>
       <r>   20.7407    0.0000 </r>
       <r>   20.9227    0.0000 </r>
       <r>   20.9227    0.0000 </r>
       <r>   21.1235    0.0000 </r>
       <r>   21.1235    0.0000 </r>
       <r>   21.2723    0.0000 </r>
       <r>   21.2723    0.0000 </r>
       <r>   21.4983    0.0000 </r>
       <r>   21.4983    0.0000 </r>
       <r>   21.7202    0.0000 </r>
       <r>   21.7202    0.0000 </r>
       <r>   21.8750    0.0000 </r>
       <r>   21.8750    0.0000 </r>
       <r>   22.0732    0.0000 </r>
       <r>   22.0732    0.0000 </r>
       <r>   22.1379    0.0000 </r>
       <r>   22.1379    0.0000 </r>
       <r>   22.4159    0.0000 </r>
       <r>   22.4159    0.0000 </r>
       <r>   22.5548    0.0000 </r>
       <r>   22.5548    0.0000 </r>
       <r>   22.6489    0.0000 </r>
       <r>   22.6490    0.0000 </r>
       <r>   22.7821    0.0000 </r>
       <r>   22.7821    0.0000 </r>
       <r>   22.9012    0.0000 </r>
       <r>   22.9012    0.0000 </r>
       <r>   23.1472    0.0000 </r>
       <r>   23.1472    0.0000 </r>
       <r>   23.3251    0.0000 </r>
       <r>   23.3251    0.0000 </r>
       <r>   23.3733    0.0000 </r>
       <r>   23.3734    0.0000 </r>
       <r>   23.5640    0.0000 </r>
       <r>   23.5640    0.0000 </r>
       <r>   23.6389    0.0000 </r>
       <r>   23.6389    0.0000 </r>
       <r>   23.7190    0.0000 </r>
       <r>   23.7190    0.0000 </r>
       <r>   23.7540    0.0000 </r>
       <r>   23.7540    0.0000 </r>
       <r>   23.9341    0.0000 </r>
       <r>   23.9341    0.0000 </r>
       <r>   24.1641    0.0000 </r>
       <r>   24.1641    0.0000 </r>
       <r>   24.2500    0.0000 </r>
       <r>   24.2500    0.0000 </r>
       <r>   24.4887    0.0000 </r>
       <r>   24.4893    0.0000 </r>
       <r>   24.5552    0.0000 </r>
       <r>   24.5555    0.0000 </r>
       <r>   24.7853    0.0000 </r>
       <r>   24.7854    0.0000 </r>
       <r>   24.9171    0.0000 </r>
       <r>   24.9171    0.0000 </r>
       <r>   25.2885    0.0000 </r>
       <r>   25.2896    0.0000 </r>
       <r>   25.7231    0.0000 </r>
       <r>   25.7231    0.0000 </r>
       <r>   25.7498    0.0000 </r>
       <r>   25.7533    0.0000 </r>
       <r>   25.9763    0.0000 </r>
       <r>   25.9795    0.0000 </r>
       <r>   26.0588    0.0000 </r>
       <r>   26.0611    0.0000 </r>
       <r>   26.1488    0.0000 </r>
       <r>   26.1607    0.0000 </r>
       <r>   26.2871    0.0000 </r>
       <r>   26.2891    0.0000 </r>
       <r>   26.3887    0.0000 </r>
       <r>   26.4050    0.0000 </r>
       <r>   26.6337    0.0000 </r>
       <r>   26.6569    0.0000 </r>
       <r>   26.7645    0.0000 </r>
       <r>   26.8159    0.0000 </r>
       <r>   26.9448    0.0000 </r>
       <r>   27.0934    0.0000 </r>
       <r>   27.2384    0.0000 </r>
       <r>   27.2854    0.0000 </r>
       <r>   27.3926    0.0000 </r>
       <r>   27.5265    0.0000 </r>
       <r>   27.6190    0.0000 </r>
       <r>   28.2430    0.0000 </r>
      </set>
      <set comment="kpoint 2">
       <r>  -43.9838    1.0000 </r>
       <r>  -43.9838    1.0000 </r>
       <r>  -43.9810    1.0000 </r>
       <r>  -43.9810    1.0000 </r>
       <r>  -43.8514    1.0000 </r>
       <r>  -43.8514    1.0000 </r>
       <r>  -43.8506    1.0000 </r>
       <r>  -43.8506    1.0000 </r>
       <r>  -43.6353    1.0000 </r>
       <r>  -43.6353    1.0000 </r>
       <r>  -43.6340    1.0000 </r>
       <r>  -43.6340    1.0000 </r>
       <r>  -43.6148    1.0000 </r>
       <r>  -43.6148    1.0000 </r>
       <r>  -43.6092    1.0000 </r>
       <r>  -43.6092    1.0000 </r>
       <r>  -43.5708    1.0000 </r>
       <r>  -43.5708    1.0000 </r>
       <r>  -43.5670    1.0000 </r>
       <r>  -43.5670    1.0000 </r>
       <r>  -43.4395    1.0000 </r>
       <r>  -43.4395    1.0000 </r>
       <r>  -43.4381    1.0000 </r>
       <r>  -43.4381    1.0000 </r>
       <r>  -22.9868    1.0000 </r>
       <r>  -22.9868    1.0000 </r>
       <r>  -22.9627    1.0000 </r>
       <r>  -22.9627    1.0000 </r>
       <r>  -22.9421    1.0000 </r>
       <r>  -22.9421    1.0000 </r>
       <r>  -22.9128    1.0000 </r>
       <r>  -22.9128    1.0000 </r>
       <r>  -22.1188    1.0000 </r>
       <r>  -22.1188    1.0000 </r>
       <r>  -22.0761    1.0000 </r>
       <r>  -22.0761    1.0000 </r>
       <r>  -22.0570    1.0000 </r>
       <r>  -22.0570    1.0000 </r>
       <r>  -22.0426    1.0000 </r>
       <r>  -22.0426    1.0000 </r>
       <r>  -20.1992    1.0000 </r>
       <r>  -20.1992    1.0000 </r>
       <r>  -20.1739    1.0000 </r>
       <r>  -20.1739    1.0000 </r>
       <r>  -20.1246    1.0000 </r>
       <r>  -20.1246    1.0000 </r>
       <r>  -20.0075    1.0000 </r>
       <r>  -20.0075    1.0000 </r>
       <r>  -19.6995    1.0000 </r>
       <r>  -19.6995    1.0000 </r>
       <r>  -19.6860    1.0000 </r>
       <r>  -19.6860    1.0000 </r>
       <r>  -19.2387    1.0000 </r>
       <r>  -19.2387    1.0000 </r>
       <r>  -19.1449    1.0000 </r>
       <r>  -19.1449    1.0000 </r>
       <r>  -19.0797    1.0000 </r>
       <r>  -19.0797    1.0000 </r>
       <r>  -19.0192    1.0000 </r>
       <r>  -19.0192    1.0000 </r>
       <r>  -18.9435    1.0000 </r>
       <r>  -18.9435    1.0000 </r>
       <r>  -18.9333    1.0000 </r>
       <r>  -18.9333    1.0000 </r>
       <r>  -17.5373    1.0000 </r>
       <r>  -17.5372    1.0000 </r>
       <r>  -16.8399    1.0000 </r>
       <r>  -16.8399    1.0000 </r>
       <r>  -16.3371    1.0000 </r>
       <r>  -16.3371    1.0000 </r>
       <r>  -16.2970    1.0000 </r>
       <r>  -16.2970    1.0000 </r>
       <r>  -16.2431    1.0000 </r>
       <r>  -16.2430    1.0000 </r>
       <r>  -16.0728    1.0000 </r>
       <r>  -16.0728    1.0000 </r>
       <r>  -16.0260    1.0000 </r>
       <r>  -16.0260    1.0000 </r>
       <r>  -15.5150    1.0000 </r>
       <r>  -15.5149    1.0000 </r>
       <r>  -15.2235    1.0000 </r>
       <r>  -15.2235    1.0000 </r>
       <r>  -15.1846    1.0000 </r>
       <r>  -15.1846    1.0000 </r>
       <r>  -15.0662    1.0000 </r>
       <r>  -15.0662    1.0000 </r>
       <r>  -14.9356    1.0000 </r>
       <r>  -14.9356    1.0000 </r>
       <r>  -14.8745    1.0000 </r>
       <r>  -14.8744    1.0000 </r>
       <r>  -14.7477    1.0000 </r>
       <r>  -14.7476    1.0000 </r>
       <r>   -7.9220    1.0000 </r>
       <r>   -7.9220    1.0000 </r>
       <r>   -7.3966    1.0000 </r>
       <r>   -7.3965    1.0000 </r>
       <r>   -5.9041    1.0000 </r>
       <r>   -5.9041    1.0000 </r>
       <r>   -5.8813    1.0000 </r>
       <r>   -5.8813    1.0000 </r>
       <r>   -3.3441    1.0000 </r>
       <r>   -3.3440    1.0000 </r>
       <r>   -2.8621    1.0000 </r>
       <r>   -2.8621    1.0000 </r>
       <r>   -2.5047    1.0000 </r>
       <r>   -2.5047    1.0000 </r>
       <r>   -2.1347    1.0000 </r>
       <r>   -2.1347    1.0000 </r>
       <r>   -1.8866    1.0000 </r>
       <r>   -1.8866    1.0000 </r>
       <r>   -1.7684    1.0000 </r>
       <r>   -1.7684    1.0000 </r>
       <r>   -1.1614    1.0000 </r>
       <r>   -1.1614    1.0000 </r>
       <r>   -1.1319    1.0000 </r>
       <r>   -1.1319    1.0000 </r>
       <r>   -1.0458    1.0000 </r>
       <r>   -1.0458    1.0000 </r>
       <r>   -0.8574    1.0000 </r>
       <r>   -0.8574    1.0000 </r>
       <r>   -0.7170    1.0000 </r>
       <r>   -0.7170    1.0000 </r>
       <r>   -0.5335    1.0000 </r>
       <r>   -0.5335    1.0000 </r>
       <r>   -0.4949    1.0000 </r>
       <r>   -0.4949    1.0000 </r>
       <r>   -0.2661    1.0000 </r>
       <r>   -0.2661    1.0000 </r>
       <r>   -0.1959    1.0000 </r>
       <r>   -0.1959    1.0000 </r>
       <r>   -0.0442    1.0000 </r>
       <r>   -0.0442    1.0000 </r>
       <r>    0.0320    1.0000 </r>
       <r>    0.0321    1.0000 </r>
       <r>    0.1230    1.0000 </r>
       <r>    0.1230    1.0000 </r>
       <r>    0.1468    1.0000 </r>
       <r>    0.1468    1.0000 </r>
       <r>    0.2395    1.0000 </r>
       <r>    0.2395    1.0000 </r>
       <r>    0.3103    1.0000 </r>
       <r>    0.3103    1.0000 </r>
       <r>    0.3610    1.0000 </r>
       <r>    0.3611    1.0000 </r>
       <r>    0.4460    1.0000 </r>
       <r>    0.4461    1.0000 </r>
       <r>    0.5145    1.0000 </r>
       <r>    0.5145    1.0000 </r>
       <r>    0.5653    1.0000 </r>
       <r>    0.5653    1.0000 </r>
       <r>    0.7194    1.0000 </r>
       <r>    0.7194    1.0000 </r>
       <r>    0.7776    1.0000 </r>
       <r>    0.7776    1.0000 </r>
       <r>    0.8098    1.0000 </r>
       <r>    0.8098    1.0000 </r>
       <r>    0.8350    1.0000 </r>
       <r>    0.8350    1.0000 </r>
       <r>    0.8610    1.0000 </r>
       <r>    0.8610    1.0000 </r>
       <r>    0.9648    1.0000 </r>
       <r>    0.9648    1.0000 </r>
       <r>    1.0493    1.0000 </r>
       <r>    1.0494    1.0000 </r>
       <r>    1.1064    1.0000 </r>
       <r>    1.1065    1.0000 </r>
       <r>    1.1729    1.0000 </r>
       <r>    1.1729    1.0000 </r>
       <r>    1.1852    1.0000 </r>
       <r>    1.1852    1.0000 </r>
       <r>    1.2072    1.0000 </r>
       <r>    1.2073    1.0000 </r>
       <r>    1.2232    1.0000 </r>
       <r>    1.2232    1.0000 </r>
       <r>    1.7519    1.0000 </r>
       <r>    1.7519    1.0000 </r>
       <r>    2.9028    1.0000 </r>
       <r>    2.9028    1.0000 </r>
       <r>    3.4965    1.0000 </r>
       <r>    3.4966    1.0000 </r>
       <r>    4.8553    0.0000 </r>
       <r>    4.8553    0.0000 </r>
       <r>    6.5062    0.0000 </r>
       <r>    6.5062    0.0000 </r>
       <r>    7.5776    0.0000 </r>
       <r>    7.5776    0.0000 </r>
       <r>    8.4070    0.0000 </r>
       <r>    8.4070    0.0000 </r>
       <r>    8.7680    0.0000 </r>
       <r>    8.7680    0.0000 </r>
       <r>    9.0982    0.0000 </r>
       <r>    9.0982    0.0000 </r>
       <r>    9.3152    0.0000 </r>
       <r>    9.3152    0.0000 </r>
       <r>    9.4716    0.0000 </r>
       <r>    9.4716    0.0000 </r>
       <r>    9.7616    0.0000 </r>
       <r>    9.7616    0.0000 </r>
       <r>   10.1527    0.0000 </r>
       <r>   10.1527    0.0000 </r>
       <r>   10.6456    0.0000 </r>
       <r>   10.6456    0.0000 </r>
       <r>   10.9051    0.0000 </r>
       <r>   10.9051    0.0000 </r>
       <r>   11.1886    0.0000 </r>
       <r>   11.1886    0.0000 </r>
       <r>   11.3645    0.0000 </r>
       <r>   11.3645    0.0000 </r>
       <r>   11.8933    0.0000 </r>
       <r>   11.8933    0.0000 </r>
       <r>   12.5176    0.0000 </r>
       <r>   12.5176    0.0000 </r>
       <r>   12.8354    0.0000 </r>
       <r>   12.8354    0.0000 </r>
       <r>   13.0270    0.0000 </r>
       <r>   13.0270    0.0000 </r>
       <r>   13.2237    0.0000 </r>
       <r>   13.2237    0.0000 </r>
       <r>   13.3689    0.0000 </r>
       <r>   13.3689    0.0000 </r>
       <r>   13.4643    0.0000 </r>
       <r>   13.4643    0.0000 </r>
       <r>   13.6539    0.0000 </r>
       <r>   13.6539    0.0000 </r>
       <r>   13.9130    0.0000 </r>
       <r>   13.9130    0.0000 </r>
       <r>   14.0308    0.0000 </r>
       <r>   14.0309    0.0000 </r>
       <r>   14.1324    0.0000 </r>
       <r>   14.1324    0.0000 </r>
       <r>   14.2684    0.0000 </r>
       <r>   14.2684    0.0000 </r>
       <r>   14.3964    0.0000 </r>
       <r>   14.3964    0.0000 </r>
       <r>   14.4568    0.0000 </r>
       <r>   14.4569    0.0000 </r>
       <r>   14.8189    0.0000 </r>
       <r>   14.8189    0.0000 </r>
       <r>   15.1711    0.0000 </r>
       <r>   15.1711    0.0000 </r>
       <r>   15.2496    0.0000 </r>
       <r>   15.2496    0.0000 </r>
       <r>   15.3488    0.0000 </r>
       <r>   15.3488    0.0000 </r>
       <r>   15.6113    0.0000 </r>
       <r>   15.6113    0.0000 </r>
       <r>   15.7539    0.0000 </r>
       <r>   15.7539    0.0000 </r>
       <r>   15.8312    0.0000 </r>
       <r>   15.8312    0.0000 </r>
       <r>   16.0317    0.0000 </r>
       <r>   16.0317    0.0000 </r>
       <r>   16.3630    0.0000 </r>
       <r>   16.3630    0.0000 </r>
       <r>   16.4922    0.0000 </r>
       <r>   16.4922    0.0000 </r>
       <r>   16.5095    0.0000 </r>
       <r>   16.5095    0.0000 </r>
       <r>   16.7448    0.0000 </r>
       <r>   16.7448    0.0000 </r>
       <r>   17.0475    0.0000 </r>
       <r>   17.0475    0.0000 </r>
       <r>   17.1943    0.0000 </r>
       <r>   17.1943    0.0000 </r>
       <r>   17.3405    0.0000 </r>
       <r>   17.3405    0.0000 </r>
       <r>   17.5274    0.0000 </r>
       <r>   17.5274    0.0000 </r>
       <r>   17.6104    0.0000 </r>
       <r>   17.6105    0.0000 </r>
       <r>   17.9163    0.0000 </r>
       <r>   17.9163    0.0000 </r>
       <r>   18.2911    0.0000 </r>
       <r>   18.2911    0.0000 </r>
       <r>   18.3243    0.0000 </r>
       <r>   18.3244    0.0000 </r>
       <r>   18.3806    0.0000 </r>
       <r>   18.3806    0.0000 </r>
       <r>   18.4720    0.0000 </r>
       <r>   18.4721    0.0000 </r>
       <r>   18.6976    0.0000 </r>
       <r>   18.6976    0.0000 </r>
       <r>   18.8035    0.0000 </r>
       <r>   18.8036    0.0000 </r>
       <r>   18.8536    0.0000 </r>
       <r>   18.8536    0.0000 </r>
       <r>   19.4114    0.0000 </r>
       <r>   19.4114    0.0000 </r>
       <r>   19.4312    0.0000 </r>
       <r>   19.4312    0.0000 </r>
       <r>   19.5046    0.0000 </r>
       <r>   19.5046    0.0000 </r>
       <r>   19.8707    0.0000 </r>
       <r>   19.8708    0.0000 </r>
       <r>   19.9263    0.0000 </r>
       <r>   19.9263    0.0000 </r>
       <r>   20.0852    0.0000 </r>
       <r>   20.0852    0.0000 </r>
       <r>   20.4478    0.0000 </r>
       <r>   20.4478    0.0000 </r>
       <r>   20.5720    0.0000 </r>
       <r>   20.5720    0.0000 </r>
       <r>   20.6515    0.0000 </r>
       <r>   20.6515    0.0000 </r>
       <r>   20.8004    0.0000 </r>
       <r>   20.8004    0.0000 </r>
       <r>   20.9362    0.0000 </r>
       <r>   20.9362    0.0000 </r>
       <r>   21.2069    0.0000 </r>
       <r>   21.2069    0.0000 </r>
       <r>   21.4669    0.0000 </r>
       <r>   21.4669    0.0000 </r>
       <r>   21.5801    0.0000 </r>
       <r>   21.5801    0.0000 </r>
       <r>   21.8365    0.0000 </r>
       <r>   21.8365    0.0000 </r>
       <r>   21.9037    0.0000 </r>
       <r>   21.9037    0.0000 </r>
       <r>   22.1779    0.0000 </r>
       <r>   22.1779    0.0000 </r>
       <r>   22.3131    0.0000 </r>
       <r>   22.3131    0.0000 </r>
       <r>   22.6418    0.0000 </r>
       <r>   22.6418    0.0000 </r>
       <r>   22.6652    0.0000 </r>
       <r>   22.6652    0.0000 </r>
       <r>   23.2416    0.0000 </r>
       <r>   23.2416    0.0000 </r>
       <r>   23.5737    0.0000 </r>
       <r>   23.5737    0.0000 </r>
       <r>   23.7723    0.0000 </r>
       <r>   23.7723    0.0000 </r>
       <r>   23.7986    0.0000 </r>
       <r>   23.7986    0.0000 </r>
       <r>   23.9425    0.0000 </r>
       <r>   23.9425    0.0000 </r>
       <r>   24.3161    0.0000 </r>
       <r>   24.3162    0.0000 </r>
       <r>   24.3588    0.0000 </r>
       <r>   24.3588    0.0000 </r>
       <r>   24.6319    0.0000 </r>
       <r>   24.6319    0.0000 </r>
       <r>   24.7728    0.0000 </r>
       <r>   24.7728    0.0000 </r>
       <r>   24.9395    0.0000 </r>
       <r>   24.9395    0.0000 </r>
       <r>   25.0395    0.0000 </r>
       <r>   25.0396    0.0000 </r>
       <r>   25.2533    0.0000 </r>
       <r>   25.2533    0.0000 </r>
       <r>   25.2939    0.0000 </r>
       <r>   25.2948    0.0000 </r>
       <r>   25.5249    0.0000 </r>
       <r>   25.5249    0.0000 </r>
       <r>   25.6883    0.0000 </r>
       <r>   25.6950    0.0000 </r>
       <r>   25.8819    0.0000 </r>
       <r>   25.8864    0.0000 </r>
       <r>   25.9973    0.0000 </r>
       <r>   25.9988    0.0000 </r>
       <r>   26.3190    0.0000 </r>
       <r>   26.3201    0.0000 </r>
       <r>   26.3955    0.0000 </r>
       <r>   26.3985    0.0000 </r>
       <r>   26.6070    0.0000 </r>
       <r>   26.6139    0.0000 </r>
       <r>   26.6356    0.0000 </r>
       <r>   26.6906    0.0000 </r>
       <r>   26.7094    0.0000 </r>
       <r>   26.7142    0.0000 </r>
       <r>   26.9408    0.0000 </r>
       <r>   27.0007    0.0000 </r>
       <r>   27.0899    0.0000 </r>
       <r>   27.1296    0.0000 </r>
       <r>   27.1367    0.0000 </r>
       <r>   27.1899    0.0000 </r>
       <r>   27.2488    0.0000 </r>
       <r>   27.3455    0.0000 </r>
       <r>   27.5444    0.0000 </r>
       <r>   27.6329    0.0000 </r>
       <r>   27.7108    0.0000 </r>
       <r>   27.8407    0.0000 </r>
       <r>   27.9208    0.0000 </r>
       <r>   28.0357    0.0000 </r>
      </set>
      <set comment="kpoint 3">
       <r>  -43.9823    1.0000 </r>
       <r>  -43.9823    1.0000 </r>
       <r>  -43.9822    1.0000 </r>
       <r>  -43.9822    1.0000 </r>
       <r>  -43.8513    1.0000 </r>
       <r>  -43.8513    1.0000 </r>
       <r>  -43.8512    1.0000 </r>
       <r>  -43.8512    1.0000 </r>
       <r>  -43.6345    1.0000 </r>
       <r>  -43.6345    1.0000 </r>
       <r>  -43.6345    1.0000 </r>
       <r>  -43.6345    1.0000 </r>
       <r>  -43.6114    1.0000 </r>
       <r>  -43.6114    1.0000 </r>
       <r>  -43.6114    1.0000 </r>
       <r>  -43.6114    1.0000 </r>
       <r>  -43.5698    1.0000 </r>
       <r>  -43.5698    1.0000 </r>
       <r>  -43.5698    1.0000 </r>
       <r>  -43.5698    1.0000 </r>
       <r>  -43.4386    1.0000 </r>
       <r>  -43.4386    1.0000 </r>
       <r>  -43.4386    1.0000 </r>
       <r>  -43.4386    1.0000 </r>
       <r>  -22.9763    1.0000 </r>
       <r>  -22.9763    1.0000 </r>
       <r>  -22.9700    1.0000 </r>
       <r>  -22.9700    1.0000 </r>
       <r>  -22.9340    1.0000 </r>
       <r>  -22.9340    1.0000 </r>
       <r>  -22.9263    1.0000 </r>
       <r>  -22.9263    1.0000 </r>
       <r>  -22.1064    1.0000 </r>
       <r>  -22.1064    1.0000 </r>
       <r>  -22.0892    1.0000 </r>
       <r>  -22.0892    1.0000 </r>
       <r>  -22.0552    1.0000 </r>
       <r>  -22.0552    1.0000 </r>
       <r>  -22.0435    1.0000 </r>
       <r>  -22.0435    1.0000 </r>
       <r>  -20.1835    1.0000 </r>
       <r>  -20.1835    1.0000 </r>
       <r>  -20.1828    1.0000 </r>
       <r>  -20.1828    1.0000 </r>
       <r>  -20.0795    1.0000 </r>
       <r>  -20.0795    1.0000 </r>
       <r>  -20.0770    1.0000 </r>
       <r>  -20.0770    1.0000 </r>
       <r>  -19.6945    1.0000 </r>
       <r>  -19.6945    1.0000 </r>
       <r>  -19.6921    1.0000 </r>
       <r>  -19.6921    1.0000 </r>
       <r>  -19.1885    1.0000 </r>
       <r>  -19.1885    1.0000 </r>
       <r>  -19.1851    1.0000 </r>
       <r>  -19.1851    1.0000 </r>
       <r>  -19.0538    1.0000 </r>
       <r>  -19.0538    1.0000 </r>
       <r>  -19.0476    1.0000 </r>
       <r>  -19.0476    1.0000 </r>
       <r>  -18.9426    1.0000 </r>
       <r>  -18.9426    1.0000 </r>
       <r>  -18.9333    1.0000 </r>
       <r>  -18.9333    1.0000 </r>
       <r>  -17.2950    1.0000 </r>
       <r>  -17.2950    1.0000 </r>
       <r>  -17.2919    1.0000 </r>
       <r>  -17.2918    1.0000 </r>
       <r>  -16.2876    1.0000 </r>
       <r>  -16.2876    1.0000 </r>
       <r>  -16.2829    1.0000 </r>
       <r>  -16.2828    1.0000 </r>
       <r>  -16.0535    1.0000 </r>
       <r>  -16.0535    1.0000 </r>
       <r>  -16.0476    1.0000 </r>
       <r>  -16.0475    1.0000 </r>
       <r>  -15.8136    1.0000 </r>
       <r>  -15.8136    1.0000 </r>
       <r>  -15.8099    1.0000 </r>
       <r>  -15.8099    1.0000 </r>
       <r>  -15.2897    1.0000 </r>
       <r>  -15.2897    1.0000 </r>
       <r>  -15.2817    1.0000 </r>
       <r>  -15.2817    1.0000 </r>
       <r>  -14.9800    1.0000 </r>
       <r>  -14.9800    1.0000 </r>
       <r>  -14.9768    1.0000 </r>
       <r>  -14.9768    1.0000 </r>
       <r>  -14.7358    1.0000 </r>
       <r>  -14.7358    1.0000 </r>
       <r>  -14.7265    1.0000 </r>
       <r>  -14.7265    1.0000 </r>
       <r>   -7.3879    1.0000 </r>
       <r>   -7.3879    1.0000 </r>
       <r>   -7.3875    1.0000 </r>
       <r>   -7.3875    1.0000 </r>
       <r>   -6.2091    1.0000 </r>
       <r>   -6.2091    1.0000 </r>
       <r>   -6.2065    1.0000 </r>
       <r>   -6.2065    1.0000 </r>
       <r>   -2.8268    1.0000 </r>
       <r>   -2.8268    1.0000 </r>
       <r>   -2.7325    1.0000 </r>
       <r>   -2.7325    1.0000 </r>
       <r>   -2.4080    1.0000 </r>
       <r>   -2.4080    1.0000 </r>
       <r>   -2.3555    1.0000 </r>
       <r>   -2.3555    1.0000 </r>
       <r>   -1.6576    1.0000 </r>
       <r>   -1.6576    1.0000 </r>
       <r>   -1.5341    1.0000 </r>
       <r>   -1.5341    1.0000 </r>
       <r>   -1.2545    1.0000 </r>
       <r>   -1.2545    1.0000 </r>
       <r>   -1.2201    1.0000 </r>
       <r>   -1.2201    1.0000 </r>
       <r>   -1.0320    1.0000 </r>
       <r>   -1.0320    1.0000 </r>
       <r>   -1.0227    1.0000 </r>
       <r>   -1.0227    1.0000 </r>
       <r>   -0.7046    1.0000 </r>
       <r>   -0.7046    1.0000 </r>
       <r>   -0.6594    1.0000 </r>
       <r>   -0.6594    1.0000 </r>
       <r>   -0.5244    1.0000 </r>
       <r>   -0.5244    1.0000 </r>
       <r>   -0.5130    1.0000 </r>
       <r>   -0.5130    1.0000 </r>
       <r>   -0.4136    1.0000 </r>
       <r>   -0.4136    1.0000 </r>
       <r>   -0.4004    1.0000 </r>
       <r>   -0.4004    1.0000 </r>
       <r>   -0.0855    1.0000 </r>
       <r>   -0.0855    1.0000 </r>
       <r>   -0.0774    1.0000 </r>
       <r>   -0.0773    1.0000 </r>
       <r>    0.2771    1.0000 </r>
       <r>    0.2771    1.0000 </r>
       <r>    0.2839    1.0000 </r>
       <r>    0.2839    1.0000 </r>
       <r>    0.3574    1.0000 </r>
       <r>    0.3574    1.0000 </r>
       <r>    0.3753    1.0000 </r>
       <r>    0.3753    1.0000 </r>
       <r>    0.4904    1.0000 </r>
       <r>    0.4904    1.0000 </r>
       <r>    0.5111    1.0000 </r>
       <r>    0.5111    1.0000 </r>
       <r>    0.6508    1.0000 </r>
       <r>    0.6508    1.0000 </r>
       <r>    0.6567    1.0000 </r>
       <r>    0.6567    1.0000 </r>
       <r>    0.6852    1.0000 </r>
       <r>    0.6852    1.0000 </r>
       <r>    0.6930    1.0000 </r>
       <r>    0.6930    1.0000 </r>
       <r>    0.8303    1.0000 </r>
       <r>    0.8303    1.0000 </r>
       <r>    0.8633    1.0000 </r>
       <r>    0.8633    1.0000 </r>
       <r>    0.9835    1.0000 </r>
       <r>    0.9835    1.0000 </r>
       <r>    1.0004    1.0000 </r>
       <r>    1.0004    1.0000 </r>
       <r>    1.1336    1.0000 </r>
       <r>    1.1336    1.0000 </r>
       <r>    1.1374    1.0000 </r>
       <r>    1.1374    1.0000 </r>
       <r>    1.1837    1.0000 </r>
       <r>    1.1837    1.0000 </r>
       <r>    1.1890    1.0000 </r>
       <r>    1.1891    1.0000 </r>
       <r>    1.3661    1.0000 </r>
       <r>    1.3661    1.0000 </r>
       <r>    1.3827    1.0000 </r>
       <r>    1.3827    1.0000 </r>
       <r>    3.0476    1.0000 </r>
       <r>    3.0477    1.0000 </r>
       <r>    3.0877    1.0000 </r>
       <r>    3.0877    1.0000 </r>
       <r>    5.8387    0.0000 </r>
       <r>    5.8387    0.0000 </r>
       <r>    5.8423    0.0000 </r>
       <r>    5.8423    0.0000 </r>
       <r>    7.7682    0.0000 </r>
       <r>    7.7682    0.0000 </r>
       <r>    7.8961    0.0000 </r>
       <r>    7.8961    0.0000 </r>
       <r>    9.0135    0.0000 </r>
       <r>    9.0135    0.0000 </r>
       <r>    9.4662    0.0000 </r>
       <r>    9.4662    0.0000 </r>
       <r>    9.6802    0.0000 </r>
       <r>    9.6802    0.0000 </r>
       <r>    9.9625    0.0000 </r>
       <r>    9.9625    0.0000 </r>
       <r>   10.3185    0.0000 </r>
       <r>   10.3185    0.0000 </r>
       <r>   10.3917    0.0000 </r>
       <r>   10.3917    0.0000 </r>
       <r>   10.6786    0.0000 </r>
       <r>   10.6786    0.0000 </r>
       <r>   10.7937    0.0000 </r>
       <r>   10.7937    0.0000 </r>
       <r>   11.6022    0.0000 </r>
       <r>   11.6022    0.0000 </r>
       <r>   11.6708    0.0000 </r>
       <r>   11.6708    0.0000 </r>
       <r>   12.1703    0.0000 </r>
       <r>   12.1703    0.0000 </r>
       <r>   12.1745    0.0000 </r>
       <r>   12.1745    0.0000 </r>
       <r>   12.4517    0.0000 </r>
       <r>   12.4517    0.0000 </r>
       <r>   12.5021    0.0000 </r>
       <r>   12.5021    0.0000 </r>
       <r>   12.8534    0.0000 </r>
       <r>   12.8534    0.0000 </r>
       <r>   12.9400    0.0000 </r>
       <r>   12.9400    0.0000 </r>
       <r>   13.2986    0.0000 </r>
       <r>   13.2986    0.0000 </r>
       <r>   13.4438    0.0000 </r>
       <r>   13.4439    0.0000 </r>
       <r>   13.6225    0.0000 </r>
       <r>   13.6225    0.0000 </r>
       <r>   13.6537    0.0000 </r>
       <r>   13.6537    0.0000 </r>
       <r>   14.1505    0.0000 </r>
       <r>   14.1505    0.0000 </r>
       <r>   14.2486    0.0000 </r>
       <r>   14.2486    0.0000 </r>
       <r>   14.3860    0.0000 </r>
       <r>   14.3860    0.0000 </r>
       <r>   14.4040    0.0000 </r>
       <r>   14.4040    0.0000 </r>
       <r>   14.8063    0.0000 </r>
       <r>   14.8063    0.0000 </r>
       <r>   15.0139    0.0000 </r>
       <r>   15.0139    0.0000 </r>
       <r>   15.3106    0.0000 </r>
       <r>   15.3106    0.0000 </r>
       <r>   15.3975    0.0000 </r>
       <r>   15.3975    0.0000 </r>
       <r>   15.6246    0.0000 </r>
       <r>   15.6246    0.0000 </r>
       <r>   15.6524    0.0000 </r>
       <r>   15.6524    0.0000 </r>
       <r>   16.1014    0.0000 </r>
       <r>   16.1014    0.0000 </r>
       <r>   16.1263    0.0000 </r>
       <r>   16.1263    0.0000 </r>
       <r>   16.6067    0.0000 </r>
       <r>   16.6067    0.0000 </r>
       <r>   16.6117    0.0000 </r>
       <r>   16.6117    0.0000 </r>
       <r>   16.9791    0.0000 </r>
       <r>   16.9791    0.0000 </r>
       <r>   17.0211    0.0000 </r>
       <r>   17.0211    0.0000 </r>
       <r>   17.4554    0.0000 </r>
       <r>   17.4554    0.0000 </r>
       <r>   17.4733    0.0000 </r>
       <r>   17.4733    0.0000 </r>
       <r>   17.6619    0.0000 </r>
       <r>   17.6620    0.0000 </r>
       <r>   17.6830    0.0000 </r>
       <r>   17.6830    0.0000 </r>
       <r>   17.9601    0.0000 </r>
       <r>   17.9601    0.0000 </r>
       <r>   17.9827    0.0000 </r>
       <r>   17.9827    0.0000 </r>
       <r>   18.1936    0.0000 </r>
       <r>   18.1936    0.0000 </r>
       <r>   18.2410    0.0000 </r>
       <r>   18.2410    0.0000 </r>
       <r>   18.5006    0.0000 </r>
       <r>   18.5006    0.0000 </r>
       <r>   18.5451    0.0000 </r>
       <r>   18.5451    0.0000 </r>
       <r>   18.7938    0.0000 </r>
       <r>   18.7938    0.0000 </r>
       <r>   18.8201    0.0000 </r>
       <r>   18.8202    0.0000 </r>
       <r>   19.3516    0.0000 </r>
       <r>   19.3516    0.0000 </r>
       <r>   19.3817    0.0000 </r>
       <r>   19.3817    0.0000 </r>
       <r>   19.7837    0.0000 </r>
       <r>   19.7837    0.0000 </r>
       <r>   19.7992    0.0000 </r>
       <r>   19.7992    0.0000 </r>
       <r>   20.0914    0.0000 </r>
       <r>   20.0915    0.0000 </r>
       <r>   20.1267    0.0000 </r>
       <r>   20.1267    0.0000 </r>
       <r>   20.2872    0.0000 </r>
[...]
       <r>    17.8205     0.0000     0.0000 </r>
       <r>    17.8603     0.0000     0.0000 </r>
       <r>    17.9000     0.0000     0.0000 </r>
       <r>    17.9398     0.0000     0.0000 </r>
       <r>    17.9796     0.0000     0.0000 </r>
       <r>    18.0193     0.0000     0.0000 </r>
       <r>    18.0591     0.0000     0.0000 </r>
       <r>    18.0989     0.0000     0.0000 </r>
       <r>    18.1386     0.0000     0.0000 </r>
       <r>    18.1784     0.0000     0.0000 </r>
       <r>    18.2182     0.0000     0.0000 </r>
       <r>    18.2579     0.0000     0.0000 </r>
       <r>    18.2977     0.0000     0.0000 </r>
       <r>    18.3375     0.0000     0.0000 </r>
       <r>    18.3772     0.0000     0.0000 </r>
       <r>    18.4170     0.0000     0.0000 </r>
       <r>    18.4568     0.0000     0.0000 </r>
       <r>    18.4965     0.0000     0.0000 </r>
       <r>    18.5363     0.0000     0.0000 </r>
       <r>    18.5761     0.0000     0.0000 </r>
       <r>    18.6158     0.0000     0.0000 </r>
       <r>    18.6556     0.0000     0.0000 </r>
       <r>    18.6954     0.0000     0.0000 </r>
       <r>    18.7352     0.0000     0.0000 </r>
       <r>    18.7749     0.0000     0.0000 </r>
       <r>    18.8147     0.0000     0.0000 </r>
       <r>    18.8545     0.0000     0.0000 </r>
       <r>    18.8942     0.0000     0.0000 </r>
       <r>    18.9340     0.0000     0.0000 </r>
       <r>    18.9738     0.0000     0.0000 </r>
       <r>    19.0135     0.0000     0.0000 </r>
       <r>    19.0533     0.0000     0.0000 </r>
       <r>    19.0931     0.0000     0.0000 </r>
       <r>    19.1328     0.0000     0.0000 </r>
       <r>    19.1726     0.0000     0.0000 </r>
       <r>    19.2124     0.0000     0.0000 </r>
       <r>    19.2521     0.0000     0.0000 </r>
       <r>    19.2919     0.0000     0.0000 </r>
       <r>    19.3317     0.0000     0.0000 </r>
       <r>    19.3714     0.0000     0.0000 </r>
       <r>    19.4112     0.0000     0.0000 </r>
       <r>    19.4510     0.0000     0.0000 </r>
       <r>    19.4907     0.0000     0.0000 </r>
       <r>    19.5305     0.0000     0.0000 </r>
       <r>    19.5703     0.0000     0.0000 </r>
       <r>    19.6100     0.0000     0.0000 </r>
       <r>    19.6498     0.0000     0.0000 </r>
       <r>    19.6896     0.0000     0.0000 </r>
       <r>    19.7293     0.0000     0.0000 </r>
       <r>    19.7691     0.0000     0.0000 </r>
       <r>    19.8089     0.0000     0.0000 </r>
       <r>    19.8486     0.0000     0.0000 </r>
       <r>    19.8884     0.0000     0.0000 </r>
       <r>    19.9282     0.0000     0.0000 </r>
       <r>    19.9679     0.0000     0.0000 </r>
       <r>    20.0077     0.0000     0.0000 </r>
       <r>    20.0475     0.0000     0.0000 </r>
       <r>    20.0873     0.0000     0.0000 </r>
       <r>    20.1270     0.0000     0.0000 </r>
       <r>    20.1668     0.0000     0.0000 </r>
       <r>    20.2066     0.0000     0.0000 </r>
       <r>    20.2463     0.0000     0.0000 </r>
       <r>    20.2861     0.0000     0.0000 </r>
       <r>    20.3259     0.0000     0.0000 </r>
       <r>    20.3656     0.0000     0.0000 </r>
       <r>    20.4054     0.0000     0.0000 </r>
       <r>    20.4452     0.0000     0.0000 </r>
       <r>    20.4849     0.0000     0.0000 </r>
       <r>    20.5247     0.0000     0.0000 </r>
       <r>    20.5645     0.0000     0.0000 </r>
       <r>    20.6042     0.0000     0.0000 </r>
       <r>    20.6440     0.0000     0.0000 </r>
       <r>    20.6838     0.0000     0.0000 </r>
       <r>    20.7235     0.0000     0.0000 </r>
       <r>    20.7633     0.0000     0.0000 </r>
       <r>    20.8031     0.0000     0.0000 </r>
       <r>    20.8428     0.0000     0.0000 </r>
       <r>    20.8826     0.0000     0.0000 </r>
       <r>    20.9224     0.0000     0.0000 </r>
       <r>    20.9621     0.0000     0.0000 </r>
       <r>    21.0019     0.0000     0.0000 </r>
       <r>    21.0417     0.0000     0.0000 </r>
       <r>    21.0814     0.0000     0.0000 </r>
       <r>    21.1212     0.0000     0.0000 </r>
       <r>    21.1610     0.0000     0.0000 </r>
       <r>    21.2007     0.0000     0.0000 </r>
       <r>    21.2405     0.0000     0.0000 </r>
       <r>    21.2803     0.0000     0.0000 </r>
       <r>    21.3200     0.0000     0.0000 </r>
       <r>    21.3598     0.0000     0.0000 </r>
       <r>    21.3996     0.0000     0.0000 </r>
       <r>    21.4394     0.0000     0.0000 </r>
       <r>    21.4791     0.0000     0.0000 </r>
       <r>    21.5189     0.0000     0.0000 </r>
       <r>    21.5587     0.0000     0.0000 </r>
       <r>    21.5984     0.0000     0.0000 </r>
       <r>    21.6382     0.0000     0.0000 </r>
       <r>    21.6780     0.0000     0.0000 </r>
       <r>    21.7177     0.0000     0.0000 </r>
       <r>    21.7575     0.0000     0.0000 </r>
       <r>    21.7973     0.0000     0.0000 </r>
       <r>    21.8370     0.0000     0.0000 </r>
       <r>    21.8768     0.0000     0.0000 </r>
       <r>    21.9166     0.0000     0.0000 </r>
       <r>    21.9563     0.0000     0.0000 </r>
       <r>    21.9961     0.0000     0.0000 </r>
       <r>    22.0359     0.0000     0.0000 </r>
       <r>    22.0756     0.0000     0.0000 </r>
       <r>    22.1154     0.0000     0.0000 </r>
       <r>    22.1552     0.0000     0.0000 </r>
       <r>    22.1949     0.0000     0.0000 </r>
       <r>    22.2347     0.0000     0.0000 </r>
       <r>    22.2745     0.0000     0.0000 </r>
       <r>    22.3142     0.0000     0.0000 </r>
       <r>    22.3540     0.0000     0.0000 </r>
       <r>    22.3938     0.0000     0.0000 </r>
       <r>    22.4335     0.0000     0.0000 </r>
       <r>    22.4733     0.0000     0.0000 </r>
       <r>    22.5131     0.0000     0.0000 </r>
       <r>    22.5528     0.0000     0.0000 </r>
       <r>    22.5926     0.0000     0.0000 </r>
       <r>    22.6324     0.0000     0.0000 </r>
       <r>    22.6721     0.0000     0.0000 </r>
       <r>    22.7119     0.0000     0.0000 </r>
       <r>    22.7517     0.0000     0.0000 </r>
       <r>    22.7915     0.0000     0.0000 </r>
       <r>    22.8312     0.0000     0.0000 </r>
       <r>    22.8710     0.0000     0.0000 </r>
       <r>    22.9108     0.0000     0.0000 </r>
       <r>    22.9505     0.0000     0.0000 </r>
       <r>    22.9903     0.0000     0.0000 </r>
       <r>    23.0301     0.0000     0.0000 </r>
       <r>    23.0698     0.0000     0.0000 </r>
       <r>    23.1096     0.0000     0.0000 </r>
       <r>    23.1494     0.0000     0.0000 </r>
       <r>    23.1891     0.0000     0.0000 </r>
       <r>    23.2289     0.0000     0.0000 </r>
       <r>    23.2687     0.0000     0.0000 </r>
       <r>    23.3084     0.0000     0.0000 </r>
       <r>    23.3482     0.0000     0.0000 </r>
       <r>    23.3880     0.0000     0.0000 </r>
       <r>    23.4277     0.0000     0.0000 </r>
       <r>    23.4675     0.0000     0.0000 </r>
       <r>    23.5073     0.0000     0.0000 </r>
       <r>    23.5470     0.0000     0.0000 </r>
       <r>    23.5868     0.0000     0.0000 </r>
       <r>    23.6266     0.0000     0.0000 </r>
       <r>    23.6663     0.0000     0.0000 </r>
       <r>    23.7061     0.0000     0.0000 </r>
       <r>    23.7459     0.0000     0.0000 </r>
       <r>    23.7856     0.0000     0.0000 </r>
       <r>    23.8254     0.0000     0.0000 </r>
       <r>    23.8652     0.0000     0.0000 </r>
       <r>    23.9049     0.0000     0.0000 </r>
       <r>    23.9447     0.0000     0.0000 </r>
       <r>    23.9845     0.0000     0.0000 </r>
       <r>    24.0243     0.0000     0.0000 </r>
       <r>    24.0640     0.0000     0.0000 </r>
       <r>    24.1038     0.0000     0.0000 </r>
       <r>    24.1436     0.0000     0.0000 </r>
       <r>    24.1833     0.0000     0.0000 </r>
       <r>    24.2231     0.0000     0.0000 </r>
       <r>    24.2629     0.0000     0.0000 </r>
       <r>    24.3026     0.0000     0.0000 </r>
       <r>    24.3424     0.0000     0.0000 </r>
       <r>    24.3822     0.0000     0.0000 </r>
       <r>    24.4219     0.0000     0.0000 </r>
       <r>    24.4617     0.0000     0.0000 </r>
       <r>    24.5015     0.0000     0.0000 </r>
       <r>    24.5412     0.0000     0.0000 </r>
       <r>    24.5810     0.0000     0.0000 </r>
       <r>    24.6208     0.0000     0.0000 </r>
       <r>    24.6605     0.0000     0.0000 </r>
       <r>    24.7003     0.0000     0.0000 </r>
       <r>    24.7401     0.0000     0.0000 </r>
       <r>    24.7798     0.0000     0.0000 </r>
       <r>    24.8196     0.0000     0.0000 </r>
       <r>    24.8594     0.0000     0.0000 </r>
       <r>    24.8991     0.0000     0.0000 </r>
       <r>    24.9389     0.0000     0.0000 </r>
       <r>    24.9787     0.0000     0.0000 </r>
       <r>    25.0184     0.0000     0.0000 </r>
       <r>    25.0582     0.0000     0.0000 </r>
       <r>    25.0980     0.0000     0.0000 </r>
       <r>    25.1377     0.0000     0.0000 </r>
       <r>    25.1775     0.0000     0.0000 </r>
       <r>    25.2173     0.0000     0.0000 </r>
       <r>    25.2570     0.0000     0.0000 </r>
       <r>    25.2968     0.0000     0.0000 </r>
       <r>    25.3366     0.0000     0.0000 </r>
       <r>    25.3764     0.0000     0.0000 </r>
       <r>    25.4161     0.0000     0.0000 </r>
       <r>    25.4559     0.0000     0.0000 </r>
       <r>    25.4957     0.0000     0.0000 </r>
       <r>    25.5354     0.0000     0.0000 </r>
       <r>    25.5752     0.0000     0.0000 </r>
       <r>    25.6150     0.0000     0.0000 </r>
       <r>    25.6547     0.0000     0.0000 </r>
       <r>    25.6945     0.0000     0.0000 </r>
       <r>    25.7343     0.0000     0.0000 </r>
       <r>    25.7740     0.0000     0.0000 </r>
       <r>    25.8138     0.0000     0.0000 </r>
       <r>    25.8536     0.0000     0.0000 </r>
       <r>    25.8933     0.0000     0.0000 </r>
       <r>    25.9331     0.0000     0.0000 </r>
       <r>    25.9729     0.0000     0.0000 </r>
       <r>    26.0126     0.0000     0.0000 </r>
       <r>    26.0524     0.0000     0.0000 </r>
       <r>    26.0922     0.0000     0.0000 </r>
       <r>    26.1319     0.0000     0.0000 </r>
       <r>    26.1717     0.0000     0.0000 </r>
       <r>    26.2115     0.0000     0.0000 </r>
       <r>    26.2512     0.0000     0.0000 </r>
       <r>    26.2910     0.0000     0.0000 </r>
       <r>    26.3308     0.0000     0.0000 </r>
       <r>    26.3705     0.0000     0.0000 </r>
       <r>    26.4103     0.0000     0.0000 </r>
       <r>    26.4501     0.0000     0.0000 </r>
       <r>    26.4898     0.0000     0.0000 </r>
       <r>    26.5296     0.0000     0.0000 </r>
       <r>    26.5694     0.0000     0.0000 </r>
       <r>    26.6091     0.0000     0.0000 </r>
       <r>    26.6489     0.0000     0.0000 </r>
       <r>    26.6887     0.0000     0.0000 </r>
       <r>    26.7285     0.0000     0.0000 </r>
       <r>    26.7682     0.0000     0.0000 </r>
       <r>    26.8080     0.0000     0.0000 </r>
       <r>    26.8478     0.0000     0.0000 </r>
       <r>    26.8875     0.0000     0.0000 </r>
       <r>    26.9273     0.0000     0.0000 </r>
       <r>    26.9671     0.0000     0.0000 </r>
       <r>    27.0068     0.0000     0.0000 </r>
       <r>    27.0466     0.0000     0.0000 </r>
       <r>    27.0864     0.0000     0.0000 </r>
       <r>    27.1261     0.0000     0.0000 </r>
       <r>    27.1659     0.0000     0.0000 </r>
       <r>    27.2057     0.0000     0.0000 </r>
       <r>    27.2454     0.0000     0.0000 </r>
       <r>    27.2852     0.0000     0.0000 </r>
       <r>    27.3250     0.0000     0.0000 </r>
       <r>    27.3647     0.0000     0.0000 </r>
       <r>    27.4045     0.0000     0.0000 </r>
       <r>    27.4443     0.0000     0.0000 </r>
       <r>    27.4840     0.0000     0.0000 </r>
       <r>    27.5238     0.0000     0.0000 </r>
       <r>    27.5636     0.0000     0.0000 </r>
       <r>    27.6033     0.0000     0.0000 </r>
       <r>    27.6431     0.0000     0.0000 </r>
       <r>    27.6829     0.0000     0.0000 </r>
       <r>    27.7226     0.0000     0.0000 </r>
       <r>    27.7624     0.0000     0.0000 </r>
       <r>    27.8022     0.0000     0.0000 </r>
       <r>    27.8419     0.0000     0.0000 </r>
       <r>    27.8817     0.0000     0.0000 </r>
       <r>    27.9215     0.0000     0.0000 </r>
       <r>    27.9612     0.0000     0.0000 </r>
       <r>    28.0010     0.0000     0.0000 </r>
       <r>    28.0408     0.0000     0.0000 </r>
       <r>    28.0806     0.0000     0.0000 </r>
       <r>    28.1203     0.0000     0.0000 </r>
       <r>    28.1601     0.0000     0.0000 </r>
       <r>    28.1999     0.0000     0.0000 </r>
       <r>    28.2396     0.0000     0.0000 </r>
       <r>    28.2794     0.0000     0.0000 </r>
       <r>    28.3192     0.0000     0.0000 </r>
       <r>    28.3589     0.0000     0.0000 </r>
       <r>    28.3987     0.0000     0.0000 </r>
       <r>    28.4385     0.0000     0.0000 </r>
       <r>    28.4782     0.0000     0.0000 </r>
       <r>    28.5180     0.0000     0.0000 </r>
       <r>    28.5578     0.0000     0.0000 </r>
       <r>    28.5975     0.0000     0.0000 </r>
       <r>    28.6373     0.0000     0.0000 </r>
       <r>    28.6771     0.0000     0.0000 </r>
       <r>    28.7168     0.0000     0.0000 </r>
       <r>    28.7566     0.0000     0.0000 </r>
       <r>    28.7964     0.0000     0.0000 </r>
       <r>    28.8361     0.0000     0.0000 </r>
       <r>    28.8759     0.0000     0.0000 </r>
       <r>    28.9157     0.0000     0.0000 </r>
       <r>    28.9554     0.0000     0.0000 </r>
       <r>    28.9952     0.0000     0.0000 </r>
       <r>    29.0350     0.0000     0.0000 </r>
       <r>    29.0747     0.0000     0.0000 </r>
       <r>    29.1145     0.0000     0.0000 </r>
       <r>    29.1543     0.0000     0.0000 </r>
       <r>    29.1940     0.0000     0.0000 </r>
       <r>    29.2338     0.0000     0.0000 </r>
       <r>    29.2736     0.0000     0.0000 </r>
       <r>    29.3133     0.0000     0.0000 </r>
       <r>    29.3531     0.0000     0.0000 </r>
       <r>    29.3929     0.0000     0.0000 </r>
       <r>    29.4327     0.0000     0.0000 </r>
       <r>    29.4724     0.0000     0.0000 </r>
       <r>    29.5122     0.0000     0.0000 </r>
       <r>    29.5520     0.0000     0.0000 </r>
       <r>    29.5917     0.0000     0.0000 </r>
       <r>    29.6315     0.0000     0.0000 </r>
       <r>    29.6713     0.0000     0.0000 </r>
       <r>    29.7110     0.0000     0.0000 </r>
       <r>    29.7508     0.0000     0.0000 </r>
       <r>    29.7906     0.0000     0.0000 </r>
       <r>    29.8303     0.0000     0.0000 </r>
       <r>    29.8701     0.0000     0.0000 </r>
       <r>    29.9099     0.0000     0.0000 </r>
       <r>    29.9496     0.0000     0.0000 </r>
       <r>    29.9894     0.0000     0.0000 </r>
       <r>    30.0292     0.0000     0.0000 </r>
       <r>    30.0689     0.0000     0.0000 </r>
       <r>    30.1087     0.0000     0.0000 </r>
       <r>    30.1485     0.0000     0.0000 </r>
       <r>    30.1882     0.0000     0.0000 </r>
       <r>    30.2280     0.0000     0.0000 </r>
       <r>    30.2678     0.0000     0.0000 </r>
       <r>    30.3075     0.0000     0.0000 </r>
       <r>    30.3473     0.0000     0.0000 </r>
       <r>    30.3871     0.0000     0.0000 </r>
       <r>    30.4268     0.0000     0.0000 </r>
       <r>    30.4666     0.0000     0.0000 </r>
       <r>    30.5064     0.0000     0.0000 </r>
       <r>    30.5461     0.0000     0.0000 </r>
       <r>    30.5859     0.0000     0.0000 </r>
       <r>    30.6257     0.0000     0.0000 </r>
       <r>    30.6654     0.0000     0.0000 </r>
       <r>    30.7052     0.0000     0.0000 </r>
       <r>    30.7450     0.0000     0.0000 </r>
       <r>    30.7848     0.0000     0.0000 </r>
       <r>    30.8245     0.0000     0.0000 </r>
       <r>    30.8643     0.0000     0.0000 </r>
       <r>    30.9041     0.0000     0.0000 </r>
       <r>    30.9438     0.0000     0.0000 </r>
       <r>    30.9836     0.0000     0.0000 </r>
       <r>    31.0234     0.0000     0.0000 </r>
       <r>    31.0631     0.0000     0.0000 </r>
       <r>    31.1029     0.0000     0.0000 </r>
       <r>    31.1427     0.0000     0.0000 </r>
       <r>    31.1824     0.0000     0.0000 </r>
       <r>    31.2222     0.0000     0.0000 </r>
       <r>    31.2620     0.0000     0.0000 </r>
       <r>    31.3017     0.0000     0.0000 </r>
       <r>    31.3415     0.0000     0.0000 </r>
       <r>    31.3813     0.0000     0.0000 </r>
       <r>    31.4210     0.0000     0.0000 </r>
       <r>    31.4608     0.0000     0.0000 </r>
       <r>    31.5006     0.0000     0.0000 </r>
       <r>    31.5403     0.0000     0.0000 </r>
       <r>    31.5801     0.0000     0.0000 </r>
       <r>    31.6199     0.0000     0.0000 </r>
       <r>    31.6596     0.0000     0.0000 </r>
       <r>    31.6994     0.0000     0.0000 </r>
       <r>    31.7392     0.0000     0.0000 </r>
       <r>    31.7789     0.0000     0.0000 </r>
       <r>    31.8187     0.0000     0.0000 </r>
       <r>    31.8585     0.0000     0.0000 </r>
       <r>    31.8982     0.0000     0.0000 </r>
      </set>
     </set>
    </array>
   </total>
  </dos>
 </calculation>
 <structure name="finalpos" >
  <crystal>
   <varray name="basis" >
    <v>       5.54368872       0.00000000       0.00097366 </v>
    <v>       0.00000000       6.07261634       0.00000000 </v>
    <v>      -1.94241631       0.00000000      10.08266628 </v>
   </varray>
   <i name="volume">    339.44136677 </i>
   <varray name="rec_basis" >
    <v>       0.18037921       0.00000000       0.03474989 </v>
    <v>       0.00000000       0.16467367       0.00000000 </v>
    <v>      -0.00001742       0.00000000       0.09917676 </v>
   </varray>
  </crystal>
  <varray name="positions" >
   <v>       0.72526798       0.99336499       0.35601049 </v>
   <v>       0.78755946       0.99880507       0.11855268 </v>
   <v>       0.27473202       0.49336499       0.64398951 </v>
   <v>       0.21244054       0.49880507       0.88144732 </v>
   <v>       0.93868724       0.78611823       0.61712046 </v>
   <v>       0.59317839       0.21861708       0.90141957 </v>
   <v>       0.06131276       0.28611823       0.38287954 </v>
   <v>       0.40682161       0.71861708       0.09858043 </v>
   <v>       0.41280831       0.25361642       0.12471332 </v>
   <v>       0.09600208       0.76224377       0.38797207 </v>
   <v>       0.58719169       0.75361642       0.87528668 </v>
   <v>       0.90399792       0.26224377       0.61202793 </v>
   <v>       0.10882626       0.98009557       0.88030157 </v>
   <v>       0.39581426       0.01907584       0.60511735 </v>
   <v>       0.89117374       0.48009557       0.11969843 </v>
   <v>       0.60418574       0.51907584       0.39488265 </v>
   <v>       0.74793098       0.24448349       0.24069838 </v>
   <v>       0.79040006       0.74297740       0.23340037 </v>
   <v>       0.25206902       0.74448349       0.75930162 </v>
   <v>       0.20959994       0.24297740       0.76659963 </v>
   <v>       0.45469708       0.99342647       0.00312662 </v>
   <v>       0.01636307       0.03247921       0.49666074 </v>
   <v>       0.54530292       0.49342647       0.99687338 </v>
   <v>       0.98363693       0.53247921       0.50333926 </v>
   <v>       0.46553227       0.84586001       0.42589702 </v>
   <v>       0.94984000       0.19485029       0.00195559 </v>
   <v>       0.53446773       0.34586001       0.57410298 </v>
   <v>       0.05016000       0.69485029       0.99804441 </v>
   <v>       0.76850286       0.93316417       0.76026165 </v>
   <v>       0.23149714       0.43316417       0.23973835 </v>
  </varray>
 </structure>
</modeling>
