<?xml version="1.0" encoding="ISO-8859-1"?>
<modeling>
 <generator>
  <i name="program" type="string">vasp </i>
  <i name="version" type="string">5.4.1  </i>
  <i name="subversion" type="string">24Jun15 (build Jul 13 2016 16:36:47) complex                          parallel </i>
  <i name="platform" type="string">IFC91_ompi </i>
  <i name="date" type="string">2019 05 02 </i>
  <i name="time" type="string">19:29:29 </i>
 </generator>
 <incar>
  <i type="string" name="PREC">accurate</i>
  <i type="string" name="ALGO"> Normal</i>
  <i type="int" name="ISPIN">     1</i>
  <i type="int" name="NELM">   200</i>
  <i type="int" name="NELMIN">     4</i>
  <i type="int" name="IBRION">     2</i>
  <i name="EDIFF">      0.00000010</i>
  <i name="EDIFFG">      0.00001000</i>
  <i type="int" name="NSW">     0</i>
  <i type="int" name="ISIF">     3</i>
  <i type="int" name="ISYM">    -1</i>
  <i name="ENCUT">    520.00000000</i>
  <i type="int" name="NBANDS">    36</i>
  <i name="POTIM">      0.50000000</i>
  <i type="int" name="ISMEAR">     0</i>
  <i name="SIGMA">      0.10000000</i>
  <i type="logical" name="LWAVE"> T  </i>
  <i type="logical" name="LCHARG"> F  </i>
  <i type="logical" name="LORBIT"> F  </i>
  <v type="int" name="KPOINT_BSE">    -1     0     0     0</v>
  <i type="int" name="NELM">   200</i>
 </incar>
 <kpoints>
  <varray name="kpointlist" >
   <v>       0.00000000       0.00000000       0.00000000 </v>
   <v>       0.50000000       0.00000000       0.00000000 </v>
   <v>       0.00000000       0.50000000       0.00000000 </v>
   <v>       0.50000000       0.50000000       0.00000000 </v>
   <v>       0.00000000       0.00000000       0.00000000 </v>
  </varray>
  <varray name="weights" >
   <v>       0.25000000 </v>
   <v>       0.25000000 </v>
   <v>       0.25000000 </v>
   <v>       0.25000000 </v>
   <v>       0.00000000 </v>
  </varray>
 </kpoints>
 <parameters>
  <separator name="general" >
   <i type="string" name="SYSTEM">unknown system</i>
   <i type="logical" name="LCOMPAT"> F  </i>
  </separator>
  <separator name="electronic" >
   <i type="string" name="PREC">accura</i>
   <i name="ENMAX">    520.00000000</i>
   <i name="ENAUG">    605.39200000</i>
   <i name="EDIFF">      0.00000010</i>
   <i type="int" name="IALGO">    38</i>
   <i type="int" name="IWAVPR">    10</i>
   <i type="int" name="NBANDS">    36</i>
   <i name="NELECT">     48.00000000</i>
   <i type="int" name="TURBO">     0</i>
   <i type="int" name="IRESTART">     0</i>
   <i type="int" name="NREBOOT">     0</i>
   <i type="int" name="NMIN">     0</i>
   <i name="EREF">      0.00000000</i>
   <separator name="electronic smearing" >
    <i type="int" name="ISMEAR">     0</i>
    <i name="SIGMA">      0.10000000</i>
    <i name="KSPACING">      0.50000000</i>
    <i type="logical" name="KGAMMA"> T  </i>
   </separator>
   <separator name="electronic projectors" >
    <i type="logical" name="LREAL"> F  </i>
    <v name="ROPT">      0.00000000      0.00000000</v>
    <i type="int" name="LMAXPAW">  -100</i>
    <i type="int" name="LMAXMIX">     2</i>
    <i type="logical" name="NLSPLINE"> F  </i>
   </separator>
   <separator name="electronic startup" >
    <i type="int" name="ISTART">     1</i>
    <i type="int" name="ICHARG">     0</i>
    <i type="int" name="INIWAV">     1</i>
   </separator>
   <separator name="electronic spin" >
    <i type="int" name="ISPIN">     1</i>
    <i type="logical" name="LNONCOLLINEAR"> F  </i>
    <v name="MAGMOM">      1.00000000      1.00000000      1.00000000      1.00000000      1.00000000      1.00000000      1.00000000      1.00000000      1.00000000</v>
    <i name="NUPDOWN">     -1.00000000</i>
    <i type="logical" name="LSORBIT"> F  </i>
    <v name="SAXIS">      0.00000000      0.00000000      1.00000000</v>
    <i type="logical" name="LSPIRAL"> F  </i>
    <v name="QSPIRAL">      0.00000000      0.00000000      0.00000000</v>
    <i type="logical" name="LZEROZ"> F  </i>
   </separator>
   <separator name="electronic exchange-correlation" >
    <i type="logical" name="LASPH"> F  </i>
    <i type="logical" name="LMETAGGA"> F  </i>
   </separator>
   <separator name="electronic convergence" >
    <i type="int" name="NELM">   200</i>
    <i type="int" name="NELMDL">     0</i>
    <i type="int" name="NELMIN">     4</i>
    <i name="ENINI">    520.00000000</i>
    <separator name="electronic convergence detail" >
     <i type="logical" name="LDIAG"> T  </i>
     <i type="logical" name="LSUBROT"> F  </i>
     <i name="WEIMIN">      0.00000000</i>
     <i name="EBREAK">      0.00000000</i>
     <i name="DEPER">      0.30000000</i>
     <i type="int" name="NRMM">     4</i>
     <i name="TIME">      0.40000000</i>
    </separator>
   </separator>
   <separator name="electronic mixer" >
    <i name="AMIX">      0.40000000</i>
    <i name="BMIX">      1.00000000</i>
    <i name="AMIN">      0.10000000</i>
    <i name="AMIX_MAG">      1.60000000</i>
    <i name="BMIX_MAG">      1.00000000</i>
    <separator name="electronic mixer details" >
     <i type="int" name="IMIX">     4</i>
     <i type="logical" name="MIXFIRST"> F  </i>
     <i type="int" name="MAXMIX">   -45</i>
     <i name="WC">    100.00000000</i>
     <i type="int" name="INIMIX">     1</i>
     <i type="int" name="MIXPRE">     1</i>
     <i type="int" name="MREMOVE">     5</i>
    </separator>
   </separator>
   <separator name="electronic dipolcorrection" >
    <i type="logical" name="LDIPOL"> F  </i>
    <i type="logical" name="LMONO"> F  </i>
    <i type="int" name="IDIPOL">     0</i>
    <i name="EPSILON">      1.00000000</i>
    <v name="DIPOL">   -100.00000000   -100.00000000   -100.00000000</v>
    <i name="EFIELD">      0.00000000</i>
   </separator>
  </separator>
  <separator name="grids" >
   <i type="int" name="NGX">    40</i>
   <i type="int" name="NGY">    40</i>
   <i type="int" name="NGZ">    42</i>
   <i type="int" name="NGXF">    80</i>
   <i type="int" name="NGYF">    80</i>
   <i type="int" name="NGZF">    84</i>
   <i type="logical" name="ADDGRID"> F  </i>
  </separator>
  <separator name="ionic" >
   <i type="int" name="NSW">     0</i>
   <i type="int" name="IBRION">    -1</i>
   <i type="int" name="ISIF">     3</i>
   <i name="PSTRESS">      0.00000000</i>
   <i name="EDIFFG">      0.00001000</i>
   <i type="int" name="NFREE">     1</i>
   <i name="POTIM">      0.50000000</i>
   <i name="SMASS">     -3.00000000</i>
   <i name="SCALEE">      1.00000000</i>
  </separator>
  <separator name="ionic md" >
   <i name="TEBEG">      0.00010000</i>
   <i name="TEEND">      0.00010000</i>
   <i type="int" name="NBLOCK">     1</i>
   <i type="int" name="KBLOCK">     1</i>
   <i type="int" name="NPACO">   256</i>
   <i name="APACO">     16.00000000</i>
  </separator>
  <separator name="symmetry" >
   <i type="int" name="ISYM">    -1</i>
   <i name="SYMPREC">      0.00001000</i>
  </separator>
  <separator name="dos" >
   <i type="logical" name="LORBIT"> F  </i>
   <v name="RWIGS">     -1.00000000     -1.00000000</v>
   <i type="int" name="NEDOS">   301</i>
   <i name="EMIN">     10.00000000</i>
   <i name="EMAX">    -10.00000000</i>
   <i name="EFERMI">      0.00000000</i>
  </separator>
  <separator name="writing" >
   <i type="int" name="NWRITE">     2</i>
   <i type="logical" name="LWAVE"> T  </i>
   <i type="logical" name="LCHARG"> F  </i>
   <i type="logical" name="LPARD"> F  </i>
   <i type="logical" name="LVTOT"> F  </i>
   <i type="logical" name="LVHAR"> F  </i>
   <i type="logical" name="LELF"> F  </i>
   <i type="logical" name="LOPTICS"> F  </i>
   <v name="STM">      0.00000000      0.00000000      0.00000000      0.00000000      0.00000000      0.00000000      0.00000000</v>
  </separator>
  <separator name="performance" >
   <i type="int" name="NPAR">     4</i>
   <i type="int" name="NSIM">     4</i>
   <i type="int" name="NBLK">    -1</i>
   <i type="logical" name="LPLANE"> T  </i>
   <i type="logical" name="LSCALAPACK"> T  </i>
   <i type="logical" name="LSCAAWARE"> F  </i>
   <i type="logical" name="LSCALU"> F  </i>
   <i type="logical" name="LASYNC"> F  </i>
   <i type="logical" name="LORBITALREAL"> F  </i>
  </separator>
  <separator name="miscellaneous" >
   <i type="int" name="IDIOT">     3</i>
   <i type="logical" name="LMUSIC"> F  </i>
   <v name="POMASS">     28.08500000     16.00000000</v>
   <v name="DARWINR">      0.00000000      0.00000000</v>
   <v name="DARWINV">      1.00000000      1.00000000</v>
   <i type="logical" name="LCORR"> T  </i>
  </separator>
  <i type="logical" name="GGA_COMPAT"> T  </i>
  <i type="logical" name="LBERRY"> F  </i>
  <i type="int" name="ICORELEVEL">     0</i>
  <i type="logical" name="LDAU"> F  </i>
  <i type="int" name="I_CONSTRAINED_M">     0</i>
  <separator name="electronic exchange-correlation" >
   <i type="string" name="GGA">--</i>
   <i type="int" name="VOSKOWN">     0</i>
   <i type="logical" name="LHFCALC"> F  </i>
   <i type="string" name="PRECFOCK"></i>
   <i type="logical" name="LSYMGRAD"> F  </i>
   <i type="logical" name="LHFONE"> F  </i>
   <i type="logical" name="LRHFCALC"> F  </i>
   <i type="logical" name="LTHOMAS"> F  </i>
   <i type="logical" name="LMODELHF"> F  </i>
   <i name="ENCUT4O">     -1.00000000</i>
   <i type="int" name="EXXOEP">     0</i>
   <i type="int" name="FOURORBIT">     0</i>
   <i name="AEXX">      0.00000000</i>
   <i name="HFALPHA">      0.00000000</i>
   <i name="MCALPHA">      0.00000000</i>
   <i name="ALDAX">      1.00000000</i>
   <i name="AGGAX">      1.00000000</i>
   <i name="ALDAC">      1.00000000</i>
   <i name="AGGAC">      1.00000000</i>
   <i type="int" name="NKREDX">     1</i>
   <i type="int" name="NKREDY">     1</i>
   <i type="int" name="NKREDZ">     1</i>
   <i type="logical" name="SHIFTRED"> F  </i>
   <i type="logical" name="ODDONLY"> F  </i>
   <i type="logical" name="EVENONLY"> F  </i>
   <i type="int" name="LMAXFOCK">     0</i>
   <i type="int" name="NMAXFOCKAE">     0</i>
   <i type="logical" name="LFOCKAEDFT"> F  </i>
   <i name="HFSCREEN">      0.00000000</i>
   <i name="HFSCREENC">      0.00000000</i>
   <i type="int" name="NBANDSGWLOW">     0</i>
  </separator>
  <separator name="vdW DFT" >
   <i type="logical" name="LUSE_VDW"> F  </i>
   <i name="Zab_VDW">     -0.84910000</i>
   <i name="PARAM1">      0.12340000</i>
   <i name="PARAM2">      1.00000000</i>
   <i name="PARAM3">      0.00000000</i>
  </separator>
  <separator name="model GW" >
   <i type="int" name="MODEL_GW">     0</i>
   <i name="MODEL_EPS0">      8.02562307</i>
   <i name="MODEL_ALPHA">      1.00000000</i>
  </separator>
  <separator name="linear response parameters" >
   <i type="logical" name="LEPSILON"> F  </i>
   <i type="logical" name="LRPA"> F  </i>
   <i type="logical" name="LNABLA"> F  </i>
   <i type="logical" name="LVEL"> F  </i>
   <i type="int" name="KINTER">     0</i>
   <i name="CSHIFT">      0.10000000</i>
   <i name="OMEGAMAX">     -1.00000000</i>
   <i name="DEG_THRESHOLD">      0.00200000</i>
  </separator>
  <separator name="orbital magnetization" >
   <i type="logical" name="NUCIND"> F  </i>
   <v name="MAGPOS">      0.00000000      0.00000000      0.00000000</v>
   <i type="logical" name="LNICSALL"> T  </i>
   <i type="logical" name="ORBITALMAG"> F  </i>
   <i type="logical" name="LMAGBLOCH"> F  </i>
   <i type="logical" name="LCHIMAG"> F  </i>
   <i type="logical" name="LGAUGE"> T  </i>
   <i type="int" name="MAGATOM">     0</i>
   <v name="MAGDIPOL">      0.00000000      0.00000000      0.00000000</v>
   <v name="AVECCONST">      0.00000000      0.00000000      0.00000000</v>
  </separator>
  <separator name="response functions" >
   <i type="logical" name="LADDER"> F  </i>
   <i type="logical" name="LFXC"> F  </i>
   <i type="logical" name="LHARTREE"> T  </i>
   <i type="int" name="IBSE">     0</i>
   <v type="int" name="KPOINT">    -1     0     0     0</v>
   <i type="logical" name="LTCTE"> F  </i>
   <i type="logical" name="LTETE"> F  </i>
   <i type="logical" name="LTRIPLET"> F  </i>
   <i type="logical" name="LFXCEPS"> F  </i>
   <i type="logical" name="LFXHEG"> F  </i>
   <i type="int" name="NATURALO">     0</i>
   <i type="logical" name="L2ORDER"> F  </i>
   <i type="logical" name="LUSEW"> F  </i>
   <i name="ENCUTGW">     -2.00000000</i>
   <i name="ENCUTGWSOFT">     -2.00000000</i>
   <i name="ENCUTLF">     -1.00000000</i>
   <i type="int" name="LMAXMP2">    -1</i>
   <i name="SCISSOR">      0.00000000</i>
   <i type="int" name="NOMEGA">     0</i>
   <i type="int" name="NOMEGAR">     0</i>
   <i type="int" name="NBANDSGW">    -1</i>
   <i type="int" name="NBANDSO">    -1</i>
   <i type="int" name="NBANDSV">    -1</i>
   <i type="int" name="NELM">   200</i>
   <i type="int" name="NELMHF">     1</i>
   <i type="int" name="DIM">     3</i>
   <i type="int" name="ANTIRES">     0</i>
   <i name="OMEGAMAX">    -30.00000000</i>
   <i name="OMEGAMIN">    -30.00000000</i>
   <i name="OMEGATL">   -200.00000000</i>
   <i type="int" name="OMEGAGRID">     0</i>
   <i name="CSHIFT">     -0.10000000</i>
   <i type="logical" name="SELFENERGY"> F  </i>
   <i type="logical" name="LSPECTRAL"> F  </i>
   <i type="logical" name="LSPECTRALGW"> F  </i>
   <i type="logical" name="LSINGLES"> F  </i>
   <i type="logical" name="LFERMIGW"> F  </i>
   <i type="logical" name="ODDONLYGW"> F  </i>
   <i type="logical" name="EVENONLYGW"> F  </i>
   <i type="int" name="NKREDLFX">     1</i>
   <i type="int" name="NKREDLFY">     1</i>
   <i type="int" name="NKREDLFZ">     1</i>
   <i type="int" name="MAXMEM">  1800</i>
   <i type="int" name="TELESCOPE">     0</i>
   <i type="int" name="TAUPAR">     1</i>
   <i type="int" name="OMEGAPAR">    -1</i>
   <i name="LAMBDA">      1.00000000</i>
  </separator>
  <separator name="External order field" >
   <i name="OFIELD_KAPPA">      0.00000000</i>
   <v name="OFIELD_K">      0.00000000      0.00000000      0.00000000</v>
   <i name="OFIELD_Q6_NEAR">      0.00000000</i>
   <i name="OFIELD_Q6_FAR">      0.00000000</i>
   <i name="OFIELD_A">      0.00000000</i>
  </separator>
 </parameters>
 <atominfo>
  <atoms>       9 </atoms>
  <types>       2 </types>
  <array name="atoms" >
   <dimension dim="1">ion</dimension>
   <field type="string">element</field>
   <field type="int">atomtype</field>
   <set>
    <rc><c>Si</c><c>   1</c></rc>
    <rc><c>Si</c><c>   1</c></rc>
    <rc><c>Si</c><c>   1</c></rc>
    <rc><c>O </c><c>   2</c></rc>
    <rc><c>O </c><c>   2</c></rc>
    <rc><c>O </c><c>   2</c></rc>
    <rc><c>O </c><c>   2</c></rc>
    <rc><c>O </c><c>   2</c></rc>
    <rc><c>O </c><c>   2</c></rc>
   </set>
  </array>
  <array name="atomtypes" >
   <dimension dim="1">type</dimension>
   <field type="int">atomspertype</field>
   <field type="string">element</field>
   <field>mass</field>
   <field>valence</field>
   <field type="string">pseudopotential</field>
   <set>
    <rc><c>   3</c><c>Si</c><c>     28.08500000</c><c>      4.00000000</c><c>  PAW_PBE Si 05Jan2001                  </c></rc>
    <rc><c>   6</c><c>O </c><c>     16.00000000</c><c>      6.00000000</c><c>  PAW_PBE O 08Apr2002                   </c></rc>
   </set>
  </array>
 </atominfo>
 <structure name="initialpos" >
  <crystal>
   <varray name="basis" >
    <v>       5.02189789       0.00000000       0.00000000 </v>
    <v>      -2.51094844       4.34909098       0.00000000 </v>
    <v>       0.00000000       0.00000000       5.51192941 </v>
   </varray>
   <i name="volume">    120.38434609 </i>
   <varray name="rec_basis" >
    <v>       0.19912790       0.11496653       0.00000000 </v>
    <v>      -0.00000000       0.22993311       0.00000000 </v>
    <v>       0.00000000       0.00000000       0.18142467 </v>
   </varray>
  </crystal>
  <varray name="positions" >
   <v>       0.00000000       0.47634315       0.66666700 </v>
   <v>       0.52365685       0.52365685       0.00000000 </v>
   <v>       0.47634315       0.00000000       0.33333300 </v>
   <v>       0.15890378       0.74400316       0.46134773 </v>
   <v>       0.25599684       0.41490062       0.79468073 </v>
   <v>       0.58509938       0.84109622       0.12801473 </v>
   <v>       0.74400316       0.15890378       0.53865227 </v>
   <v>       0.41490062       0.25599684       0.20531927 </v>
   <v>       0.84109622       0.58509938       0.87198527 </v>
  </varray>
 </structure>
 <calculation>
  <scstep>
   <time name="dav">    0.18    0.21</time>
   <time name="total">    0.21    0.25</time>
   <energy>
    <i name="alphaZ">     65.47102554 </i>
    <i name="ewald">  -1824.90142598 </i>
    <i name="hartreedc">  -1109.20970854 </i>
    <i name="XCdc">    149.82558889 </i>
    <i name="pawpsdc">   7481.91140008 </i>
    <i name="pawaedc">  -7442.21006377 </i>
    <i name="eentropy">     -0.00000000 </i>
    <i name="bandstr">   -295.40554703 </i>
    <i name="atom">   2903.34697324 </i>
    <i name="e_fr_energy">    -71.17175759 </i>
    <i name="e_wo_entrp">    -71.17175759 </i>
    <i name="e_0_energy">    -71.17175759 </i>
   </energy>
  </scstep>
  <scstep>
   <time name="dav">    0.13    0.13</time>
   <time name="total">    0.16    0.17</time>
   <energy>
    <i name="e_fr_energy">    -71.17175755 </i>
    <i name="e_wo_entrp">    -71.17175755 </i>
    <i name="e_0_energy">    -71.17175755 </i>
   </energy>
  </scstep>
  <scstep>
   <time name="dav">    0.13    0.13</time>
   <time name="total">    0.16    0.16</time>
   <energy>
    <i name="e_fr_energy">    -71.17175754 </i>
    <i name="e_wo_entrp">    -71.17175754 </i>
    <i name="e_0_energy">    -71.17175754 </i>
   </energy>
  </scstep>
  <scstep>
   <time name="dav">    0.13    0.13</time>
   <time name="total">    0.15    0.15</time>
   <energy>
    <i name="alphaZ">     65.47102554 </i>
    <i name="ewald">  -1824.90142598 </i>
    <i name="hartreedc">  -1109.21074626 </i>
    <i name="XCdc">    149.82567461 </i>
    <i name="pawpsdc">   7481.96505587 </i>
    <i name="pawaedc">  -7442.26374452 </i>
    <i name="eentropy">     -0.00000000 </i>
    <i name="bandstr">   -295.40457003 </i>
    <i name="atom">   2903.34697324 </i>
    <i name="e_fr_energy">    -71.17175754 </i>
    <i name="e_wo_entrp">    -71.17175754 </i>
    <i name="e_0_energy">    -71.17175754 </i>
   </energy>
  </scstep>
  <structure>
   <crystal>
    <varray name="basis" >
     <v>       5.02189789       0.00000000       0.00000000 </v>
     <v>      -2.51094844       4.34909098       0.00000000 </v>
     <v>       0.00000000       0.00000000       5.51192941 </v>
    </varray>
    <i name="volume">    120.38434609 </i>
    <varray name="rec_basis" >
     <v>       0.19912790       0.11496653       0.00000000 </v>
     <v>      -0.00000000       0.22993311       0.00000000 </v>
     <v>       0.00000000       0.00000000       0.18142467 </v>
    </varray>
   </crystal>
   <varray name="positions" >
    <v>       0.00000000       0.47634315       0.66666700 </v>
    <v>       0.52365685       0.52365685       0.00000000 </v>
    <v>       0.47634315       0.00000000       0.33333300 </v>
    <v>       0.15890378       0.74400316       0.46134773 </v>
    <v>       0.25599684       0.41490062       0.79468073 </v>
    <v>       0.58509938       0.84109622       0.12801473 </v>
    <v>       0.74400316       0.15890378       0.53865227 </v>
    <v>       0.41490062       0.25599684       0.20531927 </v>
    <v>       0.84109622       0.58509938       0.87198527 </v>
   </varray>
  </structure>
  <varray name="forces" >
   <v>      -0.00186275       0.00321876      -0.00013805 </v>
   <v>      -0.00186865      -0.00323972      -0.00000133 </v>
   <v>       0.00372155      -0.00000772       0.00014666 </v>
   <v>       0.01050613       0.03292720       0.01521466 </v>
   <v>      -0.03369847      -0.00735036       0.01529183 </v>
   <v>       0.02330966      -0.02560762       0.01514057 </v>
   <v>       0.02325700       0.02555989      -0.01522490 </v>
   <v>       0.01048168      -0.03286441      -0.01528416 </v>
   <v>      -0.03384614       0.00736399      -0.01514528 </v>
  </varray>
  <varray name="stress" >
   <v>      -0.03444457      -0.00227696      -0.00061458 </v>
   <v>      -0.00227705      -0.03580677       0.00021772 </v>
   <v>      -0.00061458       0.00021773      -8.00337940 </v>
  </varray>
  <energy>
   <i name="e_fr_energy">    -71.17175754 </i>
   <i name="e_wo_entrp">    -71.17175754 </i>
   <i name="e_0_energy">     -0.00000000 </i>
  </energy>
  <time name="totalsc">    0.91    1.03</time>
  <eigenvalues>
   <array>
    <dimension dim="1">band</dimension>
    <dimension dim="2">kpoint</dimension>
    <dimension dim="3">spin</dimension>
    <field>eigene</field>
    <field>occ</field>
    <set>
     <set comment="spin 1">
      <set comment="kpoint 1">
       <r>  -18.6233    1.0000 </r>
       <r>  -17.1856    1.0000 </r>
       <r>  -17.1856    1.0000 </r>
       <r>  -16.5902    1.0000 </r>
       <r>  -16.5494    1.0000 </r>
       <r>  -16.5493    1.0000 </r>
       <r>   -7.6545    1.0000 </r>
       <r>   -7.6545    1.0000 </r>
       <r>   -4.8053    1.0000 </r>
       <r>   -4.7158    1.0000 </r>
       <r>   -4.5640    1.0000 </r>
       <r>   -4.5640    1.0000 </r>
       <r>   -2.1577    1.0000 </r>
       <r>   -2.1576    1.0000 </r>
       <r>   -2.0309    1.0000 </r>
       <r>   -1.7723    1.0000 </r>
       <r>   -0.8815    1.0000 </r>
       <r>   -0.8815    1.0000 </r>
       <r>   -0.8745    1.0000 </r>
       <r>   -0.3206    1.0000 </r>
       <r>   -0.3206    1.0000 </r>
       <r>    0.1223    1.0000 </r>
       <r>    0.2924    1.0000 </r>
       <r>    0.2924    1.0000 </r>
       <r>    6.3004    0.0000 </r>
       <r>    9.6943    0.0000 </r>
       <r>    9.6943    0.0000 </r>
       <r>    9.9515    0.0000 </r>
       <r>    9.9515    0.0000 </r>
       <r>   11.0225    0.0000 </r>
       <r>   11.8496    0.0000 </r>
       <r>   12.5412    0.0000 </r>
       <r>   13.2310    0.0000 </r>
       <r>   13.2310    0.0000 </r>
       <r>   13.5295    0.0000 </r>
       <r>   13.5295    0.0000 </r>
      </set>
      <set comment="kpoint 2">
       <r>  -18.1715    1.0000 </r>
       <r>  -17.7231    1.0000 </r>
       <r>  -17.1478    1.0000 </r>
       <r>  -16.6193    1.0000 </r>
       <r>  -16.5924    1.0000 </r>
       <r>  -16.5798    1.0000 </r>
       <r>   -7.7909    1.0000 </r>
       <r>   -6.7601    1.0000 </r>
       <r>   -5.2663    1.0000 </r>
       <r>   -4.8183    1.0000 </r>
       <r>   -4.7471    1.0000 </r>
       <r>   -3.9757    1.0000 </r>
       <r>   -2.3350    1.0000 </r>
       <r>   -2.2106    1.0000 </r>
       <r>   -1.8991    1.0000 </r>
       <r>   -1.5776    1.0000 </r>
       <r>   -1.4133    1.0000 </r>
       <r>   -1.0982    1.0000 </r>
       <r>   -1.0418    1.0000 </r>
       <r>   -0.4543    1.0000 </r>
       <r>   -0.3991    1.0000 </r>
       <r>   -0.1755    1.0000 </r>
       <r>    0.3616    1.0000 </r>
       <r>    0.6095    1.0000 </r>
       <r>    8.4524    0.0000 </r>
       <r>    9.2385    0.0000 </r>
       <r>   10.0577    0.0000 </r>
       <r>   10.1292    0.0000 </r>
       <r>   10.7289    0.0000 </r>
       <r>   10.8330    0.0000 </r>
       <r>   11.5994    0.0000 </r>
       <r>   11.7891    0.0000 </r>
       <r>   12.2468    0.0000 </r>
       <r>   12.8693    0.0000 </r>
       <r>   13.0396    0.0000 </r>
       <r>   13.1602    0.0000 </r>
      </set>
      <set comment="kpoint 3">
       <r>  -18.1715    1.0000 </r>
       <r>  -17.7231    1.0000 </r>
       <r>  -17.1478    1.0000 </r>
       <r>  -16.6193    1.0000 </r>
       <r>  -16.5924    1.0000 </r>
       <r>  -16.5798    1.0000 </r>
       <r>   -7.7909    1.0000 </r>
       <r>   -6.7601    1.0000 </r>
       <r>   -5.2663    1.0000 </r>
       <r>   -4.8183    1.0000 </r>
       <r>   -4.7471    1.0000 </r>
       <r>   -3.9757    1.0000 </r>
       <r>   -2.3350    1.0000 </r>
       <r>   -2.2106    1.0000 </r>
       <r>   -1.8991    1.0000 </r>
       <r>   -1.5776    1.0000 </r>
       <r>   -1.4133    1.0000 </r>
       <r>   -1.0982    1.0000 </r>
       <r>   -1.0418    1.0000 </r>
       <r>   -0.4543    1.0000 </r>
       <r>   -0.3991    1.0000 </r>
       <r>   -0.1755    1.0000 </r>
       <r>    0.3616    1.0000 </r>
       <r>    0.6095    1.0000 </r>
       <r>    8.4524    0.0000 </r>
       <r>    9.2385    0.0000 </r>
       <r>   10.0577    0.0000 </r>
       <r>   10.1292    0.0000 </r>
       <r>   10.7289    0.0000 </r>
       <r>   10.8330    0.0000 </r>
       <r>   11.5994    0.0000 </r>
       <r>   11.7891    0.0000 </r>
       <r>   12.2468    0.0000 </r>
       <r>   12.8693    0.0000 </r>
       <r>   13.0396    0.0000 </r>
       <r>   13.1602    0.0000 </r>
      </set>
      <set comment="kpoint 4">
       <r>  -18.1715    1.0000 </r>
       <r>  -17.7231    1.0000 </r>
       <r>  -17.1479    1.0000 </r>
       <r>  -16.6193    1.0000 </r>
       <r>  -16.5924    1.0000 </r>
       <r>  -16.5798    1.0000 </r>
       <r>   -7.7909    1.0000 </r>
       <r>   -6.7602    1.0000 </r>
       <r>   -5.2663    1.0000 </r>
       <r>   -4.8183    1.0000 </r>
       <r>   -4.7471    1.0000 </r>
       <r>   -3.9757    1.0000 </r>
       <r>   -2.3350    1.0000 </r>
       <r>   -2.2106    1.0000 </r>
       <r>   -1.8991    1.0000 </r>
       <r>   -1.5776    1.0000 </r>
       <r>   -1.4133    1.0000 </r>
       <r>   -1.0982    1.0000 </r>
       <r>   -1.0418    1.0000 </r>
       <r>   -0.4544    1.0000 </r>
       <r>   -0.3991    1.0000 </r>
       <r>   -0.1755    1.0000 </r>
       <r>    0.3617    1.0000 </r>
       <r>    0.6095    1.0000 </r>
       <r>    8.4524    0.0000 </r>
       <r>    9.2385    0.0000 </r>
       <r>   10.0577    0.0000 </r>
       <r>   10.1292    0.0000 </r>
       <r>   10.7289    0.0000 </r>
       <r>   10.8330    0.0000 </r>
       <r>   11.5994    0.0000 </r>
       <r>   11.7891    0.0000 </r>
       <r>   12.2468    0.0000 </r>
       <r>   12.8692    0.0000 </r>
       <r>   13.0396    0.0000 </r>
       <r>   13.1602    0.0000 </r>
      </set>
      <set comment="kpoint 5">
       <r>  -18.6233    1.0000 </r>
       <r>  -17.1856    1.0000 </r>
       <r>  -17.1856    1.0000 </r>
       <r>  -16.5902    1.0000 </r>
       <r>  -16.5494    1.0000 </r>
       <r>  -16.5493    1.0000 </r>
       <r>   -7.6545    1.0000 </r>
       <r>   -7.6545    1.0000 </r>
       <r>   -4.8053    1.0000 </r>
       <r>   -4.7158    1.0000 </r>
       <r>   -4.5640    1.0000 </r>
       <r>   -4.5640    1.0000 </r>
       <r>   -2.1577    1.0000 </r>
       <r>   -2.1576    1.0000 </r>
       <r>   -2.0309    1.0000 </r>
       <r>   -1.7723    1.0000 </r>
       <r>   -0.8815    1.0000 </r>
       <r>   -0.8815    1.0000 </r>
       <r>   -0.8745    1.0000 </r>
       <r>   -0.3206    1.0000 </r>
       <r>   -0.3206    1.0000 </r>
       <r>    0.1223    1.0000 </r>
       <r>    0.2924    1.0000 </r>
       <r>    0.2925    1.0000 </r>
       <r>    6.3004    0.0000 </r>
       <r>    9.6943    0.0000 </r>
       <r>    9.6943    0.0000 </r>
       <r>    9.9515    0.0000 </r>
       <r>    9.9516    0.0000 </r>
       <r>   11.0227    0.0000 </r>
       <r>   11.8496    0.0000 </r>
       <r>   12.5423    0.0000 </r>
       <r>   13.2316    0.0000 </r>
       <r>   13.2441    0.0000 </r>
       <r>   13.5314    0.0000 </r>
       <r>   14.8411    0.0000 </r>
      </set>
     </set>
    </set>
   </array>
  </eigenvalues>
  <separator name="orbital magnetization" >
   <v name="MAGDIPOLOUT">      0.00000000      0.00000000      0.00000000</v>
  </separator>
  <dos>
   <i name="efermi">      1.18033906 </i>
   <total>
    <array>
     <dimension dim="1">gridpoints</dimension>
     <dimension dim="2">spin</dimension>
     <field>energy</field>
     <field>total</field>
     <field>integrated</field>
     <set>
      <set comment="spin 1">
       <r>   -20.2965     0.0000     0.0000 </r>
       <r>   -20.1738     0.0000     0.0000 </r>
       <r>   -20.0511     0.0000     0.0000 </r>
       <r>   -19.9284     0.0000     0.0000 </r>
       <r>   -19.8057     0.0000     0.0000 </r>
       <r>   -19.6830     0.0000     0.0000 </r>
       <r>   -19.5603     0.0000     0.0000 </r>
       <r>   -19.4376     0.0000     0.0000 </r>
       <r>   -19.3149     0.0000     0.0000 </r>
       <r>   -19.1922     0.0000     0.0000 </r>
       <r>   -19.0695     0.0000     0.0000 </r>
       <r>   -18.9468     0.0000     0.0000 </r>
       <r>   -18.8241     0.0092     0.0011 </r>
       <r>   -18.7014     0.5398     0.0674 </r>
       <r>   -18.5787     2.4500     0.3680 </r>
       <r>   -18.4560     1.0396     0.4956 </r>
       <r>   -18.3333     0.1717     0.5166 </r>
       <r>   -18.2106     3.4149     0.9356 </r>
       <r>   -18.0879     7.2272     1.8224 </r>
       <r>   -17.9651     1.4294     1.9978 </r>
       <r>   -17.8424     0.5764     2.0685 </r>
       <r>   -17.7197     5.7839     2.7782 </r>
       <r>   -17.5970     5.4258     3.4440 </r>
       <r>   -17.4743     0.4539     3.4997 </r>
       <r>   -17.3516     0.1035     3.5124 </r>
       <r>   -17.2289     3.6372     3.9587 </r>
       <r>   -17.1062    12.1711     5.4521 </r>
       <r>   -16.9835     4.3246     5.9828 </r>
       <r>   -16.8608     0.1456     6.0006 </r>
       <r>   -16.7381     1.0629     6.1311 </r>
       <r>   -16.6154    16.5228     8.1585 </r>
       <r>   -16.4927    26.4917    11.4091 </r>
       <r>   -16.3700     4.7355    11.9901 </r>
       <r>   -16.2473     0.0804    12.0000 </r>
       <r>   -16.1246     0.0001    12.0000 </r>
       <r>   -16.0019     0.0000    12.0000 </r>
       <r>   -15.8792     0.0000    12.0000 </r>
       <r>   -15.7565     0.0000    12.0000 </r>
       <r>   -15.6338     0.0000    12.0000 </r>
       <r>   -15.5111     0.0000    12.0000 </r>
       <r>   -15.3884     0.0000    12.0000 </r>
       <r>   -15.2657     0.0000    12.0000 </r>
       <r>   -15.1430     0.0000    12.0000 </r>
       <r>   -15.0203     0.0000    12.0000 </r>
       <r>   -14.8976     0.0000    12.0000 </r>
       <r>   -14.7749     0.0000    12.0000 </r>
       <r>   -14.6522     0.0000    12.0000 </r>
       <r>   -14.5295     0.0000    12.0000 </r>
       <r>   -14.4068     0.0000    12.0000 </r>
       <r>   -14.2841     0.0000    12.0000 </r>
       <r>   -14.1614     0.0000    12.0000 </r>
       <r>   -14.0387     0.0000    12.0000 </r>
       <r>   -13.9160     0.0000    12.0000 </r>
       <r>   -13.7933     0.0000    12.0000 </r>
       <r>   -13.6705     0.0000    12.0000 </r>
       <r>   -13.5478     0.0000    12.0000 </r>
       <r>   -13.4251     0.0000    12.0000 </r>
       <r>   -13.3024     0.0000    12.0000 </r>
       <r>   -13.1797     0.0000    12.0000 </r>
       <r>   -13.0570     0.0000    12.0000 </r>
       <r>   -12.9343     0.0000    12.0000 </r>
       <r>   -12.8116     0.0000    12.0000 </r>
       <r>   -12.6889     0.0000    12.0000 </r>
       <r>   -12.5662     0.0000    12.0000 </r>
       <r>   -12.4435     0.0000    12.0000 </r>
       <r>   -12.3208     0.0000    12.0000 </r>
       <r>   -12.1981     0.0000    12.0000 </r>
       <r>   -12.0754     0.0000    12.0000 </r>
       <r>   -11.9527     0.0000    12.0000 </r>
       <r>   -11.8300     0.0000    12.0000 </r>
       <r>   -11.7073     0.0000    12.0000 </r>
       <r>   -11.5846     0.0000    12.0000 </r>
       <r>   -11.4619     0.0000    12.0000 </r>
       <r>   -11.3392     0.0000    12.0000 </r>
       <r>   -11.2165     0.0000    12.0000 </r>
       <r>   -11.0938     0.0000    12.0000 </r>
       <r>   -10.9711     0.0000    12.0000 </r>
       <r>   -10.8484     0.0000    12.0000 </r>
       <r>   -10.7257     0.0000    12.0000 </r>
       <r>   -10.6030     0.0000    12.0000 </r>
       <r>   -10.4803     0.0000    12.0000 </r>
       <r>   -10.3576     0.0000    12.0000 </r>
       <r>   -10.2349     0.0000    12.0000 </r>
       <r>   -10.1122     0.0000    12.0000 </r>
       <r>    -9.9895     0.0000    12.0000 </r>
       <r>    -9.8668     0.0000    12.0000 </r>
       <r>    -9.7441     0.0000    12.0000 </r>
       <r>    -9.6214     0.0000    12.0000 </r>
       <r>    -9.4986     0.0000    12.0000 </r>
       <r>    -9.3759     0.0000    12.0000 </r>
       <r>    -9.2532     0.0000    12.0000 </r>
       <r>    -9.1305     0.0000    12.0000 </r>
       <r>    -9.0078     0.0000    12.0000 </r>
       <r>    -8.8851     0.0000    12.0000 </r>
       <r>    -8.7624     0.0000    12.0000 </r>
       <r>    -8.6397     0.0000    12.0000 </r>
       <r>    -8.5170     0.0000    12.0000 </r>
       <r>    -8.3943     0.0000    12.0000 </r>
       <r>    -8.2716     0.0000    12.0000 </r>
       <r>    -8.1489     0.0000    12.0000 </r>
       <r>    -8.0262     0.0054    12.0007 </r>
       <r>    -7.9035     0.6769    12.0837 </r>
       <r>    -7.7808     6.4271    12.8723 </r>
       <r>    -7.6581     8.6554    13.9344 </r>
       <r>    -7.5354     4.2323    14.4537 </r>
       <r>    -7.4127     0.3747    14.4997 </r>
       <r>    -7.2900     0.0026    14.5000 </r>
       <r>    -7.1673     0.0000    14.5000 </r>
       <r>    -7.0446     0.0004    14.5000 </r>
       <r>    -6.9219     0.1352    14.5166 </r>
       <r>    -6.7992     3.4155    14.9357 </r>
       <r>    -6.6765     7.2269    15.8225 </r>
       <r>    -6.5538     1.4252    15.9974 </r>
       <r>    -6.4311     0.0215    16.0000 </r>
       <r>    -6.3084     0.0000    16.0000 </r>
       <r>    -6.1857     0.0000    16.0000 </r>
       <r>    -6.0630     0.0000    16.0000 </r>
       <r>    -5.9403     0.0000    16.0000 </r>
       <r>    -5.8176     0.0000    16.0000 </r>
       <r>    -5.6949     0.0000    16.0000 </r>
       <r>    -5.5722     0.0001    16.0000 </r>
       <r>    -5.4495     0.0586    16.0072 </r>
       <r>    -5.3267     2.3415    16.2945 </r>
       <r>    -5.2040     7.5105    17.2161 </r>
       <r>    -5.0813     2.2610    17.4935 </r>
       <r>    -4.9586     0.4205    17.5451 </r>
       <r>    -4.8359     7.3525    18.4473 </r>
       <r>    -4.7132    17.9444    20.6491 </r>
       <r>    -4.5905     9.4834    21.8127 </r>
       <r>    -4.4678     4.8907    22.4128 </r>
       <r>    -4.3451     0.7023    22.4990 </r>
       <r>    -4.2224     0.0110    22.5004 </r>
       <r>    -4.0997     0.4832    22.5596 </r>
       <r>    -3.9770     5.5378    23.2391 </r>
       <r>    -3.8543     5.6754    23.9355 </r>
       <r>    -3.7316     0.5220    23.9996 </r>
       <r>    -3.6089     0.0034    24.0000 </r>
       <r>    -3.4862     0.0000    24.0000 </r>
       <r>    -3.3635     0.0000    24.0000 </r>
       <r>    -3.2408     0.0000    24.0000 </r>
       <r>    -3.1181     0.0000    24.0000 </r>
       <r>    -2.9954     0.0000    24.0000 </r>
       <r>    -2.8727     0.0000    24.0000 </r>
       <r>    -2.7500     0.0000    24.0000 </r>
       <r>    -2.6273     0.0002    24.0000 </r>
       <r>    -2.5046     0.1006    24.0124 </r>
       <r>    -2.3819     3.0996    24.3927 </r>
       <r>    -2.2592    10.9148    25.7320 </r>
       <r>    -2.1365    13.8176    27.4274 </r>
       <r>    -2.0138     7.5334    28.3518 </r>
       <r>    -1.8911     7.9652    29.3292 </r>
       <r>    -1.7684     7.2444    30.2181 </r>
       <r>    -1.6457     4.2065    30.7342 </r>
       <r>    -1.5230     8.3689    31.7611 </r>
       <r>    -1.4003     8.8811    32.8508 </r>
       <r>    -1.2776     5.0287    33.4679 </r>
       <r>    -1.1549     3.5181    33.8996 </r>
       <r>    -1.0321    13.7909    35.5917 </r>
       <r>    -0.9094    11.0701    36.9501 </r>
       <r>    -0.7867     7.3834    37.8560 </r>
       <r>    -0.6640     1.1783    38.0006 </r>
       <r>    -0.5413     1.6086    38.1980 </r>
       <r>    -0.4186    12.3185    39.7095 </r>
       <r>    -0.2959    15.2069    41.5754 </r>
       <r>    -0.1732     9.5676    42.7494 </r>
       <r>    -0.0505     5.6743    43.4457 </r>
       <r>     0.0722     1.4226    43.6202 </r>
       <r>     0.1949     3.2699    44.0215 </r>
       <r>     0.3176     8.2799    45.0374 </r>
       <r>     0.4403    10.2465    46.2947 </r>
       <r>     0.5630     4.7674    46.8797 </r>
       <r>     0.6857     7.4114    47.7891 </r>
       <r>     0.8084     1.6890    47.9963 </r>
       <r>     0.9311     0.0300    48.0000 </r>
       <r>     1.0538     0.0000    48.0000 </r>
       <r>     1.1765     0.0000    48.0000 </r>
       <r>     1.2992     0.0000    48.0000 </r>
       <r>     1.4219     0.0000    48.0000 </r>
       <r>     1.5446     0.0000    48.0000 </r>
       <r>     1.6673     0.0000    48.0000 </r>
       <r>     1.7900     0.0000    48.0000 </r>
       <r>     1.9127     0.0000    48.0000 </r>
       <r>     2.0354     0.0000    48.0000 </r>
       <r>     2.1581     0.0000    48.0000 </r>
       <r>     2.2808     0.0000    48.0000 </r>
       <r>     2.4035     0.0000    48.0000 </r>
       <r>     2.5262     0.0000    48.0000 </r>
       <r>     2.6489     0.0000    48.0000 </r>
       <r>     2.7716     0.0000    48.0000 </r>
       <r>     2.8943     0.0000    48.0000 </r>
       <r>     3.0170     0.0000    48.0000 </r>
       <r>     3.1398     0.0000    48.0000 </r>
       <r>     3.2625     0.0000    48.0000 </r>
       <r>     3.3852     0.0000    48.0000 </r>
       <r>     3.5079     0.0000    48.0000 </r>
       <r>     3.6306     0.0000    48.0000 </r>
       <r>     3.7533     0.0000    48.0000 </r>
       <r>     3.8760     0.0000    48.0000 </r>
       <r>     3.9987     0.0000    48.0000 </r>
       <r>     4.1214     0.0000    48.0000 </r>
       <r>     4.2441     0.0000    48.0000 </r>
       <r>     4.3668     0.0000    48.0000 </r>
       <r>     4.4895     0.0000    48.0000 </r>
       <r>     4.6122     0.0000    48.0000 </r>
       <r>     4.7349     0.0000    48.0000 </r>
       <r>     4.8576     0.0000    48.0000 </r>
       <r>     4.9803     0.0000    48.0000 </r>
       <r>     5.1030     0.0000    48.0000 </r>
       <r>     5.2257     0.0000    48.0000 </r>
       <r>     5.3484     0.0000    48.0000 </r>
       <r>     5.4711     0.0000    48.0000 </r>
       <r>     5.5938     0.0000    48.0000 </r>
       <r>     5.7165     0.0000    48.0000 </r>
       <r>     5.8392     0.0000    48.0000 </r>
       <r>     5.9619     0.0000    48.0000 </r>
       <r>     6.0846     0.0046    48.0006 </r>
       <r>     6.2073     0.3783    48.0470 </r>
       <r>     6.3300     2.3157    48.3311 </r>
       <r>     6.4527     1.3126    48.4922 </r>
       <r>     6.5754     0.0635    48.5000 </r>
       <r>     6.6981     0.0002    48.5000 </r>
       <r>     6.8208     0.0000    48.5000 </r>
       <r>     6.9435     0.0000    48.5000 </r>
       <r>     7.0662     0.0000    48.5000 </r>
       <r>     7.1889     0.0000    48.5000 </r>
       <r>     7.3116     0.0000    48.5000 </r>
       <r>     7.4344     0.0000    48.5000 </r>
       <r>     7.5571     0.0000    48.5000 </r>
       <r>     7.6798     0.0000    48.5000 </r>
       <r>     7.8025     0.0000    48.5000 </r>
       <r>     7.9252     0.0000    48.5000 </r>
       <r>     8.0479     0.0000    48.5000 </r>
       <r>     8.1706     0.0004    48.5001 </r>
       <r>     8.2933     0.1488    48.5183 </r>
       <r>     8.4160     3.5564    48.9547 </r>
       <r>     8.5387     7.1589    49.8331 </r>
       <r>     8.6614     1.3410    49.9977 </r>
       <r>     8.7841     0.0191    50.0000 </r>
       <r>     8.9068     0.0000    50.0000 </r>
       <r>     9.0295     0.0191    50.0023 </r>
       <r>     9.1522     1.3400    50.1668 </r>
       <r>     9.2749     7.1581    51.0451 </r>
       <r>     9.3976     3.5582    51.4817 </r>
       <r>     9.5203     0.2052    51.5069 </r>
       <r>     9.6430     1.8506    51.7339 </r>
       <r>     9.7657     5.0038    52.3479 </r>
       <r>     9.8884     2.8387    52.6962 </r>
       <r>    10.0111     8.6247    53.7545 </r>
       <r>    10.1338    14.8207    55.5731 </r>
       <r>    10.2565     7.0856    56.4425 </r>
       <r>    10.3792     0.4662    56.4997 </r>
       <r>    10.5019     0.0107    56.5010 </r>
       <r>    10.6246     0.8700    56.6077 </r>
       <r>    10.7473     7.8741    57.5739 </r>
       <r>    10.8700    11.8113    59.0232 </r>
       <r>    10.9927     5.1118    59.6504 </r>
       <r>    11.1154     2.4640    59.9528 </r>
       <r>    11.2381     0.3802    59.9994 </r>
       <r>    11.3608     0.0092    60.0006 </r>
       <r>    11.4835     0.6149    60.0760 </r>
       <r>    11.6063     6.0248    60.8153 </r>
       <r>    11.7290     7.7647    61.7680 </r>
       <r>    11.8517     9.8231    62.9733 </r>
       <r>    11.9744     4.0811    63.4741 </r>
       <r>    12.0971     0.4192    63.5255 </r>
       <r>    12.2198     4.0837    64.0266 </r>
       <r>    12.3425     6.8666    64.8692 </r>
       <r>    12.4652     1.6292    65.0691 </r>
       <r>    12.5879     2.4750    65.3728 </r>
       <r>    12.7106     1.1550    65.5145 </r>
       <r>    12.8333     3.6381    65.9609 </r>
       <r>    12.9560     8.5979    67.0159 </r>
       <r>    13.0787    10.1788    68.2648 </r>
       <r>    13.2014    13.3326    69.9008 </r>
       <r>    13.3241     8.0820    70.8925 </r>
       <r>    13.4468     1.8530    71.1199 </r>
       <r>    13.5695     4.8430    71.7141 </r>
       <r>    13.6922     2.2428    71.9893 </r>
       <r>    13.8149     0.0870    72.0000 </r>
       <r>    13.9376     0.0002    72.0000 </r>
       <r>    14.0603     0.0000    72.0000 </r>
       <r>    14.1830     0.0000    72.0000 </r>
       <r>    14.3057     0.0000    72.0000 </r>
       <r>    14.4284     0.0000    72.0000 </r>
       <r>    14.5511     0.0000    72.0000 </r>
       <r>    14.6738     0.0000    72.0000 </r>
       <r>    14.7965     0.0000    72.0000 </r>
       <r>    14.9192     0.0000    72.0000 </r>
       <r>    15.0419     0.0000    72.0000 </r>
       <r>    15.1646     0.0000    72.0000 </r>
       <r>    15.2873     0.0000    72.0000 </r>
       <r>    15.4100     0.0000    72.0000 </r>
       <r>    15.5327     0.0000    72.0000 </r>
       <r>    15.6554     0.0000    72.0000 </r>
       <r>    15.7782     0.0000    72.0000 </r>
       <r>    15.9009     0.0000    72.0000 </r>
       <r>    16.0236     0.0000    72.0000 </r>
       <r>    16.1463     0.0000    72.0000 </r>
       <r>    16.2690     0.0000    72.0000 </r>
       <r>    16.3917     0.0000    72.0000 </r>
       <r>    16.5144     0.0000    72.0000 </r>
      </set>
     </set>
    </array>
   </total>
   <partial>
    <array>
     <dimension dim="1">gridpoints</dimension>
     <dimension dim="2">spin</dimension>
     <dimension dim="3">ion</dimension>
     <field>energy</field>
     <field>  s</field>
     <field> py</field>
     <field> pz</field>
     <field> px</field>
     <field>dxy</field>
     <field>dyz</field>
     <field>dz2</field>
     <field>dxz</field>
     <field>dx2</field>
     <set>
      <set comment="ion 1">
       <set comment="spin 1">
        <r>   -20.2965     0.0000     0.0000     0.0000     0.0000     0.0000     0.0000     0.0000     0.0000     0.0000 </r>
        <r>   -20.1738     0.0000     0.0000     0.0000     0.0000     0.0000     0.0000     0.0000     0.0000     0.0000 </r>
        <r>   -20.0511     0.0000     0.0000     0.0000     0.0000     0.0000     0.0000     0.0000     0.0000     0.0000 </r>
        <r>   -19.9284     0.0000     0.0000     0.0000     0.0000     0.0000     0.0000     0.0000     0.0000     0.0000 </r>
        <r>   -19.8057     0.0000     0.0000     0.0000     0.0000     0.0000     0.0000     0.0000     0.0000     0.0000 </r>
        <r>   -19.6830     0.0000     0.0000     0.0000     0.0000     0.0000     0.0000     0.0000     0.0000     0.0000 </r>
        <r>   -19.5603     0.0000     0.0000     0.0000     0.0000     0.0000     0.0000     0.0000     0.0000     0.0000 </r>
        <r>   -19.4376     0.0000     0.0000     0.0000     0.0000     0.0000     0.0000     0.0000     0.0000     0.0000 </r>
        <r>   -19.3149     0.0000     0.0000     0.0000     0.0000     0.0000     0.0000     0.0000     0.0000     0.0000 </r>
        <r>   -19.1922     0.0000     0.0000     0.0000     0.0000     0.0000     0.0000     0.0000     0.0000     0.0000 </r>
        <r>   -19.0695     0.0000     0.0000     0.0000     0.0000     0.0000     0.0000     0.0000     0.0000     0.0000 </r>
        <r>   -18.9468     0.0000     0.0000     0.0000     0.0000     0.0000     0.0000     0.0000     0.0000     0.0000 </r>
        <r>   -18.8241     0.0005     0.0000     0.0000     0.0000     0.0000     0.0000     0.0000     0.0000     0.0000 </r>
        <r>   -18.7014     0.0288     0.0000     0.0000     0.0000     0.0000     0.0000     0.0000     0.0000     0.0000 </r>
        <r>   -18.5787     0.1306     0.0000     0.0000     0.0000     0.0000     0.0000     0.0000     0.0000     0.0000 </r>
        <r>   -18.4560     0.0554     0.0000     0.0000     0.0000     0.0000     0.0000     0.0000     0.0000     0.0000 </r>
        <r>   -18.3333     0.0081     0.0001     0.0002     0.0003     0.0000     0.0000     0.0000     0.0000     0.0000 </r>
        <r>   -18.2106     0.1560     0.0024     0.0041     0.0073     0.0000     0.0000     0.0000     0.0000     0.0000 </r>
        <r>   -18.0879     0.3302     0.0051     0.0087     0.0154     0.0000     0.0000     0.0000     0.0000     0.0000 </r>
        <r>   -17.9651     0.0653     0.0010     0.0017     0.0031     0.0000     0.0000     0.0000     0.0000     0.0000 </r>
        <r>   -17.8424     0.0205     0.0024     0.0001     0.0026     0.0000     0.0000     0.0000     0.0000     0.0000 </r>
        <r>   -17.7197     0.2033     0.0245     0.0006     0.0265     0.0000     0.0000     0.0000     0.0000     0.0000 </r>
        <r>   -17.5970     0.1907     0.0230     0.0006     0.0249     0.0000     0.0000     0.0000     0.0000     0.0000 </r>
        <r>   -17.4743     0.0160     0.0019     0.0001     0.0021     0.0000     0.0000     0.0000     0.0000     0.0000 </r>
        <r>   -17.3516     0.0022     0.0002     0.0013     0.0001     0.0000     0.0000     0.0000     0.0000     0.0000 </r>
        <r>   -17.2289     0.0769     0.0116     0.0392     0.0049     0.0000     0.0000     0.0000     0.0000     0.0000 </r>
        <r>   -17.1062     0.2573     0.0551     0.1091     0.0212     0.0000     0.0000     0.0000     0.0000     0.0000 </r>
        <r>   -16.9835     0.0914     0.0246     0.0320     0.0090     0.0000     0.0000     0.0000     0.0000     0.0000 </r>
        <r>   -16.8608     0.0030     0.0009     0.0009     0.0004     0.0000     0.0000     0.0000     0.0000     0.0000 </r>
        <r>   -16.7381     0.0000     0.0056     0.0122     0.0086     0.0000     0.0000     0.0000     0.0000     0.0000 </r>
        <r>   -16.6154     0.0001     0.1126     0.1515     0.1447     0.0000     0.0000     0.0000     0.0000     0.0000 </r>
        <r>   -16.4927     0.0002     0.2266     0.1789     0.2464     0.0000     0.0000     0.0000     0.0000     0.0000 </r>
        <r>   -16.3700     0.0000     0.0496     0.0207     0.0454     0.0000     0.0000     0.0000     0.0000     0.0000 </r>
        <r>   -16.2473     0.0000     0.0010     0.0002     0.0008     0.0000     0.0000     0.0000     0.0000     0.0000 </r>
        <r>   -16.1246     0.0000     0.0000     0.0000     0.0000     0.0000     0.0000     0.0000     0.0000     0.0000 </r>
        <r>   -16.0019     0.0000     0.0000     0.0000     0.0000     0.0000     0.0000     0.0000     0.0000     0.0000 </r>
        <r>   -15.8792     0.0000     0.0000     0.0000     0.0000     0.0000     0.0000     0.0000     0.0000     0.0000 </r>
        <r>   -15.7565     0.0000     0.0000     0.0000     0.0000     0.0000     0.0000     0.0000     0.0000     0.0000 </r>
        <r>   -15.6338     0.0000     0.0000     0.0000     0.0000     0.0000     0.0000     0.0000     0.0000     0.0000 </r>
        <r>   -15.5111     0.0000     0.0000     0.0000     0.0000     0.0000     0.0000     0.0000     0.0000     0.0000 </r>
        <r>   -15.3884     0.0000     0.0000     0.0000     0.0000     0.0000     0.0000     0.0000     0.0000     0.0000 </r>
        <r>   -15.2657     0.0000     0.0000     0.0000     0.0000     0.0000     0.0000     0.0000     0.0000     0.0000 </r>
        <r>   -15.1430     0.0000     0.0000     0.0000     0.0000     0.0000     0.0000     0.0000     0.0000     0.0000 </r>
        <r>   -15.0203     0.0000     0.0000     0.0000     0.0000     0.0000     0.0000     0.0000     0.0000     0.0000 </r>
        <r>   -14.8976     0.0000     0.0000     0.0000     0.0000     0.0000     0.0000     0.0000     0.0000     0.0000 </r>
        <r>   -14.7749     0.0000     0.0000     0.0000     0.0000     0.0000     0.0000     0.0000     0.0000     0.0000 </r>
        <r>   -14.6522     0.0000     0.0000     0.0000     0.0000     0.0000     0.0000     0.0000     0.0000     0.0000 </r>
        <r>   -14.5295     0.0000     0.0000     0.0000     0.0000     0.0000     0.0000     0.0000     0.0000     0.0000 </r>
        <r>   -14.4068     0.0000     0.0000     0.0000     0.0000     0.0000     0.0000     0.0000     0.0000     0.0000 </r>
        <r>   -14.2841     0.0000     0.0000     0.0000     0.0000     0.0000     0.0000     0.0000     0.0000     0.0000 </r>
        <r>   -14.1614     0.0000     0.0000     0.0000     0.0000     0.0000     0.0000     0.0000     0.0000     0.0000 </r>
        <r>   -14.0387     0.0000     0.0000     0.0000     0.0000     0.0000     0.0000     0.0000     0.0000     0.0000 </r>
        <r>   -13.9160     0.0000     0.0000     0.0000     0.0000     0.0000     0.0000     0.0000     0.0000     0.0000 </r>
        <r>   -13.7933     0.0000     0.0000     0.0000     0.0000     0.0000     0.0000     0.0000     0.0000     0.0000 </r>
        <r>   -13.6705     0.0000     0.0000     0.0000     0.0000     0.0000     0.0000     0.0000     0.0000     0.0000 </r>
        <r>   -13.5478     0.0000     0.0000     0.0000     0.0000     0.0000     0.0000     0.0000     0.0000     0.0000 </r>
        <r>   -13.4251     0.0000     0.0000     0.0000     0.0000     0.0000     0.0000     0.0000     0.0000     0.0000 </r>
        <r>   -13.3024     0.0000     0.0000     0.0000     0.0000     0.0000     0.0000     0.0000     0.0000     0.0000 </r>
        <r>   -13.1797     0.0000     0.0000     0.0000     0.0000     0.0000     0.0000     0.0000     0.0000     0.0000 </r>
        <r>   -13.0570     0.0000     0.0000     0.0000     0.0000     0.0000     0.0000     0.0000     0.0000     0.0000 </r>
        <r>   -12.9343     0.0000     0.0000     0.0000     0.0000     0.0000     0.0000     0.0000     0.0000     0.0000 </r>
        <r>   -12.8116     0.0000     0.0000     0.0000     0.0000     0.0000     0.0000     0.0000     0.0000     0.0000 </r>
        <r>   -12.6889     0.0000     0.0000     0.0000     0.0000     0.0000     0.0000     0.0000     0.0000     0.0000 </r>
        <r>   -12.5662     0.0000     0.0000     0.0000     0.0000     0.0000     0.0000     0.0000     0.0000     0.0000 </r>
        <r>   -12.4435     0.0000     0.0000     0.0000     0.0000     0.0000     0.0000     0.0000     0.0000     0.0000 </r>
        <r>   -12.3208     0.0000     0.0000     0.0000     0.0000     0.0000     0.0000     0.0000     0.0000     0.0000 </r>
        <r>   -12.1981     0.0000     0.0000     0.0000     0.0000     0.0000     0.0000     0.0000     0.0000     0.0000 </r>
        <r>   -12.0754     0.0000     0.0000     0.0000     0.0000     0.0000     0.0000     0.0000     0.0000     0.0000 </r>
        <r>   -11.9527     0.0000     0.0000     0.0000     0.0000     0.0000     0.0000     0.0000     0.0000     0.0000 </r>
        <r>   -11.8300     0.0000     0.0000     0.0000     0.0000     0.0000     0.0000     0.0000     0.0000     0.0000 </r>
        <r>   -11.7073     0.0000     0.0000     0.0000     0.0000     0.0000     0.0000     0.0000     0.0000     0.0000 </r>
        <r>   -11.5846     0.0000     0.0000     0.0000     0.0000     0.0000     0.0000     0.0000     0.0000     0.0000 </r>
        <r>   -11.4619     0.0000     0.0000     0.0000     0.0000     0.0000     0.0000     0.0000     0.0000     0.0000 </r>
        <r>   -11.3392     0.0000     0.0000     0.0000     0.0000     0.0000     0.0000     0.0000     0.0000     0.0000 </r>
        <r>   -11.2165     0.0000     0.0000     0.0000     0.0000     0.0000     0.0000     0.0000     0.0000     0.0000 </r>
        <r>   -11.0938     0.0000     0.0000     0.0000     0.0000     0.0000     0.0000     0.0000     0.0000     0.0000 </r>
        <r>   -10.9711     0.0000     0.0000     0.0000     0.0000     0.0000     0.0000     0.0000     0.0000     0.0000 </r>
        <r>   -10.8484     0.0000     0.0000     0.0000     0.0000     0.0000     0.0000     0.0000     0.0000     0.0000 </r>
        <r>   -10.7257     0.0000     0.0000     0.0000     0.0000     0.0000     0.0000     0.0000     0.0000     0.0000 </r>
        <r>   -10.6030     0.0000     0.0000     0.0000     0.0000     0.0000     0.0000     0.0000     0.0000     0.0000 </r>
        <r>   -10.4803     0.0000     0.0000     0.0000     0.0000     0.0000     0.0000     0.0000     0.0000     0.0000 </r>
        <r>   -10.3576     0.0000     0.0000     0.0000     0.0000     0.0000     0.0000     0.0000     0.0000     0.0000 </r>
        <r>   -10.2349     0.0000     0.0000     0.0000     0.0000     0.0000     0.0000     0.0000     0.0000     0.0000 </r>
        <r>   -10.1122     0.0000     0.0000     0.0000     0.0000     0.0000     0.0000     0.0000     0.0000     0.0000 </r>
        <r>    -9.9895     0.0000     0.0000     0.0000     0.0000     0.0000     0.0000     0.0000     0.0000     0.0000 </r>
        <r>    -9.8668     0.0000     0.0000     0.0000     0.0000     0.0000     0.0000     0.0000     0.0000     0.0000 </r>
        <r>    -9.7441     0.0000     0.0000     0.0000     0.0000     0.0000     0.0000     0.0000     0.0000     0.0000 </r>
        <r>    -9.6214     0.0000     0.0000     0.0000     0.0000     0.0000     0.0000     0.0000     0.0000     0.0000 </r>
        <r>    -9.4986     0.0000     0.0000     0.0000     0.0000     0.0000     0.0000     0.0000     0.0000     0.0000 </r>
        <r>    -9.3759     0.0000     0.0000     0.0000     0.0000     0.0000     0.0000     0.0000     0.0000     0.0000 </r>
        <r>    -9.2532     0.0000     0.0000     0.0000     0.0000     0.0000     0.0000     0.0000     0.0000     0.0000 </r>
        <r>    -9.1305     0.0000     0.0000     0.0000     0.0000     0.0000     0.0000     0.0000     0.0000     0.0000 </r>
        <r>    -9.0078     0.0000     0.0000     0.0000     0.0000     0.0000     0.0000     0.0000     0.0000     0.0000 </r>
        <r>    -8.8851     0.0000     0.0000     0.0000     0.0000     0.0000     0.0000     0.0000     0.0000     0.0000 </r>
        <r>    -8.7624     0.0000     0.0000     0.0000     0.0000     0.0000     0.0000     0.0000     0.0000     0.0000 </r>
        <r>    -8.6397     0.0000     0.0000     0.0000     0.0000     0.0000     0.0000     0.0000     0.0000     0.0000 </r>
        <r>    -8.5170     0.0000     0.0000     0.0000     0.0000     0.0000     0.0000     0.0000     0.0000     0.0000 </r>
        <r>    -8.3943     0.0000     0.0000     0.0000     0.0000     0.0000     0.0000     0.0000     0.0000     0.0000 </r>
        <r>    -8.2716     0.0000     0.0000     0.0000     0.0000     0.0000     0.0000     0.0000     0.0000     0.0000 </r>
        <r>    -8.1489     0.0000     0.0000     0.0000     0.0000     0.0000     0.0000     0.0000     0.0000     0.0000 </r>
        <r>    -8.0262     0.0005     0.0001     0.0000     0.0000     0.0000     0.0000     0.0000     0.0000     0.0000 </r>
        <r>    -7.9035     0.0662     0.0070     0.0030     0.0025     0.0000     0.0000     0.0000     0.0000     0.0000 </r>
        <r>    -7.7808     0.6288     0.0634     0.0314     0.0225     0.0000     0.0000     0.0000     0.0000     0.0000 </r>
        <r>    -7.6581     0.8517     0.0531     0.0786     0.0211     0.0000     0.0000     0.0000     0.0000     0.0000 </r>
        <r>    -7.5354     0.4198     0.0049     0.0623     0.0043     0.0000     0.0000     0.0000     0.0000     0.0000 </r>
        <r>    -7.4127     0.0372     0.0001     0.0059     0.0003     0.0000     0.0000     0.0000     0.0000     0.0000 </r>
        <r>    -7.2900     0.0003     0.0000     0.0000     0.0000     0.0000     0.0000     0.0000     0.0000     0.0000 </r>
        <r>    -7.1673     0.0000     0.0000     0.0000     0.0000     0.0000     0.0000     0.0000     0.0000     0.0000 </r>
        <r>    -7.0446     0.0000     0.0000     0.0000     0.0000     0.0000     0.0000     0.0000     0.0000     0.0000 </r>
        <r>    -6.9219     0.0091     0.0024     0.0003     0.0020     0.0000     0.0000     0.0000     0.0000     0.0000 </r>
        <r>    -6.7992     0.2290     0.0599     0.0076     0.0512     0.0000     0.0000     0.0000     0.0000     0.0000 </r>
        <r>    -6.6765     0.4846     0.1268     0.0161     0.1084     0.0000     0.0000     0.0000     0.0000     0.0000 </r>
        <r>    -6.5538     0.0956     0.0250     0.0032     0.0214     0.0000     0.0000     0.0000     0.0000     0.0000 </r>
        <r>    -6.4311     0.0014     0.0004     0.0000     0.0003     0.0000     0.0000     0.0000     0.0000     0.0000 </r>
        <r>    -6.3084     0.0000     0.0000     0.0000     0.0000     0.0000     0.0000     0.0000     0.0000     0.0000 </r>
        <r>    -6.1857     0.0000     0.0000     0.0000     0.0000     0.0000     0.0000     0.0000     0.0000     0.0000 </r>
        <r>    -6.0630     0.0000     0.0000     0.0000     0.0000     0.0000     0.0000     0.0000     0.0000     0.0000 </r>
        <r>    -5.9403     0.0000     0.0000     0.0000     0.0000     0.0000     0.0000     0.0000     0.0000     0.0000 </r>
        <r>    -5.8176     0.0000     0.0000     0.0000     0.0000     0.0000     0.0000     0.0000     0.0000     0.0000 </r>
        <r>    -5.6949     0.0000     0.0000     0.0000     0.0000     0.0000     0.0000     0.0000     0.0000     0.0000 </r>
        <r>    -5.5722     0.0000     0.0000     0.0000     0.0000     0.0000     0.0000     0.0000     0.0000     0.0000 </r>
        <r>    -5.4495     0.0022     0.0004     0.0012     0.0011     0.0000     0.0000     0.0000     0.0000     0.0000 </r>
        <r>    -5.3267     0.0899     0.0178     0.0479     0.0452     0.0000     0.0000     0.0000     0.0000     0.0000 </r>
        <r>    -5.2040     0.2885     0.0570     0.1538     0.1449     0.0000     0.0000     0.0000     0.0000     0.0000 </r>
        <r>    -5.0813     0.0868     0.0172     0.0463     0.0436     0.0000     0.0000     0.0000     0.0000     0.0000 </r>
        <r>    -4.9586     0.0025     0.0168     0.0041     0.0092     0.0000     0.0000     0.0000     0.0000     0.0000 </r>
        <r>    -4.8359     0.0073     0.3005     0.1035     0.1487     0.0000     0.0000     0.0000     0.0000     0.0000 </r>
        <r>    -4.7132     0.0120     0.5556     0.4942     0.2908     0.0000     0.0000     0.0000     0.0000     0.0000 </r>
        <r>    -4.5905     0.0026     0.2078     0.3067     0.1860     0.0000     0.0000     0.0000     0.0000     0.0000 </r>
        <r>    -4.4678     0.0004     0.1328     0.0407     0.1824     0.0000     0.0000     0.0000     0.0000     0.0000 </r>
        <r>    -4.3451     0.0001     0.0198     0.0036     0.0276     0.0000     0.0000     0.0000     0.0000     0.0000 </r>
        <r>    -4.2224     0.0000     0.0003     0.0001     0.0004     0.0000     0.0000     0.0000     0.0000     0.0000 </r>
        <r>    -4.0997     0.0000     0.0048     0.0145     0.0141     0.0000     0.0000     0.0000     0.0000     0.0000 </r>
        <r>    -3.9770     0.0001     0.0547     0.1658     0.1614     0.0000     0.0000     0.0000     0.0000     0.0000 </r>
        <r>    -3.8543     0.0001     0.0560     0.1700     0.1654     0.0000     0.0000     0.0000     0.0000     0.0000 </r>
        <r>    -3.7316     0.0000     0.0052     0.0156     0.0152     0.0000     0.0000     0.0000     0.0000     0.0000 </r>
        <r>    -3.6089     0.0000     0.0000     0.0001     0.0001     0.0000     0.0000     0.0000     0.0000     0.0000 </r>
        <r>    -3.4862     0.0000     0.0000     0.0000     0.0000     0.0000     0.0000     0.0000     0.0000     0.0000 </r>
        <r>    -3.3635     0.0000     0.0000     0.0000     0.0000     0.0000     0.0000     0.0000     0.0000     0.0000 </r>
        <r>    -3.2408     0.0000     0.0000     0.0000     0.0000     0.0000     0.0000     0.0000     0.0000     0.0000 </r>
        <r>    -3.1181     0.0000     0.0000     0.0000     0.0000     0.0000     0.0000     0.0000     0.0000     0.0000 </r>
        <r>    -2.9954     0.0000     0.0000     0.0000     0.0000     0.0000     0.0000     0.0000     0.0000     0.0000 </r>
        <r>    -2.8727     0.0000     0.0000     0.0000     0.0000     0.0000     0.0000     0.0000     0.0000     0.0000 </r>
        <r>    -2.7500     0.0000     0.0000     0.0000     0.0000     0.0000     0.0000     0.0000     0.0000     0.0000 </r>
        <r>    -2.6273     0.0000     0.0000     0.0000     0.0000     0.0000     0.0000     0.0000     0.0000     0.0000 </r>
        <r>    -2.5046     0.0004     0.0002     0.0003     0.0007     0.0000     0.0000     0.0000     0.0000     0.0000 </r>
        <r>    -2.3819     0.0117     0.0076     0.0086     0.0205     0.0000     0.0000     0.0000     0.0000     0.0000 </r>
        <r>    -2.2592     0.0333     0.0261     0.0340     0.0721     0.0000     0.0000     0.0000     0.0000     0.0000 </r>
        <r>    -2.1365     0.0232     0.0279     0.0490     0.0774     0.0000     0.0000     0.0000     0.0000     0.0000 </r>
        <r>    -2.0138     0.0206     0.0101     0.0168     0.0217     0.0000     0.0000     0.0000     0.0000     0.0000 </r>
        <r>    -1.8911     0.0138     0.0212     0.0035     0.0167     0.0000     0.0000     0.0000     0.0000     0.0000 </r>
        <r>    -1.7684     0.0030     0.0256     0.0129     0.0371     0.0000     0.0000     0.0000     0.0000     0.0000 </r>
        <r>    -1.6457     0.0002     0.0105     0.0109     0.0250     0.0000     0.0000     0.0000     0.0000     0.0000 </r>
        <r>    -1.5230     0.0014     0.0085     0.0034     0.0086     0.0000     0.0000     0.0000     0.0000     0.0000 </r>
        <r>    -1.4003     0.0104     0.0270     0.0172     0.0417     0.0000     0.0000     0.0000     0.0000     0.0000 </r>
        <r>    -1.2776     0.0082     0.0199     0.0136     0.0320     0.0000     0.0000     0.0000     0.0000     0.0000 </r>
        <r>    -1.1549     0.0067     0.0064     0.0169     0.0056     0.0000     0.0000     0.0000     0.0000     0.0000 </r>
        <r>    -1.0321     0.0225     0.0319     0.0550     0.0212     0.0000     0.0000     0.0000     0.0000     0.0000 </r>
        <r>    -0.9094     0.0097     0.0227     0.0213     0.0150     0.0000     0.0000     0.0000     0.0000     0.0000 </r>
        <r>    -0.7867     0.0005     0.0017     0.0010     0.0012     0.0000     0.0000     0.0000     0.0000     0.0000 </r>
        <r>    -0.6640     0.0000     0.0000     0.0000     0.0000     0.0000     0.0000     0.0000     0.0000     0.0000 </r>
        <r>    -0.5413     0.0006     0.0012     0.0001     0.0009     0.0000     0.0000     0.0000     0.0000     0.0000 </r>
        <r>    -0.4186     0.0042     0.0076     0.0034     0.0080     0.0000     0.0000     0.0000     0.0000     0.0000 </r>
        <r>    -0.2959     0.0078     0.0065     0.0217     0.0088     0.0000     0.0000     0.0000     0.0000     0.0000 </r>
        <r>    -0.1732     0.0043     0.0036     0.0144     0.0042     0.0000     0.0000     0.0000     0.0000     0.0000 </r>
        <r>    -0.0505     0.0010     0.0024     0.0018     0.0029     0.0000     0.0000     0.0000     0.0000     0.0000 </r>
        <r>     0.0722     0.0069     0.0002     0.0001     0.0003     0.0000     0.0000     0.0000     0.0000     0.0000 </r>
        <r>     0.1949     0.0179     0.0004     0.0005     0.0005     0.0000     0.0000     0.0000     0.0000     0.0000 </r>
        <r>     0.3176     0.0047     0.0031     0.0061     0.0052     0.0000     0.0000     0.0000     0.0000     0.0000 </r>
        <r>     0.4403     0.0004     0.0037     0.0100     0.0074     0.0000     0.0000     0.0000     0.0000     0.0000 </r>
        <r>     0.5630     0.0024     0.0011     0.0029     0.0026     0.0000     0.0000     0.0000     0.0000     0.0000 </r>
        <r>     0.6857     0.0058     0.0013     0.0025     0.0033     0.0000     0.0000     0.0000     0.0000     0.0000 </r>
        <r>     0.8084     0.0013     0.0003     0.0006     0.0007     0.0000     0.0000     0.0000     0.0000     0.0000 </r>
        <r>     0.9311     0.0000     0.0000     0.0000     0.0000     0.0000     0.0000     0.0000     0.0000     0.0000 </r>
        <r>     1.0538     0.0000     0.0000     0.0000     0.0000     0.0000     0.0000     0.0000     0.0000     0.0000 </r>
        <r>     1.1765     0.0000     0.0000     0.0000     0.0000     0.0000     0.0000     0.0000     0.0000     0.0000 </r>
        <r>     1.2992     0.0000     0.0000     0.0000     0.0000     0.0000     0.0000     0.0000     0.0000     0.0000 </r>
        <r>     1.4219     0.0000     0.0000     0.0000     0.0000     0.0000     0.0000     0.0000     0.0000     0.0000 </r>
        <r>     1.5446     0.0000     0.0000     0.0000     0.0000     0.0000     0.0000     0.0000     0.0000     0.0000 </r>
        <r>     1.6673     0.0000     0.0000     0.0000     0.0000     0.0000     0.0000     0.0000     0.0000     0.0000 </r>
        <r>     1.7900     0.0000     0.0000     0.0000     0.0000     0.0000     0.0000     0.0000     0.0000     0.0000 </r>
        <r>     1.9127     0.0000     0.0000     0.0000     0.0000     0.0000     0.0000     0.0000     0.0000     0.0000 </r>
        <r>     2.0354     0.0000     0.0000     0.0000     0.0000     0.0000     0.0000     0.0000     0.0000     0.0000 </r>
        <r>     2.1581     0.0000     0.0000     0.0000     0.0000     0.0000     0.0000     0.0000     0.0000     0.0000 </r>
        <r>     2.2808     0.0000     0.0000     0.0000     0.0000     0.0000     0.0000     0.0000     0.0000     0.0000 </r>
        <r>     2.4035     0.0000     0.0000     0.0000     0.0000     0.0000     0.0000     0.0000     0.0000     0.0000 </r>
        <r>     2.5262     0.0000     0.0000     0.0000     0.0000     0.0000     0.0000     0.0000     0.0000     0.0000 </r>
        <r>     2.6489     0.0000     0.0000     0.0000     0.0000     0.0000     0.0000     0.0000     0.0000     0.0000 </r>
        <r>     2.7716     0.0000     0.0000     0.0000     0.0000     0.0000     0.0000     0.0000     0.0000     0.0000 </r>
        <r>     2.8943     0.0000     0.0000     0.0000     0.0000     0.0000     0.0000     0.0000     0.0000     0.0000 </r>
        <r>     3.0170     0.0000     0.0000     0.0000     0.0000     0.0000     0.0000     0.0000     0.0000     0.0000 </r>
        <r>     3.1398     0.0000     0.0000     0.0000     0.0000     0.0000     0.0000     0.0000     0.0000     0.0000 </r>
        <r>     3.2625     0.0000     0.0000     0.0000     0.0000     0.0000     0.0000     0.0000     0.0000     0.0000 </r>
        <r>     3.3852     0.0000     0.0000     0.0000     0.0000     0.0000     0.0000     0.0000     0.0000     0.0000 </r>
        <r>     3.5079     0.0000     0.0000     0.0000     0.0000     0.0000     0.0000     0.0000     0.0000     0.0000 </r>
        <r>     3.6306     0.0000     0.0000     0.0000     0.0000     0.0000     0.0000     0.0000     0.0000     0.0000 </r>
        <r>     3.7533     0.0000     0.0000     0.0000     0.0000     0.0000     0.0000     0.0000     0.0000     0.0000 </r>
        <r>     3.8760     0.0000     0.0000     0.0000     0.0000     0.0000     0.0000     0.0000     0.0000     0.0000 </r>
        <r>     3.9987     0.0000     0.0000     0.0000     0.0000     0.0000     0.0000     0.0000     0.0000     0.0000 </r>
        <r>     4.1214     0.0000     0.0000     0.0000     0.0000     0.0000     0.0000     0.0000     0.0000     0.0000 </r>
        <r>     4.2441     0.0000     0.0000     0.0000     0.0000     0.0000     0.0000     0.0000     0.0000     0.0000 </r>
        <r>     4.3668     0.0000     0.0000     0.0000     0.0000     0.0000     0.0000     0.0000     0.0000     0.0000 </r>
        <r>     4.4895     0.0000     0.0000     0.0000     0.0000     0.0000     0.0000     0.0000     0.0000     0.0000 </r>
        <r>     4.6122     0.0000     0.0000     0.0000     0.0000     0.0000     0.0000     0.0000     0.0000     0.0000 </r>
        <r>     4.7349     0.0000     0.0000     0.0000     0.0000     0.0000     0.0000     0.0000     0.0000     0.0000 </r>
        <r>     4.8576     0.0000     0.0000     0.0000     0.0000     0.0000     0.0000     0.0000     0.0000     0.0000 </r>
        <r>     4.9803     0.0000     0.0000     0.0000     0.0000     0.0000     0.0000     0.0000     0.0000     0.0000 </r>
        <r>     5.1030     0.0000     0.0000     0.0000     0.0000     0.0000     0.0000     0.0000     0.0000     0.0000 </r>
        <r>     5.2257     0.0000     0.0000     0.0000     0.0000     0.0000     0.0000     0.0000     0.0000     0.0000 </r>
        <r>     5.3484     0.0000     0.0000     0.0000     0.0000     0.0000     0.0000     0.0000     0.0000     0.0000 </r>
        <r>     5.4711     0.0000     0.0000     0.0000     0.0000     0.0000     0.0000     0.0000     0.0000     0.0000 </r>
        <r>     5.5938     0.0000     0.0000     0.0000     0.0000     0.0000     0.0000     0.0000     0.0000     0.0000 </r>
        <r>     5.7165     0.0000     0.0000     0.0000     0.0000     0.0000     0.0000     0.0000     0.0000     0.0000 </r>
        <r>     5.8392     0.0000     0.0000     0.0000     0.0000     0.0000     0.0000     0.0000     0.0000     0.0000 </r>
        <r>     5.9619     0.0000     0.0000     0.0000     0.0000     0.0000     0.0000     0.0000     0.0000     0.0000 </r>
        <r>     6.0846     0.0002     0.0000     0.0000     0.0000     0.0000     0.0000     0.0000     0.0000     0.0000 </r>
        <r>     6.2073     0.0148     0.0000     0.0000     0.0000     0.0000     0.0000     0.0000     0.0000     0.0000 </r>
        <r>     6.3300     0.0906     0.0000     0.0000     0.0000     0.0000     0.0000     0.0000     0.0000     0.0000 </r>
        <r>     6.4527     0.0514     0.0000     0.0000     0.0000     0.0000     0.0000     0.0000     0.0000     0.0000 </r>
        <r>     6.5754     0.0025     0.0000     0.0000     0.0000     0.0000     0.0000     0.0000     0.0000     0.0000 </r>
        <r>     6.6981     0.0000     0.0000     0.0000     0.0000     0.0000     0.0000     0.0000     0.0000     0.0000 </r>
        <r>     6.8208     0.0000     0.0000     0.0000     0.0000     0.0000     0.0000     0.0000     0.0000     0.0000 </r>
        <r>     6.9435     0.0000     0.0000     0.0000     0.0000     0.0000     0.0000     0.0000     0.0000     0.0000 </r>
        <r>     7.0662     0.0000     0.0000     0.0000     0.0000     0.0000     0.0000     0.0000     0.0000     0.0000 </r>
        <r>     7.1889     0.0000     0.0000     0.0000     0.0000     0.0000     0.0000     0.0000     0.0000     0.0000 </r>
        <r>     7.3116     0.0000     0.0000     0.0000     0.0000     0.0000     0.0000     0.0000     0.0000     0.0000 </r>
        <r>     7.4344     0.0000     0.0000     0.0000     0.0000     0.0000     0.0000     0.0000     0.0000     0.0000 </r>
        <r>     7.5571     0.0000     0.0000     0.0000     0.0000     0.0000     0.0000     0.0000     0.0000     0.0000 </r>
        <r>     7.6798     0.0000     0.0000     0.0000     0.0000     0.0000     0.0000     0.0000     0.0000     0.0000 </r>
        <r>     7.8025     0.0000     0.0000     0.0000     0.0000     0.0000     0.0000     0.0000     0.0000     0.0000 </r>
        <r>     7.9252     0.0000     0.0000     0.0000     0.0000     0.0000     0.0000     0.0000     0.0000     0.0000 </r>
        <r>     8.0479     0.0000     0.0000     0.0000     0.0000     0.0000     0.0000     0.0000     0.0000     0.0000 </r>
        <r>     8.1706     0.0000     0.0000     0.0000     0.0000     0.0000     0.0000     0.0000     0.0000     0.0000 </r>
        <r>     8.2933     0.0046     0.0004     0.0014     0.0012     0.0000     0.0000     0.0000     0.0000     0.0000 </r>
        <r>     8.4160     0.1106     0.0098     0.0327     0.0283     0.0000     0.0000     0.0000     0.0000     0.0000 </r>
        <r>     8.5387     0.2227     0.0197     0.0658     0.0570     0.0000     0.0000     0.0000     0.0000     0.0000 </r>
        <r>     8.6614     0.0417     0.0037     0.0123     0.0107     0.0000     0.0000     0.0000     0.0000     0.0000 </r>
        <r>     8.7841     0.0006     0.0001     0.0002     0.0002     0.0000     0.0000     0.0000     0.0000     0.0000 </r>
        <r>     8.9068     0.0000     0.0000     0.0000     0.0000     0.0000     0.0000     0.0000     0.0000     0.0000 </r>
        <r>     9.0295     0.0004     0.0003     0.0000     0.0001     0.0000     0.0000     0.0000     0.0000     0.0000 </r>
        <r>     9.1522     0.0315     0.0203     0.0001     0.0068     0.0000     0.0000     0.0000     0.0000     0.0000 </r>
        <r>     9.2749     0.1683     0.1086     0.0004     0.0362     0.0000     0.0000     0.0000     0.0000     0.0000 </r>
        <r>     9.3976     0.0837     0.0540     0.0002     0.0180     0.0000     0.0000     0.0000     0.0000     0.0000 </r>
        <r>     9.5203     0.0039     0.0037     0.0001     0.0029     0.0000     0.0000     0.0000     0.0000     0.0000 </r>
        <r>     9.6430     0.0123     0.0458     0.0043     0.0694     0.0000     0.0000     0.0000     0.0000     0.0000 </r>
        <r>     9.7657     0.0330     0.1234     0.0129     0.1866     0.0000     0.0000     0.0000     0.0000     0.0000 </r>
        <r>     9.8884     0.0126     0.0535     0.0662     0.0561     0.0000     0.0000     0.0000     0.0000     0.0000 </r>
        <r>    10.0111     0.0880     0.1629     0.2316     0.0847     0.0000     0.0000     0.0000     0.0000     0.0000 </r>
        <r>    10.1338     0.3234     0.2686     0.2398     0.1794     0.0000     0.0000     0.0000     0.0000     0.0000 </r>
        <r>    10.2565     0.1845     0.0666     0.1564     0.0636     0.0000     0.0000     0.0000     0.0000     0.0000 </r>
        <r>    10.3792     0.0127     0.0020     0.0125     0.0032     0.0000     0.0000     0.0000     0.0000     0.0000 </r>
        <r>    10.5019     0.0001     0.0001     0.0001     0.0001     0.0000     0.0000     0.0000     0.0000     0.0000 </r>
        <r>    10.6246     0.0048     0.0134     0.0026     0.0139     0.0000     0.0000     0.0000     0.0000     0.0000 </r>
        <r>    10.7473     0.0426     0.1110     0.0701     0.1112     0.0000     0.0000     0.0000     0.0000     0.0000 </r>
        <r>    10.8700     0.0671     0.1216     0.3091     0.1022     0.0000     0.0000     0.0000     0.0000     0.0000 </r>
        <r>    10.9927     0.1743     0.0347     0.1478     0.0201     0.0000     0.0000     0.0000     0.0000     0.0000 </r>
        <r>    11.1154     0.2766     0.0112     0.0061     0.0040     0.0000     0.0000     0.0000     0.0000     0.0000 </r>
        <r>    11.2381     0.0452     0.0017     0.0000     0.0006     0.0000     0.0000     0.0000     0.0000     0.0000 </r>
        <r>    11.3608     0.0007     0.0001     0.0000     0.0002     0.0000     0.0000     0.0000     0.0000     0.0000 </r>
        <r>    11.4835     0.0158     0.0157     0.0011     0.0201     0.0000     0.0000     0.0000     0.0000     0.0000 </r>
        <r>    11.6063     0.1557     0.1523     0.0122     0.1951     0.0000     0.0000     0.0000     0.0000     0.0000 </r>
        <r>    11.7290     0.2297     0.1489     0.0881     0.1882     0.0000     0.0000     0.0000     0.0000     0.0000 </r>
        <r>    11.8517     0.3142     0.0699     0.2578     0.0978     0.0000     0.0000     0.0000     0.0000     0.0000 </r>
        <r>    11.9744     0.0909     0.0270     0.0812     0.0527     0.0000     0.0000     0.0000     0.0000     0.0000 </r>
        <r>    12.0971     0.0053     0.0030     0.0054     0.0075     0.0000     0.0000     0.0000     0.0000     0.0000 </r>
        <r>    12.2198     0.0616     0.0301     0.0609     0.0739     0.0000     0.0000     0.0000     0.0000     0.0000 </r>
        <r>    12.3425     0.1036     0.0508     0.1023     0.1241     0.0000     0.0000     0.0000     0.0000     0.0000 </r>
        <r>    12.4652     0.0241     0.0195     0.0159     0.0231     0.0000     0.0000     0.0000     0.0000     0.0000 </r>
        <r>    12.5879     0.0354     0.0509     0.0002     0.0171     0.0000     0.0000     0.0000     0.0000     0.0000 </r>
        <r>    12.7106     0.0233     0.0225     0.0001     0.0076     0.0000     0.0000     0.0000     0.0000     0.0000 </r>
        <r>    12.8333     0.2139     0.0442     0.0022     0.0174     0.0000     0.0000     0.0000     0.0000     0.0000 </r>
        <r>    12.9560     0.4350     0.1067     0.0057     0.0412     0.0000     0.0000     0.0000     0.0000     0.0000 </r>
        <r>    13.0787     0.1311     0.1488     0.0131     0.0718     0.0000     0.0000     0.0000     0.0000     0.0000 </r>
        <r>    13.2014     0.0949     0.2285     0.0323     0.1995     0.0000     0.0000     0.0000     0.0000     0.0000 </r>
        <r>    13.3241     0.1263     0.1353     0.0183     0.1355     0.0000     0.0000     0.0000     0.0000     0.0000 </r>
        <r>    13.4468     0.0598     0.0212     0.0057     0.0169     0.0000     0.0000     0.0000     0.0000     0.0000 </r>
        <r>    13.5695     0.1963     0.0373     0.0207     0.0156     0.0000     0.0000     0.0000     0.0000     0.0000 </r>
        <r>    13.6922     0.0910     0.0172     0.0096     0.0072     0.0000     0.0000     0.0000     0.0000     0.0000 </r>
        <r>    13.8149     0.0035     0.0007     0.0004     0.0003     0.0000     0.0000     0.0000     0.0000     0.0000 </r>
        <r>    13.9376     0.0000     0.0000     0.0000     0.0000     0.0000     0.0000     0.0000     0.0000     0.0000 </r>
        <r>    14.0603     0.0000     0.0000     0.0000     0.0000     0.0000     0.0000     0.0000     0.0000     0.0000 </r>
        <r>    14.1830     0.0000     0.0000     0.0000     0.0000     0.0000     0.0000     0.0000     0.0000     0.0000 </r>
        <r>    14.3057     0.0000     0.0000     0.0000     0.0000     0.0000     0.0000     0.0000     0.0000     0.0000 </r>
        <r>    14.4284     0.0000     0.0000     0.0000     0.0000     0.0000     0.0000     0.0000     0.0000     0.0000 </r>
        <r>    14.5511     0.0000     0.0000     0.0000     0.0000     0.0000     0.0000     0.0000     0.0000     0.0000 </r>
        <r>    14.6738     0.0000     0.0000     0.0000     0.0000     0.0000     0.0000     0.0000     0.0000     0.0000 </r>
        <r>    14.7965     0.0000     0.0000     0.0000     0.0000     0.0000     0.0000     0.0000     0.0000     0.0000 </r>
        <r>    14.9192     0.0000     0.0000     0.0000     0.0000     0.0000     0.0000     0.0000     0.0000     0.0000 </r>
        <r>    15.0419     0.0000     0.0000     0.0000     0.0000     0.0000     0.0000     0.0000     0.0000     0.0000 </r>
        <r>    15.1646     0.0000     0.0000     0.0000     0.0000     0.0000     0.0000     0.0000     0.0000     0.0000 </r>
[...]
        <r>  0.0036  0.0053  0.0209  0.0247  0.0000  0.0000  0.0000  0.0000  0.0000 </r>
       </set>
       <set comment="band 15">
        <r>  0.0070  0.0001  0.0000  0.0000  0.0000  0.0000  0.0000  0.0000  0.0000 </r>
        <r>  0.0070  0.0001  0.0000  0.0000  0.0000  0.0000  0.0000  0.0000  0.0000 </r>
        <r>  0.0070  0.0000  0.0000  0.0001  0.0000  0.0000  0.0000  0.0000  0.0000 </r>
        <r>  0.0030  0.0166  0.0008  0.0775  0.0000  0.0000  0.0000  0.0000  0.0000 </r>
        <r>  0.0030  0.0934  0.0008  0.0008  0.0000  0.0000  0.0000  0.0000  0.0000 </r>
        <r>  0.0030  0.0312  0.0008  0.0629  0.0000  0.0000  0.0000  0.0000  0.0000 </r>
        <r>  0.0030  0.0312  0.0008  0.0629  0.0000  0.0000  0.0000  0.0000  0.0000 </r>
        <r>  0.0030  0.0166  0.0008  0.0775  0.0000  0.0000  0.0000  0.0000  0.0000 </r>
        <r>  0.0030  0.0934  0.0008  0.0008  0.0000  0.0000  0.0000  0.0000  0.0000 </r>
       </set>
       <set comment="band 16">
        <r>  0.0000  0.0044  0.0059  0.0131  0.0000  0.0000  0.0000  0.0000  0.0000 </r>
        <r>  0.0000  0.0044  0.0059  0.0131  0.0000  0.0000  0.0000  0.0000  0.0000 </r>
        <r>  0.0000  0.0175  0.0059  0.0000  0.0000  0.0000  0.0000  0.0000  0.0000 </r>
        <r>  0.0048  0.0339  0.0010  0.0577  0.0000  0.0000  0.0000  0.0000  0.0000 </r>
        <r>  0.0048  0.0901  0.0010  0.0015  0.0000  0.0000  0.0000  0.0000  0.0000 </r>
        <r>  0.0048  0.0135  0.0010  0.0782  0.0000  0.0000  0.0000  0.0000  0.0000 </r>
        <r>  0.0048  0.0135  0.0010  0.0782  0.0000  0.0000  0.0000  0.0000  0.0000 </r>
        <r>  0.0048  0.0339  0.0010  0.0577  0.0000  0.0000  0.0000  0.0000  0.0000 </r>
        <r>  0.0048  0.0901  0.0010  0.0015  0.0000  0.0000  0.0000  0.0000  0.0000 </r>
       </set>
       <set comment="band 17">
        <r>  0.0000  0.0000  0.0000  0.0000  0.0000  0.0000  0.0000  0.0000  0.0000 </r>
        <r>  0.0000  0.0000  0.0000  0.0000  0.0000  0.0000  0.0000  0.0000  0.0000 </r>
        <r>  0.0000  0.0001  0.0000  0.0000  0.0000  0.0000  0.0000  0.0000  0.0000 </r>
        <r>  0.0000  0.1065  0.0002  0.0092  0.0000  0.0000  0.0000  0.0000  0.0000 </r>
        <r>  0.0002  0.1305  0.0000  0.0026  0.0000  0.0000  0.0000  0.0000  0.0000 </r>
        <r>  0.0001  0.0932  0.0002  0.0019  0.0000  0.0000  0.0000  0.0000  0.0000 </r>
        <r>  0.0002  0.1001  0.0001  0.0038  0.0000  0.0000  0.0000  0.0000  0.0000 </r>
        <r>  0.0000  0.1033  0.0002  0.0000  0.0000  0.0000  0.0000  0.0000  0.0000 </r>
        <r>  0.0001  0.1352  0.0000  0.0015  0.0000  0.0000  0.0000  0.0000  0.0000 </r>
       </set>
       <set comment="band 18">
        <r>  0.0000  0.0000  0.0000  0.0001  0.0000  0.0000  0.0000  0.0000  0.0000 </r>
        <r>  0.0000  0.0000  0.0000  0.0001  0.0000  0.0000  0.0000  0.0000  0.0000 </r>
        <r>  0.0000  0.0000  0.0000  0.0000  0.0000  0.0000  0.0000  0.0000  0.0000 </r>
        <r>  0.0002  0.0010  0.0000  0.1125  0.0000  0.0000  0.0000  0.0000  0.0000 </r>
        <r>  0.0000  0.0057  0.0002  0.0904  0.0000  0.0000  0.0000  0.0000  0.0000 </r>
        <r>  0.0001  0.0070  0.0001  0.1272  0.0000  0.0000  0.0000  0.0000  0.0000 </r>
        <r>  0.0000  0.0001  0.0001  0.1252  0.0000  0.0000  0.0000  0.0000  0.0000 </r>
        <r>  0.0002  0.0042  0.0000  0.1217  0.0000  0.0000  0.0000  0.0000  0.0000 </r>
        <r>  0.0001  0.0011  0.0002  0.0916  0.0000  0.0000  0.0000  0.0000  0.0000 </r>
       </set>
       <set comment="band 19">
        <r>  0.0000  0.0000  0.0000  0.0000  0.0000  0.0000  0.0000  0.0000  0.0000 </r>
        <r>  0.0000  0.0000  0.0000  0.0000  0.0000  0.0000  0.0000  0.0000  0.0000 </r>
        <r>  0.0000  0.0000  0.0000  0.0000  0.0000  0.0000  0.0000  0.0000  0.0000 </r>
        <r>  0.0001  0.0016  0.1133  0.0000  0.0000  0.0000  0.0000  0.0000  0.0000 </r>
        <r>  0.0001  0.0003  0.1133  0.0013  0.0000  0.0000  0.0000  0.0000  0.0000 </r>
        <r>  0.0001  0.0005  0.1133  0.0011  0.0000  0.0000  0.0000  0.0000  0.0000 </r>
        <r>  0.0001  0.0005  0.1133  0.0011  0.0000  0.0000  0.0000  0.0000  0.0000 </r>
        <r>  0.0001  0.0016  0.1133  0.0000  0.0000  0.0000  0.0000  0.0000  0.0000 </r>
        <r>  0.0001  0.0003  0.1133  0.0013  0.0000  0.0000  0.0000  0.0000  0.0000 </r>
       </set>
       <set comment="band 20">
        <r>  0.0017  0.0003  0.0028  0.0002  0.0000  0.0000  0.0000  0.0000  0.0000 </r>
        <r>  0.0000  0.0000  0.0094  0.0000  0.0000  0.0000  0.0000  0.0000  0.0000 </r>
        <r>  0.0020  0.0000  0.0019  0.0006  0.0000  0.0000  0.0000  0.0000  0.0000 </r>
        <r>  0.0003  0.0017  0.0090  0.0003  0.0000  0.0000  0.0000  0.0000  0.0000 </r>
        <r>  0.0032  0.1345  0.0116  0.0118  0.0000  0.0000  0.0000  0.0000  0.0000 </r>
        <r>  0.0016  0.0738  0.0002  0.0948  0.0000  0.0000  0.0000  0.0000  0.0000 </r>
        <r>  0.0001  0.0008  0.0075  0.0063  0.0000  0.0000  0.0000  0.0000  0.0000 </r>
        <r>  0.0030  0.0061  0.0126  0.1189  0.0000  0.0000  0.0000  0.0000  0.0000 </r>
        <r>  0.0020  0.1769  0.0006  0.0080  0.0000  0.0000  0.0000  0.0000  0.0000 </r>
       </set>
       <set comment="band 21">
        <r>  0.0007  0.0002  0.0066  0.0000  0.0000  0.0000  0.0000  0.0000  0.0000 </r>
        <r>  0.0025  0.0005  0.0000  0.0002  0.0000  0.0000  0.0000  0.0000  0.0000 </r>
        <r>  0.0005  0.0000  0.0075  0.0001  0.0000  0.0000  0.0000  0.0000  0.0000 </r>
        <r>  0.0031  0.0161  0.0049  0.1932  0.0000  0.0000  0.0000  0.0000  0.0000 </r>
        <r>  0.0002  0.0640  0.0022  0.0010  0.0000  0.0000  0.0000  0.0000  0.0000 </r>
        <r>  0.0018  0.0268  0.0137  0.0159  0.0000  0.0000  0.0000  0.0000  0.0000 </r>
        <r>  0.0033  0.0998  0.0063  0.1044  0.0000  0.0000  0.0000  0.0000  0.0000 </r>
        <r>  0.0004  0.0118  0.0013  0.0746  0.0000  0.0000  0.0000  0.0000  0.0000 </r>
        <r>  0.0014  0.0216  0.0132  0.0048  0.0000  0.0000  0.0000  0.0000  0.0000 </r>
       </set>
       <set comment="band 22">
        <r>  0.0072  0.0000  0.0000  0.0000  0.0000  0.0000  0.0000  0.0000  0.0000 </r>
        <r>  0.0072  0.0000  0.0000  0.0000  0.0000  0.0000  0.0000  0.0000  0.0000 </r>
        <r>  0.0072  0.0000  0.0000  0.0000  0.0000  0.0000  0.0000  0.0000  0.0000 </r>
        <r>  0.0017  0.0490  0.0541  0.0151  0.0000  0.0000  0.0000  0.0000  0.0000 </r>
        <r>  0.0017  0.0000  0.0541  0.0641  0.0000  0.0000  0.0000  0.0000  0.0000 </r>
        <r>  0.0017  0.0471  0.0541  0.0170  0.0000  0.0000  0.0000  0.0000  0.0000 </r>
        <r>  0.0017  0.0472  0.0541  0.0170  0.0000  0.0000  0.0000  0.0000  0.0000 </r>
        <r>  0.0017  0.0490  0.0541  0.0151  0.0000  0.0000  0.0000  0.0000  0.0000 </r>
        <r>  0.0017  0.0000  0.0541  0.0641  0.0000  0.0000  0.0000  0.0000  0.0000 </r>
       </set>
       <set comment="band 23">
        <r>  0.0001  0.0009  0.0003  0.0000  0.0000  0.0000  0.0000  0.0000  0.0000 </r>
        <r>  0.0000  0.0004  0.0011  0.0010  0.0000  0.0000  0.0000  0.0000  0.0000 </r>
        <r>  0.0001  0.0003  0.0002  0.0006  0.0000  0.0000  0.0000  0.0000  0.0000 </r>
        <r>  0.0001  0.0112  0.0025  0.0412  0.0000  0.0000  0.0000  0.0000  0.0000 </r>
        <r>  0.0002  0.0564  0.0932  0.0421  0.0000  0.0000  0.0000  0.0000  0.0000 </r>
        <r>  0.0000  0.0331  0.0651  0.0133  0.0000  0.0000  0.0000  0.0000  0.0000 </r>
        <r>  0.0001  0.0189  0.0002  0.0273  0.0000  0.0000  0.0000  0.0000  0.0000 </r>
        <r>  0.0002  0.0838  0.0844  0.0148  0.0000  0.0000  0.0000  0.0000  0.0000 </r>
        <r>  0.0000  0.0015  0.0762  0.0512  0.0000  0.0000  0.0000  0.0000  0.0000 </r>
       </set>
       <set comment="band 24">
        <r>  0.0000  0.0000  0.0008  0.0012  0.0000  0.0000  0.0000  0.0000  0.0000 </r>
        <r>  0.0001  0.0005  0.0000  0.0002  0.0000  0.0000  0.0000  0.0000  0.0000 </r>
        <r>  0.0000  0.0011  0.0009  0.0002  0.0000  0.0000  0.0000  0.0000  0.0000 </r>
        <r>  0.0001  0.0792  0.1047  0.0000  0.0000  0.0000  0.0000  0.0000  0.0000 </r>
        <r>  0.0000  0.0161  0.0140  0.0169  0.0000  0.0000  0.0000  0.0000  0.0000 </r>
        <r>  0.0002  0.0014  0.0421  0.0838  0.0000  0.0000  0.0000  0.0000  0.0000 </r>
        <r>  0.0001  0.0156  0.1070  0.0698  0.0000  0.0000  0.0000  0.0000  0.0000 </r>
        <r>  0.0000  0.0066  0.0228  0.0264  0.0000  0.0000  0.0000  0.0000  0.0000 </r>
        <r>  0.0002  0.0711  0.0310  0.0079  0.0000  0.0000  0.0000  0.0000  0.0000 </r>
       </set>
       <set comment="band 25">
        <r>  0.0391  0.0000  0.0000  0.0000  0.0000  0.0000  0.0000  0.0000  0.0000 </r>
        <r>  0.0391  0.0000  0.0000  0.0000  0.0000  0.0000  0.0000  0.0000  0.0000 </r>
        <r>  0.0391  0.0000  0.0000  0.0000  0.0000  0.0000  0.0000  0.0000  0.0000 </r>
        <r>  0.0370  0.0000  0.0002  0.0014  0.0000  0.0000  0.0000  0.0000  0.0000 </r>
        <r>  0.0370  0.0013  0.0002  0.0002  0.0000  0.0000  0.0000  0.0000  0.0000 </r>
        <r>  0.0370  0.0008  0.0002  0.0006  0.0000  0.0000  0.0000  0.0000  0.0000 </r>
        <r>  0.0370  0.0008  0.0002  0.0006  0.0000  0.0000  0.0000  0.0000  0.0000 </r>
        <r>  0.0370  0.0000  0.0002  0.0014  0.0000  0.0000  0.0000  0.0000  0.0000 </r>
        <r>  0.0370  0.0013  0.0002  0.0002  0.0000  0.0000  0.0000  0.0000  0.0000 </r>
       </set>
       <set comment="band 26">
        <r>  0.0100  0.0474  0.0011  0.0020  0.0000  0.0000  0.0000  0.0000  0.0000 </r>
        <r>  0.0000  0.0218  0.0046  0.0660  0.0000  0.0000  0.0000  0.0000  0.0000 </r>
        <r>  0.0099  0.0222  0.0012  0.0275  0.0000  0.0000  0.0000  0.0000  0.0000 </r>
        <r>  0.0068  0.0041  0.0178  0.0016  0.0000  0.0000  0.0000  0.0000  0.0000 </r>
        <r>  0.0003  0.0016  0.0145  0.0038  0.0000  0.0000  0.0000  0.0000  0.0000 </r>
        <r>  0.0101  0.0013  0.0002  0.0001  0.0000  0.0000  0.0000  0.0000  0.0000 </r>
        <r>  0.0067  0.0000  0.0179  0.0057  0.0000  0.0000  0.0000  0.0000  0.0000 </r>
        <r>  0.0004  0.0053  0.0143  0.0000  0.0000  0.0000  0.0000  0.0000  0.0000 </r>
        <r>  0.0102  0.0007  0.0002  0.0007  0.0000  0.0000  0.0000  0.0000  0.0000 </r>
       </set>
       <set comment="band 27">
        <r>  0.0033  0.0021  0.0035  0.0730  0.0000  0.0000  0.0000  0.0000  0.0000 </r>
        <r>  0.0133  0.0277  0.0000  0.0090  0.0000  0.0000  0.0000  0.0000  0.0000 </r>
        <r>  0.0033  0.0656  0.0034  0.0093  0.0000  0.0000  0.0000  0.0000  0.0000 </r>
        <r>  0.0047  0.0022  0.0038  0.0004  0.0000  0.0000  0.0000  0.0000  0.0000 </r>
        <r>  0.0112  0.0029  0.0072  0.0000  0.0000  0.0000  0.0000  0.0000  0.0000 </r>
        <r>  0.0014  0.0003  0.0215  0.0065  0.0000  0.0000  0.0000  0.0000  0.0000 </r>
        <r>  0.0048  0.0016  0.0037  0.0010  0.0000  0.0000  0.0000  0.0000  0.0000 </r>
        <r>  0.0111  0.0010  0.0073  0.0019  0.0000  0.0000  0.0000  0.0000  0.0000 </r>
        <r>  0.0013  0.0037  0.0214  0.0031  0.0000  0.0000  0.0000  0.0000  0.0000 </r>
       </set>
       <set comment="band 28">
        <r>  0.0020  0.0222  0.0212  0.0039  0.0000  0.0000  0.0000  0.0000  0.0000 </r>
        <r>  0.0000  0.0004  0.0852  0.0013  0.0000  0.0000  0.0000  0.0000  0.0000 </r>
        <r>  0.0020  0.0004  0.0214  0.0255  0.0000  0.0000  0.0000  0.0000  0.0000 </r>
        <r>  0.0075  0.0015  0.0181  0.0076  0.0000  0.0000  0.0000  0.0000  0.0000 </r>
        <r>  0.0175  0.0007  0.0000  0.0001  0.0000  0.0000  0.0000  0.0000  0.0000 </r>
        <r>  0.0021  0.0103  0.0185  0.0013  0.0000  0.0000  0.0000  0.0000  0.0000 </r>
        <r>  0.0075  0.0089  0.0180  0.0001  0.0000  0.0000  0.0000  0.0000  0.0000 </r>
        <r>  0.0175  0.0004  0.0000  0.0004  0.0000  0.0000  0.0000  0.0000  0.0000 </r>
        <r>  0.0021  0.0068  0.0186  0.0048  0.0000  0.0000  0.0000  0.0000  0.0000 </r>
       </set>
       <set comment="band 29">
        <r>  0.0006  0.0038  0.0641  0.0060  0.0000  0.0000  0.0000  0.0000  0.0000 </r>
        <r>  0.0027  0.0257  0.0000  0.0085  0.0000  0.0000  0.0000  0.0000  0.0000 </r>
        <r>  0.0007  0.0013  0.0638  0.0086  0.0000  0.0000  0.0000  0.0000  0.0000 </r>
        <r>  0.0106  0.0000  0.0063  0.0052  0.0000  0.0000  0.0000  0.0000  0.0000 </r>
        <r>  0.0006  0.0064  0.0243  0.0072  0.0000  0.0000  0.0000  0.0000  0.0000 </r>
        <r>  0.0160  0.0026  0.0058  0.0001  0.0000  0.0000  0.0000  0.0000  0.0000 </r>
        <r>  0.0105  0.0039  0.0063  0.0013  0.0000  0.0000  0.0000  0.0000  0.0000 </r>
        <r>  0.0006  0.0011  0.0243  0.0125  0.0000  0.0000  0.0000  0.0000  0.0000 </r>
        <r>  0.0160  0.0003  0.0058  0.0024  0.0000  0.0000  0.0000  0.0000  0.0000 </r>
       </set>
       <set comment="band 30">
        <r>  0.1189  0.0044  0.0000  0.0015  0.0000  0.0000  0.0000  0.0000  0.0000 </r>
        <r>  0.1193  0.0044  0.0000  0.0015  0.0000  0.0000  0.0000  0.0000  0.0000 </r>
        <r>  0.1189  0.0000  0.0000  0.0059  0.0000  0.0000  0.0000  0.0000  0.0000 </r>
        <r>  0.0046  0.0028  0.0000  0.0052  0.0000  0.0000  0.0000  0.0000  0.0000 </r>
        <r>  0.0047  0.0012  0.0000  0.0067  0.0000  0.0000  0.0000  0.0000  0.0000 </r>
        <r>  0.0046  0.0080  0.0000  0.0001  0.0000  0.0000  0.0000  0.0000  0.0000 </r>
        <r>  0.0046  0.0079  0.0000  0.0001  0.0000  0.0000  0.0000  0.0000  0.0000 </r>
        <r>  0.0047  0.0028  0.0000  0.0051  0.0000  0.0000  0.0000  0.0000  0.0000 </r>
        <r>  0.0046  0.0013  0.0000  0.0068  0.0000  0.0000  0.0000  0.0000  0.0000 </r>
       </set>
       <set comment="band 31">
        <r>  0.0000  0.0072  0.0034  0.0217  0.0000  0.0000  0.0000  0.0000  0.0000 </r>
        <r>  0.0000  0.0072  0.0034  0.0216  0.0000  0.0000  0.0000  0.0000  0.0000 </r>
        <r>  0.0000  0.0289  0.0034  0.0000  0.0000  0.0000  0.0000  0.0000  0.0000 </r>
        <r>  0.0041  0.0042  0.0000  0.0432  0.0000  0.0000  0.0000  0.0000  0.0000 </r>
        <r>  0.0041  0.0450  0.0000  0.0023  0.0000  0.0000  0.0000  0.0000  0.0000 </r>
        <r>  0.0041  0.0218  0.0000  0.0255  0.0000  0.0000  0.0000  0.0000  0.0000 </r>
        <r>  0.0041  0.0218  0.0000  0.0255  0.0000  0.0000  0.0000  0.0000  0.0000 </r>
        <r>  0.0041  0.0042  0.0000  0.0432  0.0000  0.0000  0.0000  0.0000  0.0000 </r>
        <r>  0.0041  0.0450  0.0000  0.0023  0.0000  0.0000  0.0000  0.0000  0.0000 </r>
       </set>
       <set comment="band 32">
        <r>  0.0151  0.0210  0.0000  0.0068  0.0000  0.0000  0.0000  0.0000  0.0000 </r>
        <r>  0.0126  0.0198  0.0000  0.0066  0.0000  0.0000  0.0000  0.0000  0.0000 </r>
        <r>  0.0151  0.0000  0.0000  0.0278  0.0000  0.0000  0.0000  0.0000  0.0000 </r>
        <r>  0.0003  0.0075  0.0208  0.0043  0.0000  0.0000  0.0000  0.0000  0.0000 </r>
        <r>  0.0002  0.0099  0.0189  0.0015  0.0000  0.0000  0.0000  0.0000  0.0000 </r>
        <r>  0.0002  0.0001  0.0205  0.0117  0.0000  0.0000  0.0000  0.0000  0.0000 </r>
        <r>  0.0003  0.0002  0.0208  0.0116  0.0000  0.0000  0.0000  0.0000  0.0000 </r>
        <r>  0.0002  0.0068  0.0189  0.0045  0.0000  0.0000  0.0000  0.0000  0.0000 </r>
        <r>  0.0002  0.0094  0.0205  0.0023  0.0000  0.0000  0.0000  0.0000  0.0000 </r>
       </set>
       <set comment="band 33">
        <r>  0.0406  0.0077  0.0006  0.0223  0.0000  0.0000  0.0000  0.0000  0.0000 </r>
        <r>  0.0000  0.0074  0.0026  0.0221  0.0000  0.0000  0.0000  0.0000  0.0000 </r>
        <r>  0.0410  0.0073  0.0006  0.0227  0.0000  0.0000  0.0000  0.0000  0.0000 </r>
        <r>  0.0000  0.0536  0.0025  0.0077  0.0000  0.0000  0.0000  0.0000  0.0000 </r>
        <r>  0.0022  0.0009  0.0206  0.0137  0.0000  0.0000  0.0000  0.0000  0.0000 </r>
        <r>  0.0017  0.0023  0.0085  0.0253  0.0000  0.0000  0.0000  0.0000  0.0000 </r>
        <r>  0.0000  0.0016  0.0025  0.0598  0.0000  0.0000  0.0000  0.0000  0.0000 </r>
        <r>  0.0022  0.0137  0.0207  0.0011  0.0000  0.0000  0.0000  0.0000  0.0000 </r>
        <r>  0.0017  0.0262  0.0086  0.0013  0.0000  0.0000  0.0000  0.0000  0.0000 </r>
       </set>
       <set comment="band 34">
        <r>  0.0143  0.0205  0.0017  0.0069  0.0000  0.0000  0.0000  0.0000  0.0000 </r>
        <r>  0.0545  0.0228  0.0000  0.0076  0.0000  0.0000  0.0000  0.0000  0.0000 </r>
        <r>  0.0143  0.0207  0.0016  0.0067  0.0000  0.0000  0.0000  0.0000  0.0000 </r>
        <r>  0.0026  0.0000  0.0174  0.0072  0.0000  0.0000  0.0000  0.0000  0.0000 </r>
        <r>  0.0004  0.0433  0.0006  0.0128  0.0000  0.0000  0.0000  0.0000  0.0000 </r>
        <r>  0.0009  0.0062  0.0138  0.0337  0.0000  0.0000  0.0000  0.0000  0.0000 </r>
        <r>  0.0026  0.0057  0.0174  0.0015  0.0000  0.0000  0.0000  0.0000  0.0000 </r>
        <r>  0.0004  0.0405  0.0006  0.0155  0.0000  0.0000  0.0000  0.0000  0.0000 </r>
        <r>  0.0009  0.0150  0.0137  0.0250  0.0000  0.0000  0.0000  0.0000  0.0000 </r>
       </set>
       <set comment="band 35">
        <r>  0.0625  0.0086  0.0017  0.0067  0.0000  0.0000  0.0000  0.0000  0.0000 </r>
        <r>  0.0000  0.0006  0.0074  0.0019  0.0000  0.0000  0.0000  0.0000  0.0000 </r>
        <r>  0.0625  0.0006  0.0017  0.0147  0.0000  0.0000  0.0000  0.0000  0.0000 </r>
        <r>  0.0008  0.0278  0.0086  0.0358  0.0000  0.0000  0.0000  0.0000  0.0000 </r>
        <r>  0.0087  0.0066  0.0034  0.0168  0.0000  0.0000  0.0000  0.0000  0.0000 </r>
        <r>  0.0147  0.0085  0.0231  0.0029  0.0000  0.0000  0.0000  0.0000  0.0000 </r>
        <r>  0.0008  0.0611  0.0087  0.0025  0.0000  0.0000  0.0000  0.0000  0.0000 </r>
        <r>  0.0087  0.0051  0.0034  0.0184  0.0000  0.0000  0.0000  0.0000  0.0000 </r>
        <r>  0.0147  0.0000  0.0231  0.0114  0.0000  0.0000  0.0000  0.0000  0.0000 </r>
       </set>
       <set comment="band 36">
        <r>  0.0004  0.0015  0.0508  0.0016  0.0000  0.0000  0.0000  0.0000  0.0000 </r>
        <r>  0.0000  0.0004  0.0794  0.0011  0.0000  0.0000  0.0000  0.0000  0.0000 </r>
        <r>  0.0004  0.0026  0.0505  0.0007  0.0000  0.0000  0.0000  0.0000  0.0000 </r>
        <r>  0.0004  0.0284  0.0137  0.0043  0.0000  0.0000  0.0000  0.0000  0.0000 </r>
        <r>  0.0001  0.0013  0.0061  0.0407  0.0000  0.0000  0.0000  0.0000  0.0000 </r>
        <r>  0.0001  0.0261  0.0050  0.0141  0.0000  0.0000  0.0000  0.0000  0.0000 </r>
        <r>  0.0004  0.0200  0.0137  0.0127  0.0000  0.0000  0.0000  0.0000  0.0000 </r>
        <r>  0.0001  0.0367  0.0061  0.0054  0.0000  0.0000  0.0000  0.0000  0.0000 </r>
        <r>  0.0001  0.0005  0.0050  0.0395  0.0000  0.0000  0.0000  0.0000  0.0000 </r>
       </set>
      </set>
     </set>
    </set>
   </array>
  </projected>
 </calculation>
 <structure name="finalpos" >
  <crystal>
   <varray name="basis" >
    <v>       5.02189789       0.00000000       0.00000000 </v>
    <v>      -2.51094844       4.34909098       0.00000000 </v>
    <v>       0.00000000       0.00000000       5.51192941 </v>
   </varray>
   <i name="volume">    120.38434609 </i>
   <varray name="rec_basis" >
    <v>       0.19912790       0.11496653       0.00000000 </v>
    <v>      -0.00000000       0.22993311       0.00000000 </v>
    <v>       0.00000000       0.00000000       0.18142467 </v>
   </varray>
  </crystal>
  <varray name="positions" >
   <v>       0.00000000       0.47634315       0.66666700 </v>
   <v>       0.52365685       0.52365685       0.00000000 </v>
   <v>       0.47634315       0.00000000       0.33333300 </v>
   <v>       0.15890378       0.74400316       0.46134773 </v>
   <v>       0.25599684       0.41490062       0.79468073 </v>
   <v>       0.58509938       0.84109622       0.12801473 </v>
   <v>       0.74400316       0.15890378       0.53865227 </v>
   <v>       0.41490062       0.25599684       0.20531927 </v>
   <v>       0.84109622       0.58509938       0.87198527 </v>
  </varray>
 </structure>
</modeling>
