ITEM: TIMESTEP
0
ITEM: NUMBER OF ATOMS
21
ITEM: BOX BOUNDS pp pp pp
3.5000000000000000e+01 4.8000000000000000e+01
3.5000000000000000e+01 4.8000000000000000e+01
3.5000000000000000e+01 4.8000000000000000e+01
ITEM: ATOMS id type xs ys zs
1 1 0.326273 0.497587 0.301752
6 4 0.402938 0.421947 0.256202
7 4 0.249552 0.438506 0.470874
9 4 0.358465 0.318887 0.230973
10 3 0.168729 0.418272 0.425168
14 3 0.416957 0.24617 0.213023
15 3 0.265737 0.311781 0.211421
16 2 0.246632 0.485013 0.271848
4 4 0.508428 0.424391 0.421033
5 1 0.509443 0.417821 0.304289
8 4 0.51306 0.322397 0.474066
13 3 0.55398 0.248855 0.429933
20 2 0.551742 0.487496 0.276177
21 2 0.555252 0.350778 0.275974
2 4 0.329203 0.502938 0.418526
3 1 0.434247 0.500477 0.46983
17 2 0.348953 0.575679 0.273088
18 2 0.468702 0.578757 0.458916
11 3 0.257617 0.421187 0.563967
12 3 0.491964 0.317086 0.566575
19 2 0.428521 0.490112 0.555005
