ITEM: TIMESTEP
75
ITEM: NUMBER OF ATOMS
21
ITEM: BOX BOUNDS pp pp pp
3.5000000000000000e+01 4.8000000000000000e+01
3.5000000000000000e+01 4.8000000000000000e+01
3.5000000000000000e+01 4.8000000000000000e+01
ITEM: ATOMS id type xs ys zs
1 1 0.326102 0.4985 0.300816
6 4 0.40812 0.433995 0.256323
7 4 0.245573 0.439152 0.473111
9 4 0.357415 0.316136 0.227043
10 3 0.159673 0.418288 0.427612
14 3 0.416516 0.239309 0.206972
15 3 0.261213 0.306851 0.205438
16 2 0.247024 0.476492 0.278463
4 4 0.508958 0.435841 0.415814
5 1 0.511763 0.416289 0.303739
8 4 0.515839 0.319292 0.476936
13 3 0.559342 0.242922 0.433115
20 2 0.549433 0.486083 0.273193
21 2 0.548608 0.344393 0.278364
2 4 0.336915 0.511992 0.413798
3 1 0.434896 0.500527 0.472227
17 2 0.346784 0.576272 0.271689
18 2 0.465037 0.578581 0.45913
11 3 0.251172 0.421165 0.570608
12 3 0.49655 0.312777 0.57298
19 2 0.421381 0.482824 0.554084
