LAMMPS data file via write_data, version 16 Mar 2018, timestep = 100

384 atoms
4 atom types

0.0000000000000000e+00 1.3624000000000001e+01 xlo xhi
0.0000000000000000e+00 1.7114915380500001e+01 ylo yhi
0.0000000000000000e+00 1.5182639145100000e+01 zlo zhi
-5.7531563092700004e+00 -6.3254659999999996e+00 7.4257287999999999e+00 xy xz yz

Masses

1 12
2 1.008
3 15.999
4 14

Atoms # charge

1 1 -1.0915199744922233e-01 -1.5481388319062472e+00 1.1250146656263414e+01 5.4927730040328049e+00 0 0 0
2 1 2.5706978118546142e-01 -1.0750594105028701e+00 1.0651992922076483e+01 4.2371045924543660e+00 0 0 0
3 1 -9.2076515672428041e-02 -1.0087879580562753e+00 1.1472516296058368e+01 3.0296962259686011e+00 0 0 0
4 1 2.6143578360760661e-01 -1.4675379161877018e+00 1.2862006222398772e+01 3.0365712269322347e+00 0 0 0
5 1 -9.9194125103947595e-02 -2.0111816977794348e+00 1.3436506068999005e+01 4.2806371883505392e+00 0 0 0
6 1 2.5453738674123044e-01 -2.0268013989419069e+00 1.2637233524579170e+01 5.5183006017780256e+00 0 0 0
7 2 4.0171416501791185e-01 -7.3063464158325697e-01 8.7433864360215701e+00 5.3052818497069341e+00 0 0 0
8 2 4.2434251812040646e-01 -2.0635205052830274e-01 8.9427725290176454e+00 3.1642953636244915e+00 0 0 0
9 2 4.1962815998112785e-01 -9.4600451553804277e-01 1.3091436605192161e+01 9.4150081063700830e-01 0 0 0
10 2 4.2248061037882334e-01 -1.8529444045041805e+00 1.4800078097753486e+01 2.0203098519689702e+00 0 0 0
11 2 4.1350732231533155e-01 -2.9504097778302509e+00 1.4340762195412985e+01 6.5845094546106395e+00 0 0 0
12 2 4.2292344101203050e-01 -2.5575677067391598e+00 1.2414777661906880e+01 7.6541684284559546e+00 0 0 0
13 4 3.8970447945567976e-01 -1.4987592569938091e+00 1.0487155791344353e+01 6.7252944166181550e+00 0 0 0
14 4 -4.9038843074348470e-01 -6.9429991216615727e-01 9.3687861650948978e+00 4.2086512325512873e+00 0 0 0
15 4 4.1399965668579475e-01 -5.2015648331509889e-01 1.0879537378673744e+01 1.7840667217327439e+00 0 0 0
16 4 -4.7365637699145702e-01 -1.4149838550570168e+00 1.3605681569533814e+01 1.9314108182197780e+00 0 0 0
17 4 3.8701303961344752e-01 -2.5386789239379706e+00 1.4774101166774216e+01 4.2793322565927676e+00 0 0 0
18 4 -4.5920127741140859e-01 -2.4867643318263815e+00 1.3162474378985394e+01 6.6484334458515653e+00 0 0 0
19 3 -4.3886306518359980e-01 -1.9208787471916895e+00 1.1024446921240719e+01 7.8604699874122046e+00 0 0 0
20 3 -4.8449796010253776e-01 -1.0600153433842043e+00 9.2376126433279211e+00 6.7255488741779637e+00 0 0 0
21 3 -4.2942081794757597e-01 -1.1919776594305465e-01 9.6259923637528484e+00 1.7589378776294318e+00 0 0 0
22 3 -4.6199883801555319e-01 -4.8561498915839207e-01 1.1608039024115760e+01 6.9142192609129560e-01 0 0 0
23 3 -4.4829339107024935e-01 -2.5338828447153139e+00 1.5520377535810084e+01 3.1764230790565779e+00 0 0 0
24 3 -4.8160554730389393e-01 -3.0285589314498482e+00 1.5302893891678465e+01 5.3975062719755966e+00 0 0 0
25 1 -1.0916794205543287e-01 -8.3429713455085430e-02 1.7355410476460229e+01 4.9359074751799188e+00 0 0 0
26 1 2.5708575456052302e-01 -5.5650744527453888e-01 1.7953567281113969e+01 6.1915765467781601e+00 0 -1 0
27 1 -9.2090797775019551e-02 -6.2278318859431137e-01 1.7133045415872779e+01 7.3989757773922911e+00 0 -1 0
28 1 2.6144659958044236e-01 -1.6403096459699951e-01 1.5743552997761146e+01 7.3921067810931058e+00 0 0 0
29 1 -9.9208233852023875e-02 3.7961785168964290e-01 1.5169056649778206e+01 6.1480420145617733e+00 0 0 0
30 1 2.5455156417988056e-01 3.9523389859162439e-01 1.5968318571715731e+01 4.9103784834415629e+00 0 0 0
31 2 4.0171423512448706e-01 4.8522209796729836e+00 2.7472607867588676e+00 5.1234070792709510e+00 0 0 0
32 2 4.2434178025109426e-01 -1.4252256040978719e+00 1.9662785521141540e+01 7.2643910975897494e+00 0 -1 0
33 2 4.1962970459666477e-01 -6.8557849895481437e-01 1.5514135615527742e+01 9.4871822138249886e+00 0 -1 0
34 2 4.2248314540260762e-01 2.2138880399551608e-01 1.3805470265686036e+01 8.4083658444903495e+00 0 0 0
35 2 4.1350875516376778e-01 1.3188501268903281e+00 1.4264788609961004e+01 3.8441771359999692e+00 0 0 0
36 2 4.2292511425081070e-01 9.2600236659045843e-01 1.6190782937088755e+01 2.7745175754406586e+00 0 0 0
37 4 3.8971439703157362e-01 -1.3280213205279923e-01 1.8118405958223640e+01 3.7033882979011992e+00 0 0 0
38 4 -4.9039994499600731e-01 -9.3726646616463771e-01 1.9236769212079881e+01 6.2200278238892981e+00 0 -1 0
39 4 4.1400925490296647e-01 -1.1114126307561767e+00 1.7726022779033919e+01 8.6446094286017701e+00 0 -1 0
40 4 -4.7365255551648278e-01 -2.1658628723731654e-01 1.4999871528232408e+01 8.4972669483132091e+00 0 0 0
41 4 3.8702645691047999e-01 9.0710940204930690e-01 1.3831451936786292e+01 6.1493468005380425e+00 0 0 0
42 4 -4.5921221169776583e-01 8.5520046584230425e-01 1.5443079590724246e+01 3.7802513169654599e+00 0 0 0
43 3 -4.3886974104271709e-01 2.8931877720250743e-01 1.7581113543782159e+01 2.5682110902435360e+00 0 0 0
44 3 -4.8450483632198521e-01 5.1816169714069034e+00 2.2530330777547398e+00 3.7031390292314073e+00 0 0 0
45 3 -4.2942835035746485e-01 -1.5123783088153648e+00 1.8979564153475842e+01 8.6697419485028728e+00 0 -1 0
46 3 -4.6200592568143684e-01 -1.1459606273708305e+00 1.6997510766389180e+01 9.7372549384772782e+00 0 -1 0
47 3 -4.4830170034709799e-01 9.0231124722035538e-01 1.3085171378184850e+01 7.2522541107398322e+00 0 0 0
48 3 -4.8161413067393566e-01 1.3969895861225621e+00 1.3302657330765591e+01 5.0311778107906839e+00 0 0 0
49 1 -1.0915495123010135e-01 5.2638611760588461e+00 1.1250146643690561e+01 5.4927729870422901e+00 0 0 0
50 1 2.5707112830032985e-01 5.7369405947570140e+00 1.0651992923965430e+01 4.2371045618098551e+00 0 0 0
51 1 -9.2079068640876532e-02 5.8032120419135227e+00 1.1472516308135210e+01 3.0296961957372113e+00 0 0 0
52 1 2.6143773713174173e-01 5.3444621030692083e+00 1.2862006189957302e+01 3.0365712034521080e+00 0 0 0
53 1 -9.9196770526036093e-02 4.8008183090810492e+00 1.3436506049698069e+01 4.2806371943726464e+00 0 0 0
54 1 2.5453891584452948e-01 4.7851986077581898e+00 1.2637233513485940e+01 5.5183005910891954e+00 0 0 0
55 2 4.0171325780625505e-01 6.0813652932117552e+00 8.7433863316169003e+00 5.3052818322546358e+00 0 0 0
56 2 4.2434166560568048e-01 6.6056479248279141e+00 8.9427724033639606e+00 3.1642949737173547e+00 0 0 0
57 2 4.1962853902099634e-01 5.8659960648026086e+00 1.3091435698106721e+01 9.4150010474115786e-01 0 0 0
58 2 4.2248113171294516e-01 4.9590560135740542e+00 1.4800077533984050e+01 2.0203094183124461e+00 0 0 0
59 2 4.1350771380507217e-01 3.8615901255098302e+00 1.4340762170524496e+01 6.5845093688898624e+00 0 0 0
60 2 4.2292371526992278e-01 4.2544320654585484e+00 1.2414777603788748e+01 7.6541683097426310e+00 0 0 0
62 4 -4.9039033877138810e-01 6.1177000901301160e+00 9.3687861843682416e+00 4.2086512333140469e+00 0 0 0
63 4 4.1400095562306671e-01 6.2918435221151068e+00 1.0879537531582104e+01 1.7840665023302025e+00 0 0 0
64 4 -4.7365750431111270e-01 5.3970161272496897e+00 1.3605681594982363e+01 1.9314108770723024e+00 0 0 0
65 4 3.8701478678273310e-01 4.2733210722684589e+00 1.4774101102976982e+01 4.2793324016699437e+00 0 0 0
66 4 -4.5920332587444312e-01 4.3252356763349207e+00 1.3162474393653168e+01 6.6484334323458452e+00 0 0 0
69 3 -4.2942178217372173e-01 6.6928022230872148e+00 9.6259923615539726e+00 1.7589379118950115e+00 0 0 0
70 3 -4.6199926052160617e-01 6.3263850177238998e+00 1.1608038863410467e+01 6.9142206343395440e-01 0 0 0
71 3 -4.4829552193821087e-01 4.2781171650462468e+00 1.5520377577747574e+01 3.1764229956922168e+00 0 0 0
72 3 -4.8160729389267704e-01 3.7834410781191590e+00 1.5302893907073768e+01 5.3975062365434194e+00 0 0 0
73 1 -1.0916206645239725e-01 -6.8954302197182553e+00 1.7355412880305025e+01 4.9359078203866575e+00 1 0 0
74 1 2.5707930477475455e-01 -7.3685068945683820e+00 1.7953566475392208e+01 6.1915753101046658e+00 1 -1 0
75 1 -9.2084825380943092e-02 -7.4347831983588062e+00 1.7133044444427416e+01 7.3989769298194901e+00 1 -1 0
76 1 2.6144175887523075e-01 -6.9760312913132125e+00 1.5743552897255768e+01 7.3921080795390228e+00 1 0 0
77 1 -9.9202178408461822e-02 -6.4323805948985555e+00 1.5169054393162064e+01 6.1480409741429467e+00 1 0 0
78 1 2.5454743573343713e-01 -6.4167654904231863e+00 1.5968324747904624e+01 4.9103785894740186e+00 1 0 0
79 2 4.0171436201616495e-01 -1.9597784218511543e+00 2.7472591746972452e+00 5.1234074565837711e+00 1 0 0
80 2 4.2434141351630617e-01 -8.2372265678612688e+00 1.9662787661920909e+01 7.2643929268006673e+00 1 -1 0
81 2 4.1962843224227775e-01 -7.4975777540015622e+00 1.5514134988095234e+01 9.4871804638336652e+00 1 -1 0
82 2 4.2248202056543721e-01 -6.5906115530735221e+00 1.3805471446273323e+01 8.4083664803511020e+00 1 0 0
83 2 4.1350823268626952e-01 -5.4931529786281086e+00 1.4264800149979642e+01 3.8441727578408198e+00 1 0 0
84 2 4.2292509498874803e-01 -5.8859953355677810e+00 1.6190783707552189e+01 2.7745157121592832e+00 1 0 0
85 4 3.8971080188151402e-01 -6.9448018774887519e+00 1.8118405720942334e+01 3.7033872591747152e+00 1 0 0
86 4 -4.9039386656502754e-01 -7.7492671594822742e+00 1.9236771234616761e+01 6.2200279899618822e+00 1 -1 0
87 4 4.1400413370497624e-01 -7.9234126092718355e+00 1.7726022594756742e+01 8.6446095640259379e+00 1 -1 0
88 4 -4.7365084661475682e-01 -7.0285862253238109e+00 1.4999871672973430e+01 8.4972665187900009e+00 1 0 0
89 4 3.8702213646428402e-01 -5.9048896218127531e+00 1.3831451721716135e+01 6.1493423949668502e+00 1 0 0
90 4 -4.5921152455084596e-01 -5.9567986463137617e+00 1.5443087202451162e+01 3.7802514540355228e+00 1 0 0
91 3 -4.3886809477163202e-01 -6.5226817693598891e+00 1.7581114532908536e+01 2.5682115862727781e+00 1 0 0
92 3 -4.8450230995678262e-01 -1.6303832642777611e+00 2.2530337466836396e+00 3.7031388049312342e+00 1 0 0
93 3 -4.2942594897627090e-01 -8.3243784075382319e+00 1.8979564351858876e+01 8.6697421324149619e+00 1 -1 0
94 3 -4.6200384586479143e-01 -7.9579606092843083e+00 1.6997510641274751e+01 9.7372550143808336e+00 1 -1 0
95 3 -4.4829898963452908e-01 -5.9096883279874275e+00 1.3085171936101101e+01 7.2522516614312247e+00 1 0 0
96 3 -4.8161066739385650e-01 -5.4150126852871736e+00 1.3302658957879808e+01 5.0311745296519499e+00 1 0 0
97 1 -1.0916642992284475e-01 1.3284401272324811e+00 2.6926905206943923e+00 5.4927730432258048e+00 0 0 0
98 1 2.5708399675209426e-01 1.8015207440749343e+00 2.0945366270588108e+00 4.2370970351649087e+00 0 0 0
99 1 -9.2091253886955743e-02 1.8677897917696011e+00 2.9150643533931531e+00 3.0297021307518919e+00 0 0 0
100 1 2.6144901330344339e-01 1.4090402428200342e+00 4.3045501705813809e+00 3.0365719681377845e+00 0 0 0
101 1 -9.9209029852345088e-02 8.6539112709295551e-01 4.8790461622243608e+00 4.2806370512526524e+00 0 0 0
102 1 2.5455221747606194e-01 8.4977680770250785e-01 4.0797817733722885e+00 5.5183024193820502e+00 0 0 0
103 2 4.0171638784996871e-01 -3.6072047416248010e+00 1.7300832287133289e+01 5.3052784608529908e+00 0 0 0
104 2 4.2434423158297108e-01 -3.0829301833046330e+00 1.7500238317379591e+01 3.1642824416128152e+00 0 0 0
105 2 4.1963219145145680e-01 1.9305804635782700e+00 4.5339718800668942e+00 9.4150556512039496e-01 0 0 0
106 2 4.2248394540472983e-01 1.0236230744182659e+00 6.2426308737827902e+00 2.0203125172844154e+00 0 0 0
107 2 4.1350918096343242e-01 -7.3841134997817637e-02 5.7833055532870237e+00 6.5844988849142112e+00 0 0 0
108 2 4.2292547504644562e-01 3.1901662733974234e-01 3.8573191726251732e+00 7.6541650998618689e+00 0 0 0
109 4 3.8971881876758624e-01 -4.3753356616362966e+00 1.9044611061087384e+01 6.7252942056208518e+00 0 -1 0
110 4 -4.9039374415635179e-01 -3.5708695224073543e+00 1.7926244571350338e+01 4.2086486950834487e+00 0 0 0
111 4 4.1400870439653170e-01 2.3564188179665062e+00 2.3220855340198638e+00 1.7840700330912125e+00 0 1 0
112 4 -4.7365823946203922e-01 1.4615963299043515e+00 5.0482302919104090e+00 1.9314103693522902e+00 0 0 0
113 4 3.8702578467435728e-01 3.3789927645757967e-01 6.2166488066034686e+00 4.2793344993965627e+00 0 0 0
114 4 -4.5921278592994064e-01 3.8981698644109741e-01 4.6050222008051342e+00 6.6484316021295093e+00 0 0 0
115 3 -4.3886965452818943e-01 -4.7974550195739614e+00 1.9581902362420777e+01 7.8604690357758287e+00 0 -1 0
116 3 -4.8450319080177828e-01 -3.9365922476079560e+00 1.7795069163623257e+01 6.7255411060775385e+00 0 -1 0
117 3 -4.2942738242063561e-01 2.7573817966278744e+00 1.0685351281959639e+00 1.7589390311686584e+00 0 1 0
118 3 -4.6200421018177662e-01 2.3909610271691126e+00 3.0505911955861120e+00 6.9142280110265075e-01 0 1 0
119 3 -4.4830074279239923e-01 3.4269868560819150e-01 6.9629290697042325e+00 3.1764256363375338e+00 0 0 0
120 3 -4.8161203871804553e-01 -1.5198924892092025e-01 6.7454425511984688e+00 5.3975021565043866e+00 0 0 0
121 1 -1.0915461969054285e-01 2.7931406524162505e+00 8.7979579643325110e+00 4.9359060134869974e+00 0 0 0
122 1 2.5707387496415307e-01 2.3200591105721489e+00 9.3961072432306434e+00 6.1915830580695204e+00 0 0 0
123 1 -9.2082050940307497e-02 2.2537913123348532e+00 8.5755841714453354e+00 7.3989806537639851e+00 0 0 0
124 1 2.6143947917509897e-01 2.7125482078295233e+00 7.1861020375630176e+00 7.3921078286147068e+00 0 0 0
125 1 -9.9197708927617312e-02 3.2561990431865060e+00 6.6115996877654037e+00 6.1480432489242682e+00 0 0 0
126 1 2.5454293320951488e-01 3.2718052771630601e+00 7.4108679941618778e+00 4.9103777139210640e+00 0 0 0
127 2 4.0171338409127177e-01 1.9756327846335049e+00 1.1304716519310812e+01 5.1233972445533391e+00 0 0 0
128 2 4.2434145542975021e-01 1.4513558236420159e+00 1.1105326225942395e+01 7.2643871330854450e+00 0 0 0
129 2 4.1963069138830783e-01 2.1910093544325164e+00 6.9566759051338414e+00 9.4871650601623827e+00 0 0 0
130 2 4.2248307965701576e-01 3.0979622601718289e+00 5.2480293207726376e+00 8.4083730603296107e+00 0 0 0
131 2 4.1350753774814553e-01 4.1954207914478374e+00 5.7073450155997723e+00 3.8441709186527602e+00 0 0 0
132 2 4.2292499432664560e-01 3.8025825177766386e+00 7.6333277004267659e+00 2.7745168684223498e+00 0 0 0
133 4 3.8970766023901149e-01 2.7437694811516193e+00 9.5609533830288420e+00 3.7033855130880786e+00 0 0 0
134 4 -4.9039215039121958e-01 1.9393003699694722e+00 1.0679312505697229e+01 6.2200298438468176e+00 0 0 0
135 4 4.1399833620917814e-01 1.7651639706069426e+00 9.1685653918863643e+00 8.6446101620304123e+00 0 0 0
136 4 -4.7365883411553517e-01 2.6599941372010560e+00 6.4424202351116158e+00 8.4972681071975327e+00 0 0 0
137 4 3.8701896124955010e-01 3.7836902627909521e+00 5.2739997846213544e+00 6.1493468896763437e+00 0 0 0
138 4 -4.5920710662123893e-01 3.7317707953517081e+00 6.8856297535129904e+00 3.7802501862548112e+00 0 0 0
139 3 -4.3886332308706749e-01 3.1658981179134944e+00 9.0236636884084565e+00 2.5682124110212388e+00 0 0 0
140 3 -4.8449866536801967e-01 2.3050260454846399e+00 1.0810495357930028e+01 3.7031312967798775e+00 0 0 0
141 3 -4.2942200303391254e-01 1.3641983737601810e+00 1.0422109188240970e+01 8.6697495449614923e+00 0 0 0
142 3 -4.6199996243113933e-01 1.7306159373881567e+00 8.4400552489074823e+00 9.7372545436986861e+00 0 0 0
143 3 -4.4829720291186581e-01 3.7788928054586068e+00 4.5277244896750979e+00 7.2522537555670903e+00 0 0 0
144 3 -4.8160995819985453e-01 4.2735665795131723e+00 4.7452086127774917e+00 5.0311773903325179e+00 0 0 0
145 1 -1.0915342454033009e-01 8.1404408392757670e+00 2.6926901444565567e+00 5.4927705802255868e+00 0 0 0
146 1 2.5707342365028796e-01 8.6135207815160655e+00 2.0945370203026665e+00 4.2370966403954338e+00 0 0 0
147 1 -9.2079201121884974e-02 8.6797918468840152e+00 2.9150618331855820e+00 3.0296968676789455e+00 0 0 0
148 1 2.6143863692153912e-01 8.2210402978649597e+00 4.3045498703490601e+00 3.0365718343314212e+00 0 0 0
149 1 -9.9196701230280238e-02 7.6773921589583116e+00 4.8790446239186975e+00 4.2806352788603963e+00 0 0 0
150 1 2.5453870785356797e-01 7.6617770583518876e+00 4.0797814548619975e+00 5.5183017427595278e+00 0 0 0
151 2 4.0171388160578392e-01 3.2047948021367572e+00 1.7300833994009693e+01 5.3052778116938493e+00 0 0 0
152 2 4.2434185630662841e-01 3.7290710902240489e+00 1.7500229797460648e+01 3.1642952272168459e+00 0 0 0
153 2 4.1962947637227260e-01 8.7425773421020381e+00 4.5339827902359859e+00 9.4150525116845807e-01 0 0 0
154 2 4.2248164943487682e-01 7.8356233384976814e+00 6.2426283533800024e+00 2.0203135611448078e+00 0 0 0
155 2 4.1350663902510509e-01 6.7381590744742761e+00 5.7833053249302520e+00 6.5844982476931158e+00 0 0 0
156 2 4.2292334458355596e-01 7.1310169881097467e+00 3.8573189389622646e+00 7.6541645654271599e+00 0 0 0
158 4 -4.9038965654612610e-01 3.2411294637448824e+00 1.7926247514110500e+01 4.2086492149273287e+00 0 0 0
159 4 4.1400171652238177e-01 9.1684196127369297e+00 2.3220830148461387e+00 1.7840683788866969e+00 0 1 0
160 4 -4.7365343587003617e-01 8.2735961746507307e+00 5.0482285040540944e+00 1.9314131595875321e+00 0 0 0
161 4 3.8701414714310967e-01 7.1498994572107266e+00 6.2166485462538423e+00 4.2793341859400016e+00 0 0 0
162 4 -4.5920472940009260e-01 7.2018173050117014e+00 4.6050218408748833e+00 6.6484308146561713e+00 0 0 0
165 3 -4.2942151420024377e-01 9.5693782072885298e+00 1.0685377328796333e+00 1.7589377384462483e+00 0 1 0
166 3 -4.6199760588886618e-01 9.2029609945512068e+00 3.0505843814155527e+00 6.9142212822895144e-01 0 1 0
167 3 -4.4829604050003408e-01 7.1546988630268622e+00 6.9629284120247537e+00 3.1764260558991837e+00 0 0 0
168 3 -4.8160791294193728e-01 6.6600109736730140e+00 6.7454422180950395e+00 5.3975018212722121e+00 0 0 0
169 1 -1.0915896094432982e-01 -4.0188593440459579e+00 8.7979579423538325e+00 4.9359060277211304e+00 1 0 0
170 1 2.5707833852770939e-01 -4.4919409012185874e+00 9.3961072779495964e+00 6.1915830594786838e+00 1 0 0
171 1 -9.2086620963415355e-02 -4.5582086820986634e+00 8.5755841792277341e+00 7.3989806318116935e+00 1 0 0
172 1 2.6144397469311459e-01 -4.0994517991193753e+00 7.1861020588312776e+00 7.3921078281677017e+00 1 0 0
173 1 -9.9201865018983232e-02 -3.5558009603856968e+00 6.6115997013787586e+00 6.1480432386838109e+00 1 0 0
174 1 2.5454772149940080e-01 -3.5401947026984351e+00 7.4108679866588911e+00 4.9103776546851936e+00 1 0 0
175 2 4.0171425942738215e-01 -4.8363673215133929e+00 1.1304716345598255e+01 5.1233973869104616e+00 1 0 0
176 2 4.2434196558182924e-01 -5.3606440153237607e+00 1.1105325635765318e+01 7.2643868489460743e+00 1 0 0
177 2 4.1963172954111017e-01 -4.6209907148088973e+00 6.9566759001125327e+00 9.4871651159569144e+00 1 0 0
178 2 4.2248421900832422e-01 -3.7140378033683126e+00 5.2480293428675395e+00 8.4083731012529448e+00 1 0 0
179 2 4.1350852017599060e-01 -2.6165793299543996e+00 5.7073450059292110e+00 3.8441710949325341e+00 1 0 0
180 2 4.2292570776256749e-01 -3.0094175525056639e+00 7.6333277266653372e+00 2.7745173829547860e+00 1 0 0
181 4 3.8971078830018263e-01 -4.0682304814427663e+00 9.5609532815538980e+00 3.7033855219854490e+00 1 0 0
182 4 -4.9039483543090751e-01 -4.8726996121920632e+00 1.0679312517181209e+01 6.2200297321193245e+00 1 0 0
183 4 4.1400183156244835e-01 -5.0468360305234974e+00 9.1685653881787168e+00 8.6446101533843738e+00 1 0 0
184 4 -4.7366144658332882e-01 -4.1520058612511885e+00 6.4424202488459610e+00 8.4972680960386544e+00 1 0 0
185 4 3.8702372678809188e-01 -3.0283097628434859e+00 5.2739998556182268e+00 6.1493468881922935e+00 1 0 0
186 4 -4.5921005828485906e-01 -3.0802291664727015e+00 6.8856296345892867e+00 3.7802502296239386e+00 1 0 0
187 3 -4.3886488724232264e-01 -3.6461018927348725e+00 9.0236636938390937e+00 2.5682124470107821e+00 1 0 0
188 3 -4.8449959088986899e-01 -4.5069739950748939e+00 1.0810495453836952e+01 3.7031313798362113e+00 1 0 0
189 3 -4.2942395246347626e-01 -5.4478016171288139e+00 1.0422109179988333e+01 8.6697495434226877e+00 1 0 0
190 3 -4.6200147252341595e-01 -5.0813840539278274e+00 8.4400552454391757e+00 9.7372545301413087e+00 1 0 0
191 3 -4.4829843337319802e-01 -3.0331071976154949e+00 4.5277244836856223e+00 7.2522537866439798e+00 1 0 0
192 3 -4.8161060413532625e-01 -2.5384334045208226e+00 4.7452086603334243e+00 5.0311772384850029e+00 1 0 0
193 1 -1.0915124932315942e-01 -1.8342888181206036e+00 6.4055566200830292e+00 1.3084092999175374e+01 0 0 0
194 1 2.5706869920873326e-01 -1.3612093857317937e+00 5.8074028441845549e+00 1.1828424568232661e+01 0 0 0
195 1 -9.2075430033129485e-02 -1.2949379514759531e+00 6.6279262648554598e+00 1.0621016217020719e+01 0 0 0
196 1 2.6143521549970700e-01 -1.7536878953864496e+00 8.0174161390007903e+00 1.0627891236185356e+01 0 0 0
197 1 -9.9193167799855597e-02 -2.2973317137408795e+00 8.5919160829225820e+00 1.1871957209931626e+01 0 0 0
198 1 2.5453563432228921e-01 -2.3129514009330405e+00 7.7926435015287110e+00 1.3109620634824996e+01 0 0 0
199 2 4.0171277127947974e-01 -6.7699409998987594e+00 2.1013712097166682e+01 1.2896601821734324e+01 0 -1 0
200 2 4.2434100607336001e-01 -6.2456585783070615e+00 2.1213098270741551e+01 1.0755615423084127e+01 0 -1 0
201 2 4.1962853830368485e-01 -1.2321539665741139e+00 8.2468456541866750e+00 8.5328205985481880e+00 0 0 0
202 2 4.2248105554049148e-01 -2.1390937410178568e+00 9.9554875169576285e+00 9.6116297756898046e+00 0 0 0
203 2 4.1350752164184618e-01 -3.2365605889325395e+00 9.4961732472619200e+00 1.4175830423808785e+01 0 0 0
204 2 4.2292383329525873e-01 3.4817476458991297e+00 1.4445904542587368e-01 6.2850589534300214e-02 0 0 1
205 4 3.8970283293930502e-01 -7.5380656296180888e+00 2.2757481278941320e+01 1.4316614506432794e+01 0 -1 0
206 4 -4.9038821524339710e-01 -6.7336062341177207e+00 2.1639111569452883e+01 1.1799971375999107e+01 0 -1 0
207 4 4.1399851644781344e-01 -8.0630648949901262e-01 6.0349474971065584e+00 9.3753865141012511e+00 0 0 0
208 4 -4.7365446991606525e-01 -1.7011338822584317e+00 8.7610914969367855e+00 9.5227308778015214e+00 0 0 0
209 4 3.8701255841892812e-01 -2.8248289643207980e+00 9.9295111310032951e+00 1.1870652513209562e+01 0 0 0
210 4 -4.5920051317521715e-01 -2.7729143256975437e+00 8.3178844673597325e+00 1.4239753404832893e+01 0 0 0
211 3 -4.3886288933368528e-01 -1.6347190035552384e+00 1.5869043384397266e+01 2.6915080548862025e-01 0 -1 1
212 3 -4.8449837286186487e-01 -7.0993215979773563e+00 2.1507937894033077e+01 1.4316868817995628e+01 0 -1 0
213 3 -4.2942037171996927e-01 -4.0534777884078776e-01 4.7814023918504454e+00 9.3502579191265447e+00 0 0 0
214 3 -4.6199717292213688e-01 -7.7176498081692735e-01 6.7634488068920842e+00 8.2827420639721883e+00 0 0 0
215 3 -4.4829478376625975e-01 -2.8200329011871759e+00 1.0675787617629695e+01 1.0767743041005307e+01 0 0 0
216 3 -4.8160635631491405e-01 -3.3147088869899957e+00 1.0458303795360893e+01 1.2988826263259153e+01 0 0 0
217 1 -1.0916470453828339e-01 -3.6957982665476141e-01 1.2510821052451812e+01 1.2527228325196011e+01 0 0 0
218 1 2.5708421234908208e-01 -8.4265720797855170e-01 1.3108975875040324e+01 1.3782902831647968e+01 0 -1 0
219 1 -9.2090549085826659e-02 -9.0893451029800154e-01 1.2288450482979512e+01 1.4990298976967203e+01 0 -1 0
220 1 2.6144593282139900e-01 -4.5018107720224432e-01 1.0898961568855448e+01 1.4983427252094200e+01 0 0 0
221 1 -9.9207266305902292e-02 9.3467346017839681e-02 1.0324467519084370e+01 1.3739363141401567e+01 0 0 0
222 1 2.5455076286611567e-01 1.0908452597205187e-01 1.1123727013711576e+01 1.2501698086736743e+01 0 0 0
223 2 4.0171491665986414e-01 -1.1870849711901155e+00 1.5017588198400841e+01 1.2714726262514882e+01 0 -1 0
224 2 4.2434273763720787e-01 -1.7113737660204151e+00 1.4818193823911589e+01 1.4855708015773054e+01 0 -1 0
225 2 4.1962915516236088e-01 5.3537391657816666e+00 3.2438148068508941e+00 1.8958570930990262e+00 0 -1 1
226 2 4.2248272496206407e-01 6.2607044467216326e+00 1.5351529138132594e+00 8.1704880647680167e-01 0 0 1
227 2 4.1350856110038126e-01 1.0327022331463294e+00 9.4202000549924598e+00 1.1435496271745709e+01 0 0 0
228 2 4.2292519690665498e-01 6.3985463192286485e-01 1.1346193240152131e+01 1.0365835030627375e+01 0 0 0
229 4 3.8971482149910547e-01 -4.1895210493701907e-01 1.3273815975836449e+01 1.1294707973043964e+01 0 0 0
230 4 -4.9039796769519972e-01 -1.2234168557301688e+00 1.4392179883380212e+01 1.3811349326939483e+01 0 -1 0
231 4 4.1400748471195653e-01 4.9279036276616903e+00 5.4557024694441907e+00 1.0532896257692692e+00 0 -1 1
232 4 -4.7365666443879456e-01 5.8227297289482065e+00 2.7295525679622736e+00 9.0594811535041897e-01 0 0 1
233 4 3.8702487749891451e-01 6.2095967769722016e-01 8.9868610506671249e+00 1.3740667075338372e+01 0 0 0
234 4 -4.5921015581737334e-01 5.6905017650614464e-01 1.0598490315169723e+01 1.1371571119461162e+01 0 0 0
235 3 -4.3886877040105859e-01 3.1686482460111520e-03 1.2736523612876871e+01 1.0159531460556508e+01 0 0 0
236 3 -4.8450353347597397e-01 -8.5768943793470376e-01 1.4523358694028257e+01 1.1294458992852938e+01 0 -1 0
237 3 -4.2942641231341655e-01 4.5269380385758895e+00 6.7092446133858088e+00 1.0784226514013604e+00 0 -1 1
238 3 -4.6200557474086490e-01 4.8933554515913125e+00 4.7271924463175248e+00 2.1459350320988562e+00 0 -1 1
239 3 -4.4830085031661132e-01 6.1616125290567147e-01 8.2405811943862091e+00 1.4843574181870652e+01 0 0 0
240 3 -4.8161292644473264e-01 1.1108398745404120e+00 8.4580671831293106e+00 1.2622497185549978e+01 0 0 0
241 1 -1.0915474179055297e-01 4.9777111752329217e+00 6.4055566349384954e+00 1.3084093003352153e+01 0 0 0
242 1 2.5707265657243494e-01 5.4507905903493423e+00 5.8074029287043212e+00 1.1828424594377921e+01 0 0 0
243 1 -9.2078817839534366e-02 5.5170620496076213e+00 6.6279262774819561e+00 1.0621016198916401e+01 0 0 0
244 1 2.6143859680821097e-01 5.0583120961421590e+00 8.0174161635047732e+00 1.0627891244802477e+01 0 0 0
245 1 -9.9196831081855646e-02 4.5146682886493235e+00 8.5919160681092173e+00 1.1871957213793715e+01 0 0 0
246 1 2.5453945824229146e-01 4.4990486055532202e+00 7.7926435014847968e+00 1.3109620622653182e+01 0 0 0
247 2 4.0171439342427429e-01 4.2059113311339047e-02 2.1013711720910223e+01 1.2896601963325498e+01 0 -1 0
248 2 4.2434270183788159e-01 5.6634174051310016e-01 2.1213097960094043e+01 1.0755615176668714e+01 0 -1 0
249 2 4.1962887198132454e-01 5.5798459945832324e+00 8.2468456410041995e+00 8.5328206496512280e+00 0 0 0
250 2 4.2248162261393662e-01 4.6729062343309975e+00 9.9554875177792503e+00 9.6116297427766302e+00 0 0 0
251 2 4.1350796187490646e-01 3.5754399783412056e+00 9.4961718588290616e+00 1.4175829258374293e+01 0 0 0
252 2 4.2292403238492537e-01 1.0293748190366619e+01 1.4445861672884433e-01 6.2849400679299700e-02 0 0 1
254 4 -4.9038945532790407e-01 7.8393766692908429e-02 2.1639111597946744e+01 1.1799971221775227e+01 0 -1 0
255 4 4.1400172064049612e-01 6.0056935149276764e+00 6.0349475099027075e+00 9.3753865018217244e+00 0 0 0
256 4 -4.7365730878225681e-01 5.1108661195114893e+00 8.7610914955399615e+00 9.5227308754450490e+00 0 0 0
257 4 3.8701499933910488e-01 3.9871710770388935e+00 9.9295110992084439e+00 1.1870652405095514e+01 0 0 0
258 4 -4.5920342063028341e-01 4.0390857082246860e+00 8.3178843749488873e+00 1.4239753413127611e+01 0 0 0
261 3 -4.2942181424831577e-01 6.4066522216914965e+00 4.7814023792375284e+00 9.3502579062509579e+00 0 0 0
262 3 -4.6199949224463660e-01 6.0402350182524955e+00 6.7634488045747361e+00 8.2827420631586381e+00 0 0 0
263 3 -4.4829557504628031e-01 3.9919670992135714e+00 1.0675787628934861e+01 1.0767743075949172e+01 0 0 0
264 3 -4.8160733356077473e-01 3.4972910881022523e+00 1.0458303901542839e+01 1.2988826253511377e+01 0 0 0
265 1 -1.0916817587544991e-01 -7.1815800651509019e+00 1.2510821267000058e+01 1.2527229091701377e+01 1 0 0
266 1 2.5708719891927678e-01 -7.6546572032412801e+00 1.3108975916881892e+01 1.3782902796234598e+01 1 -1 0
267 1 -9.2093573668964618e-02 -7.7209349576801145e+00 1.2288451149744958e+01 1.4990300088289441e+01 1 -1 0
268 1 2.6145103187550434e-01 -7.2621810619258174e+00 1.0898961725292843e+01 1.4983427150718173e+01 1 0 0
269 1 -9.9209597200349706e-02 -6.7185328603652019e+00 1.0324467898556165e+01 1.3739363587078724e+01 1 0 0
270 1 2.5455355505896016e-01 -6.7029155033795007e+00 1.1123727095379751e+01 1.2501698106368913e+01 1 0 0
271 2 4.0171498264472333e-01 -7.9990845321330788e+00 1.5017588226146430e+01 1.2714725876928815e+01 1 -1 0
272 2 4.2434282341692775e-01 -8.5233718125656779e+00 1.4818192290049256e+01 1.4855706780852998e+01 1 -1 0
273 2 4.1963146762486897e-01 -1.4582583202754136e+00 3.2437976376989690e+00 1.8958561169219459e+00 1 -1 1
274 2 4.2248373769128261e-01 -5.5129491043914358e-01 1.5351511687749535e+00 8.1704837061235513e-01 1 0 1
275 2 4.1350943329588363e-01 -5.7792978395387884e+00 9.4201999533827561e+00 1.1435496350487435e+01 1 0 0
276 2 4.2292556873745479e-01 -6.1721455441982496e+00 1.1346193207561335e+01 1.0365834917063561e+01 1 0 0
277 4 3.8971674363634629e-01 -7.2309520997597740e+00 1.3273815946405632e+01 1.1294708015410377e+01 1 0 0
278 4 -4.9040138160050839e-01 -8.0354167910906309e+00 1.4392179303492266e+01 1.3811349459911318e+01 1 -1 0
279 4 4.1401188707002223e-01 -1.8840962967689343e+00 5.4556999450083570e+00 1.0532916870994717e+00 1 -1 1
280 4 -4.7366075005895042e-01 -9.8927005774006516e-01 2.7295521555811679e+00 9.0594744783236136e-01 1 0 1
281 4 3.8702801133445308e-01 -6.1910403473958748e+00 8.9868611645624590e+00 1.3740666995601931e+01 1 0 0
282 4 -4.5921182965844659e-01 -6.2429498579102489e+00 1.0598490378309465e+01 1.1371571238014075e+01 1 0 0
283 3 -4.3887041439908692e-01 -6.8088313677128944e+00 1.2736523637805732e+01 1.0159531532836914e+01 1 0 0
284 3 -4.8450536821207790e-01 -7.6696894556376938e+00 1.4523358664194733e+01 1.1294459034437908e+01 1 -1 0
285 3 -4.2942846885030861e-01 -2.2850613087919704e+00 6.7092419129043011e+00 1.0784235282106944e+00 1 -1 1
286 3 -4.6200533708333724e-01 -1.9186452039146809e+00 4.7271878897838615e+00 2.1459311706854440e+00 1 -1 1
287 3 -4.4830155626554752e-01 -6.1958386785125183e+00 8.2405810480392461e+00 1.4843574191086638e+01 1 0 0
288 3 -4.8161340033163397e-01 -5.7011601229651490e+00 8.4580671992841587e+00 1.2622497166233217e+01 1 0 0
289 1 -1.0914332392185566e-01 -4.7108656456288891e+00 1.4963015811583229e+01 1.3084090390478083e+01 0 -1 0
290 1 2.5706364098108714e-01 -4.2377856089229198e+00 1.4364862683944313e+01 1.1828416649927171e+01 0 -1 0
291 1 -9.2070530629774924e-02 -4.1715148504115831e+00 1.5185388191433988e+01 1.0621017039564236e+01 0 -1 0