Pb    ONCVPSP  r_core=  2.32  2.37  2.10
82.0000     14.0000      160401    zatom,zion,pspd
8      11   2     4   600     0    pspcod,pspxc,lmax,lloc,mmax,r2well
5.99000000  6.00000000  0.00000000    rchrg fchrg qchrg
2     4     4     0    nproj
2                 extension_switch
4     4     0    nprojso
0                         6.3820794390405D-01  5.0949258839252D+00
1  0.0000000000000D+00 -7.2561123776183D-12  7.2271355566755D-13
2  1.0000000000000D-02  6.0534574865531D-03  1.4591048153472D-02
3  2.0000000000000D-02  1.2059552984787D-02  2.9190162589529D-02
