
Create H   file=/home/scicons/adf2014.04/atomicdata/TZP/H
End Input

 *******************************************************************************
 *                                                                             *
 *  -------------------------------------                                      *
 *   Amsterdam Density Functional  (ADF)         2014                          *
 *  -------------------------------------                                      *
 *                                               r44409 2014-10-25             *
 *                                                                             *
 *                                                                             *
 *                              =================                              *
 *                              |               |                              *
 *                              |     A D F     |                              *
 *                              |               |                              *
 *                              =================                              *
 *                                                                             *
 *                                                                             *
 *   Online information and documentation:  http://www.scm.com                 *
 *   E-mail:  support@scm.com   info@scm.com                                   *
 *                                                                             *
 *   Scientific publications using ADF results must be properly referenced     *
 *   See the User Manuals (or the web site) for recommended citations          *
 *   The terms and conditions of the End User License Agreement apply to       *
 *   the use of ADF, http://www.scm.com/Sales/LicAgreement.html                *
 *                                                                             *
 **********************  x86_64_linux_intel / intelmpi  ************************

 Licensed to: Dr. Yi-lei Wang / Dep. Chemistry, Tsinghua Univ. / Beijing / CHINA
 SCM User ID: u16688

 ADF 2014  RunTime: Dec01-2015 12:45:14  Nodes: 1  Procs: 1

 Temporary files are created in /tmp/kid_0.j2urNJ

 Hydrogen (TZP)



 ===========================
 A T T A C H E D   F I L E S
 ===========================

 CREATE - Data File:    /home/scicons/adf2014.04/atomicdata/TZP/H
                        Hydrogen (TZP)



 ===============================
 M O D E L   P A R A M E T E R S
 ===============================

 DENSITY FUNCTIONAL POTENTIAL (scf)
    LDA:                               VWN
    Gradient Corrections:              ---

 SPIN  (restricted / unrestr.)
    Molecule:                          Restricted

 OTHER ASPECTS
    Relativistic Corrections:          ---

    Nuclear Charge Density Model:      Point Charge Nuclei
    Core Treatment:                    Frozen Orbital(s)

    Hyperfine or Zeeman Interaction:   ---



 =====================================
 S Y M M E T R Y ,   E L E C T R O N S
 =====================================

 Symmetry: ATOM

 Irreducible Representations, including subspecies
 -------------------------------------------------
 S
 P:x  P:y  P:z
 D:z2  D:x2-y2  D:xy  D:xz  D:yz
 F:z3  F:z  F:xyz  F:z2x  F:z2y  F:x  F:y


 Configuration of Valence Electrons
 ==================================

          Occupation Numbers
          -------------------------------------------------
 S        1
 P        0
 D        0
 F        0
          -------------------------------------------------

 Total:   1

 Net Charge: 0 (Nuclei minus Electrons)

 Preset values for MO occupations will be applied through SCF cycle no. 1000000
 Thereafter, the program will assign electrons to MOs that are spatially
 similar to the occupied MOs in a "reference" cycle ("KeepOrbitals").
 The reference cycle is always the PREVIOUS cycle: it will evolve with
 the SCF procedure.



 ================================
 (Slater-type)  F U N C T I O N S  ***  (Basis and Fit)  ***
 ================================


 Atom Type    1  (H)
 ==============

 Valence Basis Sets:   4
 -----------------------
   1 S    0.690000
   1 S    0.920000
   1 S    1.580000
   2 P    1.250000


 BAS: List of all Elementary Cartesian Basis Functions
 =====================================================

 The numbering in the list below (to the right of the function characteristics) is referred
 to in print-outs of MO eigenvectors and Mulliken populations in the BAS representation
 (as contrasted to the SFO representation).

 Notes:
 1. The functions are characterized by a polynomial prefactor (powers of x,y,z and r) and
    an exponential decay factor alpha.
 2. Since the basis sets are specific for an atom TYPE, the individual functions occur on
    all atoms of that type.
 3. The word 'Core' in the left margin signals that it is a Core Function (CF) : not a
    degree of freedom in the valence set, but only used to ensure orthogonalization of
    the other valence basis functions on the frozen Core Orbitals.


 (power of) X  Y  Z  R     Alpha  on Atom
            ==========     =====     ==========

 H                                    1
                                  ---------------------------------------------------------------------------
            0  0  0  0     0.690      1
            0  0  0  0     0.920      2
            0  0  0  0     1.580      3
            1  0  0  0     1.250      4
            0  1  0  0     1.250      5
            0  0  1  0     1.250      6

 Total number of charge fitting functions (nprimf)        50
 Total number of Cartesian basis functions (naos)          6
 Total number of Cartesian core functions  (ncos)          0



 BAS: List of all Elementary Cartesian Basis Functions
 =====================================================

 The numbering in the list below (to the right of the function characteristics) is referred
 to in print-outs of MO eigenvectors and Mulliken populations in the BAS representation
 (as contrasted to the SFO representation).

 Notes:
 1. The functions are characterized by a polynomial prefactor (powers of x,y,z and r) and
    an exponential decay factor alpha.
 2. Since the basis sets are specific for an atom TYPE, the individual functions occur on
    all atoms of that type.
 3. The word 'Core' in the left margin signals that it is a Core Function (CF) : not a
    degree of freedom in the valence set, but only used to ensure orthogonalization of
    the other valence basis functions on the frozen Core Orbitals.


 (power of) X  Y  Z  R     Alpha  on Atom
            ==========     =====     ==========

 H                                    1
                                  ---------------------------------------------------------------------------
            0  0  0  0     0.690      1
            0  0  0  0     0.920      2
            0  0  0  0     1.580      3
            1  0  0  0     1.250      4
            0  1  0  0     1.250      5
            0  0  1  0     1.250      6
1
 ***************************************************************************************************



                                              ***********************
                                              *  T E C H N I C A L  *
                                              ***********************




 =============================================================
 P A R A L L E L I Z A T I O N  and  V E C T O R I Z A T I O N
 =============================================================

 Nr of parallel processes:                                1
 Maximum vector length in NumInt loops:                 128



 ===============
 I O  vs.  C P U  ***  (store numerical data on disk or recalculate)  ***
 ===============

 Basis functions:   recalculate when needed
 Fit functions:     recalculate when needed

 IO buffersize (Mb):                                     64.000000



 =====================
 S C F   U P D A T E S
 =====================

 Max. nr. of cycles:                               300
 Convergence criterion:                              0.0000000100
   secondary criterion:                              0.0000000100

 Mix parameter (when DIIS does not apply):           0.2000000000
 Special mix parameter for the first cycle:          1.0000000000


 DIIS (Direct Inversion in Iteration Space)
    Replace damping when SCF Error is below:         0.5000000000
    Apply anyway after SCF cycle:
                                                     5
    (Max.) nr. of expansion vectors:                10

    Upperbound on expansion coefficients:            5.0000000000
    (when exceeded, IterationSpace is re-built)
    2nd Upperbound on coefficients:                 25.0000000000
    (when exceeded, simple damping will be used)
 Automatic ElectronSmearing (in case of problematic SCF convergence) disabled



 =================
 P R E C I S I O N  ***  (General: NumInt, NeglectFunctionTails, ...)  ***
 =================


 NumInt:           Target precision:                10.0000000000
 -------           Initial precision:               10.0000000000
                   Min. precision (optimization):   10.0000000000

 Neglect Functions:          Basis functions:        0.1000000000E-11
 ------------------          Fit functions:          0.1000000000E-11



 ===========================
 L I N E A R   S C A L I N G
 ===========================


 Cut-off radii density fit:                        0.1000000000E-13
 Overlap cut-off criterion AO matrix elements:     0.1000000000E-11
 Cut-offs for Coulomb potential and fitted density:0.1000000000E-13
 Cut-off criterion for Coulomb multipole terms:    0.1000000000E-13
 Progressive Convergence parameter:                 0.000000000
1
 ***************************************************************************************************



                                            ***************************
                                            *  C O M P U T A T I O N  *
                                            ***************************


 Number of elements of the density matrix on this node (used, total):        21        21



 ===========================================
 Numerical Integration : Fuzzy Cells (Becke)
 ===========================================

 Becke grid quality: VERYGOOD

 Lebedev angular grid order:             min:  13 max:  41
 Nr. of radial points:                   min:  64 max:  64

 Total nr. of points:         64
 Nr. of blocks:                1
 Block length:                64
 Nr. of dummy points:          0


 Test of Precision of the Numerical Integration Grid
 ===================================================

 Integral of the Total Core Density:                   0.00000000000000



 ========================
 Density Fitting (zlmFit)
 ========================

 ZlmFit Fit Quality: VERYGOOD

 Max L-expansion:                        min:   0 max:   0
 Nr. of radial interpolation points:     min: 120 max: 120



 =====
 S C F
 =====


 CYCLE    1
 orbitals (Q,E):
 ---------------
 S :1...3            ( 1.00    -0.5000)  ( 0.00    -0.0900)  ( 0.00     1.2939)
 P :1...1            ( 0.00     0.1562)

 CYCLE    2
 d-Pmat  mean:  0.17E+00
 imax=      2: -0.95E+00
 orbitals (Q,E):
 ---------------
 S :1...2            ( 1.00    -0.2117)  ( 0.00     0.1099)
 P :1...1            ( 0.00     0.4210)

 CYCLE    3
 d-Pmat  mean:  0.20E-01
 imax=      2:  0.81E-01
 orbitals (Q,E):
 ---------------
 S :1...2            ( 1.00    -0.2329)  ( 0.00     0.0953)
 P :1...1            ( 0.00     0.4035)

 CYCLE    4
 d-Pmat  mean:  0.31E-03
 imax=      2: -0.14E-02
 orbitals (Q,E):
 ---------------
 S :1...2            ( 1.00    -0.2335)  ( 0.00     0.0945)
 P :1...1            ( 0.00     0.4030)

 CYCLE    5
 d-Pmat  mean:  0.46E-04
 imax=      2:  0.20E-03
 orbitals (Q,E):
 ---------------
 S :1...2            ( 1.00    -0.2335)  ( 0.00     0.0945)
 P :1...1            ( 0.00     0.4030)

 CYCLE    6
 d-Pmat  mean:  0.83E-07
 imax=      2:  0.37E-06
 orbitals (Q,E):
 ---------------
 S :1...2            ( 1.00    -0.2335)  ( 0.00     0.0945)
 P :1...1            ( 0.00     0.4030)

 CYCLE    7
 d-Pmat  mean:  0.94E-12
 imax=      2:  0.38E-11
 orbitals (Q,E):
 ---------------
 S :1...2            ( 1.00    -0.2335)  ( 0.00     0.0945)
 P :1...1            ( 0.00     0.4030)

 SCF CONVERGED

 CYCLE    8
1
 ***************************************************************************************************



                                                *******************
                                                *  R E S U L T S  *
                                                *******************

 *** Setting up for NEW gradients in focky
 *** Using FIT density in focky

 Orbital Energies, per Irrep and Spin:
 ======================================
                        Occup              E (au)              E (eV)       Diff (eV) with prev. cycle
                        -----      --------------------        ------       --------------------------
 S
               1        1.000     -0.23346375506902E+00        -6.353               7.34E-12
               2        0.000      0.94533034612298E-01         2.572
               3        0.000      0.15475827225322E+01        42.112
 P
               1        0.000      0.40302624558127E+00        10.967


 Partially Occupied:
               1 S                -0.23346375506902E+00

 LUMO :        2 S                 0.94533034612298E-01



 Orbital Energies, all Irreps
 ========================================

 Irrep        no.  (spin)   Occup              E (au)                E (eV)
 ---------------------------------------------------------------------------
 S             1             1.00       -0.23346375506902E+00        -6.3529
 S             2             0.00        0.94533034612298E-01         2.5724
 P             1             0.00        0.40302624558127E+00        10.9669
 S             3             0.00        0.15475827225322E+01        42.1119


 All Electron Calculation, thus no Orbital Energies of the Core Orbitals are calculated



 =======================================
 M U L L I K E N   P O P U L A T I O N S
 =======================================

 The survey below gives for each atom:
 a) the total charge (Z minus electrons)
 b) the net spin polarization (nr of electrons spin-A minus spin-B)
 c) for each spin the atomic electron valence density (integrated) per L-value.

 Atom              Charge    Spin density          S         P         D         F
 ----              ------    ------------       ------    ------    ------    ------
 1 H               0.0000                       1.0000    0.0000    0.0000    0.0000

 Populations of individual BAS functions
 ----------------------------------------
 1 H            0.2548  0.6549  0.0903  0.0000  0.0000  0.0000

 Gross Charges per Atom (Z minus electrons)
 ==========================================
             0.0000
 Net Total:  0.00000000



 ========================================================================
 Electrostatic potential at the Nuclei due to  electrons and other nuclei
 ========================================================================

         Atom                  Potential
         ----                  ---------
     1)   H                   0.92099829


 ========================
 No memory problems found
 ========================

 Maximum number of active allocate calls:         313

 *******************************************************************************

                             A D F   E X I T
 NORMAL TERMINATION



 =================
 Timing Statistics
 =================

 Total Used :                     CPU=        0.31      System=        0.03     Elapsed=        0.38

 Calls  Section                     ( Mean, Percentage )
 ---------------------------------------------------------------------------------------------------
     3  ><      ................      0.00    0.32             0.00    0.00             0.00    0.21
     1  INIT    ................      0.01    2.90             0.01   33.33             0.04   11.82
     1  GEOMET  ................      0.02    5.48             0.00   13.34             0.03    8.59
     1  INPUTA  ................      0.00    0.32             0.00    3.33             0.00    0.52
     1  MAINSY  ................      0.00    0.97             0.00    0.00             0.00    0.91
     1  SYMFIT  ................      0.00    0.00             0.00    3.33             0.00    0.15
     1  CORORT  ................      0.00    0.00             0.00    0.00             0.00    0.06
     1  SYMORB  ................      0.00    0.32             0.00    0.00             0.00    0.13
     1  CLSMAT  ................      0.00    0.65             0.00    0.00             0.00    0.67
     1  ORTHON  ................      0.00    0.00             0.00    3.33             0.00    0.26
     1  GENPT   ................      0.02    5.81             0.01   23.33             0.03    6.79
     1  PTBAS   ................      0.00    0.65             0.00    0.00             0.00    0.47
     8  FOCKY   ................      0.03   67.74             0.00    6.67             0.03   55.48
     8  FOCKTR  ................      0.00    0.00             0.00    0.00             0.00    0.48
     8  FOCKNM  ................      0.00    0.00             0.00    0.00             0.00    0.07
     8  SDIIS   ................      0.00    0.97             0.00    0.00             0.00    0.64
     8  EMERGE  ................      0.00    2.58             0.00    6.67             0.00    2.96
     1  COREPS  ................      0.01    3.55             0.00    6.66             0.01    3.44
     1  POPAN   ................      0.00    0.64             0.00    0.00             0.00    0.45
     1  DEBYE   ................      0.00    0.00             0.00    0.00             0.00    0.09
     1  EXIT PROCEDURE .........      0.02    7.10             0.00    0.00             0.02    5.80


 Currently Open Files (EXIT00)
 ====================

 Unit    Access Format  Status   Type       Ident (file)
 -------------------------------------------------------
   3      SEQ    FORM   TRANSP  NORMAL      LOGFILE
                                          ( logfile )


 Buffered I/O statistics
 =======================
 Memory available:                     67108864
 Number of records fitting in memory:     16131
 Input :   2.1% of                         1844  *4k bytes
 Output:  10.9% of                         1292  *4k bytes
 Records from serial files evicted:           0
                    others evicted:           0
 Hash table lookups:       8534 with          0 conflicts (  0.00%)

 ***************************************************************************************************
 (LOGFILE)
 <Dec01-2015> <12:45:14>  ADF 2014  RunTime: Dec01-2015 12:45:14  Nodes: 1  Procs: 1
 <Dec01-2015> <12:45:14>  Hydrogen (TZP)
 <Dec01-2015> <12:45:14>  RunType   : CREATE
 <Dec01-2015> <12:45:14>  Net Charge: 0 (Nuclei minus Electrons)
 <Dec01-2015> <12:45:14>  Symmetry  : ATOM
  Coordinates
    Atom         X           Y           Z   (Angstrom)
    1.H         0.000000    0.000000    0.000000
 <Dec01-2015> <12:45:14>  >>>> CORORT
 <Dec01-2015> <12:45:14>  >>>> CLSMAT
 <Dec01-2015> <12:45:14>  >>>> ORTHON
 <Dec01-2015> <12:45:14>  >>>> GENPT
 <Dec01-2015> <12:45:14>  Block Length=  64
 <Dec01-2015> <12:45:14>  >>>> PTBAS
 <Dec01-2015> <12:45:14>  >>>> CYCLE
 <Dec01-2015> <12:45:14>    1
 <Dec01-2015> <12:45:14>    2  ErrMat   0.04599043  MaxEl -0.04581380
 <Dec01-2015> <12:45:14>    3  ErrMat   0.01042691  MaxEl  0.01001652
 <Dec01-2015> <12:45:14>    4  ErrMat   0.00029286  MaxEl  0.00021096
 <Dec01-2015> <12:45:14>    5  ErrMat   0.00000895  MaxEl  0.00000721
 <Dec01-2015> <12:45:14>    6  ErrMat   0.00000002  MaxEl -0.00000002
 <Dec01-2015> <12:45:14>    7  ErrMat   0.00000000  MaxEl  0.00000000
 <Dec01-2015> <12:45:14>  SCF converged
 <Dec01-2015> <12:45:14>    8  ErrMat   0.00000000  MaxEl  0.00000000
 <Dec01-2015> <12:45:14>   Solutions with partially occupied orbitals may not be
 <Dec01-2015> <12:45:14>   lowest in energy. You might consider lowering the
 <Dec01-2015> <12:45:14>   symmetry in the input and explicitly specifying integer
 <Dec01-2015> <12:45:14>   occupations. In that case always check that you obtain
 <Dec01-2015> <12:45:14>   an aufbau solution.
 <Dec01-2015> <12:45:14>  >>>> POPAN
 <Dec01-2015> <12:45:14>  >>>> DEBYE
 <Dec01-2015> <12:45:14>  NORMAL TERMINATION
 <Dec01-2015> <12:45:14>  END

Create N   file=/home/scicons/adf2014.04/atomicdata/TZP/N.1s
End Input

 *******************************************************************************
 *                                                                             *
 *  -------------------------------------                                      *
 *   Amsterdam Density Functional  (ADF)         2014                          *
 *  -------------------------------------                                      *
 *                                               r44409 2014-10-25             *
 *                                                                             *
 *                                                                             *
 *                              =================                              *
 *                              |               |                              *
 *                              |     A D F     |                              *
 *                              |               |                              *
 *                              =================                              *
 *                                                                             *
 *                                                                             *
 *   Online information and documentation:  http://www.scm.com                 *
 *   E-mail:  support@scm.com   info@scm.com                                   *
 *                                                                             *
 *   Scientific publications using ADF results must be properly referenced     *
 *   See the User Manuals (or the web site) for recommended citations          *
 *   The terms and conditions of the End User License Agreement apply to       *
 *   the use of ADF, http://www.scm.com/Sales/LicAgreement.html                *
 *                                                                             *
 **********************  x86_64_linux_intel / intelmpi  ************************

 Licensed to: Dr. Yi-lei Wang / Dep. Chemistry, Tsinghua Univ. / Beijing / CHINA
 SCM User ID: u16688

 ADF 2014  RunTime: Dec01-2015 12:45:14  Nodes: 1  Procs: 1

 Temporary files are created in /tmp/kid_0.83ucKh

 Nitrogen (TZP, 1s frozen)



 ===========================
 A T T A C H E D   F I L E S
 ===========================

 CREATE - Data File:    /home/scicons/adf2014.04/atomicdata/TZP/N.1s
                        Nitrogen (TZP, 1s frozen)



 ===============================
 M O D E L   P A R A M E T E R S
 ===============================

 DENSITY FUNCTIONAL POTENTIAL (scf)
    LDA:                               VWN
    Gradient Corrections:              ---

 SPIN  (restricted / unrestr.)
    Molecule:                          Restricted

 OTHER ASPECTS
    Relativistic Corrections:          ---

    Nuclear Charge Density Model:      Point Charge Nuclei
    Core Treatment:                    Frozen Orbital(s)

    Hyperfine or Zeeman Interaction:   ---



 =====================================
 S Y M M E T R Y ,   E L E C T R O N S
 =====================================

 Symmetry: ATOM

 Irreducible Representations, including subspecies
 -------------------------------------------------
 S
 P:x  P:y  P:z
 D:z2  D:x2-y2  D:xy  D:xz  D:yz
 F:z3  F:z  F:xyz  F:z2x  F:z2y  F:x  F:y


 Configuration of Valence Electrons
 ==================================

          Occupation Numbers
          -------------------------------------------------
 S        2
 P        3
 D        0
 F        0
          -------------------------------------------------

 Total:   5

 Net Charge: 0 (Nuclei minus Electrons)

 Preset values for MO occupations will be applied through SCF cycle no. 1000000
 Thereafter, the program will assign electrons to MOs that are spatially
 similar to the occupied MOs in a "reference" cycle ("KeepOrbitals").
 The reference cycle is always the PREVIOUS cycle: it will evolve with
 the SCF procedure.



 ================================
 (Slater-type)  F U N C T I O N S  ***  (Basis and Fit)  ***
 ================================


 Atom Type    1  (N)
 ==============

 Valence Basis Sets:   8
 -----------------------
   1 S    6.380000
   2 S    1.500000
   2 S    2.500000
   2 S    5.150000
   2 P    1.000000
   2 P    1.880000
   2 P    3.680000
   3 D    2.200000

 Frozen Core Shells
 ------------------
    S:  1


 BAS: List of all Elementary Cartesian Basis Functions
 =====================================================

 The numbering in the list below (to the right of the function characteristics) is referred
 to in print-outs of MO eigenvectors and Mulliken populations in the BAS representation
 (as contrasted to the SFO representation).

 Notes:
 1. The functions are characterized by a polynomial prefactor (powers of x,y,z and r) and
    an exponential decay factor alpha.
 2. Since the basis sets are specific for an atom TYPE, the individual functions occur on
    all atoms of that type.
 3. The word 'Core' in the left margin signals that it is a Core Function (CF) : not a
    degree of freedom in the valence set, but only used to ensure orthogonalization of
    the other valence basis functions on the frozen Core Orbitals.


 (power of) X  Y  Z  R     Alpha  on Atom
            ==========     =====     ==========

 N                                    1
                                  ---------------------------------------------------------------------------
    Core    0  0  0  0     6.380      1
            0  0  0  1     1.500      2
            0  0  0  1     2.500      3
            0  0  0  1     5.150      4
            1  0  0  0     1.000      5
            0  1  0  0     1.000      6
            0  0  1  0     1.000      7
            1  0  0  0     1.880      8
            0  1  0  0     1.880      9
            0  0  1  0     1.880     10
            1  0  0  0     3.680     11
            0  1  0  0     3.680     12
            0  0  1  0     3.680     13
            2  0  0  0     2.200     14
            1  1  0  0     2.200     15
            1  0  1  0     2.200     16
            0  2  0  0     2.200     17
            0  1  1  0     2.200     18
            0  0  2  0     2.200     19

 Total number of charge fitting functions (nprimf)        82
 Total number of Cartesian basis functions (naos)         19
 Total number of Cartesian core functions  (ncos)          1



 BAS: List of all Elementary Cartesian Basis Functions
 =====================================================

 The numbering in the list below (to the right of the function characteristics) is referred
 to in print-outs of MO eigenvectors and Mulliken populations in the BAS representation
 (as contrasted to the SFO representation).

 Notes:
 1. The functions are characterized by a polynomial prefactor (powers of x,y,z and r) and
    an exponential decay factor alpha.
 2. Since the basis sets are specific for an atom TYPE, the individual functions occur on
    all atoms of that type.
 3. The word 'Core' in the left margin signals that it is a Core Function (CF) : not a
    degree of freedom in the valence set, but only used to ensure orthogonalization of
    the other valence basis functions on the frozen Core Orbitals.


 (power of) X  Y  Z  R     Alpha  on Atom
            ==========     =====     ==========

 N                                    1
                                  ---------------------------------------------------------------------------
    Core    0  0  0  0     6.380      1
            0  0  0  1     1.500      2
            0  0  0  1     2.500      3
            0  0  0  1     5.150      4
            1  0  0  0     1.000      5
            0  1  0  0     1.000      6
            0  0  1  0     1.000      7
            1  0  0  0     1.880      8
            0  1  0  0     1.880      9
            0  0  1  0     1.880     10
            1  0  0  0     3.680     11
            0  1  0  0     3.680     12
            0  0  1  0     3.680     13
            2  0  0  0     2.200     14
            1  1  0  0     2.200     15
            1  0  1  0     2.200     16
            0  2  0  0     2.200     17
            0  1  1  0     2.200     18
            0  0  2  0     2.200     19
1
 ***************************************************************************************************



                                              ***********************
                                              *  T E C H N I C A L  *
                                              ***********************




 =============================================================
 P A R A L L E L I Z A T I O N  and  V E C T O R I Z A T I O N
 =============================================================

 Nr of parallel processes:                                1
 Maximum vector length in NumInt loops:                 128



 ===============
 I O  vs.  C P U  ***  (store numerical data on disk or recalculate)  ***
 ===============

 Basis functions:   recalculate when needed
 Fit functions:     recalculate when needed

 IO buffersize (Mb):                                     64.000000



 =====================
 S C F   U P D A T E S
 =====================

 Max. nr. of cycles:                               300
 Convergence criterion:                              0.0000000100
   secondary criterion:                              0.0000000100

 Mix parameter (when DIIS does not apply):           0.2000000000
 Special mix parameter for the first cycle:          1.0000000000


 DIIS (Direct Inversion in Iteration Space)
    Replace damping when SCF Error is below:         0.5000000000
    Apply anyway after SCF cycle:
                                                     5
    (Max.) nr. of expansion vectors:                10

    Upperbound on expansion coefficients:            5.0000000000
    (when exceeded, IterationSpace is re-built)
    2nd Upperbound on coefficients:                 25.0000000000
    (when exceeded, simple damping will be used)
 Automatic ElectronSmearing (in case of problematic SCF convergence) disabled



 =================
 P R E C I S I O N  ***  (General: NumInt, NeglectFunctionTails, ...)  ***
 =================


 NumInt:           Target precision:                10.0000000000
 -------           Initial precision:               10.0000000000
                   Min. precision (optimization):   10.0000000000

 Neglect Functions:          Basis functions:        0.1000000000E-11
 ------------------          Fit functions:          0.1000000000E-11



 ===========================
 L I N E A R   S C A L I N G
 ===========================


 Cut-off radii density fit:                        0.1000000000E-13
 Overlap cut-off criterion AO matrix elements:     0.1000000000E-11
 Cut-offs for Coulomb potential and fitted density:0.1000000000E-13
 Cut-off criterion for Coulomb multipole terms:    0.1000000000E-13
 Progressive Convergence parameter:                 0.000000000
1
 ***************************************************************************************************



                                            ***************************
                                            *  C O M P U T A T I O N  *
                                            ***************************


 Number of elements of the density matrix on this node (used, total):       190       190



 ===========================================
 Numerical Integration : Fuzzy Cells (Becke)
 ===========================================

 Becke grid quality: VERYGOOD

 Lebedev angular grid order:             min:  13 max:  41
 Nr. of radial points:                   min:  68 max:  68

 Total nr. of points:         68
 Nr. of blocks:                1
 Block length:                68
 Nr. of dummy points:          0


 Test of Precision of the Numerical Integration Grid
 ===================================================

 Integral of the Total Core Density:                   1.99999999979028
 Relative Error:                                      -1.049E-10



 ========================
 Density Fitting (zlmFit)
 ========================

 ZlmFit Fit Quality: VERYGOOD

 Max L-expansion:                        min:   0 max:   0
 Nr. of radial interpolation points:     min: 160 max: 160



 =====
 S C F
 =====


 CYCLE    1
 orbitals (Q,E):
 ---------------
 S :1...3            ( 2.00    -3.7802)  ( 0.00    -1.5511)  ( 0.00     8.6986)
 P :1...3            ( 3.00    -3.4856)  ( 0.00    -1.4161)  ( 0.00     0.1383)
 D :1...1            ( 0.00    -1.3104)

 CYCLE    2
 d-Pmat  mean:  0.55E+00
 imax=      3: -0.32E+01
 orbitals (Q,E):
 ---------------
 S :1...2            ( 2.00    -0.1774)  ( 0.00     1.0862)
 P :1...2            ( 3.00     0.1217)  ( 0.00     0.7039)
 D :1...1            ( 0.00     1.6514)

 CYCLE    3
 d-Pmat  mean:  0.13E+00
 imax=      2: -0.66E+00
 orbitals (Q,E):
 ---------------
 S :1...2            ( 2.00    -0.3836)  ( 0.00     0.8626)
 P :1...2            ( 3.00    -0.0126)  ( 0.00     0.4957)
 D :1...1            ( 0.00     1.4606)

 CYCLE    4
 d-Pmat  mean:  0.93E-01
 imax=      2: -0.34E+00
 orbitals (Q,E):
 ---------------
 S :1...2            ( 2.00    -0.5160)  ( 0.00     0.7384)
 P :1...2            ( 3.00    -0.1170)  ( 0.00     0.3908)
 D :1...1            ( 0.00     1.3505)

 CYCLE    5
 d-Pmat  mean:  0.11E+00
 imax=      3:  0.38E+00
 orbitals (Q,E):
 ---------------
 S :1...2            ( 2.00    -0.6739)  ( 0.00     0.5950)
 P :1...2            ( 3.00    -0.2638)  ( 0.00     0.2831)
 D :1...1            ( 0.00     1.2430)

 CYCLE    6
 d-Pmat  mean:  0.15E-02
 imax=      3:  0.67E-02
 orbitals (Q,E):
 ---------------
 S :1...2            ( 2.00    -0.6776)  ( 0.00     0.5913)
 P :1...2            ( 3.00    -0.2676)  ( 0.00     0.2805)
 D :1...1            ( 0.00     1.2402)

 CYCLE    7
 d-Pmat  mean:  0.24E-05
 imax=     10:  0.80E-05
 orbitals (Q,E):
 ---------------
 S :1...2            ( 2.00    -0.6776)  ( 0.00     0.5913)
 P :1...2            ( 3.00    -0.2676)  ( 0.00     0.2805)
 D :1...1            ( 0.00     1.2402)

 CYCLE    8
 d-Pmat  mean:  0.38E-06
 imax=      3: -0.16E-05
 orbitals (Q,E):
 ---------------
 S :1...2            ( 2.00    -0.6776)  ( 0.00     0.5913)
 P :1...2            ( 3.00    -0.2676)  ( 0.00     0.2805)
 D :1...1            ( 0.00     1.2402)

 CYCLE    9
 d-Pmat  mean:  0.46E-08
 imax=     10: -0.17E-07
 orbitals (Q,E):
 ---------------
 S :1...2            ( 2.00    -0.6776)  ( 0.00     0.5913)
 P :1...2            ( 3.00    -0.2676)  ( 0.00     0.2805)
 D :1...1            ( 0.00     1.2402)

 SCF CONVERGED

 CYCLE   10
1
 ***************************************************************************************************



                                                *******************
                                                *  R E S U L T S  *
                                                *******************

 *** Setting up for NEW gradients in focky
 *** Using FIT density in focky

 Orbital Energies, per Irrep and Spin:
 ======================================
                        Occup              E (au)              E (eV)       Diff (eV) with prev. cycle
                        -----      --------------------        ------       --------------------------
 S
               1        2.000     -0.67757739813878E+00       -18.438               1.84E-09
               2        0.000      0.59127415683341E+00        16.089
               3        0.000      0.12575347365868E+02       342.193
 P
               1        3.000     -0.26756319326780E+00        -7.281               1.67E-09
               2        0.000      0.28048572555327E+00         7.632
               3        0.000      0.32720964394899E+01        89.038
 D
               1        0.000      0.12401992767418E+01        33.748


 Partially Occupied:
               1 P                -0.26756319326780E+00

 HOMO :        1 S                -0.67757739813878E+00
 LUMO :        2 P                 0.28048572555327E+00



 Orbital Energies, all Irreps
 ========================================

 Irrep        no.  (spin)   Occup              E (au)                E (eV)
 ---------------------------------------------------------------------------
 S             1             2.00       -0.67757739813878E+00       -18.4378
 P             1             3.00       -0.26756319326780E+00        -7.2808
 P             2             0.00        0.28048572555327E+00         7.6324
 S             2             0.00        0.59127415683341E+00        16.0894
 D             1             0.00        0.12401992767418E+01        33.7475
 P             3             0.00        0.32720964394899E+01        89.0383
 S             3             0.00        0.12575347365868E+02       342.1926


 Orbital Energies of the Core Orbitals:
 ======================================
 (Note that the atoms are grouped by atomtype, see the labels, and may hence NOT be in input order)

 AtomType  Orbital  Atom                   E (au)                        E (eV)
 --------  -------  ----           --------------------        ----------------
 N           1S        1          -0.14008146195810E+02                -381.181



 =======================================
 M U L L I K E N   P O P U L A T I O N S
 =======================================

 The survey below gives for each atom:
 a) the total charge (Z minus electrons)
 b) the net spin polarization (nr of electrons spin-A minus spin-B)
 c) for each spin the atomic electron valence density (integrated) per L-value.

 Atom              Charge    Spin density          S         P         D         F
 ----              ------    ------------       ------    ------    ------    ------
 1 N               0.0000                       2.0000    3.0000    0.0000    0.0000

 Populations of individual BAS functions
 ----------------------------------------
 1 N            0.0004  0.9345  1.1181 -0.0530  0.2981  0.2981  0.2981  0.5563  0.5563  0.5563
                0.1456  0.1456  0.1456  0.0000  0.0000  0.0000  0.0000  0.0000  0.0000

 Gross Charges per Atom (Z minus electrons)
 ==========================================
             0.0000
 Net Total:  0.00000000



 ========================================================================
 Electrostatic potential at the Nuclei due to  electrons and other nuclei
 ========================================================================

         Atom                  Potential
         ----                  ---------
     1)   N                  18.21495291


 ========================
 No memory problems found
 ========================

 Maximum number of active allocate calls:         386

 *******************************************************************************

                             A D F   E X I T
 NORMAL TERMINATION



 =================
 Timing Statistics
 =================

 Total Used :                     CPU=        0.47      System=        0.04     Elapsed=        0.52

 Calls  Section                     ( Mean, Percentage )
 ---------------------------------------------------------------------------------------------------
     3  ><      ................      0.00    0.00             0.00    0.00             0.00    0.15
     1  INIT    ................      0.01    2.32             0.01   18.42             0.03    5.34
     1  GEOMET  ................      0.02    3.80             0.00   10.53             0.02    4.09
     1  INPUTA  ................      0.00    0.42             0.00    2.63             0.00    0.40
     1  MAINSY  ................      0.00    0.84             0.00    2.63             0.00    0.96
     1  SYMFIT  ................      0.00    0.00             0.00    0.00             0.00    0.10
     1  CORORT  ................      0.00    0.00             0.00    0.00             0.00    0.06
     1  SYMORB  ................      0.00    0.21             0.00    0.00             0.00    0.15
     1  CLSMAT  ................      0.00    0.63             0.00    0.00             0.00    0.58
     1  ORTHON  ................      0.00    0.21             0.00    0.00             0.00    0.21
     1  GENPT   ................      0.02    4.85             0.01   18.42             0.03    5.66
     1  PTBAS   ................      0.00    0.42             0.00    0.00             0.00    0.37
    10  FOCKY   ................      0.03   71.52             0.00   34.22             0.04   67.20
    10  FOCKTR  ................      0.00    0.21             0.00    0.00             0.00    0.52
    10  FOCKNM  ................      0.00    0.00             0.00    0.00             0.00    0.06
    10  SDIIS   ................      0.00    0.21             0.00    2.63             0.00    0.61
    10  EMERGE  ................      0.00    4.85             0.00    2.63             0.00    4.42
     1  COREPS  ................      0.02    4.43             0.00    2.63             0.02    4.09
     1  POPAN   ................      0.00    0.21             0.00    2.63             0.00    0.46
     1  DEBYE   ................      0.00    0.00             0.00    0.00             0.00    0.08
     1  EXIT PROCEDURE .........      0.02    4.85             0.00    2.63             0.02    4.48


 Currently Open Files (EXIT00)
 ====================

 Unit    Access Format  Status   Type       Ident (file)
 -------------------------------------------------------
   3      SEQ    FORM   TRANSP  NORMAL      LOGFILE
                                          ( logfile )


 Buffered I/O statistics
 =======================
 Memory available:                     67108864
 Number of records fitting in memory:     16131
 Input :   1.4% of                         3105  *4k bytes
 Output:   9.3% of                         1781  *4k bytes
 Records from serial files evicted:           0
                    others evicted:           0
 Hash table lookups:      13462 with          0 conflicts (  0.00%)

 ***************************************************************************************************
 (LOGFILE)
 <Dec01-2015> <12:45:14>  ADF 2014  RunTime: Dec01-2015 12:45:14  Nodes: 1  Procs: 1
 <Dec01-2015> <12:45:14>  Hydrogen (TZP)
 <Dec01-2015> <12:45:14>  RunType   : CREATE
 <Dec01-2015> <12:45:14>  Net Charge: 0 (Nuclei minus Electrons)
 <Dec01-2015> <12:45:14>  Symmetry  : ATOM
  Coordinates
    Atom         X           Y           Z   (Angstrom)
    1.H         0.000000    0.000000    0.000000
 <Dec01-2015> <12:45:14>  >>>> CORORT
 <Dec01-2015> <12:45:14>  >>>> CLSMAT
 <Dec01-2015> <12:45:14>  >>>> ORTHON
 <Dec01-2015> <12:45:14>  >>>> GENPT
 <Dec01-2015> <12:45:14>  Block Length=  64
 <Dec01-2015> <12:45:14>  >>>> PTBAS
 <Dec01-2015> <12:45:14>  >>>> CYCLE
 <Dec01-2015> <12:45:14>    1
 <Dec01-2015> <12:45:14>    2  ErrMat   0.04599043  MaxEl -0.04581380
 <Dec01-2015> <12:45:14>    3  ErrMat   0.01042691  MaxEl  0.01001652
 <Dec01-2015> <12:45:14>    4  ErrMat   0.00029286  MaxEl  0.00021096
 <Dec01-2015> <12:45:14>    5  ErrMat   0.00000895  MaxEl  0.00000721
 <Dec01-2015> <12:45:14>    6  ErrMat   0.00000002  MaxEl -0.00000002
 <Dec01-2015> <12:45:14>    7  ErrMat   0.00000000  MaxEl  0.00000000
 <Dec01-2015> <12:45:14>  SCF converged
 <Dec01-2015> <12:45:14>    8  ErrMat   0.00000000  MaxEl  0.00000000
 <Dec01-2015> <12:45:14>   Solutions with partially occupied orbitals may not be
 <Dec01-2015> <12:45:14>   lowest in energy. You might consider lowering the
 <Dec01-2015> <12:45:14>   symmetry in the input and explicitly specifying integer
 <Dec01-2015> <12:45:14>   occupations. In that case always check that you obtain
 <Dec01-2015> <12:45:14>   an aufbau solution.
 <Dec01-2015> <12:45:14>  >>>> POPAN
 <Dec01-2015> <12:45:14>  >>>> DEBYE
 <Dec01-2015> <12:45:14>  NORMAL TERMINATION
 <Dec01-2015> <12:45:14>  END
 <Dec01-2015> <12:45:14>  ADF 2014  RunTime: Dec01-2015 12:45:14  Nodes: 1  Procs: 1
 <Dec01-2015> <12:45:14>  Nitrogen (TZP, 1s frozen)
 <Dec01-2015> <12:45:14>  RunType   : CREATE
 <Dec01-2015> <12:45:14>  Net Charge: 0 (Nuclei minus Electrons)
 <Dec01-2015> <12:45:14>  Symmetry  : ATOM
  Coordinates
    Atom         X           Y           Z   (Angstrom)
    1.N         0.000000    0.000000    0.000000
 <Dec01-2015> <12:45:14>  >>>> CORORT
 <Dec01-2015> <12:45:14>  >>>> CLSMAT
 <Dec01-2015> <12:45:14>  >>>> ORTHON
 <Dec01-2015> <12:45:14>  >>>> GENPT
 <Dec01-2015> <12:45:14>  Block Length=  68
 <Dec01-2015> <12:45:14>  >>>> PTBAS
 <Dec01-2015> <12:45:14>  >>>> CYCLE
 <Dec01-2015> <12:45:14>    1
 <Dec01-2015> <12:45:14>    2  ErrMat   2.74606693  MaxEl -1.79454153
 <Dec01-2015> <12:45:14>    3  ErrMat   1.57363192  MaxEl  1.18790691
 <Dec01-2015> <12:45:15>    4  ErrMat   1.10520876  MaxEl  0.81171226
 <Dec01-2015> <12:45:15>    5  ErrMat   0.68732520  MaxEl  0.50145022
 <Dec01-2015> <12:45:15>    6  ErrMat   0.01108521  MaxEl  0.00796013
 <Dec01-2015> <12:45:15>    7  ErrMat   0.00000963  MaxEl  0.00000603
 <Dec01-2015> <12:45:15>    8  ErrMat   0.00000218  MaxEl -0.00000149
 <Dec01-2015> <12:45:15>    9  ErrMat   0.00000002  MaxEl  0.00000001
 <Dec01-2015> <12:45:15>  SCF converged
 <Dec01-2015> <12:45:15>   10  ErrMat   0.00000000  MaxEl  0.00000000
 <Dec01-2015> <12:45:15>   Solutions with partially occupied orbitals may not be
 <Dec01-2015> <12:45:15>   lowest in energy. You might consider lowering the
 <Dec01-2015> <12:45:15>   symmetry in the input and explicitly specifying integer
 <Dec01-2015> <12:45:15>   occupations. In that case always check that you obtain
 <Dec01-2015> <12:45:15>   an aufbau solution.
 <Dec01-2015> <12:45:15>  >>>> POPAN
 <Dec01-2015> <12:45:15>  >>>> DEBYE
 <Dec01-2015> <12:45:15>  NORMAL TERMINATION
 <Dec01-2015> <12:45:15>  END


 Parallel Execution: Process Information
 ==============================================================================
 Rank   Node Name                              NodeID   MyNodeRank  NodeMaster
    0   mu01.local                                0          0          0
    1   mu01.local                                0          1         -1
    2   mu01.local                                0          2         -1
    3   mu01.local                                0          3         -1
    4   mu01.local                                0          4         -1
    5   mu01.local                                0          5         -1
    6   mu01.local                                0          6         -1
    7   mu01.local                                0          7         -1
 ==============================================================================



title NH3 frequencies in symmetric displacements

atoms
   N               0.0000    0.0000    0.0000
   H               0.4729    0.8190    0.3821
   H              -0.9457    0.0000    0.3821
   H               0.4729   -0.8190    0.3821
end

geometry
  frequencies Symm
end

thermo  T=300

BeckeGrid
 quality good
End

Fragments
H t21.H
N t21.N
End
end input

 *******************************************************************************
 *                                                                             *
 *  -------------------------------------                                      *
 *   Amsterdam Density Functional  (ADF)         2014                          *
 *  -------------------------------------                                      *
 *                                               r44409 2014-10-25             *
 *                                                                             *
 *                                                                             *
 *                              =================                              *
 *                              |               |                              *
 *                              |     A D F     |                              *
 *                              |               |                              *
 *                              =================                              *
 *                                                                             *
 *                                                                             *
 *   Online information and documentation:  http://www.scm.com                 *
 *   E-mail:  support@scm.com   info@scm.com                                   *
 *                                                                             *
 *   Scientific publications using ADF results must be properly referenced     *
 *   See the User Manuals (or the web site) for recommended citations          *
 *   The terms and conditions of the End User License Agreement apply to       *
 *   the use of ADF, http://www.scm.com/Sales/LicAgreement.html                *
 *                                                                             *
 **********************  x86_64_linux_intel / intelmpi  ************************

 Licensed to: Dr. Yi-lei Wang / Dep. Chemistry, Tsinghua Univ. / Beijing / CHINA
 SCM User ID: u16688

 ADF 2014  RunTime: Dec01-2015 12:45:15  Nodes: 1  Procs: 8

 Temporary files are created in /tmp/kid_0.Euig5i


Communication costs MPI_COMM_WORLD:      4.712 usec per message,   0.0063 usec per 8-byte item
Communication costs for intra-node:      2.093 usec per message,   0.0066 usec per 8-byte item

 NH3 frequencies in symmetric displacements



 ===========================
 A T T A C H E D   F I L E S
 ===========================




 ===============================
 M O D E L   P A R A M E T E R S
 ===============================

 DENSITY FUNCTIONAL POTENTIAL (scf)
    LDA:                               VWN
    Gradient Corrections:              ---

 SPIN  (restricted / unrestr.)
    Molecule:                          Restricted
    Fragments:                         Restricted

 OTHER ASPECTS
    Relativistic Corrections:          ---

    Nuclear Charge Density Model:      Point Charge Nuclei
    Core Treatment:                    Frozen Orbital(s)

    Hyperfine or Zeeman Interaction:   ---


 Fragment File(s)
 ----------------
 N:
         file : t21.N
         jobid: ADF 2014  RunTime: Dec01-2015 12:45:14  Nodes: 1  Procs: 1
         title: Nitrogen (TZP, 1s frozen)
 H:
         file : t21.H
         jobid: ADF 2014  RunTime: Dec01-2015 12:45:14  Nodes: 1  Procs: 1
         title: Hydrogen (TZP)



                                        ***********************************
                                        *  R U N   T Y P E : FREQUENCIES  *
                                        ***********************************




 ===============
 G E O M E T R Y  ***  3D  Molecule  ***
 ===============


 ATOMS
 =====                            X Y Z                    CHARGE
                                (Angstrom)             Nucl     +Core       At.Mass
                       --------------------------    ----------------       -------
    1  N               0.0000    0.0000    0.0000      7.00      5.00       14.0031
    2  H               0.4729    0.8190    0.3821      1.00      1.00        1.0078
    3  H              -0.9457    0.0000    0.3821      1.00      1.00        1.0078
    4  H               0.4729   -0.8190    0.3821      1.00      1.00        1.0078


 FRAGMENTS
 =========                                     Atoms in this Fragment     Cart. coord.s (Angstrom)
                                               -------------------------------------------------------
    1  N                                                 1  N            0.0000    0.0000    0.0000
    2  H                                                 2  H            0.4729    0.8190    0.3821
    3  H                                                 3  H           -0.9457    0.0000    0.3821
    4  H                                                 4  H            0.4729   -0.8190    0.3821


 Interatomic Distance Matrix (Angstrom)
 --------------------------------------

   1)     0.000
   2)     1.020   0.000
   3)     1.020   1.638   0.000
   4)     1.020   1.638   1.638   0.000

 Min. Distance =    1.0200
 Max. Distance =    1.6380



 =====================================
 S Y M M E T R Y ,   E L E C T R O N S
 =====================================

 Symmetry: C(3V)

 Irreducible Representations, including subspecies
 -------------------------------------------------
 A1
 A2
 E1:1  E1:2


 Configuration of Valence Electrons
 ==================================
 ( determined in the SCF procedure )

 Total:   8

 Net Charge: 0 (Nuclei minus Electrons)

 Aufbau principle for MO occupations will be applied through SCF cycle no.      30
 Thereafter, the program will assign electrons to MOs that are spatially
 similar to the occupied MOs in a "reference" cycle ("KeepOrbitals").
 The reference cycle is always the PREVIOUS cycle: it will evolve with
 the SCF procedure.
1
 ***************************************************************************************************



                                      ****************************************
                                      *  B U I L D : (Fragments, Functions)  *
                                      ****************************************




 =======
 S F O s  ***  (Symmetrized Fragment Orbitals)  ***
 =======

 SFOs are linear combinations of (valence) Fragment Orbitals (FOs), such that the SFOs transform as the
 irreducible representations of the (molecular) symmetry group. Each SFO is therefore characterized by
 an irrep of the molecule and by a few (or only one) generating FOs.
 The SFOs constitute a symmetry-adapted basis for the Fock matrix. The MO eigenvector coefficients in
 this basis provide a direct interpretation of the MOs in terms of Frontier Orbital Theory.

 The SFOs are combined with auxiliary Core Functions (CFs) to ensure orthogonalization on the (frozen)
 Core Orbitals (COs). The Core-orthogonalized SFOs (CSFOs) constitute the true Fock basis.

 The FOs, and hence also the (C)SFOs are combinations of the elementary basis functions (BAS). The basis
 functions that participate in the description of the SFOs depend on the irrep. The indices of the
 involved functions are printed below for each irrep.
 (The complete list of primitive basis functions is printed in another section)

 Total nr. of (C)SFOs (summation over all irreps) :    35

 NOTE: a (C)SFO that is defined as a combination of more than one FO is usually NOT normalized.



                                       === A1 ===
 Nr. of SFOs :   12
 Cartesian basis functions that participate in this irrep (total number =    27) :
      1     2     3     4     7    10    13    19    14    17
     20    26    32    21    27    33    22    28    34    25
     31    37    23    24    29    35    36

    SFO  (index         Fragment          Generating    Expansion in Fragment Orbitals
  indx  incl.CFs)   Occup   Orb.Energy   FragmentType  Coeff.   Orbital     on Fragment
 --------------------------------------------------------------------------------------
     1       2      2.000      -0.678 au  N             1.00      1 S               1
                        (     -18.438 eV)
     2       3       --         0.591 au  N             1.00      2 S               1
                        (      16.089 eV)
     3       4       --        12.575 au  N             1.00      3 S               1
                        (     342.193 eV)
     4       5      1.000      -0.268 au  N             1.00      1 P:z             1
                        (      -7.281 eV)
     5       6       --         0.280 au  N             1.00      2 P:z             1
                        (       7.632 eV)
     6       7       --         3.272 au  N             1.00      3 P:z             1
                        (      89.038 eV)
     7       8       --         1.240 au  N             1.00      1 D:z2            1
                        (      33.748 eV)
     8       9      1.000      -0.233 au  H             0.58      1 S               2
                        (      -6.353 eV)               0.58      1 S               3
                                                        0.58      1 S               4
     9      10       --         0.095 au  H             0.58      2 S               2
                        (       2.572 eV)               0.58      2 S               3
                                                        0.58      2 S               4
    10      11       --         1.548 au  H             0.58      3 S               2
                        (      42.112 eV)               0.58      3 S               3
                                                        0.58      3 S               4
    11      12       --         0.403 au  H             0.29      1 P:x             2
                        (      10.967 eV)               0.50      1 P:y             2
                                                       -0.58      1 P:x             3
                                                        0.29      1 P:x             4
                                                       -0.50      1 P:y             4
    12      13       --         0.403 au  H             0.58      1 P:z             2
                        (      10.967 eV)               0.58      1 P:z             3
                                                        0.58      1 P:z             4



                                       === A2 ===
 Nr. of SFOs :    1
 Cartesian basis functions that participate in this irrep (total number =     5) :
     23    24    30    35    36

    SFO  (index         Fragment          Generating    Expansion in Fragment Orbitals
  indx  incl.CFs)   Occup   Orb.Energy   FragmentType  Coeff.   Orbital     on Fragment
 --------------------------------------------------------------------------------------
     1       1       --         0.403 au  H             0.50      1 P:x             2
                        (      10.967 eV)              -0.29      1 P:y             2
                                                        0.58      1 P:y             3
                                                       -0.50      1 P:x             4
                                                       -0.29      1 P:y             4



                                       === E1:1 ===
 Nr. of SFOs :   11
 Cartesian basis functions that participate in this irrep (total number =    23) :
      5     8    11    16    14    17    20    26    32    21
     27    33    22    28    34    25    31    37    23    24
     29    35    36

    SFO  (index         Fragment          Generating    Expansion in Fragment Orbitals
  indx  incl.CFs)   Occup   Orb.Energy   FragmentType  Coeff.   Orbital     on Fragment
 --------------------------------------------------------------------------------------
     1       1      1.000      -0.268 au  N             1.00      1 P:x             1
                        (      -7.281 eV)
     2       2       --         0.280 au  N             1.00      2 P:x             1
                        (       7.632 eV)
     3       3       --         3.272 au  N             1.00      3 P:x             1
                        (      89.038 eV)
     4       4       --         1.240 au  N             1.00      1 D:x2-y2         1
                        (      33.748 eV)
     5       5       --         1.240 au  N             1.00      1 D:xz            1
                        (      33.748 eV)
     6       6      1.000      -0.233 au  H             0.41      1 S               2
                        (      -6.353 eV)              -0.82      1 S               3
                                                        0.41      1 S               4
     7       7       --         0.095 au  H             0.41      2 S               2
                        (       2.572 eV)              -0.82      2 S               3
                                                        0.41      2 S               4
     8       8       --         1.548 au  H             0.41      3 S               2
                        (      42.112 eV)              -0.82      3 S               3
                                                        0.41      3 S               4
     9       9       --         0.403 au  H             0.65      1 P:x             2
                        (      10.967 eV)              -0.22      1 P:y             2
                                                        0.26      1 P:x             3
                                                        0.65      1 P:x             4
                                                        0.22      1 P:y             4
    10      10       --         0.403 au  H             0.45      1 P:y             2
                        (      10.967 eV)               0.77      1 P:x             3
                                                       -0.45      1 P:y             4
    11      11       --         0.403 au  H             0.41      1 P:z             2
                        (      10.967 eV)              -0.82      1 P:z             3
                                                        0.41      1 P:z             4



                                       === E1:2 ===
 Nr. of SFOs :   11
 Cartesian basis functions that participate in this irrep (total number =    18) :
      6     9    12    18    15    20    32    21    33    22
     34    25    37    23    24    30    35    36

    SFO  (index         Fragment          Generating    Expansion in Fragment Orbitals
  indx  incl.CFs)   Occup   Orb.Energy   FragmentType  Coeff.   Orbital     on Fragment
 --------------------------------------------------------------------------------------
     1       1      1.000      -0.268 au  N             1.00      1 P:y             1
                        (      -7.281 eV)
     2       2       --         0.280 au  N             1.00      2 P:y             1
                        (       7.632 eV)
     3       3       --         3.272 au  N             1.00      3 P:y             1
                        (      89.038 eV)
     4       4       --         1.240 au  N            -1.00      1 D:xy            1
                        (      33.748 eV)
     5       5       --         1.240 au  N             1.00      1 D:yz            1
                        (      33.748 eV)
     6       6      1.000      -0.233 au  H             0.71      1 S               2
                        (      -6.353 eV)              -0.71      1 S               4
     7       7       --         0.095 au  H             0.71      2 S               2
                        (       2.572 eV)              -0.71      2 S               4
     8       8       --         1.548 au  H             0.71      3 S               2
                        (      42.112 eV)              -0.71      3 S               4
     9       9       --         0.403 au  H            -0.22      1 P:x             2
                        (      10.967 eV)               0.39      1 P:y             2
                                                        0.77      1 P:y             3
                                                        0.22      1 P:x             4
                                                        0.39      1 P:y             4
    10      10       --         0.403 au  H             0.45      1 P:x             2
                        (      10.967 eV)               0.52      1 P:y             2
                                                       -0.26      1 P:y             3
                                                       -0.45      1 P:x             4
                                                        0.52      1 P:y             4
    11      11       --         0.403 au  H             0.71      1 P:z             2
                        (      10.967 eV)              -0.71      1 P:z             4



 ================================
 (Slater-type)  F U N C T I O N S  ***  (Basis and Fit)  ***
 ================================


 Atom Type    1  (N)
 ==============

 Valence Basis Sets:   8
 -----------------------
   1 S    6.380000
   2 S    1.500000
   2 S    2.500000
   2 S    5.150000
   2 P    1.000000
   2 P    1.880000
   2 P    3.680000
   3 D    2.200000

 Frozen Core Shells
 ------------------
    S:  1

 Atom Type    2  (H)
 ==============

 Valence Basis Sets:   4
 -----------------------
   1 S    0.690000
   1 S    0.920000
   1 S    1.580000
   2 P    1.250000


 BAS: List of all Elementary Cartesian Basis Functions
 =====================================================

 The numbering in the list below (to the right of the function characteristics) is referred
 to in print-outs of MO eigenvectors and Mulliken populations in the BAS representation
 (as contrasted to the SFO representation).

 Notes:
 1. The functions are characterized by a polynomial prefactor (powers of x,y,z and r) and
    an exponential decay factor alpha.
 2. Since the basis sets are specific for an atom TYPE, the individual functions occur on
    all atoms of that type.
 3. The word 'Core' in the left margin signals that it is a Core Function (CF) : not a
    degree of freedom in the valence set, but only used to ensure orthogonalization of
    the other valence basis functions on the frozen Core Orbitals.


 (power of) X  Y  Z  R     Alpha  on Atom
            ==========     =====     ==========

 N                                    1
                                  ---------------------------------------------------------------------------
    Core    0  0  0  0     6.380      1
            0  0  0  1     1.500      2
            0  0  0  1     2.500      3
            0  0  0  1     5.150      4
            1  0  0  0     1.000      5
            0  1  0  0     1.000      6
            0  0  1  0     1.000      7
            1  0  0  0     1.880      8
            0  1  0  0     1.880      9
            0  0  1  0     1.880     10
            1  0  0  0     3.680     11
            0  1  0  0     3.680     12
            0  0  1  0     3.680     13
            2  0  0  0     2.200     14
            1  1  0  0     2.200     15
            1  0  1  0     2.200     16
            0  2  0  0     2.200     17
            0  1  1  0     2.200     18
            0  0  2  0     2.200     19

 H                                    2    3    4
                                  ---------------------------------------------------------------------------
            0  0  0  0     0.690     20   26   32
            0  0  0  0     0.920     21   27   33
            0  0  0  0     1.580     22   28   34
            1  0  0  0     1.250     23   29   35
            0  1  0  0     1.250     24   30   36
            0  0  1  0     1.250     25   31   37

 Total number of charge fitting functions (nprimf)       232
 Total number of Cartesian basis functions (naos)         37
 Total number of Cartesian core functions  (ncos)          1

1
 ***************************************************************************************************



                                              ***********************
                                              *  T E C H N I C A L  *
                                              ***********************




 =============================================================
 P A R A L L E L I Z A T I O N  and  V E C T O R I Z A T I O N
 =============================================================

 Nr of parallel processes:                                8
 Maximum vector length in NumInt loops:                 128



 ===============
 I O  vs.  C P U  ***  (store numerical data on disk or recalculate)  ***
 ===============

 Basis functions:   recalculate when needed
 Fit functions:     recalculate when needed

 IO buffersize (Mb):                                     64.000000



 ===============================
 G E O M E T R Y   U P D A T E S
 ===============================

 Optimization coordinates:                       Cartesian
 Optimization code branch:                       OLD

 (Max.) nr. of geometries to compute Freq.s:        25
 Second derivatives are computed by 2-point num. differentiation of gradients.
 Fewer displacements may be used due to symmetry.
 Symmetry displacements will be used



 =====================
 S C F   U P D A T E S
 =====================

 Max. nr. of cycles:                               300
 Convergence criterion:                              0.0000010000
   secondary criterion:                              0.0010000000

 Mix parameter (when DIIS does not apply):           0.2000000000


 DIIS (Direct Inversion in Iteration Space)
    Replace damping when SCF Error is below:         0.5000000000
    Apply anyway after SCF cycle:
                                                     5
    (Max.) nr. of expansion vectors:                10

    Upperbound on expansion coefficients:            5.0000000000
    (when exceeded, IterationSpace is re-built)
    2nd Upperbound on coefficients:                 25.0000000000
    (when exceeded, simple damping will be used)
 Automatic ElectronSmearing (in case of problematic SCF convergence) disabled



 =================
 P R E C I S I O N  ***  (General: NumInt, NeglectFunctionTails, ...)  ***
 =================


 NumInt:           Target precision:                 6.0000000000
 -------           Initial precision:                6.0000000000
                   Min. precision (optimization):    6.0000000000

 Neglect Functions:          Basis functions:        0.1000000000E-07
 ------------------          Fit functions:          0.1000000000E-07



 ===========================
 L I N E A R   S C A L I N G
 ===========================


 Cut-off radii density fit:                        0.1000000000E-09
 Overlap cut-off criterion AO matrix elements:     0.1000000000E-07
 Cut-offs for Coulomb potential and fitted density:0.1000000000E-09
 Cut-off criterion for Coulomb multipole terms:    0.1000000000E-09
 Progressive Convergence parameter:                 0.000000000
1
 ***************************************************************************************************



                                            ***************************
                                            *  C O M P U T A T I O N  *
                                            ***************************


 Number of elements of the density matrix on this node (used, total):       190       703



 ===========================================
 Numerical Integration : Fuzzy Cells (Becke)
 ===========================================

 Becke grid quality: GOOD

 Lebedev angular grid order:             min:  11 max:  31
 Nr. of radial points:                   min:  54 max:  58

 Total nr. of points:      18402
 Nr. of blocks:              144
 Block length:               128
 Nr. of dummy points:         30


 Test of Precision of the Numerical Integration Grid
 ===================================================

 Integral of the Total Core Density:                   2.00000006914369
 Relative Error:                                       3.457E-08



 =====
 S C F
 =====


 CYCLE    1

 WARNING: DIIS procedure will be reset
 orbitals (Q,E):
 ---------------
 A1 :1...12          ( 2.00    -0.9792)  ( 2.00    -0.4343)  ( 0.00    -0.0732)  ( 0.00     0.1747)
                     ( 0.00     0.1835)  ( 0.00     0.4871)  ( 0.00     1.0671)  ( 0.00     1.3288)
                     ( 0.00     1.6738)  ( 0.00     2.0529)  ( 0.00     3.9448)  ( 0.00    15.4698)
 A2 :1...1           ( 0.00     0.8039)
 E1 :1...11          ( 4.00    -0.6046)  ( 0.00    -0.0068)  ( 0.00     0.1211)  ( 0.00     0.3269)
                     ( 0.00     0.3545)  ( 0.00     0.9550)  ( 0.00     1.0729)  ( 0.00     1.7301)
                     ( 0.00     2.2532)  ( 0.00     2.3688)  ( 0.00     4.9911)

 CYCLE    2
 d-Pmat  mean:  0.31E-01
 imax=     10: -0.17E+00
 orbitals (Q,E):
 ---------------
 A1 :1...3           ( 2.00    -0.8887)  ( 2.00    -0.3396)  ( 0.00    -0.0499)
 A2 :1...1           ( 0.00     0.8304)
 E1 :1...2           ( 4.00    -0.5231)  ( 0.00     0.0199)

 CYCLE    3
 d-Pmat  mean:  0.29E-01
 imax=     10: -0.24E+00
 orbitals (Q,E):
 ---------------
 A1 :1...3           ( 2.00    -0.7461)  ( 2.00    -0.2069)  ( 0.00    -0.0078)
 A2 :1...1           ( 0.00     0.8960)
 E1 :1...2           ( 4.00    -0.3938)  ( 0.00     0.0629)

 CYCLE    4
 d-Pmat  mean:  0.53E-02
 imax=     10:  0.44E-01
 orbitals (Q,E):
 ---------------
 A1 :1...3           ( 2.00    -0.7715)  ( 2.00    -0.2284)  ( 0.00    -0.0149)
 A2 :1...1           ( 0.00     0.8851)
 E1 :1...2           ( 4.00    -0.4161)  ( 0.00     0.0559)

 CYCLE    5
 d-Pmat  mean:  0.12E-03
 imax=     27: -0.69E-03
 orbitals (Q,E):
 ---------------
 A1 :1...3           ( 2.00    -0.7714)  ( 2.00    -0.2289)  ( 0.00    -0.0149)
 A2 :1...1           ( 0.00     0.8851)
 E1 :1...2           ( 4.00    -0.4161)  ( 0.00     0.0558)

 CYCLE    6
 d-Pmat  mean:  0.23E-04
 imax=      2: -0.24E-03
 orbitals (Q,E):
 ---------------
 A1 :1...3           ( 2.00    -0.7715)  ( 2.00    -0.2288)  ( 0.00    -0.0150)
 A2 :1...1           ( 0.00     0.8850)
 E1 :1...2           ( 4.00    -0.4161)  ( 0.00     0.0558)

 CYCLE    7
 d-Pmat  mean:  0.46E-05
 imax=     27: -0.31E-04
 orbitals (Q,E):
 ---------------
 A1 :1...3           ( 2.00    -0.7715)  ( 2.00    -0.2289)  ( 0.00    -0.0150)
 A2 :1...1           ( 0.00     0.8850)
 E1 :1...2           ( 4.00    -0.4162)  ( 0.00     0.0557)

 CYCLE    8
 d-Pmat  mean:  0.32E-06
 imax=      7: -0.25E-05
 orbitals (Q,E):
 ---------------
 A1 :1...3           ( 2.00    -0.7715)  ( 2.00    -0.2289)  ( 0.00    -0.0150)
 A2 :1...1           ( 0.00     0.8850)
 E1 :1...2           ( 4.00    -0.4162)  ( 0.00     0.0557)

 CYCLE    9
 d-Pmat  mean:  0.61E-08
 imax=     10:  0.39E-07
 orbitals (Q,E):
 ---------------
 A1 :1...3           ( 2.00    -0.7715)  ( 2.00    -0.2289)  ( 0.00    -0.0150)
 A2 :1...1           ( 0.00     0.8850)
 E1 :1...2           ( 4.00    -0.4162)  ( 0.00     0.0557)

 SCF CONVERGED

 CYCLE   10
1
 ***************************************************************************************************



                                                *******************
                                                *  R E S U L T S  *
                                                *******************

 *** Setting up for NEW gradients in focky
 *** Using FIT density in focky

 Orbital Energies, per Irrep and Spin:
 ======================================
                        Occup              E (au)              E (eV)       Diff (eV) with prev. cycle
                        -----      --------------------        ------       --------------------------
 A1
               1        2.000     -0.77147122477647E+00       -20.993               5.60E-09
               2        2.000     -0.22885380296550E+00        -6.227               1.43E-08
               3        0.000     -0.15001617095505E-01        -0.408
               4        0.000      0.25951713346983E+00         7.062
               5        0.000      0.28704291283896E+00         7.811
               6        0.000      0.58628974373644E+00        15.954
               7        0.000      0.11786745366180E+01        32.073
               8        0.000      0.14650615624947E+01        39.866
               9        0.000      0.18227340138865E+01        49.599
              10        0.000      0.22402363689457E+01        60.960
              11        0.000      0.41783396071939E+01       113.698
              12        0.000      0.15744080548775E+02       428.418
 A2
               1        0.000      0.88502761270637E+00        24.083
 E1
               1        4.000     -0.41615228340971E+00       -11.324               4.10E-09
               2        0.000      0.55747184537468E-01         1.517
               3        0.000      0.20653295092342E+00         5.620
               4        0.000      0.43167051644532E+00        11.746
               5        0.000      0.44878188369931E+00        12.212
               6        0.000      0.10396613815095E+01        28.291
               7        0.000      0.12123895373403E+01        32.991
               8        0.000      0.19193612947045E+01        52.228
               9        0.000      0.24312636532706E+01        66.158
              10        0.000      0.24971238334802E+01        67.950
              11        0.000      0.52337542747863E+01       142.418

 HOMO :        2 A1               -0.22885380296550E+00
 LUMO :        3 A1               -0.15001617095505E-01



 Orbital Energies, all Irreps
 ========================================

 Irrep        no.  (spin)   Occup              E (au)                E (eV)
 ---------------------------------------------------------------------------
 A1            1             2.00       -0.77147122477647E+00       -20.9928
 E1            1             4.00       -0.41615228340971E+00       -11.3241
 A1            2             2.00       -0.22885380296550E+00        -6.2274
 A1            3             0.00       -0.15001617095505E-01        -0.4082
 E1            2             0.00        0.55747184537468E-01         1.5170
 E1            3             0.00        0.20653295092342E+00         5.6200
 A1            4             0.00        0.25951713346983E+00         7.0618
 A1            5             0.00        0.28704291283896E+00         7.8108
 E1            4             0.00        0.43167051644532E+00        11.7464
 E1            5             0.00        0.44878188369931E+00        12.2120
 A1            6             0.00        0.58628974373644E+00        15.9538
 A2            1             0.00        0.88502761270637E+00        24.0828
 E1            6             0.00        0.10396613815095E+01        28.2906
 A1            7             0.00        0.11786745366180E+01        32.0734
 E1            7             0.00        0.12123895373403E+01        32.9908
 A1            8             0.00        0.14650615624947E+01        39.8664
 A1            9             0.00        0.18227340138865E+01        49.5991
 E1            8             0.00        0.19193612947045E+01        52.2285
 A1           10             0.00        0.22402363689457E+01        60.9599
 E1            9             0.00        0.24312636532706E+01        66.1581
 E1           10             0.00        0.24971238334802E+01        67.9502
 A1           11             0.00        0.41783396071939E+01       113.6984
 E1           11             0.00        0.52337542747863E+01       142.4177
 A1           12             0.00        0.15744080548775E+02       428.4182


 Orbital Energies of the Core Orbitals:
 ======================================
 (Note that the atoms are grouped by atomtype, see the labels, and may hence NOT be in input order)

 AtomType  Orbital  Atom                   E (au)                        E (eV)
 --------  -------  ----           --------------------        ----------------
 N           1S        1          -0.13834645621273E+02                -376.460


[...]
    90  FOCKY   ................      0.02   39.04             0.00    1.62             0.02   20.72
    90  FOCKTR  ................      0.00    0.76             0.00    0.04             0.00    0.38
    90  FOCKNM  ................      0.00    0.06             0.00    0.00             0.00    0.03
    90  SDIIS   ................      0.00    0.61             0.00    0.12             0.00    0.45
    90  EMERGE  ................      0.01   10.37             0.00    1.08             0.01    5.69
     1  COREPS  ................      0.02    0.30             0.00    0.02             0.02    0.16
     9  TOTEN   ................      0.04    6.28             0.00    0.23             0.04    3.42
     9  POPAN   ................      0.00    0.21             0.00    0.00             0.00    0.10
     9  DEBYE   ................      0.00    0.15             0.00    0.00             0.00    0.07
     1  INPUTE  ................      0.00    0.00             0.00    0.00             0.00    0.01
     1  SYMORE  ................      0.00    0.02             0.00    0.00             0.00    0.01
     1  METS    ................      0.00    0.00             0.00    0.00             0.00    0.00
     1  CETS    ................      0.00    0.04             0.00    0.00             0.00    0.03
    10  ELNRGY  ................      0.04    8.24             0.00    0.44             0.05    4.43
     1  POPUL   ................      0.00    0.02             0.00    0.04             0.01    0.06
     9  ENGRAD  ................      0.00    0.08             0.00    0.00             0.00    0.03
     1  EXIT PROCEDURE .........      0.03    0.61             0.00    0.02             0.04    0.34


 Currently Open Files (EXIT00)
 ====================

 Unit    Access Format  Status   Type       Ident (file)
 -------------------------------------------------------
   3      SEQ    FORM   TRANSP  NORMAL      LOGFILE
                                          ( logfile )


 Buffered I/O statistics
 =======================
 Memory available:                     67108864
 Number of records fitting in memory:     16131
 Input :   1.0% of                        46363  *4k bytes
 Output:   8.6% of                        20481  *4k bytes
 Records from serial files evicted:           0
                    others evicted:           0
 Hash table lookups:     180510 with          0 conflicts (  0.00%)

 ***************************************************************************************************
 (LOGFILE)
 <Dec01-2015> <12:45:14>  ADF 2014  RunTime: Dec01-2015 12:45:14  Nodes: 1  Procs: 1
 <Dec01-2015> <12:45:14>  Hydrogen (TZP)
 <Dec01-2015> <12:45:14>  RunType   : CREATE
 <Dec01-2015> <12:45:14>  Net Charge: 0 (Nuclei minus Electrons)
 <Dec01-2015> <12:45:14>  Symmetry  : ATOM
  Coordinates
    Atom         X           Y           Z   (Angstrom)
    1.H         0.000000    0.000000    0.000000
 <Dec01-2015> <12:45:14>  >>>> CORORT
 <Dec01-2015> <12:45:14>  >>>> CLSMAT
 <Dec01-2015> <12:45:14>  >>>> ORTHON
 <Dec01-2015> <12:45:14>  >>>> GENPT
 <Dec01-2015> <12:45:14>  Block Length=  64
 <Dec01-2015> <12:45:14>  >>>> PTBAS
 <Dec01-2015> <12:45:14>  >>>> CYCLE
 <Dec01-2015> <12:45:14>    1
 <Dec01-2015> <12:45:14>    2  ErrMat   0.04599043  MaxEl -0.04581380
 <Dec01-2015> <12:45:14>    3  ErrMat   0.01042691  MaxEl  0.01001652
 <Dec01-2015> <12:45:14>    4  ErrMat   0.00029286  MaxEl  0.00021096
 <Dec01-2015> <12:45:14>    5  ErrMat   0.00000895  MaxEl  0.00000721
 <Dec01-2015> <12:45:14>    6  ErrMat   0.00000002  MaxEl -0.00000002
 <Dec01-2015> <12:45:14>    7  ErrMat   0.00000000  MaxEl  0.00000000
 <Dec01-2015> <12:45:14>  SCF converged
 <Dec01-2015> <12:45:14>    8  ErrMat   0.00000000  MaxEl  0.00000000
 <Dec01-2015> <12:45:14>   Solutions with partially occupied orbitals may not be
 <Dec01-2015> <12:45:14>   lowest in energy. You might consider lowering the
 <Dec01-2015> <12:45:14>   symmetry in the input and explicitly specifying integer
 <Dec01-2015> <12:45:14>   occupations. In that case always check that you obtain
 <Dec01-2015> <12:45:14>   an aufbau solution.
 <Dec01-2015> <12:45:14>  >>>> POPAN
 <Dec01-2015> <12:45:14>  >>>> DEBYE
 <Dec01-2015> <12:45:14>  NORMAL TERMINATION
 <Dec01-2015> <12:45:14>  END
 <Dec01-2015> <12:45:14>  ADF 2014  RunTime: Dec01-2015 12:45:14  Nodes: 1  Procs: 1
 <Dec01-2015> <12:45:14>  Nitrogen (TZP, 1s frozen)
 <Dec01-2015> <12:45:14>  RunType   : CREATE
 <Dec01-2015> <12:45:14>  Net Charge: 0 (Nuclei minus Electrons)
 <Dec01-2015> <12:45:14>  Symmetry  : ATOM
  Coordinates
    Atom         X           Y           Z   (Angstrom)
    1.N         0.000000    0.000000    0.000000
 <Dec01-2015> <12:45:14>  >>>> CORORT
 <Dec01-2015> <12:45:14>  >>>> CLSMAT
 <Dec01-2015> <12:45:14>  >>>> ORTHON
 <Dec01-2015> <12:45:14>  >>>> GENPT
 <Dec01-2015> <12:45:14>  Block Length=  68
 <Dec01-2015> <12:45:14>  >>>> PTBAS
 <Dec01-2015> <12:45:14>  >>>> CYCLE
 <Dec01-2015> <12:45:14>    1
 <Dec01-2015> <12:45:14>    2  ErrMat   2.74606693  MaxEl -1.79454153
 <Dec01-2015> <12:45:14>    3  ErrMat   1.57363192  MaxEl  1.18790691
 <Dec01-2015> <12:45:15>    4  ErrMat   1.10520876  MaxEl  0.81171226
 <Dec01-2015> <12:45:15>    5  ErrMat   0.68732520  MaxEl  0.50145022
 <Dec01-2015> <12:45:15>    6  ErrMat   0.01108521  MaxEl  0.00796013
 <Dec01-2015> <12:45:15>    7  ErrMat   0.00000963  MaxEl  0.00000603
 <Dec01-2015> <12:45:15>    8  ErrMat   0.00000218  MaxEl -0.00000149
 <Dec01-2015> <12:45:15>    9  ErrMat   0.00000002  MaxEl  0.00000001
 <Dec01-2015> <12:45:15>  SCF converged
 <Dec01-2015> <12:45:15>   10  ErrMat   0.00000000  MaxEl  0.00000000
 <Dec01-2015> <12:45:15>   Solutions with partially occupied orbitals may not be
 <Dec01-2015> <12:45:15>   lowest in energy. You might consider lowering the
 <Dec01-2015> <12:45:15>   symmetry in the input and explicitly specifying integer
 <Dec01-2015> <12:45:15>   occupations. In that case always check that you obtain
 <Dec01-2015> <12:45:15>   an aufbau solution.
 <Dec01-2015> <12:45:15>  >>>> POPAN
 <Dec01-2015> <12:45:15>  >>>> DEBYE
 <Dec01-2015> <12:45:15>  NORMAL TERMINATION
 <Dec01-2015> <12:45:15>  END
 <Dec01-2015> <12:45:15>  ADF 2014  RunTime: Dec01-2015 12:45:15  Nodes: 1  Procs: 8
 <Dec01-2015> <12:45:15>  NH3 frequencies in symmetric displacements
 <Dec01-2015> <12:45:15>  RunType   : FREQUENCIES
 <Dec01-2015> <12:45:15>  Net Charge: 0 (Nuclei minus Electrons)
 <Dec01-2015> <12:45:15>  Symmetry  : C(3V)
 <Dec01-2015> <12:45:15>  >>>> FRAGM
  Coordinates in Frequency Displacement 0
    Atom         X           Y           Z   (Angstrom)
    1.N         0.000000    0.000000    0.000000
    2.H         0.472858    0.819015    0.382100
    3.H        -0.945717    0.000000    0.382100
    4.H         0.472858   -0.819015    0.382100
 <Dec01-2015> <12:45:15>  >>>> CORORT
 <Dec01-2015> <12:45:15>  >>>> CLSMAT
 <Dec01-2015> <12:45:15>  >>>> ORTHON
 <Dec01-2015> <12:45:15>  >>>> GENPT
 <Dec01-2015> <12:45:20>  Block Length= 128
 <Dec01-2015> <12:45:20>  >>>> PTBAS
 <Dec01-2015> <12:45:20>  >>>> CYCLE
 <Dec01-2015> <12:45:20>    1
 <Dec01-2015> <12:45:20>    2  ErrMat   0.91937782  MaxEl -0.37404739
 <Dec01-2015> <12:45:20>    3  ErrMat   0.41275528  MaxEl -0.17004627
 <Dec01-2015> <12:45:20>    4  ErrMat   0.10901866  MaxEl  0.04487970
 <Dec01-2015> <12:45:20>    5  ErrMat   0.00293205  MaxEl -0.00164337
 <Dec01-2015> <12:45:20>    6  ErrMat   0.00049234  MaxEl  0.00027234
 <Dec01-2015> <12:45:20>    7  ErrMat   0.00006867  MaxEl  0.00003158
 <Dec01-2015> <12:45:20>    8  ErrMat   0.00000480  MaxEl -0.00000189
 <Dec01-2015> <12:45:20>    9  ErrMat   0.00000009  MaxEl  0.00000004
 <Dec01-2015> <12:45:20>  SCF converged
 <Dec01-2015> <12:45:20>   10  ErrMat   0.00000000  MaxEl  0.00000000
 <Dec01-2015> <12:45:20>  >>>> TOTEN
 <Dec01-2015> <12:45:20>  >>>> POPAN
 <Dec01-2015> <12:45:20>  >>>> DEBYE
 <Dec01-2015> <12:45:20>  >>>> AMETS
 <Dec01-2015> <12:45:20>  >>>> POPUL
 <Dec01-2015> <12:45:20>  >>>> ENGRAD
 <Dec01-2015> <12:45:21>  Symmetry  : C(3V)
 <Dec01-2015> <12:45:21>  >>>> FRAGM
 <Dec01-2015> <12:45:21>  Geometry symmetry displacement    1 out of    8
  Coordinates
    Atom         X           Y           Z   (Angstrom)
    1.N         0.000000    0.000000   -0.001237
    2.H         0.472858    0.819015    0.387829
    3.H        -0.945717    0.000000    0.387829
    4.H         0.472858   -0.819015    0.387829
 <Dec01-2015> <12:45:21>  >>>> CORORT
 <Dec01-2015> <12:45:21>  >>>> CLSMAT
 <Dec01-2015> <12:45:21>  >>>> ORTHON
 <Dec01-2015> <12:45:21>  >>>> GENPT
 <Dec01-2015> <12:45:21>  Block Length= 128
 <Dec01-2015> <12:45:21>  >>>> PTBAS
 <Dec01-2015> <12:45:21>  >>>> CYCLE
 <Dec01-2015> <12:45:21>    1
 <Dec01-2015> <12:45:21>    2  ErrMat   0.91588011  MaxEl -0.37293600
 <Dec01-2015> <12:45:21>    3  ErrMat   0.40972302  MaxEl -0.16891427
 <Dec01-2015> <12:45:21>    4  ErrMat   0.10860314  MaxEl  0.04471636
 <Dec01-2015> <12:45:21>    5  ErrMat   0.00298912  MaxEl -0.00166724
 <Dec01-2015> <12:45:21>    6  ErrMat   0.00048943  MaxEl  0.00026978
 <Dec01-2015> <12:45:21>    7  ErrMat   0.00006974  MaxEl  0.00003216
 <Dec01-2015> <12:45:21>    8  ErrMat   0.00000497  MaxEl -0.00000194
 <Dec01-2015> <12:45:21>    9  ErrMat   0.00000009  MaxEl  0.00000004
 <Dec01-2015> <12:45:21>  SCF converged
 <Dec01-2015> <12:45:21>   10  ErrMat   0.00000000  MaxEl  0.00000000
 <Dec01-2015> <12:45:21>  >>>> TOTEN
 <Dec01-2015> <12:45:21>  >>>> POPAN
 <Dec01-2015> <12:45:21>  >>>> DEBYE
 <Dec01-2015> <12:45:21>  >>>> ENGRAD
 <Dec01-2015> <12:45:21>  Geometry symmetry displacement    2 out of    8
  Coordinates
    Atom         X           Y           Z   (Angstrom)
    1.N         0.000000    0.000000    0.001237
    2.H         0.472858    0.819015    0.376371
    3.H        -0.945717    0.000000    0.376371
    4.H         0.472858   -0.819015    0.376371
 <Dec01-2015> <12:45:21>  >>>> CORORT
 <Dec01-2015> <12:45:21>  >>>> CLSMAT
 <Dec01-2015> <12:45:21>  >>>> ORTHON
 <Dec01-2015> <12:45:21>  >>>> GENPT
 <Dec01-2015> <12:45:21>  Block Length= 128
 <Dec01-2015> <12:45:21>  >>>> PTBAS
 <Dec01-2015> <12:45:21>  >>>> CYCLE
 <Dec01-2015> <12:45:21>    1
 <Dec01-2015> <12:45:21>    2  ErrMat   0.92284877  MaxEl -0.37515324
 <Dec01-2015> <12:45:21>    3  ErrMat   0.41575205  MaxEl -0.17116498
 <Dec01-2015> <12:45:21>    4  ErrMat   0.10943550  MaxEl  0.04504422
 <Dec01-2015> <12:45:21>    5  ErrMat   0.00287491  MaxEl -0.00161899
 <Dec01-2015> <12:45:21>    6  ErrMat   0.00049537  MaxEl  0.00027497
 <Dec01-2015> <12:45:21>    7  ErrMat   0.00006766  MaxEl  0.00003103
 <Dec01-2015> <12:45:22>    8  ErrMat   0.00000464  MaxEl -0.00000183
 <Dec01-2015> <12:45:22>    9  ErrMat   0.00000009  MaxEl  0.00000004
 <Dec01-2015> <12:45:22>  SCF converged
 <Dec01-2015> <12:45:22>   10  ErrMat   0.00000000  MaxEl  0.00000000
 <Dec01-2015> <12:45:22>  >>>> TOTEN
 <Dec01-2015> <12:45:22>  >>>> POPAN
 <Dec01-2015> <12:45:22>  >>>> DEBYE
 <Dec01-2015> <12:45:22>  >>>> ENGRAD
 <Dec01-2015> <12:45:22>  Geometry symmetry displacement    3 out of    8
  Coordinates
    Atom         X           Y           Z   (Angstrom)
    1.N         0.000000    0.000000    0.000000
    2.H         0.469972    0.814015    0.382100
    3.H        -0.939943    0.000000    0.382100
    4.H         0.469972   -0.814015    0.382100
 <Dec01-2015> <12:45:22>  >>>> CORORT
 <Dec01-2015> <12:45:22>  >>>> CLSMAT
 <Dec01-2015> <12:45:22>  >>>> ORTHON
 <Dec01-2015> <12:45:22>  >>>> GENPT
 <Dec01-2015> <12:45:22>  Block Length= 128
 <Dec01-2015> <12:45:22>  >>>> PTBAS
 <Dec01-2015> <12:45:22>  >>>> CYCLE
 <Dec01-2015> <12:45:22>    1
 <Dec01-2015> <12:45:22>    2  ErrMat   0.92501190  MaxEl -0.37537019
 <Dec01-2015> <12:45:22>    3  ErrMat   0.41796374  MaxEl -0.17164890
 <Dec01-2015> <12:45:22>    4  ErrMat   0.10970402  MaxEl  0.04495924
 <Dec01-2015> <12:45:22>    5  ErrMat   0.00307901  MaxEl -0.00172079
 <Dec01-2015> <12:45:22>    6  ErrMat   0.00048440  MaxEl  0.00026658
 <Dec01-2015> <12:45:22>    7  ErrMat   0.00006733  MaxEl  0.00003086
 <Dec01-2015> <12:45:22>    8  ErrMat   0.00000459  MaxEl -0.00000181
 <Dec01-2015> <12:45:22>    9  ErrMat   0.00000009  MaxEl  0.00000004
 <Dec01-2015> <12:45:22>  SCF converged
 <Dec01-2015> <12:45:22>   10  ErrMat   0.00000000  MaxEl  0.00000000
 <Dec01-2015> <12:45:22>  >>>> TOTEN
 <Dec01-2015> <12:45:22>  >>>> POPAN
 <Dec01-2015> <12:45:22>  >>>> DEBYE
 <Dec01-2015> <12:45:22>  >>>> ENGRAD
 <Dec01-2015> <12:45:22>  Geometry symmetry displacement    4 out of    8
  Coordinates
    Atom         X           Y           Z   (Angstrom)
    1.N         0.000000    0.000000    0.000000
    2.H         0.475745    0.824015    0.382100
    3.H        -0.951490    0.000000    0.382100
    4.H         0.475745   -0.824015    0.382100
 <Dec01-2015> <12:45:22>  >>>> CORORT
 <Dec01-2015> <12:45:22>  >>>> CLSMAT
 <Dec01-2015> <12:45:22>  >>>> ORTHON
 <Dec01-2015> <12:45:22>  >>>> GENPT
 <Dec01-2015> <12:45:22>  Block Length= 128
 <Dec01-2015> <12:45:22>  >>>> PTBAS
 <Dec01-2015> <12:45:22>  >>>> CYCLE
 <Dec01-2015> <12:45:22>    1
 <Dec01-2015> <12:45:23>    2  ErrMat   0.91384515  MaxEl -0.37274392
 <Dec01-2015> <12:45:23>    3  ErrMat   0.40761030  MaxEl -0.16845321
 <Dec01-2015> <12:45:23>    4  ErrMat   0.10835756  MaxEl  0.04480437
 <Dec01-2015> <12:45:23>    5  ErrMat   0.00278431  MaxEl -0.00156464
 <Dec01-2015> <12:45:23>    6  ErrMat   0.00050034  MaxEl  0.00027782
 <Dec01-2015> <12:45:23>    7  ErrMat   0.00007004  MaxEl  0.00003231
 <Dec01-2015> <12:45:23>    8  ErrMat   0.00000500  MaxEl -0.00000196
 <Dec01-2015> <12:45:23>    9  ErrMat   0.00000009  MaxEl  0.00000004
 <Dec01-2015> <12:45:23>  SCF converged
 <Dec01-2015> <12:45:23>   10  ErrMat   0.00000000  MaxEl  0.00000000
 <Dec01-2015> <12:45:23>  >>>> TOTEN
 <Dec01-2015> <12:45:23>  >>>> POPAN
 <Dec01-2015> <12:45:23>  >>>> DEBYE
 <Dec01-2015> <12:45:23>  >>>> ENGRAD
 <Dec01-2015> <12:45:23>  Symmetry  : C(S)
 <Dec01-2015> <12:45:23>  >>>> FRAGM
 <Dec01-2015> <12:45:23>  Geometry symmetry displacement    5 out of    8
  Coordinates
    Atom         X           Y           Z   (Angstrom)
    1.N        -0.001076    0.000000    0.000000
    2.H         0.477842    0.384114   -0.819015
    3.H        -0.940733    0.378073    0.000000
    4.H         0.477842    0.384114    0.819015
 <Dec01-2015> <12:45:23>  >>>> CORORT
 <Dec01-2015> <12:45:23>  >>>> CLSMAT
 <Dec01-2015> <12:45:23>  >>>> ORTHON
 <Dec01-2015> <12:45:23>  >>>> GENPT
 <Dec01-2015> <12:45:23>  Block Length= 128
 <Dec01-2015> <12:45:23>  >>>> PTBAS
 <Dec01-2015> <12:45:23>  >>>> CYCLE
 <Dec01-2015> <12:45:23>    1
 <Dec01-2015> <12:45:23>    2  ErrMat   0.91949300  MaxEl  0.37477111
 <Dec01-2015> <12:45:23>    3  ErrMat   0.41279476  MaxEl  0.17037494
 <Dec01-2015> <12:45:23>    4  ErrMat   0.10903779  MaxEl -0.04497174
 <Dec01-2015> <12:45:23>    5  ErrMat   0.00293256  MaxEl  0.00142358
 <Dec01-2015> <12:45:23>    6  ErrMat   0.00049272  MaxEl -0.00023580
 <Dec01-2015> <12:45:23>    7  ErrMat   0.00006890  MaxEl -0.00003276
 <Dec01-2015> <12:45:23>    8  ErrMat   0.00000517  MaxEl -0.00000192
 <Dec01-2015> <12:45:23>    9  ErrMat   0.00000097  MaxEl -0.00000040
 <Dec01-2015> <12:45:23>  SCF converged
 <Dec01-2015> <12:45:23>   10  ErrMat   0.00000005  MaxEl  0.00000002
 <Dec01-2015> <12:45:23>  >>>> TOTEN
 <Dec01-2015> <12:45:23>  >>>> POPAN
 <Dec01-2015> <12:45:23>  >>>> DEBYE
 <Dec01-2015> <12:45:23>  >>>> ENGRAD
 <Dec01-2015> <12:45:24>  Geometry symmetry displacement    6 out of    8
  Coordinates
    Atom         X           Y           Z   (Angstrom)
    1.N         0.001076    0.000000    0.000000
    2.H         0.467874    0.380086   -0.819015
    3.H        -0.950700    0.386127    0.000000
    4.H         0.467874    0.380086    0.819015
 <Dec01-2015> <12:45:24>  >>>> CORORT
 <Dec01-2015> <12:45:24>  >>>> CLSMAT
 <Dec01-2015> <12:45:24>  >>>> ORTHON
 <Dec01-2015> <12:45:24>  >>>> GENPT
 <Dec01-2015> <12:45:24>  Block Length= 128
 <Dec01-2015> <12:45:24>  >>>> PTBAS
 <Dec01-2015> <12:45:24>  >>>> CYCLE
 <Dec01-2015> <12:45:24>    1
 <Dec01-2015> <12:45:24>    2  ErrMat   0.91941887  MaxEl  0.37341377
 <Dec01-2015> <12:45:24>    3  ErrMat   0.41274895  MaxEl  0.16975787
 <Dec01-2015> <12:45:24>    4  ErrMat   0.10903324  MaxEl -0.04483144
 <Dec01-2015> <12:45:24>    5  ErrMat   0.00293369  MaxEl  0.00142437
 <Dec01-2015> <12:45:24>    6  ErrMat   0.00049297  MaxEl -0.00023624
 <Dec01-2015> <12:45:24>    7  ErrMat   0.00006911  MaxEl -0.00002965
 <Dec01-2015> <12:45:24>    8  ErrMat   0.00000629  MaxEl -0.00000264
 <Dec01-2015> <12:45:24>    9  ErrMat   0.00000173  MaxEl  0.00000073
 <Dec01-2015> <12:45:24>  SCF converged
 <Dec01-2015> <12:45:24>   10  ErrMat   0.00000004  MaxEl -0.00000002
 <Dec01-2015> <12:45:24>  >>>> TOTEN
 <Dec01-2015> <12:45:24>  >>>> POPAN
 <Dec01-2015> <12:45:24>  >>>> DEBYE
 <Dec01-2015> <12:45:24>  >>>> ENGRAD
 <Dec01-2015> <12:45:24>  Geometry symmetry displacement    7 out of    8
  Coordinates
    Atom         X           Y           Z   (Angstrom)
    1.N         0.000000    0.000000    0.000000
    2.H         0.469972    0.382100   -0.824015
    3.H        -0.939943    0.382100    0.000000
    4.H         0.469972    0.382100    0.824015
 <Dec01-2015> <12:45:24>  >>>> CORORT
 <Dec01-2015> <12:45:24>  >>>> CLSMAT
 <Dec01-2015> <12:45:24>  >>>> ORTHON
 <Dec01-2015> <12:45:24>  >>>> GENPT
 <Dec01-2015> <12:45:24>  Block Length= 128
 <Dec01-2015> <12:45:24>  >>>> PTBAS
 <Dec01-2015> <12:45:24>  >>>> CYCLE
 <Dec01-2015> <12:45:24>    1
 <Dec01-2015> <12:45:24>    2  ErrMat   0.91938825  MaxEl  0.37545274
 <Dec01-2015> <12:45:24>    3  ErrMat   0.41275251  MaxEl  0.17084524
 <Dec01-2015> <12:45:24>    4  ErrMat   0.10903395  MaxEl -0.04524003
 <Dec01-2015> <12:45:24>    5  ErrMat   0.00295009  MaxEl  0.00142853
 <Dec01-2015> <12:45:24>    6  ErrMat   0.00049732  MaxEl -0.00023490
 <Dec01-2015> <12:45:24>    7  ErrMat   0.00007231  MaxEl -0.00003076
 <Dec01-2015> <12:45:24>    8  ErrMat   0.00001431  MaxEl -0.00000673
 <Dec01-2015> <12:45:25>    9  ErrMat   0.00000178  MaxEl  0.00000064
 <Dec01-2015> <12:45:25>  SCF converged
 <Dec01-2015> <12:45:25>   10  ErrMat   0.00000004  MaxEl -0.00000002
 <Dec01-2015> <12:45:25>  >>>> TOTEN
 <Dec01-2015> <12:45:25>  >>>> POPAN
 <Dec01-2015> <12:45:25>  >>>> DEBYE
 <Dec01-2015> <12:45:25>  >>>> ENGRAD
 <Dec01-2015> <12:45:25>  Geometry symmetry displacement    8 out of    8
  Coordinates
    Atom         X           Y           Z   (Angstrom)
    1.N         0.000000    0.000000    0.000000
    2.H         0.475745    0.382100   -0.814015
    3.H        -0.951490    0.382100    0.000000
    4.H         0.475745    0.382100    0.814015
 <Dec01-2015> <12:45:25>  >>>> CORORT
 <Dec01-2015> <12:45:25>  >>>> CLSMAT
 <Dec01-2015> <12:45:25>  >>>> ORTHON
 <Dec01-2015> <12:45:25>  >>>> GENPT
 <Dec01-2015> <12:45:25>  Block Length= 128
 <Dec01-2015> <12:45:25>  >>>> PTBAS
 <Dec01-2015> <12:45:25>  >>>> CYCLE
 <Dec01-2015> <12:45:25>    1
 <Dec01-2015> <12:45:25>    2  ErrMat   0.91943784  MaxEl  0.37267530
 <Dec01-2015> <12:45:25>    3  ErrMat   0.41278181  MaxEl  0.16926730
 <Dec01-2015> <12:45:25>    4  ErrMat   0.10903898  MaxEl -0.04455122
 <Dec01-2015> <12:45:25>    5  ErrMat   0.00294658  MaxEl  0.00141966
 <Dec01-2015> <12:45:25>    6  ErrMat   0.00049648  MaxEl -0.00023279
 <Dec01-2015> <12:45:25>    7  ErrMat   0.00007178  MaxEl -0.00003667
 <Dec01-2015> <12:45:25>    8  ErrMat   0.00001363  MaxEl -0.00000553
 <Dec01-2015> <12:45:25>    9  ErrMat   0.00000185  MaxEl -0.00000067
 <Dec01-2015> <12:45:25>  SCF converged
 <Dec01-2015> <12:45:25>   10  ErrMat   0.00000004  MaxEl -0.00000002
 <Dec01-2015> <12:45:25>  >>>> TOTEN
 <Dec01-2015> <12:45:25>  >>>> POPAN
 <Dec01-2015> <12:45:25>  >>>> DEBYE
 <Dec01-2015> <12:45:25>  >>>> ENGRAD
 <Dec01-2015> <12:45:25>  NORMAL TERMINATION
 <Dec01-2015> <12:45:25>  END
