<?xml version="1.0" encoding="ISO-8859-1"?>
<modeling>
 <generator>
  <i name="program" type="string">vasp </i>
  <i name="version" type="string">5.2.2  </i>
  <i name="subversion" type="string">15Apr09 complex  parallel </i>
  <i name="platform" type="string">unknown </i>
  <i name="date" type="string">2012 01 31 </i>
  <i name="time" type="string">16:08:35 </i>
 </generator>
 <incar>
  <i type="string" name="SYSTEM"> Al</i>
  <i type="int" name="ISTART">     1</i>
  <i type="string" name="PREC">accurate</i>
  <i type="logical" name="ADDGRID"> F  </i>
  <i type="int" name="ISPIN">     1</i>
  <i type="int" name="ICHARG">     1</i>
  <i type="int" name="IBRION">     2</i>
  <i name="EDIFF">      0.00000010</i>
  <i name="EDIFFG">      0.00000010</i>
  <i type="int" name="NSW">     5</i>
  <i type="int" name="ISIF">     2</i>
  <i name="ENCUT">    550.00000000</i>
  <i name="POTIM">      0.10000000</i>
  <i type="string" name="LREAL"> AUTO</i>
  <i type="int" name="ISMEAR">     2</i>
  <i name="SIGMA">      0.10000000</i>
  <i type="logical" name="LWAVE"> F  </i>
  <i type="logical" name="LPEAD"> F  </i>
  <i type="logical" name="LCALCPOL"> F  </i>
  <i type="logical" name="LCALCEPS"> F  </i>
  <v name="EFIELD_PEAD">      0.00000000      0.00000000      0.00000000</v>
  <i type="int" name="VOSKOWN">     1</i>
  <i type="logical" name="LEFG"> F  </i>
 </incar>
 <kpoints>
  <generation param="Gamma">
   <v type="int" name="divisions">      20       20       20 </v>
   <v name="usershift">      0.00000000       0.00000000       0.00000000 </v>
   <v name="genvec1">      0.05000000       0.00000000       0.00000000 </v>
   <v name="genvec2">      0.00000000       0.05000000       0.00000000 </v>
   <v name="genvec3">      0.00000000       0.00000000       0.05000000 </v>
   <v name="shift">      0.00000000       0.00000000       0.00000000 </v>
  </generation>
  <varray name="kpointlist" >
   <v>       0.00000000       0.00000000       0.00000000 </v>
   <v>       0.05000000       0.00000000       0.00000000 </v>
   <v>       0.10000000       0.00000000       0.00000000 </v>
   <v>       0.15000000       0.00000000       0.00000000 </v>
   <v>       0.20000000       0.00000000       0.00000000 </v>
   <v>       0.25000000       0.00000000       0.00000000 </v>
   <v>       0.30000000       0.00000000       0.00000000 </v>
   <v>       0.35000000       0.00000000       0.00000000 </v>
   <v>       0.40000000       0.00000000       0.00000000 </v>
   <v>       0.45000000       0.00000000       0.00000000 </v>
   <v>       0.50000000       0.00000000       0.00000000 </v>
   <v>       0.00000000       0.05000000       0.00000000 </v>
   <v>       0.05000000       0.05000000       0.00000000 </v>
   <v>       0.10000000       0.05000000       0.00000000 </v>
   <v>       0.15000000       0.05000000       0.00000000 </v>
   <v>       0.20000000       0.05000000       0.00000000 </v>
   <v>       0.25000000       0.05000000       0.00000000 </v>
   <v>       0.30000000       0.05000000       0.00000000 </v>
   <v>       0.35000000       0.05000000       0.00000000 </v>
   <v>       0.40000000       0.05000000       0.00000000 </v>
   <v>       0.45000000       0.05000000       0.00000000 </v>
   <v>       0.50000000       0.05000000       0.00000000 </v>
   <v>       0.00000000       0.10000000       0.00000000 </v>
   <v>       0.05000000       0.10000000       0.00000000 </v>
   <v>       0.10000000       0.10000000       0.00000000 </v>
   <v>       0.15000000       0.10000000       0.00000000 </v>
   <v>       0.20000000       0.10000000       0.00000000 </v>
   <v>       0.25000000       0.10000000       0.00000000 </v>
   <v>       0.30000000       0.10000000       0.00000000 </v>
   <v>       0.35000000       0.10000000       0.00000000 </v>
   <v>       0.40000000       0.10000000       0.00000000 </v>
   <v>       0.45000000       0.10000000       0.00000000 </v>
   <v>       0.50000000       0.10000000       0.00000000 </v>
   <v>       0.00000000       0.15000000       0.00000000 </v>
   <v>       0.05000000       0.15000000       0.00000000 </v>
   <v>       0.10000000       0.15000000       0.00000000 </v>
   <v>       0.15000000       0.15000000       0.00000000 </v>
   <v>       0.20000000       0.15000000       0.00000000 </v>
   <v>       0.25000000       0.15000000       0.00000000 </v>
   <v>       0.30000000       0.15000000       0.00000000 </v>
   <v>       0.35000000       0.15000000       0.00000000 </v>
   <v>       0.40000000       0.15000000       0.00000000 </v>
   <v>       0.45000000       0.15000000       0.00000000 </v>
   <v>       0.50000000       0.15000000       0.00000000 </v>
   <v>       0.00000000       0.20000000       0.00000000 </v>
   <v>       0.05000000       0.20000000       0.00000000 </v>
   <v>       0.10000000       0.20000000       0.00000000 </v>
   <v>       0.15000000       0.20000000       0.00000000 </v>
   <v>       0.20000000       0.20000000       0.00000000 </v>
   <v>       0.25000000       0.20000000       0.00000000 </v>
   <v>       0.30000000       0.20000000       0.00000000 </v>
   <v>       0.35000000       0.20000000       0.00000000 </v>
   <v>       0.40000000       0.20000000       0.00000000 </v>
   <v>       0.45000000       0.20000000       0.00000000 </v>
   <v>       0.50000000       0.20000000       0.00000000 </v>
   <v>       0.00000000       0.25000000       0.00000000 </v>
   <v>       0.05000000       0.25000000       0.00000000 </v>
   <v>       0.10000000       0.25000000       0.00000000 </v>
   <v>       0.15000000       0.25000000       0.00000000 </v>
   <v>       0.20000000       0.25000000       0.00000000 </v>
   <v>       0.25000000       0.25000000       0.00000000 </v>
   <v>       0.30000000       0.25000000       0.00000000 </v>
   <v>       0.35000000       0.25000000       0.00000000 </v>
   <v>       0.40000000       0.25000000       0.00000000 </v>
   <v>       0.45000000       0.25000000       0.00000000 </v>
   <v>       0.50000000       0.25000000       0.00000000 </v>
   <v>       0.00000000       0.30000000       0.00000000 </v>
   <v>       0.05000000       0.30000000       0.00000000 </v>
   <v>       0.10000000       0.30000000       0.00000000 </v>
   <v>       0.15000000       0.30000000       0.00000000 </v>
   <v>       0.20000000       0.30000000       0.00000000 </v>
   <v>       0.25000000       0.30000000       0.00000000 </v>
   <v>       0.30000000       0.30000000       0.00000000 </v>
   <v>       0.35000000       0.30000000       0.00000000 </v>
   <v>       0.40000000       0.30000000       0.00000000 </v>
   <v>       0.45000000       0.30000000       0.00000000 </v>
   <v>       0.50000000       0.30000000       0.00000000 </v>
   <v>       0.00000000       0.35000000       0.00000000 </v>
   <v>       0.05000000       0.35000000       0.00000000 </v>
   <v>       0.10000000       0.35000000       0.00000000 </v>
   <v>       0.15000000       0.35000000       0.00000000 </v>
   <v>       0.20000000       0.35000000       0.00000000 </v>
   <v>       0.25000000       0.35000000       0.00000000 </v>
   <v>       0.30000000       0.35000000       0.00000000 </v>
   <v>       0.35000000       0.35000000       0.00000000 </v>
   <v>       0.40000000       0.35000000       0.00000000 </v>
   <v>       0.45000000       0.35000000       0.00000000 </v>
   <v>       0.50000000       0.35000000       0.00000000 </v>
   <v>       0.00000000       0.40000000       0.00000000 </v>
   <v>       0.05000000       0.40000000       0.00000000 </v>
   <v>       0.10000000       0.40000000       0.00000000 </v>
   <v>       0.15000000       0.40000000       0.00000000 </v>
   <v>       0.20000000       0.40000000       0.00000000 </v>
   <v>       0.25000000       0.40000000       0.00000000 </v>
   <v>       0.30000000       0.40000000       0.00000000 </v>
   <v>       0.35000000       0.40000000       0.00000000 </v>
   <v>       0.40000000       0.40000000       0.00000000 </v>
   <v>       0.45000000       0.40000000       0.00000000 </v>
   <v>       0.50000000       0.40000000       0.00000000 </v>
   <v>       0.00000000       0.45000000       0.00000000 </v>
   <v>       0.05000000       0.45000000       0.00000000 </v>
   <v>       0.10000000       0.45000000       0.00000000 </v>
   <v>       0.15000000       0.45000000       0.00000000 </v>
   <v>       0.20000000       0.45000000       0.00000000 </v>
   <v>       0.25000000       0.45000000       0.00000000 </v>
   <v>       0.30000000       0.45000000       0.00000000 </v>
   <v>       0.35000000       0.45000000       0.00000000 </v>
   <v>       0.40000000       0.45000000       0.00000000 </v>
   <v>       0.45000000       0.45000000       0.00000000 </v>
   <v>       0.50000000       0.45000000       0.00000000 </v>
   <v>       0.00000000       0.50000000       0.00000000 </v>
   <v>       0.05000000       0.50000000       0.00000000 </v>
   <v>       0.10000000       0.50000000       0.00000000 </v>
   <v>       0.15000000       0.50000000       0.00000000 </v>
   <v>       0.20000000       0.50000000       0.00000000 </v>
   <v>       0.25000000       0.50000000       0.00000000 </v>
   <v>       0.30000000       0.50000000       0.00000000 </v>
   <v>       0.35000000       0.50000000       0.00000000 </v>
   <v>       0.40000000       0.50000000       0.00000000 </v>
   <v>       0.45000000       0.50000000       0.00000000 </v>
   <v>       0.50000000       0.50000000       0.00000000 </v>
   <v>       0.00000000       0.00000000       0.05000000 </v>
   <v>       0.05000000       0.00000000       0.05000000 </v>
   <v>       0.10000000       0.00000000       0.05000000 </v>
   <v>       0.15000000       0.00000000       0.05000000 </v>
   <v>       0.20000000       0.00000000       0.05000000 </v>
   <v>       0.25000000       0.00000000       0.05000000 </v>
   <v>       0.30000000       0.00000000       0.05000000 </v>
   <v>       0.35000000       0.00000000       0.05000000 </v>
   <v>       0.40000000       0.00000000       0.05000000 </v>
   <v>       0.45000000       0.00000000       0.05000000 </v>
   <v>       0.50000000       0.00000000       0.05000000 </v>
   <v>       0.00000000       0.05000000       0.05000000 </v>
   <v>       0.05000000       0.05000000       0.05000000 </v>
   <v>       0.10000000       0.05000000       0.05000000 </v>
   <v>       0.15000000       0.05000000       0.05000000 </v>
   <v>       0.20000000       0.05000000       0.05000000 </v>
   <v>       0.25000000       0.05000000       0.05000000 </v>
   <v>       0.30000000       0.05000000       0.05000000 </v>
   <v>       0.35000000       0.05000000       0.05000000 </v>
   <v>       0.40000000       0.05000000       0.05000000 </v>
   <v>       0.45000000       0.05000000       0.05000000 </v>
   <v>       0.50000000       0.05000000       0.05000000 </v>
   <v>       0.00000000       0.10000000       0.05000000 </v>
   <v>       0.05000000       0.10000000       0.05000000 </v>
   <v>       0.10000000       0.10000000       0.05000000 </v>
   <v>       0.15000000       0.10000000       0.05000000 </v>
   <v>       0.20000000       0.10000000       0.05000000 </v>
   <v>       0.25000000       0.10000000       0.05000000 </v>
   <v>       0.30000000       0.10000000       0.05000000 </v>
   <v>       0.35000000       0.10000000       0.05000000 </v>
   <v>       0.40000000       0.10000000       0.05000000 </v>
   <v>       0.45000000       0.10000000       0.05000000 </v>
   <v>       0.50000000       0.10000000       0.05000000 </v>
   <v>       0.00000000       0.15000000       0.05000000 </v>
   <v>       0.05000000       0.15000000       0.05000000 </v>
   <v>       0.10000000       0.15000000       0.05000000 </v>
   <v>       0.15000000       0.15000000       0.05000000 </v>
   <v>       0.20000000       0.15000000       0.05000000 </v>
   <v>       0.25000000       0.15000000       0.05000000 </v>
   <v>       0.30000000       0.15000000       0.05000000 </v>
   <v>       0.35000000       0.15000000       0.05000000 </v>
   <v>       0.40000000       0.15000000       0.05000000 </v>
   <v>       0.45000000       0.15000000       0.05000000 </v>
   <v>       0.50000000       0.15000000       0.05000000 </v>
   <v>       0.00000000       0.20000000       0.05000000 </v>
   <v>       0.05000000       0.20000000       0.05000000 </v>
   <v>       0.10000000       0.20000000       0.05000000 </v>
   <v>       0.15000000       0.20000000       0.05000000 </v>
   <v>       0.20000000       0.20000000       0.05000000 </v>
   <v>       0.25000000       0.20000000       0.05000000 </v>
   <v>       0.30000000       0.20000000       0.05000000 </v>
   <v>       0.35000000       0.20000000       0.05000000 </v>
   <v>       0.40000000       0.20000000       0.05000000 </v>
   <v>       0.45000000       0.20000000       0.05000000 </v>
   <v>       0.50000000       0.20000000       0.05000000 </v>
   <v>       0.00000000       0.25000000       0.05000000 </v>
   <v>       0.05000000       0.25000000       0.05000000 </v>
   <v>       0.10000000       0.25000000       0.05000000 </v>
   <v>       0.15000000       0.25000000       0.05000000 </v>
   <v>       0.20000000       0.25000000       0.05000000 </v>
   <v>       0.25000000       0.25000000       0.05000000 </v>
   <v>       0.30000000       0.25000000       0.05000000 </v>
   <v>       0.35000000       0.25000000       0.05000000 </v>
   <v>       0.40000000       0.25000000       0.05000000 </v>
   <v>       0.45000000       0.25000000       0.05000000 </v>
   <v>       0.50000000       0.25000000       0.05000000 </v>
   <v>       0.00000000       0.30000000       0.05000000 </v>
   <v>       0.05000000       0.30000000       0.05000000 </v>
   <v>       0.10000000       0.30000000       0.05000000 </v>
   <v>       0.15000000       0.30000000       0.05000000 </v>
   <v>       0.20000000       0.30000000       0.05000000 </v>
   <v>       0.25000000       0.30000000       0.05000000 </v>
   <v>       0.30000000       0.30000000       0.05000000 </v>
   <v>       0.35000000       0.30000000       0.05000000 </v>
   <v>       0.40000000       0.30000000       0.05000000 </v>
   <v>       0.45000000       0.30000000       0.05000000 </v>
   <v>       0.50000000       0.30000000       0.05000000 </v>
   <v>       0.00000000       0.35000000       0.05000000 </v>
   <v>       0.05000000       0.35000000       0.05000000 </v>
   <v>       0.10000000       0.35000000       0.05000000 </v>
   <v>       0.15000000       0.35000000       0.05000000 </v>
   <v>       0.20000000       0.35000000       0.05000000 </v>
   <v>       0.25000000       0.35000000       0.05000000 </v>
   <v>       0.30000000       0.35000000       0.05000000 </v>
   <v>       0.35000000       0.35000000       0.05000000 </v>
   <v>       0.40000000       0.35000000       0.05000000 </v>
   <v>       0.45000000       0.35000000       0.05000000 </v>
   <v>       0.50000000       0.35000000       0.05000000 </v>
   <v>       0.00000000       0.40000000       0.05000000 </v>
   <v>       0.05000000       0.40000000       0.05000000 </v>
   <v>       0.10000000       0.40000000       0.05000000 </v>
   <v>       0.15000000       0.40000000       0.05000000 </v>
   <v>       0.20000000       0.40000000       0.05000000 </v>
   <v>       0.25000000       0.40000000       0.05000000 </v>
   <v>       0.30000000       0.40000000       0.05000000 </v>
   <v>       0.35000000       0.40000000       0.05000000 </v>
   <v>       0.40000000       0.40000000       0.05000000 </v>
   <v>       0.45000000       0.40000000       0.05000000 </v>
   <v>       0.50000000       0.40000000       0.05000000 </v>
   <v>       0.00000000       0.45000000       0.05000000 </v>
   <v>       0.05000000       0.45000000       0.05000000 </v>
   <v>       0.10000000       0.45000000       0.05000000 </v>
   <v>       0.15000000       0.45000000       0.05000000 </v>
   <v>       0.20000000       0.45000000       0.05000000 </v>
   <v>       0.25000000       0.45000000       0.05000000 </v>
   <v>       0.30000000       0.45000000       0.05000000 </v>
   <v>       0.35000000       0.45000000       0.05000000 </v>
   <v>       0.40000000       0.45000000       0.05000000 </v>
   <v>       0.45000000       0.45000000       0.05000000 </v>
   <v>       0.50000000       0.45000000       0.05000000 </v>
   <v>       0.00000000       0.50000000       0.05000000 </v>
   <v>       0.05000000       0.50000000       0.05000000 </v>
   <v>       0.10000000       0.50000000       0.05000000 </v>
   <v>       0.15000000       0.50000000       0.05000000 </v>
   <v>       0.20000000       0.50000000       0.05000000 </v>
   <v>       0.25000000       0.50000000       0.05000000 </v>
   <v>       0.30000000       0.50000000       0.05000000 </v>
   <v>       0.35000000       0.50000000       0.05000000 </v>
   <v>       0.40000000       0.50000000       0.05000000 </v>
   <v>       0.45000000       0.50000000       0.05000000 </v>
   <v>       0.50000000       0.50000000       0.05000000 </v>
   <v>       0.00000000      -0.45000000       0.05000000 </v>
   <v>       0.05000000      -0.45000000       0.05000000 </v>
   <v>       0.10000000      -0.45000000       0.05000000 </v>
   <v>       0.15000000      -0.45000000       0.05000000 </v>
   <v>       0.20000000      -0.45000000       0.05000000 </v>
   <v>       0.25000000      -0.45000000       0.05000000 </v>
   <v>       0.30000000      -0.45000000       0.05000000 </v>
   <v>       0.35000000      -0.45000000       0.05000000 </v>
   <v>       0.40000000      -0.45000000       0.05000000 </v>
   <v>       0.45000000      -0.45000000       0.05000000 </v>
   <v>       0.50000000      -0.45000000       0.05000000 </v>
   <v>       0.00000000      -0.40000000       0.05000000 </v>
   <v>       0.05000000      -0.40000000       0.05000000 </v>
   <v>       0.10000000      -0.40000000       0.05000000 </v>
   <v>       0.15000000      -0.40000000       0.05000000 </v>
   <v>       0.20000000      -0.40000000       0.05000000 </v>
   <v>       0.25000000      -0.40000000       0.05000000 </v>
   <v>       0.30000000      -0.40000000       0.05000000 </v>
   <v>       0.35000000      -0.40000000       0.05000000 </v>
   <v>       0.40000000      -0.40000000       0.05000000 </v>
   <v>       0.45000000      -0.40000000       0.05000000 </v>
   <v>       0.50000000      -0.40000000       0.05000000 </v>
   <v>       0.00000000      -0.35000000       0.05000000 </v>
   <v>       0.05000000      -0.35000000       0.05000000 </v>
   <v>       0.10000000      -0.35000000       0.05000000 </v>
   <v>       0.15000000      -0.35000000       0.05000000 </v>
   <v>       0.20000000      -0.35000000       0.05000000 </v>
   <v>       0.25000000      -0.35000000       0.05000000 </v>
   <v>       0.30000000      -0.35000000       0.05000000 </v>
   <v>       0.35000000      -0.35000000       0.05000000 </v>
   <v>       0.40000000      -0.35000000       0.05000000 </v>
   <v>       0.45000000      -0.35000000       0.05000000 </v>
   <v>       0.50000000      -0.35000000       0.05000000 </v>
   <v>       0.00000000      -0.30000000       0.05000000 </v>
   <v>       0.05000000      -0.30000000       0.05000000 </v>
   <v>       0.10000000      -0.30000000       0.05000000 </v>
   <v>       0.15000000      -0.30000000       0.05000000 </v>
   <v>       0.20000000      -0.30000000       0.05000000 </v>
   <v>       0.25000000      -0.30000000       0.05000000 </v>
   <v>       0.30000000      -0.30000000       0.05000000 </v>
   <v>       0.35000000      -0.30000000       0.05000000 </v>
   <v>       0.40000000      -0.30000000       0.05000000 </v>
   <v>       0.45000000      -0.30000000       0.05000000 </v>
   <v>       0.50000000      -0.30000000       0.05000000 </v>
   <v>       0.00000000      -0.25000000       0.05000000 </v>
   <v>       0.05000000      -0.25000000       0.05000000 </v>
   <v>       0.10000000      -0.25000000       0.05000000 </v>
   <v>       0.15000000      -0.25000000       0.05000000 </v>
   <v>       0.20000000      -0.25000000       0.05000000 </v>
   <v>       0.25000000      -0.25000000       0.05000000 </v>
   <v>       0.30000000      -0.25000000       0.05000000 </v>
   <v>       0.35000000      -0.25000000       0.05000000 </v>
   <v>       0.40000000      -0.25000000       0.05000000 </v>
   <v>       0.45000000      -0.25000000       0.05000000 </v>
   <v>       0.50000000      -0.25000000       0.05000000 </v>
   <v>       0.00000000      -0.20000000       0.05000000 </v>
   <v>       0.05000000      -0.20000000       0.05000000 </v>
   <v>       0.10000000      -0.20000000       0.05000000 </v>
   <v>       0.15000000      -0.20000000       0.05000000 </v>
   <v>       0.20000000      -0.20000000       0.05000000 </v>
   <v>       0.25000000      -0.20000000       0.05000000 </v>
   <v>       0.30000000      -0.20000000       0.05000000 </v>
   <v>       0.35000000      -0.20000000       0.05000000 </v>
   <v>       0.40000000      -0.20000000       0.05000000 </v>
   <v>       0.45000000      -0.20000000       0.05000000 </v>
   <v>       0.50000000      -0.20000000       0.05000000 </v>
   <v>       0.00000000      -0.15000000       0.05000000 </v>
   <v>       0.05000000      -0.15000000       0.05000000 </v>
   <v>       0.10000000      -0.15000000       0.05000000 </v>
   <v>       0.15000000      -0.15000000       0.05000000 </v>
   <v>       0.20000000      -0.15000000       0.05000000 </v>
   <v>       0.25000000      -0.15000000       0.05000000 </v>
   <v>       0.30000000      -0.15000000       0.05000000 </v>
   <v>       0.35000000      -0.15000000       0.05000000 </v>
   <v>       0.40000000      -0.15000000       0.05000000 </v>
   <v>       0.45000000      -0.15000000       0.05000000 </v>
   <v>       0.50000000      -0.15000000       0.05000000 </v>
   <v>       0.00000000      -0.10000000       0.05000000 </v>
   <v>       0.05000000      -0.10000000       0.05000000 </v>
   <v>       0.10000000      -0.10000000       0.05000000 </v>
   <v>       0.15000000      -0.10000000       0.05000000 </v>
   <v>       0.20000000      -0.10000000       0.05000000 </v>
   <v>       0.25000000      -0.10000000       0.05000000 </v>
   <v>       0.30000000      -0.10000000       0.05000000 </v>
   <v>       0.35000000      -0.10000000       0.05000000 </v>
   <v>       0.40000000      -0.10000000       0.05000000 </v>
   <v>       0.45000000      -0.10000000       0.05000000 </v>
   <v>       0.50000000      -0.10000000       0.05000000 </v>
   <v>       0.00000000      -0.05000000       0.05000000 </v>
   <v>       0.05000000      -0.05000000       0.05000000 </v>
   <v>       0.10000000      -0.05000000       0.05000000 </v>
   <v>       0.15000000      -0.05000000       0.05000000 </v>
   <v>       0.20000000      -0.05000000       0.05000000 </v>
   <v>       0.25000000      -0.05000000       0.05000000 </v>
   <v>       0.30000000      -0.05000000       0.05000000 </v>
   <v>       0.35000000      -0.05000000       0.05000000 </v>
   <v>       0.40000000      -0.05000000       0.05000000 </v>
   <v>       0.45000000      -0.05000000       0.05000000 </v>
   <v>       0.50000000      -0.05000000       0.05000000 </v>
   <v>       0.00000000       0.00000000       0.10000000 </v>
   <v>       0.05000000       0.00000000       0.10000000 </v>
   <v>       0.10000000       0.00000000       0.10000000 </v>
   <v>       0.15000000       0.00000000       0.10000000 </v>
   <v>       0.20000000       0.00000000       0.10000000 </v>
   <v>       0.25000000       0.00000000       0.10000000 </v>
   <v>       0.30000000       0.00000000       0.10000000 </v>
   <v>       0.35000000       0.00000000       0.10000000 </v>
   <v>       0.40000000       0.00000000       0.10000000 </v>
   <v>       0.45000000       0.00000000       0.10000000 </v>
   <v>       0.50000000       0.00000000       0.10000000 </v>
   <v>       0.00000000       0.05000000       0.10000000 </v>
   <v>       0.05000000       0.05000000       0.10000000 </v>
   <v>       0.10000000       0.05000000       0.10000000 </v>
   <v>       0.15000000       0.05000000       0.10000000 </v>
   <v>       0.20000000       0.05000000       0.10000000 </v>
   <v>       0.25000000       0.05000000       0.10000000 </v>
   <v>       0.30000000       0.05000000       0.10000000 </v>
   <v>       0.35000000       0.05000000       0.10000000 </v>
   <v>       0.40000000       0.05000000       0.10000000 </v>
   <v>       0.45000000       0.05000000       0.10000000 </v>
   <v>       0.50000000       0.05000000       0.10000000 </v>
   <v>       0.00000000       0.10000000       0.10000000 </v>
   <v>       0.05000000       0.10000000       0.10000000 </v>
   <v>       0.10000000       0.10000000       0.10000000 </v>
   <v>       0.15000000       0.10000000       0.10000000 </v>
   <v>       0.20000000       0.10000000       0.10000000 </v>
   <v>       0.25000000       0.10000000       0.10000000 </v>
   <v>       0.30000000       0.10000000       0.10000000 </v>
   <v>       0.35000000       0.10000000       0.10000000 </v>
   <v>       0.40000000       0.10000000       0.10000000 </v>
   <v>       0.45000000       0.10000000       0.10000000 </v>
   <v>       0.50000000       0.10000000       0.10000000 </v>
   <v>       0.00000000       0.15000000       0.10000000 </v>
   <v>       0.05000000       0.15000000       0.10000000 </v>
   <v>       0.10000000       0.15000000       0.10000000 </v>
   <v>       0.15000000       0.15000000       0.10000000 </v>
   <v>       0.20000000       0.15000000       0.10000000 </v>
   <v>       0.25000000       0.15000000       0.10000000 </v>
   <v>       0.30000000       0.15000000       0.10000000 </v>
   <v>       0.35000000       0.15000000       0.10000000 </v>
   <v>       0.40000000       0.15000000       0.10000000 </v>
   <v>       0.45000000       0.15000000       0.10000000 </v>
   <v>       0.50000000       0.15000000       0.10000000 </v>
   <v>       0.00000000       0.20000000       0.10000000 </v>
   <v>       0.05000000       0.20000000       0.10000000 </v>
   <v>       0.10000000       0.20000000       0.10000000 </v>
   <v>       0.15000000       0.20000000       0.10000000 </v>
   <v>       0.20000000       0.20000000       0.10000000 </v>
   <v>       0.25000000       0.20000000       0.10000000 </v>
   <v>       0.30000000       0.20000000       0.10000000 </v>
   <v>       0.35000000       0.20000000       0.10000000 </v>
   <v>       0.40000000       0.20000000       0.10000000 </v>
   <v>       0.45000000       0.20000000       0.10000000 </v>
   <v>       0.50000000       0.20000000       0.10000000 </v>
   <v>       0.00000000       0.25000000       0.10000000 </v>
   <v>       0.05000000       0.25000000       0.10000000 </v>
   <v>       0.10000000       0.25000000       0.10000000 </v>
   <v>       0.15000000       0.25000000       0.10000000 </v>
   <v>       0.20000000       0.25000000       0.10000000 </v>
   <v>       0.25000000       0.25000000       0.10000000 </v>
   <v>       0.30000000       0.25000000       0.10000000 </v>
   <v>       0.35000000       0.25000000       0.10000000 </v>
   <v>       0.40000000       0.25000000       0.10000000 </v>
   <v>       0.45000000       0.25000000       0.10000000 </v>
   <v>       0.50000000       0.25000000       0.10000000 </v>
   <v>       0.00000000       0.30000000       0.10000000 </v>
   <v>       0.05000000       0.30000000       0.10000000 </v>
   <v>       0.10000000       0.30000000       0.10000000 </v>
   <v>       0.15000000       0.30000000       0.10000000 </v>
   <v>       0.20000000       0.30000000       0.10000000 </v>
   <v>       0.25000000       0.30000000       0.10000000 </v>
   <v>       0.30000000       0.30000000       0.10000000 </v>
   <v>       0.35000000       0.30000000       0.10000000 </v>
   <v>       0.40000000       0.30000000       0.10000000 </v>
   <v>       0.45000000       0.30000000       0.10000000 </v>
   <v>       0.50000000       0.30000000       0.10000000 </v>
   <v>       0.00000000       0.35000000       0.10000000 </v>
   <v>       0.05000000       0.35000000       0.10000000 </v>
   <v>       0.10000000       0.35000000       0.10000000 </v>
   <v>       0.15000000       0.35000000       0.10000000 </v>
   <v>       0.20000000       0.35000000       0.10000000 </v>
   <v>       0.25000000       0.35000000       0.10000000 </v>
   <v>       0.30000000       0.35000000       0.10000000 </v>
   <v>       0.35000000       0.35000000       0.10000000 </v>
   <v>       0.40000000       0.35000000       0.10000000 </v>
   <v>       0.45000000       0.35000000       0.10000000 </v>
   <v>       0.50000000       0.35000000       0.10000000 </v>
   <v>       0.00000000       0.40000000       0.10000000 </v>
   <v>       0.05000000       0.40000000       0.10000000 </v>
   <v>       0.10000000       0.40000000       0.10000000 </v>
   <v>       0.15000000       0.40000000       0.10000000 </v>
   <v>       0.20000000       0.40000000       0.10000000 </v>
   <v>       0.25000000       0.40000000       0.10000000 </v>
   <v>       0.30000000       0.40000000       0.10000000 </v>
   <v>       0.35000000       0.40000000       0.10000000 </v>
   <v>       0.40000000       0.40000000       0.10000000 </v>
   <v>       0.45000000       0.40000000       0.10000000 </v>
   <v>       0.50000000       0.40000000       0.10000000 </v>
   <v>       0.00000000       0.45000000       0.10000000 </v>
   <v>       0.05000000       0.45000000       0.10000000 </v>
   <v>       0.10000000       0.45000000       0.10000000 </v>
   <v>       0.15000000       0.45000000       0.10000000 </v>
   <v>       0.20000000       0.45000000       0.10000000 </v>
   <v>       0.25000000       0.45000000       0.10000000 </v>
   <v>       0.30000000       0.45000000       0.10000000 </v>
   <v>       0.35000000       0.45000000       0.10000000 </v>
   <v>       0.40000000       0.45000000       0.10000000 </v>
   <v>       0.45000000       0.45000000       0.10000000 </v>
   <v>       0.50000000       0.45000000       0.10000000 </v>
   <v>       0.00000000       0.50000000       0.10000000 </v>
   <v>       0.05000000       0.50000000       0.10000000 </v>
   <v>       0.10000000       0.50000000       0.10000000 </v>
   <v>       0.15000000       0.50000000       0.10000000 </v>
   <v>       0.20000000       0.50000000       0.10000000 </v>
   <v>       0.25000000       0.50000000       0.10000000 </v>
   <v>       0.30000000       0.50000000       0.10000000 </v>
   <v>       0.35000000       0.50000000       0.10000000 </v>
   <v>       0.40000000       0.50000000       0.10000000 </v>
   <v>       0.45000000       0.50000000       0.10000000 </v>
   <v>       0.50000000       0.50000000       0.10000000 </v>
   <v>       0.00000000      -0.45000000       0.10000000 </v>
   <v>       0.05000000      -0.45000000       0.10000000 </v>
   <v>       0.10000000      -0.45000000       0.10000000 </v>
   <v>       0.15000000      -0.45000000       0.10000000 </v>
   <v>       0.20000000      -0.45000000       0.10000000 </v>
   <v>       0.25000000      -0.45000000       0.10000000 </v>
   <v>       0.30000000      -0.45000000       0.10000000 </v>
   <v>       0.35000000      -0.45000000       0.10000000 </v>
   <v>       0.40000000      -0.45000000       0.10000000 </v>
   <v>       0.45000000      -0.45000000       0.10000000 </v>
   <v>       0.50000000      -0.45000000       0.10000000 </v>
   <v>       0.00000000      -0.40000000       0.10000000 </v>
   <v>       0.05000000      -0.40000000       0.10000000 </v>
   <v>       0.10000000      -0.40000000       0.10000000 </v>
   <v>       0.15000000      -0.40000000       0.10000000 </v>
   <v>       0.20000000      -0.40000000       0.10000000 </v>
   <v>       0.25000000      -0.40000000       0.10000000 </v>
   <v>       0.30000000      -0.40000000       0.10000000 </v>
   <v>       0.35000000      -0.40000000       0.10000000 </v>
   <v>       0.40000000      -0.40000000       0.10000000 </v>
   <v>       0.45000000      -0.40000000       0.10000000 </v>
   <v>       0.50000000      -0.40000000       0.10000000 </v>
   <v>       0.00000000      -0.35000000       0.10000000 </v>
   <v>       0.05000000      -0.35000000       0.10000000 </v>
   <v>       0.10000000      -0.35000000       0.10000000 </v>
   <v>       0.15000000      -0.35000000       0.10000000 </v>
   <v>       0.20000000      -0.35000000       0.10000000 </v>
   <v>       0.25000000      -0.35000000       0.10000000 </v>
   <v>       0.30000000      -0.35000000       0.10000000 </v>
   <v>       0.35000000      -0.35000000       0.10000000 </v>
   <v>       0.40000000      -0.35000000       0.10000000 </v>
   <v>       0.45000000      -0.35000000       0.10000000 </v>
   <v>       0.50000000      -0.35000000       0.10000000 </v>
   <v>       0.00000000      -0.30000000       0.10000000 </v>
   <v>       0.05000000      -0.30000000       0.10000000 </v>
   <v>       0.10000000      -0.30000000       0.10000000 </v>
   <v>       0.15000000      -0.30000000       0.10000000 </v>
   <v>       0.20000000      -0.30000000       0.10000000 </v>
   <v>       0.25000000      -0.30000000       0.10000000 </v>
   <v>       0.30000000      -0.30000000       0.10000000 </v>
   <v>       0.35000000      -0.30000000       0.10000000 </v>
   <v>       0.40000000      -0.30000000       0.10000000 </v>
   <v>       0.45000000      -0.30000000       0.10000000 </v>
   <v>       0.50000000      -0.30000000       0.10000000 </v>
   <v>       0.00000000      -0.25000000       0.10000000 </v>
   <v>       0.05000000      -0.25000000       0.10000000 </v>
   <v>       0.10000000      -0.25000000       0.10000000 </v>
   <v>       0.15000000      -0.25000000       0.10000000 </v>
   <v>       0.20000000      -0.25000000       0.10000000 </v>
   <v>       0.25000000      -0.25000000       0.10000000 </v>
   <v>       0.30000000      -0.25000000       0.10000000 </v>
   <v>       0.35000000      -0.25000000       0.10000000 </v>
   <v>       0.40000000      -0.25000000       0.10000000 </v>
   <v>       0.45000000      -0.25000000       0.10000000 </v>
   <v>       0.50000000      -0.25000000       0.10000000 </v>
   <v>       0.00000000      -0.20000000       0.10000000 </v>
   <v>       0.05000000      -0.20000000       0.10000000 </v>
   <v>       0.10000000      -0.20000000       0.10000000 </v>
   <v>       0.15000000      -0.20000000       0.10000000 </v>
   <v>       0.20000000      -0.20000000       0.10000000 </v>
   <v>       0.25000000      -0.20000000       0.10000000 </v>
   <v>       0.30000000      -0.20000000       0.10000000 </v>
   <v>       0.35000000      -0.20000000       0.10000000 </v>
   <v>       0.40000000      -0.20000000       0.10000000 </v>
   <v>       0.45000000      -0.20000000       0.10000000 </v>
   <v>       0.50000000      -0.20000000       0.10000000 </v>
   <v>       0.00000000      -0.15000000       0.10000000 </v>
   <v>       0.05000000      -0.15000000       0.10000000 </v>
   <v>       0.10000000      -0.15000000       0.10000000 </v>
   <v>       0.15000000      -0.15000000       0.10000000 </v>
   <v>       0.20000000      -0.15000000       0.10000000 </v>
   <v>       0.25000000      -0.15000000       0.10000000 </v>
   <v>       0.30000000      -0.15000000       0.10000000 </v>
   <v>       0.35000000      -0.15000000       0.10000000 </v>
   <v>       0.40000000      -0.15000000       0.10000000 </v>
   <v>       0.45000000      -0.15000000       0.10000000 </v>
   <v>       0.50000000      -0.15000000       0.10000000 </v>
   <v>       0.00000000      -0.10000000       0.10000000 </v>
   <v>       0.05000000      -0.10000000       0.10000000 </v>
   <v>       0.10000000      -0.10000000       0.10000000 </v>
   <v>       0.15000000      -0.10000000       0.10000000 </v>
   <v>       0.20000000      -0.10000000       0.10000000 </v>
   <v>       0.25000000      -0.10000000       0.10000000 </v>
   <v>       0.30000000      -0.10000000       0.10000000 </v>
   <v>       0.35000000      -0.10000000       0.10000000 </v>
   <v>       0.40000000      -0.10000000       0.10000000 </v>
   <v>       0.45000000      -0.10000000       0.10000000 </v>
   <v>       0.50000000      -0.10000000       0.10000000 </v>
   <v>       0.00000000      -0.05000000       0.10000000 </v>
   <v>       0.05000000      -0.05000000       0.10000000 </v>
   <v>       0.10000000      -0.05000000       0.10000000 </v>
   <v>       0.15000000      -0.05000000       0.10000000 </v>
   <v>       0.20000000      -0.05000000       0.10000000 </v>
   <v>       0.25000000      -0.05000000       0.10000000 </v>
   <v>       0.30000000      -0.05000000       0.10000000 </v>
   <v>       0.35000000      -0.05000000       0.10000000 </v>
   <v>       0.40000000      -0.05000000       0.10000000 </v>
   <v>       0.45000000      -0.05000000       0.10000000 </v>
   <v>       0.50000000      -0.05000000       0.10000000 </v>
   <v>       0.00000000       0.00000000       0.15000000 </v>
   <v>       0.05000000       0.00000000       0.15000000 </v>
   <v>       0.10000000       0.00000000       0.15000000 </v>
   <v>       0.15000000       0.00000000       0.15000000 </v>
   <v>       0.20000000       0.00000000       0.15000000 </v>
   <v>       0.25000000       0.00000000       0.15000000 </v>
   <v>       0.30000000       0.00000000       0.15000000 </v>
   <v>       0.35000000       0.00000000       0.15000000 </v>
   <v>       0.40000000       0.00000000       0.15000000 </v>
   <v>       0.45000000       0.00000000       0.15000000 </v>
   <v>       0.50000000       0.00000000       0.15000000 </v>
   <v>       0.00000000       0.05000000       0.15000000 </v>
   <v>       0.05000000       0.05000000       0.15000000 </v>
   <v>       0.10000000       0.05000000       0.15000000 </v>
   <v>       0.15000000       0.05000000       0.15000000 </v>
   <v>       0.20000000       0.05000000       0.15000000 </v>
   <v>       0.25000000       0.05000000       0.15000000 </v>
   <v>       0.30000000       0.05000000       0.15000000 </v>
   <v>       0.35000000       0.05000000       0.15000000 </v>
   <v>       0.40000000       0.05000000       0.15000000 </v>
   <v>       0.45000000       0.05000000       0.15000000 </v>
   <v>       0.50000000       0.05000000       0.15000000 </v>
   <v>       0.00000000       0.10000000       0.15000000 </v>
   <v>       0.05000000       0.10000000       0.15000000 </v>
   <v>       0.10000000       0.10000000       0.15000000 </v>
   <v>       0.15000000       0.10000000       0.15000000 </v>
   <v>       0.20000000       0.10000000       0.15000000 </v>
   <v>       0.25000000       0.10000000       0.15000000 </v>
   <v>       0.30000000       0.10000000       0.15000000 </v>
   <v>       0.35000000       0.10000000       0.15000000 </v>
   <v>       0.40000000       0.10000000       0.15000000 </v>
   <v>       0.45000000       0.10000000       0.15000000 </v>
   <v>       0.50000000       0.10000000       0.15000000 </v>
   <v>       0.00000000       0.15000000       0.15000000 </v>
   <v>       0.05000000       0.15000000       0.15000000 </v>
   <v>       0.10000000       0.15000000       0.15000000 </v>
   <v>       0.15000000       0.15000000       0.15000000 </v>
   <v>       0.20000000       0.15000000       0.15000000 </v>
   <v>       0.25000000       0.15000000       0.15000000 </v>
   <v>       0.30000000       0.15000000       0.15000000 </v>
   <v>       0.35000000       0.15000000       0.15000000 </v>
   <v>       0.40000000       0.15000000       0.15000000 </v>
   <v>       0.45000000       0.15000000       0.15000000 </v>
   <v>       0.50000000       0.15000000       0.15000000 </v>
   <v>       0.00000000       0.20000000       0.15000000 </v>
   <v>       0.05000000       0.20000000       0.15000000 </v>
   <v>       0.10000000       0.20000000       0.15000000 </v>
   <v>       0.15000000       0.20000000       0.15000000 </v>
   <v>       0.20000000       0.20000000       0.15000000 </v>
   <v>       0.25000000       0.20000000       0.15000000 </v>
   <v>       0.30000000       0.20000000       0.15000000 </v>
   <v>       0.35000000       0.20000000       0.15000000 </v>
   <v>       0.40000000       0.20000000       0.15000000 </v>
   <v>       0.45000000       0.20000000       0.15000000 </v>
   <v>       0.50000000       0.20000000       0.15000000 </v>
   <v>       0.00000000       0.25000000       0.15000000 </v>
   <v>       0.05000000       0.25000000       0.15000000 </v>
   <v>       0.10000000       0.25000000       0.15000000 </v>
   <v>       0.15000000       0.25000000       0.15000000 </v>
   <v>       0.20000000       0.25000000       0.15000000 </v>
   <v>       0.25000000       0.25000000       0.15000000 </v>
   <v>       0.30000000       0.25000000       0.15000000 </v>
   <v>       0.35000000       0.25000000       0.15000000 </v>
   <v>       0.40000000       0.25000000       0.15000000 </v>
   <v>       0.45000000       0.25000000       0.15000000 </v>
   <v>       0.50000000       0.25000000       0.15000000 </v>
   <v>       0.00000000       0.30000000       0.15000000 </v>
   <v>       0.05000000       0.30000000       0.15000000 </v>
   <v>       0.10000000       0.30000000       0.15000000 </v>
   <v>       0.15000000       0.30000000       0.15000000 </v>
   <v>       0.20000000       0.30000000       0.15000000 </v>
   <v>       0.25000000       0.30000000       0.15000000 </v>
   <v>       0.30000000       0.30000000       0.15000000 </v>
   <v>       0.35000000       0.30000000       0.15000000 </v>
   <v>       0.40000000       0.30000000       0.15000000 </v>
   <v>       0.45000000       0.30000000       0.15000000 </v>
   <v>       0.50000000       0.30000000       0.15000000 </v>
   <v>       0.00000000       0.35000000       0.15000000 </v>
   <v>       0.05000000       0.35000000       0.15000000 </v>
   <v>       0.10000000       0.35000000       0.15000000 </v>
   <v>       0.15000000       0.35000000       0.15000000 </v>
   <v>       0.20000000       0.35000000       0.15000000 </v>
   <v>       0.25000000       0.35000000       0.15000000 </v>
   <v>       0.30000000       0.35000000       0.15000000 </v>
   <v>       0.35000000       0.35000000       0.15000000 </v>
   <v>       0.40000000       0.35000000       0.15000000 </v>
   <v>       0.45000000       0.35000000       0.15000000 </v>
   <v>       0.50000000       0.35000000       0.15000000 </v>
   <v>       0.00000000       0.40000000       0.15000000 </v>
   <v>       0.05000000       0.40000000       0.15000000 </v>
   <v>       0.10000000       0.40000000       0.15000000 </v>
   <v>       0.15000000       0.40000000       0.15000000 </v>
   <v>       0.20000000       0.40000000       0.15000000 </v>
   <v>       0.25000000       0.40000000       0.15000000 </v>
   <v>       0.30000000       0.40000000       0.15000000 </v>
   <v>       0.35000000       0.40000000       0.15000000 </v>
   <v>       0.40000000       0.40000000       0.15000000 </v>
   <v>       0.45000000       0.40000000       0.15000000 </v>
   <v>       0.50000000       0.40000000       0.15000000 </v>
   <v>       0.00000000       0.45000000       0.15000000 </v>
   <v>       0.05000000       0.45000000       0.15000000 </v>
   <v>       0.10000000       0.45000000       0.15000000 </v>
   <v>       0.15000000       0.45000000       0.15000000 </v>
   <v>       0.20000000       0.45000000       0.15000000 </v>
   <v>       0.25000000       0.45000000       0.15000000 </v>
   <v>       0.30000000       0.45000000       0.15000000 </v>
   <v>       0.35000000       0.45000000       0.15000000 </v>
   <v>       0.40000000       0.45000000       0.15000000 </v>
   <v>       0.45000000       0.45000000       0.15000000 </v>
   <v>       0.50000000       0.45000000       0.15000000 </v>
   <v>       0.00000000       0.50000000       0.15000000 </v>
   <v>       0.05000000       0.50000000       0.15000000 </v>
   <v>       0.10000000       0.50000000       0.15000000 </v>
   <v>       0.15000000       0.50000000       0.15000000 </v>
   <v>       0.20000000       0.50000000       0.15000000 </v>
   <v>       0.25000000       0.50000000       0.15000000 </v>
   <v>       0.30000000       0.50000000       0.15000000 </v>
   <v>       0.35000000       0.50000000       0.15000000 </v>
   <v>       0.40000000       0.50000000       0.15000000 </v>
   <v>       0.45000000       0.50000000       0.15000000 </v>
   <v>       0.50000000       0.50000000       0.15000000 </v>
   <v>       0.00000000      -0.45000000       0.15000000 </v>
   <v>       0.05000000      -0.45000000       0.15000000 </v>
   <v>       0.10000000      -0.45000000       0.15000000 </v>
   <v>       0.15000000      -0.45000000       0.15000000 </v>
   <v>       0.20000000      -0.45000000       0.15000000 </v>
   <v>       0.25000000      -0.45000000       0.15000000 </v>
   <v>       0.30000000      -0.45000000       0.15000000 </v>
   <v>       0.35000000      -0.45000000       0.15000000 </v>
   <v>       0.40000000      -0.45000000       0.15000000 </v>
   <v>       0.45000000      -0.45000000       0.15000000 </v>
   <v>       0.50000000      -0.45000000       0.15000000 </v>
   <v>       0.00000000      -0.40000000       0.15000000 </v>
   <v>       0.05000000      -0.40000000       0.15000000 </v>
   <v>       0.10000000      -0.40000000       0.15000000 </v>
   <v>       0.15000000      -0.40000000       0.15000000 </v>
   <v>       0.20000000      -0.40000000       0.15000000 </v>
   <v>       0.25000000      -0.40000000       0.15000000 </v>
   <v>       0.30000000      -0.40000000       0.15000000 </v>
   <v>       0.35000000      -0.40000000       0.15000000 </v>
   <v>       0.40000000      -0.40000000       0.15000000 </v>
   <v>       0.45000000      -0.40000000       0.15000000 </v>
   <v>       0.50000000      -0.40000000       0.15000000 </v>
   <v>       0.00000000      -0.35000000       0.15000000 </v>
   <v>       0.05000000      -0.35000000       0.15000000 </v>
   <v>       0.10000000      -0.35000000       0.15000000 </v>
   <v>       0.15000000      -0.35000000       0.15000000 </v>
   <v>       0.20000000      -0.35000000       0.15000000 </v>
   <v>       0.25000000      -0.35000000       0.15000000 </v>
   <v>       0.30000000      -0.35000000       0.15000000 </v>
   <v>       0.35000000      -0.35000000       0.15000000 </v>
   <v>       0.40000000      -0.35000000       0.15000000 </v>
   <v>       0.45000000      -0.35000000       0.15000000 </v>
   <v>       0.50000000      -0.35000000       0.15000000 </v>
   <v>       0.00000000      -0.30000000       0.15000000 </v>
   <v>       0.05000000      -0.30000000       0.15000000 </v>
   <v>       0.10000000      -0.30000000       0.15000000 </v>
   <v>       0.15000000      -0.30000000       0.15000000 </v>
   <v>       0.20000000      -0.30000000       0.15000000 </v>
   <v>       0.25000000      -0.30000000       0.15000000 </v>
   <v>       0.30000000      -0.30000000       0.15000000 </v>
   <v>       0.35000000      -0.30000000       0.15000000 </v>
   <v>       0.40000000      -0.30000000       0.15000000 </v>
   <v>       0.45000000      -0.30000000       0.15000000 </v>
   <v>       0.50000000      -0.30000000       0.15000000 </v>
   <v>       0.00000000      -0.25000000       0.15000000 </v>
   <v>       0.05000000      -0.25000000       0.15000000 </v>
   <v>       0.10000000      -0.25000000       0.15000000 </v>
   <v>       0.15000000      -0.25000000       0.15000000 </v>
   <v>       0.20000000      -0.25000000       0.15000000 </v>
   <v>       0.25000000      -0.25000000       0.15000000 </v>
   <v>       0.30000000      -0.25000000       0.15000000 </v>
   <v>       0.35000000      -0.25000000       0.15000000 </v>
   <v>       0.40000000      -0.25000000       0.15000000 </v>
   <v>       0.45000000      -0.25000000       0.15000000 </v>
   <v>       0.50000000      -0.25000000       0.15000000 </v>
   <v>       0.00000000      -0.20000000       0.15000000 </v>
   <v>       0.05000000      -0.20000000       0.15000000 </v>
   <v>       0.10000000      -0.20000000       0.15000000 </v>
   <v>       0.15000000      -0.20000000       0.15000000 </v>
   <v>       0.20000000      -0.20000000       0.15000000 </v>
   <v>       0.25000000      -0.20000000       0.15000000 </v>
   <v>       0.30000000      -0.20000000       0.15000000 </v>
   <v>       0.35000000      -0.20000000       0.15000000 </v>
   <v>       0.40000000      -0.20000000       0.15000000 </v>
   <v>       0.45000000      -0.20000000       0.15000000 </v>
   <v>       0.50000000      -0.20000000       0.15000000 </v>
   <v>       0.00000000      -0.15000000       0.15000000 </v>
   <v>       0.05000000      -0.15000000       0.15000000 </v>
   <v>       0.10000000      -0.15000000       0.15000000 </v>
   <v>       0.15000000      -0.15000000       0.15000000 </v>
   <v>       0.20000000      -0.15000000       0.15000000 </v>
   <v>       0.25000000      -0.15000000       0.15000000 </v>
   <v>       0.30000000      -0.15000000       0.15000000 </v>
   <v>       0.35000000      -0.15000000       0.15000000 </v>
   <v>       0.40000000      -0.15000000       0.15000000 </v>
   <v>       0.45000000      -0.15000000       0.15000000 </v>
   <v>       0.50000000      -0.15000000       0.15000000 </v>
   <v>       0.00000000      -0.10000000       0.15000000 </v>
   <v>       0.05000000      -0.10000000       0.15000000 </v>
   <v>       0.10000000      -0.10000000       0.15000000 </v>
   <v>       0.15000000      -0.10000000       0.15000000 </v>
   <v>       0.20000000      -0.10000000       0.15000000 </v>
   <v>       0.25000000      -0.10000000       0.15000000 </v>
   <v>       0.30000000      -0.10000000       0.15000000 </v>
   <v>       0.35000000      -0.10000000       0.15000000 </v>
   <v>       0.40000000      -0.10000000       0.15000000 </v>
   <v>       0.45000000      -0.10000000       0.15000000 </v>
   <v>       0.50000000      -0.10000000       0.15000000 </v>
   <v>       0.00000000      -0.05000000       0.15000000 </v>
   <v>       0.05000000      -0.05000000       0.15000000 </v>
   <v>       0.10000000      -0.05000000       0.15000000 </v>
   <v>       0.15000000      -0.05000000       0.15000000 </v>
   <v>       0.20000000      -0.05000000       0.15000000 </v>
   <v>       0.25000000      -0.05000000       0.15000000 </v>
   <v>       0.30000000      -0.05000000       0.15000000 </v>
   <v>       0.35000000      -0.05000000       0.15000000 </v>
   <v>       0.40000000      -0.05000000       0.15000000 </v>
   <v>       0.45000000      -0.05000000       0.15000000 </v>
   <v>       0.50000000      -0.05000000       0.15000000 </v>
   <v>       0.00000000       0.00000000       0.20000000 </v>
   <v>       0.05000000       0.00000000       0.20000000 </v>
   <v>       0.10000000       0.00000000       0.20000000 </v>
   <v>       0.15000000       0.00000000       0.20000000 </v>
   <v>       0.20000000       0.00000000       0.20000000 </v>
   <v>       0.25000000       0.00000000       0.20000000 </v>
   <v>       0.30000000       0.00000000       0.20000000 </v>
   <v>       0.35000000       0.00000000       0.20000000 </v>
   <v>       0.40000000       0.00000000       0.20000000 </v>
   <v>       0.45000000       0.00000000       0.20000000 </v>
   <v>       0.50000000       0.00000000       0.20000000 </v>
   <v>       0.00000000       0.05000000       0.20000000 </v>
   <v>       0.05000000       0.05000000       0.20000000 </v>
   <v>       0.10000000       0.05000000       0.20000000 </v>
   <v>       0.15000000       0.05000000       0.20000000 </v>
   <v>       0.20000000       0.05000000       0.20000000 </v>
   <v>       0.25000000       0.05000000       0.20000000 </v>
   <v>       0.30000000       0.05000000       0.20000000 </v>
   <v>       0.35000000       0.05000000       0.20000000 </v>
   <v>       0.40000000       0.05000000       0.20000000 </v>
   <v>       0.45000000       0.05000000       0.20000000 </v>
   <v>       0.50000000       0.05000000       0.20000000 </v>
   <v>       0.00000000       0.10000000       0.20000000 </v>
   <v>       0.05000000       0.10000000       0.20000000 </v>
   <v>       0.10000000       0.10000000       0.20000000 </v>
   <v>       0.15000000       0.10000000       0.20000000 </v>
   <v>       0.20000000       0.10000000       0.20000000 </v>
   <v>       0.25000000       0.10000000       0.20000000 </v>
   <v>       0.30000000       0.10000000       0.20000000 </v>
   <v>       0.35000000       0.10000000       0.20000000 </v>
   <v>       0.40000000       0.10000000       0.20000000 </v>
   <v>       0.45000000       0.10000000       0.20000000 </v>
   <v>       0.50000000       0.10000000       0.20000000 </v>
   <v>       0.00000000       0.15000000       0.20000000 </v>
   <v>       0.05000000       0.15000000       0.20000000 </v>
   <v>       0.10000000       0.15000000       0.20000000 </v>
   <v>       0.15000000       0.15000000       0.20000000 </v>
   <v>       0.20000000       0.15000000       0.20000000 </v>
   <v>       0.25000000       0.15000000       0.20000000 </v>
   <v>       0.30000000       0.15000000       0.20000000 </v>
   <v>       0.35000000       0.15000000       0.20000000 </v>
   <v>       0.40000000       0.15000000       0.20000000 </v>
   <v>       0.45000000       0.15000000       0.20000000 </v>
   <v>       0.50000000       0.15000000       0.20000000 </v>
   <v>       0.00000000       0.20000000       0.20000000 </v>
   <v>       0.05000000       0.20000000       0.20000000 </v>
   <v>       0.10000000       0.20000000       0.20000000 </v>
   <v>       0.15000000       0.20000000       0.20000000 </v>
   <v>       0.20000000       0.20000000       0.20000000 </v>
   <v>       0.25000000       0.20000000       0.20000000 </v>
   <v>       0.30000000       0.20000000       0.20000000 </v>
   <v>       0.35000000       0.20000000       0.20000000 </v>
   <v>       0.40000000       0.20000000       0.20000000 </v>
   <v>       0.45000000       0.20000000       0.20000000 </v>
   <v>       0.50000000       0.20000000       0.20000000 </v>
   <v>       0.00000000       0.25000000       0.20000000 </v>
   <v>       0.05000000       0.25000000       0.20000000 </v>
   <v>       0.10000000       0.25000000       0.20000000 </v>
   <v>       0.15000000       0.25000000       0.20000000 </v>
   <v>       0.20000000       0.25000000       0.20000000 </v>
   <v>       0.25000000       0.25000000       0.20000000 </v>
   <v>       0.30000000       0.25000000       0.20000000 </v>
   <v>       0.35000000       0.25000000       0.20000000 </v>
   <v>       0.40000000       0.25000000       0.20000000 </v>
   <v>       0.45000000       0.25000000       0.20000000 </v>
   <v>       0.50000000       0.25000000       0.20000000 </v>
   <v>       0.00000000       0.30000000       0.20000000 </v>
   <v>       0.05000000       0.30000000       0.20000000 </v>
   <v>       0.10000000       0.30000000       0.20000000 </v>
   <v>       0.15000000       0.30000000       0.20000000 </v>
   <v>       0.20000000       0.30000000       0.20000000 </v>
   <v>       0.25000000       0.30000000       0.20000000 </v>
   <v>       0.30000000       0.30000000       0.20000000 </v>
   <v>       0.35000000       0.30000000       0.20000000 </v>
   <v>       0.40000000       0.30000000       0.20000000 </v>
   <v>       0.45000000       0.30000000       0.20000000 </v>
   <v>       0.50000000       0.30000000       0.20000000 </v>
   <v>       0.00000000       0.35000000       0.20000000 </v>
   <v>       0.05000000       0.35000000       0.20000000 </v>
   <v>       0.10000000       0.35000000       0.20000000 </v>
   <v>       0.15000000       0.35000000       0.20000000 </v>
   <v>       0.20000000       0.35000000       0.20000000 </v>
   <v>       0.25000000       0.35000000       0.20000000 </v>
   <v>       0.30000000       0.35000000       0.20000000 </v>
   <v>       0.35000000       0.35000000       0.20000000 </v>
   <v>       0.40000000       0.35000000       0.20000000 </v>
   <v>       0.45000000       0.35000000       0.20000000 </v>
   <v>       0.50000000       0.35000000       0.20000000 </v>
   <v>       0.00000000       0.40000000       0.20000000 </v>
   <v>       0.05000000       0.40000000       0.20000000 </v>
   <v>       0.10000000       0.40000000       0.20000000 </v>
   <v>       0.15000000       0.40000000       0.20000000 </v>
   <v>       0.20000000       0.40000000       0.20000000 </v>
   <v>       0.25000000       0.40000000       0.20000000 </v>
   <v>       0.30000000       0.40000000       0.20000000 </v>
   <v>       0.35000000       0.40000000       0.20000000 </v>
   <v>       0.40000000       0.40000000       0.20000000 </v>
   <v>       0.45000000       0.40000000       0.20000000 </v>
   <v>       0.50000000       0.40000000       0.20000000 </v>
   <v>       0.00000000       0.45000000       0.20000000 </v>
   <v>       0.05000000       0.45000000       0.20000000 </v>
   <v>       0.10000000       0.45000000       0.20000000 </v>
   <v>       0.15000000       0.45000000       0.20000000 </v>
   <v>       0.20000000       0.45000000       0.20000000 </v>
   <v>       0.25000000       0.45000000       0.20000000 </v>
   <v>       0.30000000       0.45000000       0.20000000 </v>
   <v>       0.35000000       0.45000000       0.20000000 </v>
   <v>       0.40000000       0.45000000       0.20000000 </v>
   <v>       0.45000000       0.45000000       0.20000000 </v>
   <v>       0.50000000       0.45000000       0.20000000 </v>
   <v>       0.00000000       0.50000000       0.20000000 </v>
   <v>       0.05000000       0.50000000       0.20000000 </v>
   <v>       0.10000000       0.50000000       0.20000000 </v>
   <v>       0.15000000       0.50000000       0.20000000 </v>
   <v>       0.20000000       0.50000000       0.20000000 </v>
   <v>       0.25000000       0.50000000       0.20000000 </v>
   <v>       0.30000000       0.50000000       0.20000000 </v>
   <v>       0.35000000       0.50000000       0.20000000 </v>
   <v>       0.40000000       0.50000000       0.20000000 </v>
   <v>       0.45000000       0.50000000       0.20000000 </v>
   <v>       0.50000000       0.50000000       0.20000000 </v>
   <v>       0.00000000      -0.45000000       0.20000000 </v>
   <v>       0.05000000      -0.45000000       0.20000000 </v>
   <v>       0.10000000      -0.45000000       0.20000000 </v>
   <v>       0.15000000      -0.45000000       0.20000000 </v>
   <v>       0.20000000      -0.45000000       0.20000000 </v>
   <v>       0.25000000      -0.45000000       0.20000000 </v>
   <v>       0.30000000      -0.45000000       0.20000000 </v>
   <v>       0.35000000      -0.45000000       0.20000000 </v>
   <v>       0.40000000      -0.45000000       0.20000000 </v>
   <v>       0.45000000      -0.45000000       0.20000000 </v>
   <v>       0.50000000      -0.45000000       0.20000000 </v>
   <v>       0.00000000      -0.40000000       0.20000000 </v>
   <v>       0.05000000      -0.40000000       0.20000000 </v>
   <v>       0.10000000      -0.40000000       0.20000000 </v>
   <v>       0.15000000      -0.40000000       0.20000000 </v>
   <v>       0.20000000      -0.40000000       0.20000000 </v>
   <v>       0.25000000      -0.40000000       0.20000000 </v>
   <v>       0.30000000      -0.40000000       0.20000000 </v>
   <v>       0.35000000      -0.40000000       0.20000000 </v>
   <v>       0.40000000      -0.40000000       0.20000000 </v>
   <v>       0.45000000      -0.40000000       0.20000000 </v>
   <v>       0.50000000      -0.40000000       0.20000000 </v>
   <v>       0.00000000      -0.35000000       0.20000000 </v>
   <v>       0.05000000      -0.35000000       0.20000000 </v>
   <v>       0.10000000      -0.35000000       0.20000000 </v>
   <v>       0.15000000      -0.35000000       0.20000000 </v>
   <v>       0.20000000      -0.35000000       0.20000000 </v>
   <v>       0.25000000      -0.35000000       0.20000000 </v>
   <v>       0.30000000      -0.35000000       0.20000000 </v>
   <v>       0.35000000      -0.35000000       0.20000000 </v>
   <v>       0.40000000      -0.35000000       0.20000000 </v>
   <v>       0.45000000      -0.35000000       0.20000000 </v>
   <v>       0.50000000      -0.35000000       0.20000000 </v>
   <v>       0.00000000      -0.30000000       0.20000000 </v>
   <v>       0.05000000      -0.30000000       0.20000000 </v>
   <v>       0.10000000      -0.30000000       0.20000000 </v>
   <v>       0.15000000      -0.30000000       0.20000000 </v>
   <v>       0.20000000      -0.30000000       0.20000000 </v>
   <v>       0.25000000      -0.30000000       0.20000000 </v>
   <v>       0.30000000      -0.30000000       0.20000000 </v>
   <v>       0.35000000      -0.30000000       0.20000000 </v>
   <v>       0.40000000      -0.30000000       0.20000000 </v>
   <v>       0.45000000      -0.30000000       0.20000000 </v>
   <v>       0.50000000      -0.30000000       0.20000000 </v>
   <v>       0.00000000      -0.25000000       0.20000000 </v>
   <v>       0.05000000      -0.25000000       0.20000000 </v>
   <v>       0.10000000      -0.25000000       0.20000000 </v>
   <v>       0.15000000      -0.25000000       0.20000000 </v>
   <v>       0.20000000      -0.25000000       0.20000000 </v>
   <v>       0.25000000      -0.25000000       0.20000000 </v>
   <v>       0.30000000      -0.25000000       0.20000000 </v>
   <v>       0.35000000      -0.25000000       0.20000000 </v>
   <v>       0.40000000      -0.25000000       0.20000000 </v>
   <v>       0.45000000      -0.25000000       0.20000000 </v>
   <v>       0.50000000      -0.25000000       0.20000000 </v>
   <v>       0.00000000      -0.20000000       0.20000000 </v>
   <v>       0.05000000      -0.20000000       0.20000000 </v>
   <v>       0.10000000      -0.20000000       0.20000000 </v>
   <v>       0.15000000      -0.20000000       0.20000000 </v>
   <v>       0.20000000      -0.20000000       0.20000000 </v>
   <v>       0.25000000      -0.20000000       0.20000000 </v>
   <v>       0.30000000      -0.20000000       0.20000000 </v>
   <v>       0.35000000      -0.20000000       0.20000000 </v>
   <v>       0.40000000      -0.20000000       0.20000000 </v>
   <v>       0.45000000      -0.20000000       0.20000000 </v>
   <v>       0.50000000      -0.20000000       0.20000000 </v>
   <v>       0.00000000      -0.15000000       0.20000000 </v>
   <v>       0.05000000      -0.15000000       0.20000000 </v>
   <v>       0.10000000      -0.15000000       0.20000000 </v>
   <v>       0.15000000      -0.15000000       0.20000000 </v>
   <v>       0.20000000      -0.15000000       0.20000000 </v>
   <v>       0.25000000      -0.15000000       0.20000000 </v>
   <v>       0.30000000      -0.15000000       0.20000000 </v>
   <v>       0.35000000      -0.15000000       0.20000000 </v>
   <v>       0.40000000      -0.15000000       0.20000000 </v>
   <v>       0.45000000      -0.15000000       0.20000000 </v>
   <v>       0.50000000      -0.15000000       0.20000000 </v>
   <v>       0.00000000      -0.10000000       0.20000000 </v>
   <v>       0.05000000      -0.10000000       0.20000000 </v>
   <v>       0.10000000      -0.10000000       0.20000000 </v>
   <v>       0.15000000      -0.10000000       0.20000000 </v>
   <v>       0.20000000      -0.10000000       0.20000000 </v>
   <v>       0.25000000      -0.10000000       0.20000000 </v>
   <v>       0.30000000      -0.10000000       0.20000000 </v>
   <v>       0.35000000      -0.10000000       0.20000000 </v>
   <v>       0.40000000      -0.10000000       0.20000000 </v>
   <v>       0.45000000      -0.10000000       0.20000000 </v>
   <v>       0.50000000      -0.10000000       0.20000000 </v>
   <v>       0.00000000      -0.05000000       0.20000000 </v>
   <v>       0.05000000      -0.05000000       0.20000000 </v>
   <v>       0.10000000      -0.05000000       0.20000000 </v>
   <v>       0.15000000      -0.05000000       0.20000000 </v>
   <v>       0.20000000      -0.05000000       0.20000000 </v>
   <v>       0.25000000      -0.05000000       0.20000000 </v>
   <v>       0.30000000      -0.05000000       0.20000000 </v>
   <v>       0.35000000      -0.05000000       0.20000000 </v>
   <v>       0.40000000      -0.05000000       0.20000000 </v>
   <v>       0.45000000      -0.05000000       0.20000000 </v>
   <v>       0.50000000      -0.05000000       0.20000000 </v>
   <v>       0.00000000       0.00000000       0.25000000 </v>
   <v>       0.05000000       0.00000000       0.25000000 </v>
   <v>       0.10000000       0.00000000       0.25000000 </v>
   <v>       0.15000000       0.00000000       0.25000000 </v>
   <v>       0.20000000       0.00000000       0.25000000 </v>
   <v>       0.25000000       0.00000000       0.25000000 </v>
   <v>       0.30000000       0.00000000       0.25000000 </v>
   <v>       0.35000000       0.00000000       0.25000000 </v>
   <v>       0.40000000       0.00000000       0.25000000 </v>
   <v>       0.45000000       0.00000000       0.25000000 </v>
   <v>       0.50000000       0.00000000       0.25000000 </v>
   <v>       0.00000000       0.05000000       0.25000000 </v>
   <v>       0.05000000       0.05000000       0.25000000 </v>
   <v>       0.10000000       0.05000000       0.25000000 </v>
   <v>       0.15000000       0.05000000       0.25000000 </v>
   <v>       0.20000000       0.05000000       0.25000000 </v>
   <v>       0.25000000       0.05000000       0.25000000 </v>
   <v>       0.30000000       0.05000000       0.25000000 </v>
   <v>       0.35000000       0.05000000       0.25000000 </v>
   <v>       0.40000000       0.05000000       0.25000000 </v>
   <v>       0.45000000       0.05000000       0.25000000 </v>
   <v>       0.50000000       0.05000000       0.25000000 </v>
   <v>       0.00000000       0.10000000       0.25000000 </v>
   <v>       0.05000000       0.10000000       0.25000000 </v>
   <v>       0.10000000       0.10000000       0.25000000 </v>
   <v>       0.15000000       0.10000000       0.25000000 </v>
   <v>       0.20000000       0.10000000       0.25000000 </v>
   <v>       0.25000000       0.10000000       0.25000000 </v>
   <v>       0.30000000       0.10000000       0.25000000 </v>
   <v>       0.35000000       0.10000000       0.25000000 </v>
   <v>       0.40000000       0.10000000       0.25000000 </v>
   <v>       0.45000000       0.10000000       0.25000000 </v>
   <v>       0.50000000       0.10000000       0.25000000 </v>
   <v>       0.00000000       0.15000000       0.25000000 </v>
   <v>       0.05000000       0.15000000       0.25000000 </v>
   <v>       0.10000000       0.15000000       0.25000000 </v>
   <v>       0.15000000       0.15000000       0.25000000 </v>
   <v>       0.20000000       0.15000000       0.25000000 </v>
   <v>       0.25000000       0.15000000       0.25000000 </v>
   <v>       0.30000000       0.15000000       0.25000000 </v>
   <v>       0.35000000       0.15000000       0.25000000 </v>
   <v>       0.40000000       0.15000000       0.25000000 </v>
   <v>       0.45000000       0.15000000       0.25000000 </v>
   <v>       0.50000000       0.15000000       0.25000000 </v>
   <v>       0.00000000       0.20000000       0.25000000 </v>
   <v>       0.05000000       0.20000000       0.25000000 </v>
   <v>       0.10000000       0.20000000       0.25000000 </v>
   <v>       0.15000000       0.20000000       0.25000000 </v>
   <v>       0.20000000       0.20000000       0.25000000 </v>
   <v>       0.25000000       0.20000000       0.25000000 </v>
   <v>       0.30000000       0.20000000       0.25000000 </v>
   <v>       0.35000000       0.20000000       0.25000000 </v>
   <v>       0.40000000       0.20000000       0.25000000 </v>
   <v>       0.45000000       0.20000000       0.25000000 </v>
   <v>       0.50000000       0.20000000       0.25000000 </v>
   <v>       0.00000000       0.25000000       0.25000000 </v>
   <v>       0.05000000       0.25000000       0.25000000 </v>
   <v>       0.10000000       0.25000000       0.25000000 </v>
   <v>       0.15000000       0.25000000       0.25000000 </v>
   <v>       0.20000000       0.25000000       0.25000000 </v>
   <v>       0.25000000       0.25000000       0.25000000 </v>
   <v>       0.30000000       0.25000000       0.25000000 </v>
   <v>       0.35000000       0.25000000       0.25000000 </v>
   <v>       0.40000000       0.25000000       0.25000000 </v>
   <v>       0.45000000       0.25000000       0.25000000 </v>
   <v>       0.50000000       0.25000000       0.25000000 </v>
   <v>       0.00000000       0.30000000       0.25000000 </v>
   <v>       0.05000000       0.30000000       0.25000000 </v>
   <v>       0.10000000       0.30000000       0.25000000 </v>
   <v>       0.15000000       0.30000000       0.25000000 </v>
   <v>       0.20000000       0.30000000       0.25000000 </v>
   <v>       0.25000000       0.30000000       0.25000000 </v>
   <v>       0.30000000       0.30000000       0.25000000 </v>
   <v>       0.35000000       0.30000000       0.25000000 </v>
   <v>       0.40000000       0.30000000       0.25000000 </v>
   <v>       0.45000000       0.30000000       0.25000000 </v>
   <v>       0.50000000       0.30000000       0.25000000 </v>
   <v>       0.00000000       0.35000000       0.25000000 </v>
   <v>       0.05000000       0.35000000       0.25000000 </v>
   <v>       0.10000000       0.35000000       0.25000000 </v>
   <v>       0.15000000       0.35000000       0.25000000 </v>
   <v>       0.20000000       0.35000000       0.25000000 </v>
   <v>       0.25000000       0.35000000       0.25000000 </v>
   <v>       0.30000000       0.35000000       0.25000000 </v>
   <v>       0.35000000       0.35000000       0.25000000 </v>
   <v>       0.40000000       0.35000000       0.25000000 </v>
   <v>       0.45000000       0.35000000       0.25000000 </v>
   <v>       0.50000000       0.35000000       0.25000000 </v>
   <v>       0.00000000       0.40000000       0.25000000 </v>
   <v>       0.05000000       0.40000000       0.25000000 </v>
   <v>       0.10000000       0.40000000       0.25000000 </v>
   <v>       0.15000000       0.40000000       0.25000000 </v>
   <v>       0.20000000       0.40000000       0.25000000 </v>
   <v>       0.25000000       0.40000000       0.25000000 </v>
   <v>       0.30000000       0.40000000       0.25000000 </v>
   <v>       0.35000000       0.40000000       0.25000000 </v>
   <v>       0.40000000       0.40000000       0.25000000 </v>
   <v>       0.45000000       0.40000000       0.25000000 </v>
   <v>       0.50000000       0.40000000       0.25000000 </v>
   <v>       0.00000000       0.45000000       0.25000000 </v>
   <v>       0.05000000       0.45000000       0.25000000 </v>
   <v>       0.10000000       0.45000000       0.25000000 </v>
   <v>       0.15000000       0.45000000       0.25000000 </v>
   <v>       0.20000000       0.45000000       0.25000000 </v>
   <v>       0.25000000       0.45000000       0.25000000 </v>
   <v>       0.30000000       0.45000000       0.25000000 </v>
   <v>       0.35000000       0.45000000       0.25000000 </v>
   <v>       0.40000000       0.45000000       0.25000000 </v>
   <v>       0.45000000       0.45000000       0.25000000 </v>
   <v>       0.50000000       0.45000000       0.25000000 </v>
   <v>       0.00000000       0.50000000       0.25000000 </v>
   <v>       0.05000000       0.50000000       0.25000000 </v>
   <v>       0.10000000       0.50000000       0.25000000 </v>
   <v>       0.15000000       0.50000000       0.25000000 </v>
   <v>       0.20000000       0.50000000       0.25000000 </v>
   <v>       0.25000000       0.50000000       0.25000000 </v>
   <v>       0.30000000       0.50000000       0.25000000 </v>
   <v>       0.35000000       0.50000000       0.25000000 </v>
   <v>       0.40000000       0.50000000       0.25000000 </v>
   <v>       0.45000000       0.50000000       0.25000000 </v>
   <v>       0.50000000       0.50000000       0.25000000 </v>
   <v>       0.00000000      -0.45000000       0.25000000 </v>
   <v>       0.05000000      -0.45000000       0.25000000 </v>
   <v>       0.10000000      -0.45000000       0.25000000 </v>
   <v>       0.15000000      -0.45000000       0.25000000 </v>
   <v>       0.20000000      -0.45000000       0.25000000 </v>
   <v>       0.25000000      -0.45000000       0.25000000 </v>
   <v>       0.30000000      -0.45000000       0.25000000 </v>
   <v>       0.35000000      -0.45000000       0.25000000 </v>
   <v>       0.40000000      -0.45000000       0.25000000 </v>
   <v>       0.45000000      -0.45000000       0.25000000 </v>
   <v>       0.50000000      -0.45000000       0.25000000 </v>
   <v>       0.00000000      -0.40000000       0.25000000 </v>
   <v>       0.05000000      -0.40000000       0.25000000 </v>
   <v>       0.10000000      -0.40000000       0.25000000 </v>
   <v>       0.15000000      -0.40000000       0.25000000 </v>
   <v>       0.20000000      -0.40000000       0.25000000 </v>
   <v>       0.25000000      -0.40000000       0.25000000 </v>
   <v>       0.30000000      -0.40000000       0.25000000 </v>
   <v>       0.35000000      -0.40000000       0.25000000 </v>
   <v>       0.40000000      -0.40000000       0.25000000 </v>
   <v>       0.45000000      -0.40000000       0.25000000 </v>
   <v>       0.50000000      -0.40000000       0.25000000 </v>
   <v>       0.00000000      -0.35000000       0.25000000 </v>
   <v>       0.05000000      -0.35000000       0.25000000 </v>
   <v>       0.10000000      -0.35000000       0.25000000 </v>
   <v>       0.15000000      -0.35000000       0.25000000 </v>
   <v>       0.20000000      -0.35000000       0.25000000 </v>
   <v>       0.25000000      -0.35000000       0.25000000 </v>
   <v>       0.30000000      -0.35000000       0.25000000 </v>
   <v>       0.35000000      -0.35000000       0.25000000 </v>
   <v>       0.40000000      -0.35000000       0.25000000 </v>
   <v>       0.45000000      -0.35000000       0.25000000 </v>
   <v>       0.50000000      -0.35000000       0.25000000 </v>
   <v>       0.00000000      -0.30000000       0.25000000 </v>
   <v>       0.05000000      -0.30000000       0.25000000 </v>
   <v>       0.10000000      -0.30000000       0.25000000 </v>
   <v>       0.15000000      -0.30000000       0.25000000 </v>
   <v>       0.20000000      -0.30000000       0.25000000 </v>
   <v>       0.25000000      -0.30000000       0.25000000 </v>
   <v>       0.30000000      -0.30000000       0.25000000 </v>
   <v>       0.35000000      -0.30000000       0.25000000 </v>
   <v>       0.40000000      -0.30000000       0.25000000 </v>
   <v>       0.45000000      -0.30000000       0.25000000 </v>
   <v>       0.50000000      -0.30000000       0.25000000 </v>
   <v>       0.00000000      -0.25000000       0.25000000 </v>
   <v>       0.05000000      -0.25000000       0.25000000 </v>
   <v>       0.10000000      -0.25000000       0.25000000 </v>
   <v>       0.15000000      -0.25000000       0.25000000 </v>
   <v>       0.20000000      -0.25000000       0.25000000 </v>
   <v>       0.25000000      -0.25000000       0.25000000 </v>
   <v>       0.30000000      -0.25000000       0.25000000 </v>
   <v>       0.35000000      -0.25000000       0.25000000 </v>
   <v>       0.40000000      -0.25000000       0.25000000 </v>
   <v>       0.45000000      -0.25000000       0.25000000 </v>
   <v>       0.50000000      -0.25000000       0.25000000 </v>
   <v>       0.00000000      -0.20000000       0.25000000 </v>
   <v>       0.05000000      -0.20000000       0.25000000 </v>
   <v>       0.10000000      -0.20000000       0.25000000 </v>
   <v>       0.15000000      -0.20000000       0.25000000 </v>
   <v>       0.20000000      -0.20000000       0.25000000 </v>
   <v>       0.25000000      -0.20000000       0.25000000 </v>
   <v>       0.30000000      -0.20000000       0.25000000 </v>
   <v>       0.35000000      -0.20000000       0.25000000 </v>
   <v>       0.40000000      -0.20000000       0.25000000 </v>
   <v>       0.45000000      -0.20000000       0.25000000 </v>
   <v>       0.50000000      -0.20000000       0.25000000 </v>
   <v>       0.00000000      -0.15000000       0.25000000 </v>
   <v>       0.05000000      -0.15000000       0.25000000 </v>
   <v>       0.10000000      -0.15000000       0.25000000 </v>
   <v>       0.15000000      -0.15000000       0.25000000 </v>
   <v>       0.20000000      -0.15000000       0.25000000 </v>
   <v>       0.25000000      -0.15000000       0.25000000 </v>
   <v>       0.30000000      -0.15000000       0.25000000 </v>
   <v>       0.35000000      -0.15000000       0.25000000 </v>
   <v>       0.40000000      -0.15000000       0.25000000 </v>
   <v>       0.45000000      -0.15000000       0.25000000 </v>
   <v>       0.50000000      -0.15000000       0.25000000 </v>
   <v>       0.00000000      -0.10000000       0.25000000 </v>
   <v>       0.05000000      -0.10000000       0.25000000 </v>
   <v>       0.10000000      -0.10000000       0.25000000 </v>
   <v>       0.15000000      -0.10000000       0.25000000 </v>
   <v>       0.20000000      -0.10000000       0.25000000 </v>
   <v>       0.25000000      -0.10000000       0.25000000 </v>
   <v>       0.30000000      -0.10000000       0.25000000 </v>
   <v>       0.35000000      -0.10000000       0.25000000 </v>
   <v>       0.40000000      -0.10000000       0.25000000 </v>
   <v>       0.45000000      -0.10000000       0.25000000 </v>
   <v>       0.50000000      -0.10000000       0.25000000 </v>
   <v>       0.00000000      -0.05000000       0.25000000 </v>
   <v>       0.05000000      -0.05000000       0.25000000 </v>
   <v>       0.10000000      -0.05000000       0.25000000 </v>
   <v>       0.15000000      -0.05000000       0.25000000 </v>
   <v>       0.20000000      -0.05000000       0.25000000 </v>
   <v>       0.25000000      -0.05000000       0.25000000 </v>
   <v>       0.30000000      -0.05000000       0.25000000 </v>
   <v>       0.35000000      -0.05000000       0.25000000 </v>
   <v>       0.40000000      -0.05000000       0.25000000 </v>
   <v>       0.45000000      -0.05000000       0.25000000 </v>
   <v>       0.50000000      -0.05000000       0.25000000 </v>
   <v>       0.00000000       0.00000000       0.30000000 </v>
   <v>       0.05000000       0.00000000       0.30000000 </v>
   <v>       0.10000000       0.00000000       0.30000000 </v>
   <v>       0.15000000       0.00000000       0.30000000 </v>
   <v>       0.20000000       0.00000000       0.30000000 </v>
   <v>       0.25000000       0.00000000       0.30000000 </v>
   <v>       0.30000000       0.00000000       0.30000000 </v>
   <v>       0.35000000       0.00000000       0.30000000 </v>
   <v>       0.40000000       0.00000000       0.30000000 </v>
   <v>       0.45000000       0.00000000       0.30000000 </v>
   <v>       0.50000000       0.00000000       0.30000000 </v>
   <v>       0.00000000       0.05000000       0.30000000 </v>
   <v>       0.05000000       0.05000000       0.30000000 </v>
   <v>       0.10000000       0.05000000       0.30000000 </v>
   <v>       0.15000000       0.05000000       0.30000000 </v>
   <v>       0.20000000       0.05000000       0.30000000 </v>
   <v>       0.25000000       0.05000000       0.30000000 </v>
   <v>       0.30000000       0.05000000       0.30000000 </v>
[...]
      </set>
      <set comment="kpoint 2214">
       <r>    1.3749    1.0000 </r>
       <r>    1.3749    1.0000 </r>
       <r>    1.4619    1.0000 </r>
       <r>    1.4619    1.0000 </r>
       <r>    8.1845   -0.0044 </r>
       <r>    8.1845   -0.0044 </r>
       <r>    8.2714    0.0023 </r>
       <r>    8.2714    0.0023 </r>
       <r>   11.8813    0.0000 </r>
       <r>   11.8813    0.0000 </r>
       <r>   11.9711    0.0000 </r>
       <r>   11.9711    0.0000 </r>
       <r>   17.4344    0.0000 </r>
       <r>   17.4344    0.0000 </r>
       <r>   17.7035    0.0000 </r>
       <r>   17.7035    0.0000 </r>
      </set>
      <set comment="kpoint 2215">
       <r>    1.4848    1.0000 </r>
       <r>    1.4848    1.0000 </r>
       <r>    1.5716    1.0000 </r>
       <r>    1.5716    1.0000 </r>
       <r>    7.4881    1.0000 </r>
       <r>    7.4881    1.0000 </r>
       <r>    7.5759    1.0000 </r>
       <r>    7.5759    1.0000 </r>
       <r>   12.7635    0.0000 </r>
       <r>   12.7635    0.0000 </r>
       <r>   12.8520    0.0000 </r>
       <r>   12.8520    0.0000 </r>
       <r>   17.5321    0.0000 </r>
       <r>   17.5321    0.0000 </r>
       <r>   17.8010    0.0000 </r>
       <r>   17.8010    0.0000 </r>
      </set>
      <set comment="kpoint 2216">
       <r>    1.6384    1.0000 </r>
       <r>    1.6384    1.0000 </r>
       <r>    1.7251    1.0000 </r>
       <r>    1.7251    1.0000 </r>
       <r>    6.8074    1.0000 </r>
       <r>    6.8074    1.0000 </r>
       <r>    6.8958    1.0000 </r>
       <r>    6.8958    1.0000 </r>
       <r>   13.7016    0.0000 </r>
       <r>   13.7016    0.0000 </r>
       <r>   13.7887    0.0000 </r>
       <r>   13.7887    0.0000 </r>
       <r>   17.6690    0.0000 </r>
       <r>   17.6690    0.0000 </r>
       <r>   17.9374    0.0000 </r>
       <r>   17.9374    0.0000 </r>
      </set>
      <set comment="kpoint 2217">
       <r>    1.8357    1.0000 </r>
       <r>    1.8357    1.0000 </r>
       <r>    1.9220    1.0000 </r>
       <r>    1.9220    1.0000 </r>
       <r>    6.1568    1.0000 </r>
       <r>    6.1568    1.0000 </r>
       <r>    6.2457    1.0000 </r>
       <r>    6.2457    1.0000 </r>
       <r>   14.6779    0.0000 </r>
       <r>   14.6779    0.0000 </r>
       <r>   14.7629    0.0000 </r>
       <r>   14.7629    0.0000 </r>
       <r>   17.8450    0.0000 </r>
       <r>   17.8450    0.0000 </r>
       <r>   18.1129    0.0000 </r>
       <r>   18.1129    0.0000 </r>
      </set>
      <set comment="kpoint 2218">
       <r>    2.0763    1.0000 </r>
       <r>    2.0763    1.0000 </r>
       <r>    2.1622    1.0000 </r>
       <r>    2.1622    1.0000 </r>
       <r>    5.5420    1.0000 </r>
       <r>    5.5420    1.0000 </r>
       <r>    5.6315    1.0000 </r>
       <r>    5.6315    1.0000 </r>
       <r>   15.6807    0.0000 </r>
       <r>   15.6807    0.0000 </r>
       <r>   15.7623    0.0000 </r>
       <r>   15.7623    0.0000 </r>
       <r>   18.0602    0.0000 </r>
       <r>   18.0602    0.0000 </r>
       <r>   18.3275    0.0000 </r>
       <r>   18.3275    0.0000 </r>
      </set>
      <set comment="kpoint 2219">
       <r>    2.3601    1.0000 </r>
       <r>    2.3601    1.0000 </r>
       <r>    2.4452    1.0000 </r>
       <r>    2.4452    1.0000 </r>
       <r>    4.9657    1.0000 </r>
       <r>    4.9657    1.0000 </r>
       <r>    5.0562    1.0000 </r>
       <r>    5.0562    1.0000 </r>
       <r>   16.6961    0.0000 </r>
       <r>   16.6961    0.0000 </r>
       <r>   16.7715    0.0000 </r>
       <r>   16.7715    0.0000 </r>
       <r>   18.3147    0.0000 </r>
       <r>   18.3147    0.0000 </r>
       <r>   18.5811    0.0000 </r>
       <r>   18.5811    0.0000 </r>
      </set>
      <set comment="kpoint 2220">
       <r>    2.6861    1.0000 </r>
       <r>    2.6861    1.0000 </r>
       <r>    2.7698    1.0000 </r>
       <r>    2.7698    1.0000 </r>
       <r>    4.4300    1.0000 </r>
       <r>    4.4300    1.0000 </r>
       <r>    4.5220    1.0000 </r>
       <r>    4.5220    1.0000 </r>
       <r>   17.7008    0.0000 </r>
       <r>   17.7008    0.0000 </r>
       <r>   17.7640    0.0000 </r>
       <r>   17.7640    0.0000 </r>
       <r>   18.6084    0.0000 </r>
       <r>   18.6084    0.0000 </r>
       <r>   18.8738    0.0000 </r>
       <r>   18.8738    0.0000 </r>
      </set>
      <set comment="kpoint 2221">
       <r>    3.0520    1.0000 </r>
       <r>    3.0520    1.0000 </r>
       <r>    3.1315    1.0000 </r>
       <r>    3.1315    1.0000 </r>
       <r>    3.9381    1.0000 </r>
       <r>    3.9381    1.0000 </r>
       <r>    4.0343    1.0000 </r>
       <r>    4.0343    1.0000 </r>
       <r>   18.6487    0.0000 </r>
       <r>   18.6487    0.0000 </r>
       <r>   18.6855    0.0000 </r>
       <r>   18.6855    0.0000 </r>
       <r>   18.9414    0.0000 </r>
       <r>   18.9414    0.0000 </r>
       <r>   19.2052    0.0000 </r>
       <r>   19.2052    0.0000 </r>
      </set>
      <set comment="kpoint 2222">
       <r>    3.3845    1.0000 </r>
       <r>    3.3845    1.0000 </r>
       <r>    3.4371    1.0000 </r>
       <r>    3.4371    1.0000 </r>
       <r>    3.5636    1.0000 </r>
       <r>    3.5636    1.0000 </r>
       <r>    3.6867    1.0000 </r>
       <r>    3.6867    1.0000 </r>
       <r>   19.2990    0.0000 </r>
       <r>   19.2990    0.0000 </r>
       <r>   19.3292    0.0000 </r>
       <r>   19.3293    0.0000 </r>
       <r>   19.3784    0.0000 </r>
       <r>   19.3798    0.0000 </r>
       <r>   19.4387    0.0000 </r>
       <r>   19.4406    0.0000 </r>
      </set>
     </set>
    </set>
   </array>
  </eigenvalues>
  <separator name="orbital magnetization" >
   <v name="MAGDIPOLOUT">      0.00000000      0.00000000      0.00000000</v>
  </separator>
  <dos>
   <i name="efermi">      8.02417371 </i>
   <total>
    <array>
     <dimension dim="1">gridpoints</dimension>
     <dimension dim="2">spin</dimension>
     <field>energy</field>
     <field>total</field>
     <field>integrated</field>
     <set>
      <set comment="spin 1">
       <r>  -4.2735   0.0000   0.0000 </r>
       <r>  -4.1898   0.0000   0.0000 </r>
       <r>  -4.1062   0.0000   0.0000 </r>
       <r>  -4.0225   0.0000   0.0000 </r>
       <r>  -3.9389   0.0000   0.0000 </r>
       <r>  -3.8552   0.0000   0.0000 </r>
       <r>  -3.7715   0.0000   0.0000 </r>
       <r>  -3.6879   0.0000   0.0000 </r>
       <r>  -3.6042   0.0000   0.0000 </r>
       <r>  -3.5206   0.0000   0.0000 </r>
       <r>  -3.4369   0.0000   0.0000 </r>
       <r>  -3.3533   0.0001   0.0000 </r>
       <r>  -3.2696   0.0003   0.0000 </r>
       <r>  -3.1860  -0.0033  -0.0002 </r>
       <r>  -3.1023   0.0257   0.0019 </r>
       <r>  -3.0186   0.1183   0.0118 </r>
       <r>  -2.9350   0.1796   0.0268 </r>
       <r>  -2.8513   0.2325   0.0463 </r>
       <r>  -2.7677   0.2466   0.0669 </r>
       <r>  -2.6840   0.3217   0.0938 </r>
       <r>  -2.6004   0.2903   0.1181 </r>
       <r>  -2.5167   0.3705   0.1491 </r>
       <r>  -2.4330   0.3864   0.1814 </r>
       <r>  -2.3494   0.3704   0.2124 </r>
       <r>  -2.2657   0.4223   0.2477 </r>
       <r>  -2.1821   0.4782   0.2877 </r>
       <r>  -2.0984   0.4583   0.3261 </r>
       <r>  -2.0148   0.3958   0.3592 </r>
       <r>  -1.9311   0.6000   0.4094 </r>
       <r>  -1.8474   0.5257   0.4533 </r>
       <r>  -1.7638   0.4706   0.4927 </r>
       <r>  -1.6801   0.5361   0.5376 </r>
       <r>  -1.5965   0.6522   0.5921 </r>
       <r>  -1.5128   0.5400   0.6373 </r>
       <r>  -1.4292   0.6454   0.6913 </r>
       <r>  -1.3455   0.5674   0.7388 </r>
       <r>  -1.2619   0.5876   0.7879 </r>
       <r>  -1.1782   0.6861   0.8453 </r>
       <r>  -1.0945   0.7997   0.9122 </r>
       <r>  -1.0109   0.5765   0.9604 </r>
       <r>  -0.9272   0.5451   1.0060 </r>
       <r>  -0.8436   0.8327   1.0757 </r>
       <r>  -0.7599   0.7426   1.1378 </r>
       <r>  -0.6763   0.7592   1.2013 </r>
       <r>  -0.5926   0.6634   1.2568 </r>
       <r>  -0.5089   0.7952   1.3234 </r>
       <r>  -0.4253   0.7176   1.3834 </r>
       <r>  -0.3416   0.7768   1.4484 </r>
       <r>  -0.2580   0.8343   1.5182 </r>
       <r>  -0.1743   0.8509   1.5894 </r>
       <r>  -0.0907   0.8404   1.6597 </r>
       <r>  -0.0070   0.8192   1.7282 </r>
       <r>   0.0766   0.6476   1.7824 </r>
       <r>   0.1603   0.8769   1.8557 </r>
       <r>   0.2440   1.0590   1.9443 </r>
       <r>   0.3276   0.9593   2.0246 </r>
       <r>   0.4113   0.7246   2.0852 </r>
       <r>   0.4949   0.8533   2.1566 </r>
       <r>   0.5786   0.9398   2.2352 </r>
       <r>   0.6622   0.8604   2.3072 </r>
       <r>   0.7459   1.1122   2.4002 </r>
       <r>   0.8296   0.8166   2.4685 </r>
       <r>   0.9132   0.9510   2.5481 </r>
       <r>   0.9969   1.0983   2.6400 </r>
       <r>   1.0805   1.0173   2.7251 </r>
       <r>   1.1642   0.7127   2.7847 </r>
       <r>   1.2478   1.0696   2.8742 </r>
       <r>   1.3315   1.0268   2.9601 </r>
       <r>   1.4152   1.0064   3.0443 </r>
       <r>   1.4988   1.1728   3.1424 </r>
       <r>   1.5825   1.1514   3.2387 </r>
       <r>   1.6661   0.8646   3.3110 </r>
       <r>   1.7498   0.9332   3.3891 </r>
       <r>   1.8334   1.0821   3.4796 </r>
       <r>   1.9171   1.0737   3.5694 </r>
       <r>   2.0007   1.2080   3.6705 </r>
       <r>   2.0844   1.2355   3.7739 </r>
       <r>   2.1681   1.0405   3.8609 </r>
       <r>   2.2517   0.9266   3.9384 </r>
       <r>   2.3354   1.2151   4.0401 </r>
       <r>   2.4190   1.2463   4.1443 </r>
       <r>   2.5027   1.0836   4.2350 </r>
       <r>   2.5863   0.9955   4.3182 </r>
       <r>   2.6700   1.2467   4.4225 </r>
       <r>   2.7537   1.1753   4.5209 </r>
       <r>   2.8373   1.3419   4.6331 </r>
       <r>   2.9210   1.2569   4.7383 </r>
       <r>   3.0046   1.1526   4.8347 </r>
       <r>   3.0883   1.1461   4.9306 </r>
       <r>   3.1719   1.1274   5.0249 </r>
       <r>   3.2556   1.0793   5.1152 </r>
       <r>   3.3392   1.4011   5.2324 </r>
       <r>   3.4229   1.4730   5.3556 </r>
       <r>   3.5066   1.3568   5.4691 </r>
       <r>   3.5902   1.1184   5.5627 </r>
       <r>   3.6739   1.3109   5.6723 </r>
       <r>   3.7575   1.2001   5.7727 </r>
       <r>   3.8412   1.2507   5.8774 </r>
       <r>   3.9248   1.1702   5.9753 </r>
       <r>   4.0085   1.4121   6.0934 </r>
       <r>   4.0922   1.4912   6.2181 </r>
       <r>   4.1758   1.3964   6.3350 </r>
       <r>   4.2595   1.1470   6.4309 </r>
       <r>   4.3431   1.3550   6.5443 </r>
       <r>   4.4268   1.4728   6.6675 </r>
       <r>   4.5104   1.3780   6.7828 </r>
       <r>   4.5941   1.4201   6.9016 </r>
       <r>   4.6778   1.3247   7.0124 </r>
       <r>   4.7614   1.4095   7.1303 </r>
       <r>   4.8451   1.3374   7.2422 </r>
       <r>   4.9287   1.4362   7.3623 </r>
       <r>   5.0124   1.7009   7.5046 </r>
       <r>   5.0960   1.7165   7.6482 </r>
       <r>   5.1797   1.3948   7.7649 </r>
       <r>   5.2633   1.4330   7.8848 </r>
       <r>   5.3470   1.3095   7.9943 </r>
       <r>   5.4307   1.6836   8.1352 </r>
       <r>   5.5143   1.8033   8.2860 </r>
       <r>   5.5980   1.3102   8.3956 </r>
       <r>   5.6816   1.2221   8.4979 </r>
       <r>   5.7653   1.6727   8.6378 </r>
       <r>   5.8489   1.6465   8.7755 </r>
       <r>   5.9326   1.2223   8.8778 </r>
       <r>   6.0163   1.2547   8.9828 </r>
       <r>   6.0999   1.5353   9.1112 </r>
       <r>   6.1836   1.5608   9.2418 </r>
       <r>   6.2672   1.1877   9.3411 </r>
       <r>   6.3509   1.2984   9.4497 </r>
       <r>   6.4345   1.6603   9.5886 </r>
       <r>   6.5182   1.4841   9.7128 </r>
       <r>   6.6018   1.2795   9.8198 </r>
       <r>   6.6855   1.3376   9.9317 </r>
       <r>   6.7692   1.4496  10.0530 </r>
       <r>   6.8528   1.6150  10.1881 </r>
       <r>   6.9365   1.6267  10.3242 </r>
       <r>   7.0201   1.5958  10.4577 </r>
       <r>   7.1038   1.5577  10.5880 </r>
       <r>   7.1874   1.7043  10.7305 </r>
       <r>   7.2711   1.5720  10.8621 </r>
       <r>   7.3548   1.3789  10.9774 </r>
       <r>   7.4384   1.5225  11.1048 </r>
       <r>   7.5221   1.5784  11.2368 </r>
       <r>   7.6057   1.4547  11.3585 </r>
       <r>   7.6894   1.5418  11.4875 </r>
       <r>   7.7730   1.4965  11.6127 </r>
       <r>   7.8567   1.5681  11.7439 </r>
       <r>   7.9404   1.5480  11.8734 </r>
       <r>   8.0240   1.5103  11.9997 </r>
       <r>   8.1077   1.7516  12.1463 </r>
       <r>   8.1913   1.9998  12.3136 </r>
       <r>   8.2750   1.7871  12.4631 </r>
       <r>   8.3586   1.5123  12.5896 </r>
       <r>   8.4423   1.4847  12.7138 </r>
       <r>   8.5259   1.3439  12.8262 </r>
       <r>   8.6096   1.5343  12.9546 </r>
       <r>   8.6933   1.7680  13.1025 </r>
       <r>   8.7769   1.8487  13.2571 </r>
       <r>   8.8606   2.0982  13.4327 </r>
       <r>   8.9442   1.8895  13.5907 </r>
       <r>   9.0279   1.7366  13.7360 </r>
       <r>   9.1115   1.4031  13.8534 </r>
       <r>   9.1952   1.4467  13.9744 </r>
       <r>   9.2789   1.4789  14.0981 </r>
       <r>   9.3625   1.7033  14.2406 </r>
       <r>   9.4462   1.8294  14.3937 </r>
       <r>   9.5298   1.6775  14.5340 </r>
       <r>   9.6135   1.8065  14.6851 </r>
       <r>   9.6971   2.0349  14.8554 </r>
       <r>   9.7808   1.9412  15.0178 </r>
       <r>   9.8644   1.7443  15.1637 </r>
       <r>   9.9481   1.5262  15.2914 </r>
       <r>  10.0318   1.4511  15.4128 </r>
       <r>  10.1154   1.8709  15.5693 </r>
       <r>  10.1991   2.1827  15.7519 </r>
       <r>  10.2827   1.7510  15.8983 </r>
       <r>  10.3664   1.5585  16.0287 </r>
       <r>  10.4500   1.8856  16.1865 </r>
       <r>  10.5337   2.0626  16.3590 </r>
       <r>  10.6174   1.5113  16.4854 </r>
       <r>  10.7010   1.6096  16.6201 </r>
       <r>  10.7847   2.1471  16.7997 </r>
       <r>  10.8683   2.1054  16.9758 </r>
       <r>  10.9520   1.7664  17.1236 </r>
       <r>  11.0356   1.7084  17.2665 </r>
       <r>  11.1193   1.9245  17.4275 </r>
       <r>  11.2030   2.1860  17.6104 </r>
       <r>  11.2866   1.8041  17.7613 </r>
       <r>  11.3703   1.8001  17.9119 </r>
       <r>  11.4539   1.9510  18.0751 </r>
       <r>  11.5376   1.7256  18.2195 </r>
       <r>  11.6212   1.5424  18.3485 </r>
       <r>  11.7049   2.0415  18.5193 </r>
       <r>  11.7885   2.2146  18.7046 </r>
       <r>  11.8722   2.2189  18.8902 </r>
       <r>  11.9559   1.9893  19.0566 </r>
       <r>  12.0395   1.9495  19.2197 </r>
       <r>  12.1232   1.8981  19.3785 </r>
       <r>  12.2068   1.9645  19.5428 </r>
       <r>  12.2905   2.0371  19.7132 </r>
       <r>  12.3741   1.9498  19.8764 </r>
       <r>  12.4578   2.0091  20.0444 </r>
       <r>  12.5415   1.9847  20.2105 </r>
       <r>  12.6251   1.8297  20.3635 </r>
       <r>  12.7088   1.9602  20.5275 </r>
       <r>  12.7924   2.1865  20.7104 </r>
       <r>  12.8761   2.2470  20.8984 </r>
       <r>  12.9597   2.2803  21.0892 </r>
       <r>  13.0434   2.1401  21.2682 </r>
       <r>  13.1270   2.0639  21.4409 </r>
       <r>  13.2107   2.2804  21.6316 </r>
       <r>  13.2944   1.8367  21.7853 </r>
       <r>  13.3780   2.0200  21.9543 </r>
       <r>  13.4617   2.3118  22.1477 </r>
       <r>  13.5453   2.3632  22.3454 </r>
       <r>  13.6290   2.5971  22.5626 </r>
       <r>  13.7126   2.2922  22.7544 </r>
       <r>  13.7963   2.1015  22.9302 </r>
       <r>  13.8800   2.2509  23.1185 </r>
       <r>  13.9636   2.4240  23.3213 </r>
       <r>  14.0473   2.2678  23.5110 </r>
       <r>  14.1309   2.3635  23.7087 </r>
       <r>  14.2146   2.2104  23.8936 </r>
       <r>  14.2982   2.2975  24.0858 </r>
       <r>  14.3819   2.4191  24.2882 </r>
       <r>  14.4656   2.2056  24.4727 </r>
       <r>  14.5492   2.1048  24.6488 </r>
       <r>  14.6329   2.1364  24.8275 </r>
       <r>  14.7165   2.2560  25.0162 </r>
       <r>  14.8002   2.2447  25.2040 </r>
       <r>  14.8838   1.9760  25.3693 </r>
       <r>  14.9675   1.9716  25.5343 </r>
       <r>  15.0511   2.0087  25.7023 </r>
       <r>  15.1348   2.1308  25.8806 </r>
       <r>  15.2185   2.3530  26.0774 </r>
       <r>  15.3021   2.3100  26.2706 </r>
       <r>  15.3858   2.0479  26.4420 </r>
       <r>  15.4694   2.1074  26.6183 </r>
       <r>  15.5531   2.2445  26.8060 </r>
       <r>  15.6367   2.2025  26.9903 </r>
       <r>  15.7204   2.2185  27.1759 </r>
       <r>  15.8041   1.9159  27.3361 </r>
       <r>  15.8877   1.8896  27.4942 </r>
       <r>  15.9714   2.0524  27.6659 </r>
       <r>  16.0550   2.0699  27.8391 </r>
       <r>  16.1387   2.1844  28.0218 </r>
       <r>  16.2223   2.1266  28.1997 </r>
       <r>  16.3060   2.0591  28.3720 </r>
       <r>  16.3896   2.1106  28.5485 </r>
       <r>  16.4733   2.0795  28.7225 </r>
       <r>  16.5570   1.8955  28.8811 </r>
       <r>  16.6406   1.8409  29.0351 </r>
       <r>  16.7243   1.8909  29.1933 </r>
       <r>  16.8079   2.2133  29.3784 </r>
       <r>  16.8916   2.2607  29.5675 </r>
       <r>  16.9752   2.0103  29.7357 </r>
       <r>  17.0589   1.6509  29.8738 </r>
       <r>  17.1426   1.4936  29.9988 </r>
       <r>  17.2262   1.6495  30.1368 </r>
       <r>  17.3099   1.6919  30.2783 </r>
       <r>  17.3935   1.6270  30.4144 </r>
       <r>  17.4772   1.5775  30.5464 </r>
       <r>  17.5608   1.4140  30.6647 </r>
       <r>  17.6445   1.2409  30.7685 </r>
       <r>  17.7282   1.2442  30.8726 </r>
       <r>  17.8118   1.3087  30.9820 </r>
       <r>  17.8955   1.2057  31.0829 </r>
       <r>  17.9791   1.1486  31.1790 </r>
       <r>  18.0628   1.0938  31.2705 </r>
       <r>  18.1464   0.9592  31.3508 </r>
       <r>  18.2301   0.9019  31.4262 </r>
       <r>  18.3137   0.9283  31.5039 </r>
       <r>  18.3974   0.9759  31.5855 </r>
       <r>  18.4811   1.0525  31.6735 </r>
       <r>  18.5647   0.8656  31.7460 </r>
       <r>  18.6484   0.5822  31.7947 </r>
       <r>  18.7320   0.4834  31.8351 </r>
       <r>  18.8157   0.5053  31.8774 </r>
       <r>  18.8993   0.3987  31.9107 </r>
       <r>  18.9830   0.2521  31.9318 </r>
       <r>  19.0667   0.1787  31.9468 </r>
       <r>  19.1503   0.1453  31.9589 </r>
       <r>  19.2340   0.1800  31.9740 </r>
       <r>  19.3176   0.1464  31.9862 </r>
       <r>  19.4013   0.0850  31.9933 </r>
       <r>  19.4849   0.0381  31.9965 </r>
       <r>  19.5686   0.0181  31.9980 </r>
       <r>  19.6522   0.0147  31.9993 </r>
       <r>  19.7359   0.0081  32.0000 </r>
       <r>  19.8196   0.0007  32.0000 </r>
       <r>  19.9032  -0.0003  32.0000 </r>
       <r>  19.9869   0.0000  32.0000 </r>
       <r>  20.0705   0.0000  32.0000 </r>
       <r>  20.1542   0.0000  32.0000 </r>
       <r>  20.2378   0.0000  32.0000 </r>
       <r>  20.3215   0.0000  32.0000 </r>
       <r>  20.4052   0.0000  32.0000 </r>
       <r>  20.4888   0.0000  32.0000 </r>
       <r>  20.5725   0.0000  32.0000 </r>
       <r>  20.6561   0.0000  32.0000 </r>
       <r>  20.7398   0.0000  32.0000 </r>
       <r>  20.8234   0.0000  32.0000 </r>
      </set>
     </set>
    </array>
   </total>
  </dos>
 </calculation>
 <structure name="finalpos" >
  <crystal>
   <varray name="basis" >
    <v>       4.04053900       0.00000000       0.00000000 </v>
    <v>       0.00000000       4.04053900      -0.04040500 </v>
    <v>       0.00000000       0.00000000       4.04053900 </v>
   </varray>
   <i name="volume">     65.96565955 </i>
   <varray name="rec_basis" >
    <v>       0.24749173       0.00000000       0.00000000 </v>
    <v>       0.00000000       0.24749173       0.00000000 </v>
    <v>       0.00000000       0.00247489       0.24749173 </v>
   </varray>
  </crystal>
  <varray name="positions" >
   <v>       0.00000000       0.00000000       0.00000000 </v>
   <v>       0.50000000       0.50000000       0.00000000 </v>
   <v>       0.50000000       0.00000000       0.50000000 </v>
   <v>       0.00000000       0.50000000       0.50000000 </v>
  </varray>
 </structure>
</modeling>
