<?xml version="1.0" encoding="ISO-8859-1"?>
<modeling>
 <generator>
  <i name="program" type="string">vasp </i>
  <i name="version" type="string">5.2.2  </i>
  <i name="subversion" type="string">15Apr09 complex  parallel </i>
  <i name="platform" type="string">unknown </i>
  <i name="date" type="string">2012 01 31 </i>
  <i name="time" type="string">14:51:04 </i>
 </generator>
 <incar>
  <i type="string" name="SYSTEM"> Al</i>
  <i type="int" name="ISTART">     1</i>
  <i type="string" name="PREC">accurate</i>
  <i type="logical" name="ADDGRID"> F  </i>
  <i type="int" name="ISPIN">     1</i>
  <i type="int" name="ICHARG">     1</i>
  <i type="int" name="IBRION">     2</i>
  <i name="EDIFF">      0.00000010</i>
  <i name="EDIFFG">      0.00000010</i>
  <i type="int" name="NSW">     5</i>
  <i type="int" name="ISIF">     2</i>
  <i name="ENCUT">    550.00000000</i>
  <i name="POTIM">      0.10000000</i>
  <i type="string" name="LREAL"> AUTO</i>
  <i type="int" name="ISMEAR">     2</i>
  <i name="SIGMA">      0.10000000</i>
  <i type="logical" name="LWAVE"> F  </i>
  <i type="logical" name="LPEAD"> F  </i>
  <i type="logical" name="LCALCPOL"> F  </i>
  <i type="logical" name="LCALCEPS"> F  </i>
  <v name="EFIELD_PEAD">      0.00000000      0.00000000      0.00000000</v>
  <i type="int" name="VOSKOWN">     1</i>
  <i type="logical" name="LEFG"> F  </i>
 </incar>
 <kpoints>
  <generation param="Gamma">
   <v type="int" name="divisions">      20       20       20 </v>
   <v name="usershift">      0.00000000       0.00000000       0.00000000 </v>
   <v name="genvec1">      0.05000000       0.00000000       0.00000000 </v>
   <v name="genvec2">      0.00000000       0.05000000       0.00000000 </v>
   <v name="genvec3">      0.00000000       0.00000000       0.05000000 </v>
   <v name="shift">      0.00000000       0.00000000       0.00000000 </v>
  </generation>
  <varray name="kpointlist" >
   <v>       0.00000000       0.00000000       0.00000000 </v>
   <v>       0.05000000       0.00000000       0.00000000 </v>
   <v>       0.10000000       0.00000000       0.00000000 </v>
   <v>       0.15000000       0.00000000       0.00000000 </v>
   <v>       0.20000000       0.00000000       0.00000000 </v>
   <v>       0.25000000       0.00000000       0.00000000 </v>
   <v>       0.30000000       0.00000000       0.00000000 </v>
   <v>       0.35000000       0.00000000       0.00000000 </v>
   <v>       0.40000000       0.00000000       0.00000000 </v>
   <v>       0.45000000       0.00000000       0.00000000 </v>
   <v>       0.50000000       0.00000000       0.00000000 </v>
   <v>       0.00000000       0.05000000       0.00000000 </v>
   <v>       0.05000000       0.05000000       0.00000000 </v>
   <v>       0.10000000       0.05000000       0.00000000 </v>
   <v>       0.15000000       0.05000000       0.00000000 </v>
   <v>       0.20000000       0.05000000       0.00000000 </v>
   <v>       0.25000000       0.05000000       0.00000000 </v>
   <v>       0.30000000       0.05000000       0.00000000 </v>
   <v>       0.35000000       0.05000000       0.00000000 </v>
   <v>       0.40000000       0.05000000       0.00000000 </v>
   <v>       0.45000000       0.05000000       0.00000000 </v>
   <v>       0.50000000       0.05000000       0.00000000 </v>
   <v>      -0.45000000       0.05000000       0.00000000 </v>
   <v>      -0.40000000       0.05000000       0.00000000 </v>
   <v>      -0.35000000       0.05000000       0.00000000 </v>
   <v>      -0.30000000       0.05000000       0.00000000 </v>
   <v>      -0.25000000       0.05000000       0.00000000 </v>
   <v>      -0.20000000       0.05000000       0.00000000 </v>
   <v>      -0.15000000       0.05000000       0.00000000 </v>
   <v>      -0.10000000       0.05000000       0.00000000 </v>
   <v>      -0.05000000       0.05000000       0.00000000 </v>
   <v>       0.00000000       0.10000000       0.00000000 </v>
   <v>       0.05000000       0.10000000       0.00000000 </v>
   <v>       0.10000000       0.10000000       0.00000000 </v>
   <v>       0.15000000       0.10000000       0.00000000 </v>
   <v>       0.20000000       0.10000000       0.00000000 </v>
   <v>       0.25000000       0.10000000       0.00000000 </v>
   <v>       0.30000000       0.10000000       0.00000000 </v>
   <v>       0.35000000       0.10000000       0.00000000 </v>
   <v>       0.40000000       0.10000000       0.00000000 </v>
   <v>       0.45000000       0.10000000       0.00000000 </v>
   <v>       0.50000000       0.10000000       0.00000000 </v>
   <v>      -0.45000000       0.10000000       0.00000000 </v>
   <v>      -0.40000000       0.10000000       0.00000000 </v>
   <v>      -0.35000000       0.10000000       0.00000000 </v>
   <v>      -0.30000000       0.10000000       0.00000000 </v>
   <v>      -0.25000000       0.10000000       0.00000000 </v>
   <v>      -0.20000000       0.10000000       0.00000000 </v>
   <v>      -0.15000000       0.10000000       0.00000000 </v>
   <v>      -0.10000000       0.10000000       0.00000000 </v>
   <v>      -0.05000000       0.10000000       0.00000000 </v>
   <v>       0.00000000       0.15000000       0.00000000 </v>
   <v>       0.05000000       0.15000000       0.00000000 </v>
   <v>       0.10000000       0.15000000       0.00000000 </v>
   <v>       0.15000000       0.15000000       0.00000000 </v>
   <v>       0.20000000       0.15000000       0.00000000 </v>
   <v>       0.25000000       0.15000000       0.00000000 </v>
   <v>       0.30000000       0.15000000       0.00000000 </v>
   <v>       0.35000000       0.15000000       0.00000000 </v>
   <v>       0.40000000       0.15000000       0.00000000 </v>
   <v>       0.45000000       0.15000000       0.00000000 </v>
   <v>       0.50000000       0.15000000       0.00000000 </v>
   <v>      -0.45000000       0.15000000       0.00000000 </v>
   <v>      -0.40000000       0.15000000       0.00000000 </v>
   <v>      -0.35000000       0.15000000       0.00000000 </v>
   <v>      -0.30000000       0.15000000       0.00000000 </v>
   <v>      -0.25000000       0.15000000       0.00000000 </v>
   <v>      -0.20000000       0.15000000       0.00000000 </v>
   <v>      -0.15000000       0.15000000       0.00000000 </v>
   <v>      -0.10000000       0.15000000       0.00000000 </v>
   <v>      -0.05000000       0.15000000       0.00000000 </v>
   <v>       0.00000000       0.20000000       0.00000000 </v>
   <v>       0.05000000       0.20000000       0.00000000 </v>
   <v>       0.10000000       0.20000000       0.00000000 </v>
   <v>       0.15000000       0.20000000       0.00000000 </v>
   <v>       0.20000000       0.20000000       0.00000000 </v>
   <v>       0.25000000       0.20000000       0.00000000 </v>
   <v>       0.30000000       0.20000000       0.00000000 </v>
   <v>       0.35000000       0.20000000       0.00000000 </v>
   <v>       0.40000000       0.20000000       0.00000000 </v>
   <v>       0.45000000       0.20000000       0.00000000 </v>
   <v>       0.50000000       0.20000000       0.00000000 </v>
   <v>      -0.45000000       0.20000000       0.00000000 </v>
   <v>      -0.40000000       0.20000000       0.00000000 </v>
   <v>      -0.35000000       0.20000000       0.00000000 </v>
   <v>      -0.30000000       0.20000000       0.00000000 </v>
   <v>      -0.25000000       0.20000000       0.00000000 </v>
   <v>      -0.20000000       0.20000000       0.00000000 </v>
   <v>      -0.15000000       0.20000000       0.00000000 </v>
   <v>      -0.10000000       0.20000000       0.00000000 </v>
   <v>      -0.05000000       0.20000000       0.00000000 </v>
   <v>       0.00000000       0.25000000       0.00000000 </v>
   <v>       0.05000000       0.25000000       0.00000000 </v>
   <v>       0.10000000       0.25000000       0.00000000 </v>
   <v>       0.15000000       0.25000000       0.00000000 </v>
   <v>       0.20000000       0.25000000       0.00000000 </v>
   <v>       0.25000000       0.25000000       0.00000000 </v>
   <v>       0.30000000       0.25000000       0.00000000 </v>
   <v>       0.35000000       0.25000000       0.00000000 </v>
   <v>       0.40000000       0.25000000       0.00000000 </v>
   <v>       0.45000000       0.25000000       0.00000000 </v>
   <v>       0.50000000       0.25000000       0.00000000 </v>
   <v>      -0.45000000       0.25000000       0.00000000 </v>
   <v>      -0.40000000       0.25000000       0.00000000 </v>
   <v>      -0.35000000       0.25000000       0.00000000 </v>
   <v>      -0.30000000       0.25000000       0.00000000 </v>
   <v>      -0.25000000       0.25000000       0.00000000 </v>
   <v>      -0.20000000       0.25000000       0.00000000 </v>
   <v>      -0.15000000       0.25000000       0.00000000 </v>
   <v>      -0.10000000       0.25000000       0.00000000 </v>
   <v>      -0.05000000       0.25000000       0.00000000 </v>
   <v>       0.00000000       0.30000000       0.00000000 </v>
   <v>       0.05000000       0.30000000       0.00000000 </v>
   <v>       0.10000000       0.30000000       0.00000000 </v>
   <v>       0.15000000       0.30000000       0.00000000 </v>
   <v>       0.20000000       0.30000000       0.00000000 </v>
   <v>       0.25000000       0.30000000       0.00000000 </v>
   <v>       0.30000000       0.30000000       0.00000000 </v>
   <v>       0.35000000       0.30000000       0.00000000 </v>
   <v>       0.40000000       0.30000000       0.00000000 </v>
   <v>       0.45000000       0.30000000       0.00000000 </v>
   <v>       0.50000000       0.30000000       0.00000000 </v>
   <v>      -0.45000000       0.30000000       0.00000000 </v>
   <v>      -0.40000000       0.30000000       0.00000000 </v>
   <v>      -0.35000000       0.30000000       0.00000000 </v>
   <v>      -0.30000000       0.30000000       0.00000000 </v>
   <v>      -0.25000000       0.30000000       0.00000000 </v>
   <v>      -0.20000000       0.30000000       0.00000000 </v>
   <v>      -0.15000000       0.30000000       0.00000000 </v>
   <v>      -0.10000000       0.30000000       0.00000000 </v>
   <v>      -0.05000000       0.30000000       0.00000000 </v>
   <v>       0.00000000       0.35000000       0.00000000 </v>
   <v>       0.05000000       0.35000000       0.00000000 </v>
   <v>       0.10000000       0.35000000       0.00000000 </v>
   <v>       0.15000000       0.35000000       0.00000000 </v>
   <v>       0.20000000       0.35000000       0.00000000 </v>
   <v>       0.25000000       0.35000000       0.00000000 </v>
   <v>       0.30000000       0.35000000       0.00000000 </v>
   <v>       0.35000000       0.35000000       0.00000000 </v>
   <v>       0.40000000       0.35000000       0.00000000 </v>
   <v>       0.45000000       0.35000000       0.00000000 </v>
   <v>       0.50000000       0.35000000       0.00000000 </v>
   <v>      -0.45000000       0.35000000       0.00000000 </v>
   <v>      -0.40000000       0.35000000       0.00000000 </v>
   <v>      -0.35000000       0.35000000       0.00000000 </v>
   <v>      -0.30000000       0.35000000       0.00000000 </v>
   <v>      -0.25000000       0.35000000       0.00000000 </v>
   <v>      -0.20000000       0.35000000       0.00000000 </v>
   <v>      -0.15000000       0.35000000       0.00000000 </v>
   <v>      -0.10000000       0.35000000       0.00000000 </v>
   <v>      -0.05000000       0.35000000       0.00000000 </v>
   <v>       0.00000000       0.40000000       0.00000000 </v>
   <v>       0.05000000       0.40000000       0.00000000 </v>
   <v>       0.10000000       0.40000000       0.00000000 </v>
   <v>       0.15000000       0.40000000       0.00000000 </v>
   <v>       0.20000000       0.40000000       0.00000000 </v>
   <v>       0.25000000       0.40000000       0.00000000 </v>
   <v>       0.30000000       0.40000000       0.00000000 </v>
   <v>       0.35000000       0.40000000       0.00000000 </v>
   <v>       0.40000000       0.40000000       0.00000000 </v>
   <v>       0.45000000       0.40000000       0.00000000 </v>
   <v>       0.50000000       0.40000000       0.00000000 </v>
   <v>      -0.45000000       0.40000000       0.00000000 </v>
   <v>      -0.40000000       0.40000000       0.00000000 </v>
   <v>      -0.35000000       0.40000000       0.00000000 </v>
   <v>      -0.30000000       0.40000000       0.00000000 </v>
   <v>      -0.25000000       0.40000000       0.00000000 </v>
   <v>      -0.20000000       0.40000000       0.00000000 </v>
   <v>      -0.15000000       0.40000000       0.00000000 </v>
   <v>      -0.10000000       0.40000000       0.00000000 </v>
   <v>      -0.05000000       0.40000000       0.00000000 </v>
   <v>       0.00000000       0.45000000       0.00000000 </v>
   <v>       0.05000000       0.45000000       0.00000000 </v>
   <v>       0.10000000       0.45000000       0.00000000 </v>
   <v>       0.15000000       0.45000000       0.00000000 </v>
   <v>       0.20000000       0.45000000       0.00000000 </v>
   <v>       0.25000000       0.45000000       0.00000000 </v>
   <v>       0.30000000       0.45000000       0.00000000 </v>
   <v>       0.35000000       0.45000000       0.00000000 </v>
   <v>       0.40000000       0.45000000       0.00000000 </v>
   <v>       0.45000000       0.45000000       0.00000000 </v>
   <v>       0.50000000       0.45000000       0.00000000 </v>
   <v>      -0.45000000       0.45000000       0.00000000 </v>
   <v>      -0.40000000       0.45000000       0.00000000 </v>
   <v>      -0.35000000       0.45000000       0.00000000 </v>
   <v>      -0.30000000       0.45000000       0.00000000 </v>
   <v>      -0.25000000       0.45000000       0.00000000 </v>
   <v>      -0.20000000       0.45000000       0.00000000 </v>
   <v>      -0.15000000       0.45000000       0.00000000 </v>
   <v>      -0.10000000       0.45000000       0.00000000 </v>
   <v>      -0.05000000       0.45000000       0.00000000 </v>
   <v>       0.00000000       0.50000000       0.00000000 </v>
   <v>       0.05000000       0.50000000       0.00000000 </v>
   <v>       0.10000000       0.50000000       0.00000000 </v>
   <v>       0.15000000       0.50000000       0.00000000 </v>
   <v>       0.20000000       0.50000000       0.00000000 </v>
   <v>       0.25000000       0.50000000       0.00000000 </v>
   <v>       0.30000000       0.50000000       0.00000000 </v>
   <v>       0.35000000       0.50000000       0.00000000 </v>
   <v>       0.40000000       0.50000000       0.00000000 </v>
   <v>       0.45000000       0.50000000       0.00000000 </v>
   <v>       0.50000000       0.50000000       0.00000000 </v>
   <v>       0.00000000       0.00000000       0.05000000 </v>
   <v>       0.05000000       0.00000000       0.05000000 </v>
   <v>       0.10000000       0.00000000       0.05000000 </v>
   <v>       0.15000000       0.00000000       0.05000000 </v>
   <v>       0.20000000       0.00000000       0.05000000 </v>
   <v>       0.25000000       0.00000000       0.05000000 </v>
   <v>       0.30000000       0.00000000       0.05000000 </v>
   <v>       0.35000000       0.00000000       0.05000000 </v>
   <v>       0.40000000       0.00000000       0.05000000 </v>
   <v>       0.45000000       0.00000000       0.05000000 </v>
   <v>       0.50000000       0.00000000       0.05000000 </v>
   <v>       0.00000000       0.05000000       0.05000000 </v>
   <v>       0.05000000       0.05000000       0.05000000 </v>
   <v>       0.10000000       0.05000000       0.05000000 </v>
   <v>       0.15000000       0.05000000       0.05000000 </v>
   <v>       0.20000000       0.05000000       0.05000000 </v>
   <v>       0.25000000       0.05000000       0.05000000 </v>
   <v>       0.30000000       0.05000000       0.05000000 </v>
   <v>       0.35000000       0.05000000       0.05000000 </v>
   <v>       0.40000000       0.05000000       0.05000000 </v>
   <v>       0.45000000       0.05000000       0.05000000 </v>
   <v>       0.50000000       0.05000000       0.05000000 </v>
   <v>      -0.45000000       0.05000000       0.05000000 </v>
   <v>      -0.40000000       0.05000000       0.05000000 </v>
   <v>      -0.35000000       0.05000000       0.05000000 </v>
   <v>      -0.30000000       0.05000000       0.05000000 </v>
   <v>      -0.25000000       0.05000000       0.05000000 </v>
   <v>      -0.20000000       0.05000000       0.05000000 </v>
   <v>      -0.15000000       0.05000000       0.05000000 </v>
   <v>      -0.10000000       0.05000000       0.05000000 </v>
   <v>      -0.05000000       0.05000000       0.05000000 </v>
   <v>       0.00000000       0.10000000       0.05000000 </v>
   <v>       0.05000000       0.10000000       0.05000000 </v>
   <v>       0.10000000       0.10000000       0.05000000 </v>
   <v>       0.15000000       0.10000000       0.05000000 </v>
   <v>       0.20000000       0.10000000       0.05000000 </v>
   <v>       0.25000000       0.10000000       0.05000000 </v>
   <v>       0.30000000       0.10000000       0.05000000 </v>
   <v>       0.35000000       0.10000000       0.05000000 </v>
   <v>       0.40000000       0.10000000       0.05000000 </v>
   <v>       0.45000000       0.10000000       0.05000000 </v>
   <v>       0.50000000       0.10000000       0.05000000 </v>
   <v>      -0.45000000       0.10000000       0.05000000 </v>
   <v>      -0.40000000       0.10000000       0.05000000 </v>
   <v>      -0.35000000       0.10000000       0.05000000 </v>
   <v>      -0.30000000       0.10000000       0.05000000 </v>
   <v>      -0.25000000       0.10000000       0.05000000 </v>
   <v>      -0.20000000       0.10000000       0.05000000 </v>
   <v>      -0.15000000       0.10000000       0.05000000 </v>
   <v>      -0.10000000       0.10000000       0.05000000 </v>
   <v>      -0.05000000       0.10000000       0.05000000 </v>
   <v>       0.00000000       0.15000000       0.05000000 </v>
   <v>       0.05000000       0.15000000       0.05000000 </v>
   <v>       0.10000000       0.15000000       0.05000000 </v>
   <v>       0.15000000       0.15000000       0.05000000 </v>
   <v>       0.20000000       0.15000000       0.05000000 </v>
   <v>       0.25000000       0.15000000       0.05000000 </v>
   <v>       0.30000000       0.15000000       0.05000000 </v>
   <v>       0.35000000       0.15000000       0.05000000 </v>
   <v>       0.40000000       0.15000000       0.05000000 </v>
   <v>       0.45000000       0.15000000       0.05000000 </v>
   <v>       0.50000000       0.15000000       0.05000000 </v>
   <v>      -0.45000000       0.15000000       0.05000000 </v>
   <v>      -0.40000000       0.15000000       0.05000000 </v>
   <v>      -0.35000000       0.15000000       0.05000000 </v>
   <v>      -0.30000000       0.15000000       0.05000000 </v>
   <v>      -0.25000000       0.15000000       0.05000000 </v>
   <v>      -0.20000000       0.15000000       0.05000000 </v>
   <v>      -0.15000000       0.15000000       0.05000000 </v>
   <v>      -0.10000000       0.15000000       0.05000000 </v>
   <v>      -0.05000000       0.15000000       0.05000000 </v>
   <v>       0.00000000       0.20000000       0.05000000 </v>
   <v>       0.05000000       0.20000000       0.05000000 </v>
   <v>       0.10000000       0.20000000       0.05000000 </v>
   <v>       0.15000000       0.20000000       0.05000000 </v>
   <v>       0.20000000       0.20000000       0.05000000 </v>
   <v>       0.25000000       0.20000000       0.05000000 </v>
   <v>       0.30000000       0.20000000       0.05000000 </v>
   <v>       0.35000000       0.20000000       0.05000000 </v>
   <v>       0.40000000       0.20000000       0.05000000 </v>
   <v>       0.45000000       0.20000000       0.05000000 </v>
   <v>       0.50000000       0.20000000       0.05000000 </v>
   <v>      -0.45000000       0.20000000       0.05000000 </v>
   <v>      -0.40000000       0.20000000       0.05000000 </v>
   <v>      -0.35000000       0.20000000       0.05000000 </v>
   <v>      -0.30000000       0.20000000       0.05000000 </v>
   <v>      -0.25000000       0.20000000       0.05000000 </v>
   <v>      -0.20000000       0.20000000       0.05000000 </v>
   <v>      -0.15000000       0.20000000       0.05000000 </v>
   <v>      -0.10000000       0.20000000       0.05000000 </v>
   <v>      -0.05000000       0.20000000       0.05000000 </v>
   <v>       0.00000000       0.25000000       0.05000000 </v>
   <v>       0.05000000       0.25000000       0.05000000 </v>
   <v>       0.10000000       0.25000000       0.05000000 </v>
   <v>       0.15000000       0.25000000       0.05000000 </v>
   <v>       0.20000000       0.25000000       0.05000000 </v>
   <v>       0.25000000       0.25000000       0.05000000 </v>
   <v>       0.30000000       0.25000000       0.05000000 </v>
   <v>       0.35000000       0.25000000       0.05000000 </v>
   <v>       0.40000000       0.25000000       0.05000000 </v>
   <v>       0.45000000       0.25000000       0.05000000 </v>
   <v>       0.50000000       0.25000000       0.05000000 </v>
   <v>      -0.45000000       0.25000000       0.05000000 </v>
   <v>      -0.40000000       0.25000000       0.05000000 </v>
   <v>      -0.35000000       0.25000000       0.05000000 </v>
   <v>      -0.30000000       0.25000000       0.05000000 </v>
   <v>      -0.25000000       0.25000000       0.05000000 </v>
   <v>      -0.20000000       0.25000000       0.05000000 </v>
   <v>      -0.15000000       0.25000000       0.05000000 </v>
   <v>      -0.10000000       0.25000000       0.05000000 </v>
   <v>      -0.05000000       0.25000000       0.05000000 </v>
   <v>       0.00000000       0.30000000       0.05000000 </v>
   <v>       0.05000000       0.30000000       0.05000000 </v>
   <v>       0.10000000       0.30000000       0.05000000 </v>
   <v>       0.15000000       0.30000000       0.05000000 </v>
   <v>       0.20000000       0.30000000       0.05000000 </v>
   <v>       0.25000000       0.30000000       0.05000000 </v>
   <v>       0.30000000       0.30000000       0.05000000 </v>
   <v>       0.35000000       0.30000000       0.05000000 </v>
   <v>       0.40000000       0.30000000       0.05000000 </v>
   <v>       0.45000000       0.30000000       0.05000000 </v>
   <v>       0.50000000       0.30000000       0.05000000 </v>
   <v>      -0.45000000       0.30000000       0.05000000 </v>
   <v>      -0.40000000       0.30000000       0.05000000 </v>
   <v>      -0.35000000       0.30000000       0.05000000 </v>
   <v>      -0.30000000       0.30000000       0.05000000 </v>
   <v>      -0.25000000       0.30000000       0.05000000 </v>
   <v>      -0.20000000       0.30000000       0.05000000 </v>
   <v>      -0.15000000       0.30000000       0.05000000 </v>
   <v>      -0.10000000       0.30000000       0.05000000 </v>
   <v>      -0.05000000       0.30000000       0.05000000 </v>
   <v>       0.00000000       0.35000000       0.05000000 </v>
   <v>       0.05000000       0.35000000       0.05000000 </v>
   <v>       0.10000000       0.35000000       0.05000000 </v>
   <v>       0.15000000       0.35000000       0.05000000 </v>
   <v>       0.20000000       0.35000000       0.05000000 </v>
   <v>       0.25000000       0.35000000       0.05000000 </v>
   <v>       0.30000000       0.35000000       0.05000000 </v>
   <v>       0.35000000       0.35000000       0.05000000 </v>
   <v>       0.40000000       0.35000000       0.05000000 </v>
   <v>       0.45000000       0.35000000       0.05000000 </v>
   <v>       0.50000000       0.35000000       0.05000000 </v>
   <v>      -0.45000000       0.35000000       0.05000000 </v>
   <v>      -0.40000000       0.35000000       0.05000000 </v>
   <v>      -0.35000000       0.35000000       0.05000000 </v>
   <v>      -0.30000000       0.35000000       0.05000000 </v>
   <v>      -0.25000000       0.35000000       0.05000000 </v>
   <v>      -0.20000000       0.35000000       0.05000000 </v>
   <v>      -0.15000000       0.35000000       0.05000000 </v>
   <v>      -0.10000000       0.35000000       0.05000000 </v>
   <v>      -0.05000000       0.35000000       0.05000000 </v>
   <v>       0.00000000       0.40000000       0.05000000 </v>
   <v>       0.05000000       0.40000000       0.05000000 </v>
   <v>       0.10000000       0.40000000       0.05000000 </v>
   <v>       0.15000000       0.40000000       0.05000000 </v>
   <v>       0.20000000       0.40000000       0.05000000 </v>
   <v>       0.25000000       0.40000000       0.05000000 </v>
   <v>       0.30000000       0.40000000       0.05000000 </v>
   <v>       0.35000000       0.40000000       0.05000000 </v>
   <v>       0.40000000       0.40000000       0.05000000 </v>
   <v>       0.45000000       0.40000000       0.05000000 </v>
   <v>       0.50000000       0.40000000       0.05000000 </v>
   <v>      -0.45000000       0.40000000       0.05000000 </v>
   <v>      -0.40000000       0.40000000       0.05000000 </v>
   <v>      -0.35000000       0.40000000       0.05000000 </v>
   <v>      -0.30000000       0.40000000       0.05000000 </v>
   <v>      -0.25000000       0.40000000       0.05000000 </v>
   <v>      -0.20000000       0.40000000       0.05000000 </v>
   <v>      -0.15000000       0.40000000       0.05000000 </v>
   <v>      -0.10000000       0.40000000       0.05000000 </v>
   <v>      -0.05000000       0.40000000       0.05000000 </v>
   <v>       0.00000000       0.45000000       0.05000000 </v>
   <v>       0.05000000       0.45000000       0.05000000 </v>
   <v>       0.10000000       0.45000000       0.05000000 </v>
   <v>       0.15000000       0.45000000       0.05000000 </v>
   <v>       0.20000000       0.45000000       0.05000000 </v>
   <v>       0.25000000       0.45000000       0.05000000 </v>
   <v>       0.30000000       0.45000000       0.05000000 </v>
   <v>       0.35000000       0.45000000       0.05000000 </v>
   <v>       0.40000000       0.45000000       0.05000000 </v>
   <v>       0.45000000       0.45000000       0.05000000 </v>
   <v>       0.50000000       0.45000000       0.05000000 </v>
   <v>      -0.45000000       0.45000000       0.05000000 </v>
   <v>      -0.40000000       0.45000000       0.05000000 </v>
   <v>      -0.35000000       0.45000000       0.05000000 </v>
   <v>      -0.30000000       0.45000000       0.05000000 </v>
   <v>      -0.25000000       0.45000000       0.05000000 </v>
   <v>      -0.20000000       0.45000000       0.05000000 </v>
   <v>      -0.15000000       0.45000000       0.05000000 </v>
   <v>      -0.10000000       0.45000000       0.05000000 </v>
   <v>      -0.05000000       0.45000000       0.05000000 </v>
   <v>       0.00000000       0.50000000       0.05000000 </v>
   <v>       0.05000000       0.50000000       0.05000000 </v>
   <v>       0.10000000       0.50000000       0.05000000 </v>
   <v>       0.15000000       0.50000000       0.05000000 </v>
   <v>       0.20000000       0.50000000       0.05000000 </v>
   <v>       0.25000000       0.50000000       0.05000000 </v>
   <v>       0.30000000       0.50000000       0.05000000 </v>
   <v>       0.35000000       0.50000000       0.05000000 </v>
   <v>       0.40000000       0.50000000       0.05000000 </v>
   <v>       0.45000000       0.50000000       0.05000000 </v>
   <v>       0.50000000       0.50000000       0.05000000 </v>
   <v>       0.00000000       0.00000000       0.10000000 </v>
   <v>       0.05000000       0.00000000       0.10000000 </v>
   <v>       0.10000000       0.00000000       0.10000000 </v>
   <v>       0.15000000       0.00000000       0.10000000 </v>
   <v>       0.20000000       0.00000000       0.10000000 </v>
   <v>       0.25000000       0.00000000       0.10000000 </v>
   <v>       0.30000000       0.00000000       0.10000000 </v>
   <v>       0.35000000       0.00000000       0.10000000 </v>
   <v>       0.40000000       0.00000000       0.10000000 </v>
   <v>       0.45000000       0.00000000       0.10000000 </v>
   <v>       0.50000000       0.00000000       0.10000000 </v>
   <v>       0.00000000       0.05000000       0.10000000 </v>
   <v>       0.05000000       0.05000000       0.10000000 </v>
   <v>       0.10000000       0.05000000       0.10000000 </v>
   <v>       0.15000000       0.05000000       0.10000000 </v>
   <v>       0.20000000       0.05000000       0.10000000 </v>
   <v>       0.25000000       0.05000000       0.10000000 </v>
   <v>       0.30000000       0.05000000       0.10000000 </v>
   <v>       0.35000000       0.05000000       0.10000000 </v>
   <v>       0.40000000       0.05000000       0.10000000 </v>
   <v>       0.45000000       0.05000000       0.10000000 </v>
   <v>       0.50000000       0.05000000       0.10000000 </v>
   <v>      -0.45000000       0.05000000       0.10000000 </v>
   <v>      -0.40000000       0.05000000       0.10000000 </v>
   <v>      -0.35000000       0.05000000       0.10000000 </v>
   <v>      -0.30000000       0.05000000       0.10000000 </v>
   <v>      -0.25000000       0.05000000       0.10000000 </v>
   <v>      -0.20000000       0.05000000       0.10000000 </v>
   <v>      -0.15000000       0.05000000       0.10000000 </v>
   <v>      -0.10000000       0.05000000       0.10000000 </v>
   <v>      -0.05000000       0.05000000       0.10000000 </v>
   <v>       0.00000000       0.10000000       0.10000000 </v>
   <v>       0.05000000       0.10000000       0.10000000 </v>
   <v>       0.10000000       0.10000000       0.10000000 </v>
   <v>       0.15000000       0.10000000       0.10000000 </v>
   <v>       0.20000000       0.10000000       0.10000000 </v>
   <v>       0.25000000       0.10000000       0.10000000 </v>
   <v>       0.30000000       0.10000000       0.10000000 </v>
   <v>       0.35000000       0.10000000       0.10000000 </v>
   <v>       0.40000000       0.10000000       0.10000000 </v>
   <v>       0.45000000       0.10000000       0.10000000 </v>
   <v>       0.50000000       0.10000000       0.10000000 </v>
   <v>      -0.45000000       0.10000000       0.10000000 </v>
   <v>      -0.40000000       0.10000000       0.10000000 </v>
   <v>      -0.35000000       0.10000000       0.10000000 </v>
   <v>      -0.30000000       0.10000000       0.10000000 </v>
   <v>      -0.25000000       0.10000000       0.10000000 </v>
   <v>      -0.20000000       0.10000000       0.10000000 </v>
   <v>      -0.15000000       0.10000000       0.10000000 </v>
   <v>      -0.10000000       0.10000000       0.10000000 </v>
   <v>      -0.05000000       0.10000000       0.10000000 </v>
   <v>       0.00000000       0.15000000       0.10000000 </v>
   <v>       0.05000000       0.15000000       0.10000000 </v>
   <v>       0.10000000       0.15000000       0.10000000 </v>
   <v>       0.15000000       0.15000000       0.10000000 </v>
   <v>       0.20000000       0.15000000       0.10000000 </v>
   <v>       0.25000000       0.15000000       0.10000000 </v>
   <v>       0.30000000       0.15000000       0.10000000 </v>
   <v>       0.35000000       0.15000000       0.10000000 </v>
   <v>       0.40000000       0.15000000       0.10000000 </v>
   <v>       0.45000000       0.15000000       0.10000000 </v>
   <v>       0.50000000       0.15000000       0.10000000 </v>
   <v>      -0.45000000       0.15000000       0.10000000 </v>
   <v>      -0.40000000       0.15000000       0.10000000 </v>
   <v>      -0.35000000       0.15000000       0.10000000 </v>
   <v>      -0.30000000       0.15000000       0.10000000 </v>
   <v>      -0.25000000       0.15000000       0.10000000 </v>
   <v>      -0.20000000       0.15000000       0.10000000 </v>
   <v>      -0.15000000       0.15000000       0.10000000 </v>
   <v>      -0.10000000       0.15000000       0.10000000 </v>
   <v>      -0.05000000       0.15000000       0.10000000 </v>
   <v>       0.00000000       0.20000000       0.10000000 </v>
   <v>       0.05000000       0.20000000       0.10000000 </v>
   <v>       0.10000000       0.20000000       0.10000000 </v>
   <v>       0.15000000       0.20000000       0.10000000 </v>
   <v>       0.20000000       0.20000000       0.10000000 </v>
   <v>       0.25000000       0.20000000       0.10000000 </v>
   <v>       0.30000000       0.20000000       0.10000000 </v>
   <v>       0.35000000       0.20000000       0.10000000 </v>
   <v>       0.40000000       0.20000000       0.10000000 </v>
   <v>       0.45000000       0.20000000       0.10000000 </v>
   <v>       0.50000000       0.20000000       0.10000000 </v>
   <v>      -0.45000000       0.20000000       0.10000000 </v>
   <v>      -0.40000000       0.20000000       0.10000000 </v>
   <v>      -0.35000000       0.20000000       0.10000000 </v>
   <v>      -0.30000000       0.20000000       0.10000000 </v>
   <v>      -0.25000000       0.20000000       0.10000000 </v>
   <v>      -0.20000000       0.20000000       0.10000000 </v>
   <v>      -0.15000000       0.20000000       0.10000000 </v>
   <v>      -0.10000000       0.20000000       0.10000000 </v>
   <v>      -0.05000000       0.20000000       0.10000000 </v>
   <v>       0.00000000       0.25000000       0.10000000 </v>
   <v>       0.05000000       0.25000000       0.10000000 </v>
   <v>       0.10000000       0.25000000       0.10000000 </v>
   <v>       0.15000000       0.25000000       0.10000000 </v>
   <v>       0.20000000       0.25000000       0.10000000 </v>
   <v>       0.25000000       0.25000000       0.10000000 </v>
   <v>       0.30000000       0.25000000       0.10000000 </v>
   <v>       0.35000000       0.25000000       0.10000000 </v>
   <v>       0.40000000       0.25000000       0.10000000 </v>
   <v>       0.45000000       0.25000000       0.10000000 </v>
   <v>       0.50000000       0.25000000       0.10000000 </v>
   <v>      -0.45000000       0.25000000       0.10000000 </v>
   <v>      -0.40000000       0.25000000       0.10000000 </v>
   <v>      -0.35000000       0.25000000       0.10000000 </v>
   <v>      -0.30000000       0.25000000       0.10000000 </v>
   <v>      -0.25000000       0.25000000       0.10000000 </v>
   <v>      -0.20000000       0.25000000       0.10000000 </v>
   <v>      -0.15000000       0.25000000       0.10000000 </v>
   <v>      -0.10000000       0.25000000       0.10000000 </v>
   <v>      -0.05000000       0.25000000       0.10000000 </v>
   <v>       0.00000000       0.30000000       0.10000000 </v>
   <v>       0.05000000       0.30000000       0.10000000 </v>
   <v>       0.10000000       0.30000000       0.10000000 </v>
   <v>       0.15000000       0.30000000       0.10000000 </v>
   <v>       0.20000000       0.30000000       0.10000000 </v>
   <v>       0.25000000       0.30000000       0.10000000 </v>
   <v>       0.30000000       0.30000000       0.10000000 </v>
   <v>       0.35000000       0.30000000       0.10000000 </v>
   <v>       0.40000000       0.30000000       0.10000000 </v>
   <v>       0.45000000       0.30000000       0.10000000 </v>
   <v>       0.50000000       0.30000000       0.10000000 </v>
   <v>      -0.45000000       0.30000000       0.10000000 </v>
   <v>      -0.40000000       0.30000000       0.10000000 </v>
   <v>      -0.35000000       0.30000000       0.10000000 </v>
   <v>      -0.30000000       0.30000000       0.10000000 </v>
   <v>      -0.25000000       0.30000000       0.10000000 </v>
   <v>      -0.20000000       0.30000000       0.10000000 </v>
   <v>      -0.15000000       0.30000000       0.10000000 </v>
   <v>      -0.10000000       0.30000000       0.10000000 </v>
   <v>      -0.05000000       0.30000000       0.10000000 </v>
   <v>       0.00000000       0.35000000       0.10000000 </v>
   <v>       0.05000000       0.35000000       0.10000000 </v>
   <v>       0.10000000       0.35000000       0.10000000 </v>
   <v>       0.15000000       0.35000000       0.10000000 </v>
   <v>       0.20000000       0.35000000       0.10000000 </v>
   <v>       0.25000000       0.35000000       0.10000000 </v>
   <v>       0.30000000       0.35000000       0.10000000 </v>
   <v>       0.35000000       0.35000000       0.10000000 </v>
   <v>       0.40000000       0.35000000       0.10000000 </v>
   <v>       0.45000000       0.35000000       0.10000000 </v>
   <v>       0.50000000       0.35000000       0.10000000 </v>
   <v>      -0.45000000       0.35000000       0.10000000 </v>
   <v>      -0.40000000       0.35000000       0.10000000 </v>
   <v>      -0.35000000       0.35000000       0.10000000 </v>
   <v>      -0.30000000       0.35000000       0.10000000 </v>
   <v>      -0.25000000       0.35000000       0.10000000 </v>
   <v>      -0.20000000       0.35000000       0.10000000 </v>
   <v>      -0.15000000       0.35000000       0.10000000 </v>
   <v>      -0.10000000       0.35000000       0.10000000 </v>
   <v>      -0.05000000       0.35000000       0.10000000 </v>
   <v>       0.00000000       0.40000000       0.10000000 </v>
   <v>       0.05000000       0.40000000       0.10000000 </v>
   <v>       0.10000000       0.40000000       0.10000000 </v>
   <v>       0.15000000       0.40000000       0.10000000 </v>
   <v>       0.20000000       0.40000000       0.10000000 </v>
   <v>       0.25000000       0.40000000       0.10000000 </v>
   <v>       0.30000000       0.40000000       0.10000000 </v>
   <v>       0.35000000       0.40000000       0.10000000 </v>
   <v>       0.40000000       0.40000000       0.10000000 </v>
   <v>       0.45000000       0.40000000       0.10000000 </v>
   <v>       0.50000000       0.40000000       0.10000000 </v>
   <v>      -0.45000000       0.40000000       0.10000000 </v>
   <v>      -0.40000000       0.40000000       0.10000000 </v>
   <v>      -0.35000000       0.40000000       0.10000000 </v>
   <v>      -0.30000000       0.40000000       0.10000000 </v>
   <v>      -0.25000000       0.40000000       0.10000000 </v>
   <v>      -0.20000000       0.40000000       0.10000000 </v>
   <v>      -0.15000000       0.40000000       0.10000000 </v>
   <v>      -0.10000000       0.40000000       0.10000000 </v>
   <v>      -0.05000000       0.40000000       0.10000000 </v>
   <v>       0.00000000       0.45000000       0.10000000 </v>
   <v>       0.05000000       0.45000000       0.10000000 </v>
   <v>       0.10000000       0.45000000       0.10000000 </v>
   <v>       0.15000000       0.45000000       0.10000000 </v>
   <v>       0.20000000       0.45000000       0.10000000 </v>
   <v>       0.25000000       0.45000000       0.10000000 </v>
   <v>       0.30000000       0.45000000       0.10000000 </v>
   <v>       0.35000000       0.45000000       0.10000000 </v>
   <v>       0.40000000       0.45000000       0.10000000 </v>
   <v>       0.45000000       0.45000000       0.10000000 </v>
   <v>       0.50000000       0.45000000       0.10000000 </v>
   <v>      -0.45000000       0.45000000       0.10000000 </v>
   <v>      -0.40000000       0.45000000       0.10000000 </v>
   <v>      -0.35000000       0.45000000       0.10000000 </v>
   <v>      -0.30000000       0.45000000       0.10000000 </v>
   <v>      -0.25000000       0.45000000       0.10000000 </v>
   <v>      -0.20000000       0.45000000       0.10000000 </v>
   <v>      -0.15000000       0.45000000       0.10000000 </v>
   <v>      -0.10000000       0.45000000       0.10000000 </v>
   <v>      -0.05000000       0.45000000       0.10000000 </v>
   <v>       0.00000000       0.50000000       0.10000000 </v>
   <v>       0.05000000       0.50000000       0.10000000 </v>
   <v>       0.10000000       0.50000000       0.10000000 </v>
   <v>       0.15000000       0.50000000       0.10000000 </v>
   <v>       0.20000000       0.50000000       0.10000000 </v>
   <v>       0.25000000       0.50000000       0.10000000 </v>
   <v>       0.30000000       0.50000000       0.10000000 </v>
   <v>       0.35000000       0.50000000       0.10000000 </v>
   <v>       0.40000000       0.50000000       0.10000000 </v>
   <v>       0.45000000       0.50000000       0.10000000 </v>
   <v>       0.50000000       0.50000000       0.10000000 </v>
   <v>       0.00000000       0.00000000       0.15000000 </v>
   <v>       0.05000000       0.00000000       0.15000000 </v>
   <v>       0.10000000       0.00000000       0.15000000 </v>
   <v>       0.15000000       0.00000000       0.15000000 </v>
   <v>       0.20000000       0.00000000       0.15000000 </v>
   <v>       0.25000000       0.00000000       0.15000000 </v>
   <v>       0.30000000       0.00000000       0.15000000 </v>
   <v>       0.35000000       0.00000000       0.15000000 </v>
   <v>       0.40000000       0.00000000       0.15000000 </v>
   <v>       0.45000000       0.00000000       0.15000000 </v>
   <v>       0.50000000       0.00000000       0.15000000 </v>
   <v>       0.00000000       0.05000000       0.15000000 </v>
   <v>       0.05000000       0.05000000       0.15000000 </v>
   <v>       0.10000000       0.05000000       0.15000000 </v>
   <v>       0.15000000       0.05000000       0.15000000 </v>
   <v>       0.20000000       0.05000000       0.15000000 </v>
   <v>       0.25000000       0.05000000       0.15000000 </v>
   <v>       0.30000000       0.05000000       0.15000000 </v>
   <v>       0.35000000       0.05000000       0.15000000 </v>
   <v>       0.40000000       0.05000000       0.15000000 </v>
   <v>       0.45000000       0.05000000       0.15000000 </v>
   <v>       0.50000000       0.05000000       0.15000000 </v>
   <v>      -0.45000000       0.05000000       0.15000000 </v>
   <v>      -0.40000000       0.05000000       0.15000000 </v>
   <v>      -0.35000000       0.05000000       0.15000000 </v>
   <v>      -0.30000000       0.05000000       0.15000000 </v>
   <v>      -0.25000000       0.05000000       0.15000000 </v>
   <v>      -0.20000000       0.05000000       0.15000000 </v>
   <v>      -0.15000000       0.05000000       0.15000000 </v>
   <v>      -0.10000000       0.05000000       0.15000000 </v>
   <v>      -0.05000000       0.05000000       0.15000000 </v>
   <v>       0.00000000       0.10000000       0.15000000 </v>
   <v>       0.05000000       0.10000000       0.15000000 </v>
   <v>       0.10000000       0.10000000       0.15000000 </v>
   <v>       0.15000000       0.10000000       0.15000000 </v>
   <v>       0.20000000       0.10000000       0.15000000 </v>
   <v>       0.25000000       0.10000000       0.15000000 </v>
   <v>       0.30000000       0.10000000       0.15000000 </v>
   <v>       0.35000000       0.10000000       0.15000000 </v>
   <v>       0.40000000       0.10000000       0.15000000 </v>
   <v>       0.45000000       0.10000000       0.15000000 </v>
   <v>       0.50000000       0.10000000       0.15000000 </v>
   <v>      -0.45000000       0.10000000       0.15000000 </v>
   <v>      -0.40000000       0.10000000       0.15000000 </v>
   <v>      -0.35000000       0.10000000       0.15000000 </v>
   <v>      -0.30000000       0.10000000       0.15000000 </v>
   <v>      -0.25000000       0.10000000       0.15000000 </v>
   <v>      -0.20000000       0.10000000       0.15000000 </v>
   <v>      -0.15000000       0.10000000       0.15000000 </v>
   <v>      -0.10000000       0.10000000       0.15000000 </v>
   <v>      -0.05000000       0.10000000       0.15000000 </v>
   <v>       0.00000000       0.15000000       0.15000000 </v>
   <v>       0.05000000       0.15000000       0.15000000 </v>
   <v>       0.10000000       0.15000000       0.15000000 </v>
   <v>       0.15000000       0.15000000       0.15000000 </v>
   <v>       0.20000000       0.15000000       0.15000000 </v>
   <v>       0.25000000       0.15000000       0.15000000 </v>
   <v>       0.30000000       0.15000000       0.15000000 </v>
   <v>       0.35000000       0.15000000       0.15000000 </v>
   <v>       0.40000000       0.15000000       0.15000000 </v>
   <v>       0.45000000       0.15000000       0.15000000 </v>
   <v>       0.50000000       0.15000000       0.15000000 </v>
   <v>      -0.45000000       0.15000000       0.15000000 </v>
   <v>      -0.40000000       0.15000000       0.15000000 </v>
   <v>      -0.35000000       0.15000000       0.15000000 </v>
   <v>      -0.30000000       0.15000000       0.15000000 </v>
   <v>      -0.25000000       0.15000000       0.15000000 </v>
   <v>      -0.20000000       0.15000000       0.15000000 </v>
   <v>      -0.15000000       0.15000000       0.15000000 </v>
   <v>      -0.10000000       0.15000000       0.15000000 </v>
   <v>      -0.05000000       0.15000000       0.15000000 </v>
   <v>       0.00000000       0.20000000       0.15000000 </v>
   <v>       0.05000000       0.20000000       0.15000000 </v>
   <v>       0.10000000       0.20000000       0.15000000 </v>
   <v>       0.15000000       0.20000000       0.15000000 </v>
   <v>       0.20000000       0.20000000       0.15000000 </v>
   <v>       0.25000000       0.20000000       0.15000000 </v>
   <v>       0.30000000       0.20000000       0.15000000 </v>
   <v>       0.35000000       0.20000000       0.15000000 </v>
   <v>       0.40000000       0.20000000       0.15000000 </v>
   <v>       0.45000000       0.20000000       0.15000000 </v>
   <v>       0.50000000       0.20000000       0.15000000 </v>
   <v>      -0.45000000       0.20000000       0.15000000 </v>
   <v>      -0.40000000       0.20000000       0.15000000 </v>
   <v>      -0.35000000       0.20000000       0.15000000 </v>
   <v>      -0.30000000       0.20000000       0.15000000 </v>
   <v>      -0.25000000       0.20000000       0.15000000 </v>
   <v>      -0.20000000       0.20000000       0.15000000 </v>
   <v>      -0.15000000       0.20000000       0.15000000 </v>
   <v>      -0.10000000       0.20000000       0.15000000 </v>
   <v>      -0.05000000       0.20000000       0.15000000 </v>
   <v>       0.00000000       0.25000000       0.15000000 </v>
   <v>       0.05000000       0.25000000       0.15000000 </v>
   <v>       0.10000000       0.25000000       0.15000000 </v>
   <v>       0.15000000       0.25000000       0.15000000 </v>
   <v>       0.20000000       0.25000000       0.15000000 </v>
   <v>       0.25000000       0.25000000       0.15000000 </v>
   <v>       0.30000000       0.25000000       0.15000000 </v>
   <v>       0.35000000       0.25000000       0.15000000 </v>
   <v>       0.40000000       0.25000000       0.15000000 </v>
   <v>       0.45000000       0.25000000       0.15000000 </v>
   <v>       0.50000000       0.25000000       0.15000000 </v>
   <v>      -0.45000000       0.25000000       0.15000000 </v>
   <v>      -0.40000000       0.25000000       0.15000000 </v>
   <v>      -0.35000000       0.25000000       0.15000000 </v>
   <v>      -0.30000000       0.25000000       0.15000000 </v>
   <v>      -0.25000000       0.25000000       0.15000000 </v>
   <v>      -0.20000000       0.25000000       0.15000000 </v>
   <v>      -0.15000000       0.25000000       0.15000000 </v>
   <v>      -0.10000000       0.25000000       0.15000000 </v>
   <v>      -0.05000000       0.25000000       0.15000000 </v>
   <v>       0.00000000       0.30000000       0.15000000 </v>
   <v>       0.05000000       0.30000000       0.15000000 </v>
   <v>       0.10000000       0.30000000       0.15000000 </v>
   <v>       0.15000000       0.30000000       0.15000000 </v>
   <v>       0.20000000       0.30000000       0.15000000 </v>
   <v>       0.25000000       0.30000000       0.15000000 </v>
   <v>       0.30000000       0.30000000       0.15000000 </v>
   <v>       0.35000000       0.30000000       0.15000000 </v>
   <v>       0.40000000       0.30000000       0.15000000 </v>
   <v>       0.45000000       0.30000000       0.15000000 </v>
   <v>       0.50000000       0.30000000       0.15000000 </v>
   <v>      -0.45000000       0.30000000       0.15000000 </v>
   <v>      -0.40000000       0.30000000       0.15000000 </v>
   <v>      -0.35000000       0.30000000       0.15000000 </v>
   <v>      -0.30000000       0.30000000       0.15000000 </v>
   <v>      -0.25000000       0.30000000       0.15000000 </v>
   <v>      -0.20000000       0.30000000       0.15000000 </v>
   <v>      -0.15000000       0.30000000       0.15000000 </v>
   <v>      -0.10000000       0.30000000       0.15000000 </v>
   <v>      -0.05000000       0.30000000       0.15000000 </v>
   <v>       0.00000000       0.35000000       0.15000000 </v>
   <v>       0.05000000       0.35000000       0.15000000 </v>
   <v>       0.10000000       0.35000000       0.15000000 </v>
   <v>       0.15000000       0.35000000       0.15000000 </v>
   <v>       0.20000000       0.35000000       0.15000000 </v>
   <v>       0.25000000       0.35000000       0.15000000 </v>
   <v>       0.30000000       0.35000000       0.15000000 </v>
   <v>       0.35000000       0.35000000       0.15000000 </v>
   <v>       0.40000000       0.35000000       0.15000000 </v>
   <v>       0.45000000       0.35000000       0.15000000 </v>
   <v>       0.50000000       0.35000000       0.15000000 </v>
   <v>      -0.45000000       0.35000000       0.15000000 </v>
   <v>      -0.40000000       0.35000000       0.15000000 </v>
   <v>      -0.35000000       0.35000000       0.15000000 </v>
   <v>      -0.30000000       0.35000000       0.15000000 </v>
   <v>      -0.25000000       0.35000000       0.15000000 </v>
   <v>      -0.20000000       0.35000000       0.15000000 </v>
   <v>      -0.15000000       0.35000000       0.15000000 </v>
   <v>      -0.10000000       0.35000000       0.15000000 </v>
   <v>      -0.05000000       0.35000000       0.15000000 </v>
   <v>       0.00000000       0.40000000       0.15000000 </v>
   <v>       0.05000000       0.40000000       0.15000000 </v>
   <v>       0.10000000       0.40000000       0.15000000 </v>
   <v>       0.15000000       0.40000000       0.15000000 </v>
   <v>       0.20000000       0.40000000       0.15000000 </v>
   <v>       0.25000000       0.40000000       0.15000000 </v>
   <v>       0.30000000       0.40000000       0.15000000 </v>
   <v>       0.35000000       0.40000000       0.15000000 </v>
   <v>       0.40000000       0.40000000       0.15000000 </v>
   <v>       0.45000000       0.40000000       0.15000000 </v>
   <v>       0.50000000       0.40000000       0.15000000 </v>
   <v>      -0.45000000       0.40000000       0.15000000 </v>
   <v>      -0.40000000       0.40000000       0.15000000 </v>
   <v>      -0.35000000       0.40000000       0.15000000 </v>
   <v>      -0.30000000       0.40000000       0.15000000 </v>
   <v>      -0.25000000       0.40000000       0.15000000 </v>
   <v>      -0.20000000       0.40000000       0.15000000 </v>
   <v>      -0.15000000       0.40000000       0.15000000 </v>
   <v>      -0.10000000       0.40000000       0.15000000 </v>
   <v>      -0.05000000       0.40000000       0.15000000 </v>
   <v>       0.00000000       0.45000000       0.15000000 </v>
   <v>       0.05000000       0.45000000       0.15000000 </v>
   <v>       0.10000000       0.45000000       0.15000000 </v>
   <v>       0.15000000       0.45000000       0.15000000 </v>
   <v>       0.20000000       0.45000000       0.15000000 </v>
   <v>       0.25000000       0.45000000       0.15000000 </v>
   <v>       0.30000000       0.45000000       0.15000000 </v>
   <v>       0.35000000       0.45000000       0.15000000 </v>
   <v>       0.40000000       0.45000000       0.15000000 </v>
   <v>       0.45000000       0.45000000       0.15000000 </v>
   <v>       0.50000000       0.45000000       0.15000000 </v>
   <v>      -0.45000000       0.45000000       0.15000000 </v>
   <v>      -0.40000000       0.45000000       0.15000000 </v>
   <v>      -0.35000000       0.45000000       0.15000000 </v>
   <v>      -0.30000000       0.45000000       0.15000000 </v>
   <v>      -0.25000000       0.45000000       0.15000000 </v>
   <v>      -0.20000000       0.45000000       0.15000000 </v>
   <v>      -0.15000000       0.45000000       0.15000000 </v>
   <v>      -0.10000000       0.45000000       0.15000000 </v>
   <v>      -0.05000000       0.45000000       0.15000000 </v>
   <v>       0.00000000       0.50000000       0.15000000 </v>
   <v>       0.05000000       0.50000000       0.15000000 </v>
   <v>       0.10000000       0.50000000       0.15000000 </v>
   <v>       0.15000000       0.50000000       0.15000000 </v>
   <v>       0.20000000       0.50000000       0.15000000 </v>
   <v>       0.25000000       0.50000000       0.15000000 </v>
   <v>       0.30000000       0.50000000       0.15000000 </v>
   <v>       0.35000000       0.50000000       0.15000000 </v>
   <v>       0.40000000       0.50000000       0.15000000 </v>
   <v>       0.45000000       0.50000000       0.15000000 </v>
   <v>       0.50000000       0.50000000       0.15000000 </v>
   <v>       0.00000000       0.00000000       0.20000000 </v>
   <v>       0.05000000       0.00000000       0.20000000 </v>
   <v>       0.10000000       0.00000000       0.20000000 </v>
   <v>       0.15000000       0.00000000       0.20000000 </v>
   <v>       0.20000000       0.00000000       0.20000000 </v>
   <v>       0.25000000       0.00000000       0.20000000 </v>
   <v>       0.30000000       0.00000000       0.20000000 </v>
   <v>       0.35000000       0.00000000       0.20000000 </v>
   <v>       0.40000000       0.00000000       0.20000000 </v>
   <v>       0.45000000       0.00000000       0.20000000 </v>
   <v>       0.50000000       0.00000000       0.20000000 </v>
   <v>       0.00000000       0.05000000       0.20000000 </v>
   <v>       0.05000000       0.05000000       0.20000000 </v>
   <v>       0.10000000       0.05000000       0.20000000 </v>
   <v>       0.15000000       0.05000000       0.20000000 </v>
   <v>       0.20000000       0.05000000       0.20000000 </v>
   <v>       0.25000000       0.05000000       0.20000000 </v>
   <v>       0.30000000       0.05000000       0.20000000 </v>
   <v>       0.35000000       0.05000000       0.20000000 </v>
   <v>       0.40000000       0.05000000       0.20000000 </v>
   <v>       0.45000000       0.05000000       0.20000000 </v>
   <v>       0.50000000       0.05000000       0.20000000 </v>
   <v>      -0.45000000       0.05000000       0.20000000 </v>
   <v>      -0.40000000       0.05000000       0.20000000 </v>
   <v>      -0.35000000       0.05000000       0.20000000 </v>
   <v>      -0.30000000       0.05000000       0.20000000 </v>
   <v>      -0.25000000       0.05000000       0.20000000 </v>
   <v>      -0.20000000       0.05000000       0.20000000 </v>
   <v>      -0.15000000       0.05000000       0.20000000 </v>
   <v>      -0.10000000       0.05000000       0.20000000 </v>
   <v>      -0.05000000       0.05000000       0.20000000 </v>
   <v>       0.00000000       0.10000000       0.20000000 </v>
   <v>       0.05000000       0.10000000       0.20000000 </v>
   <v>       0.10000000       0.10000000       0.20000000 </v>
   <v>       0.15000000       0.10000000       0.20000000 </v>
   <v>       0.20000000       0.10000000       0.20000000 </v>
   <v>       0.25000000       0.10000000       0.20000000 </v>
   <v>       0.30000000       0.10000000       0.20000000 </v>
   <v>       0.35000000       0.10000000       0.20000000 </v>
   <v>       0.40000000       0.10000000       0.20000000 </v>
   <v>       0.45000000       0.10000000       0.20000000 </v>
   <v>       0.50000000       0.10000000       0.20000000 </v>
   <v>      -0.45000000       0.10000000       0.20000000 </v>
   <v>      -0.40000000       0.10000000       0.20000000 </v>
   <v>      -0.35000000       0.10000000       0.20000000 </v>
   <v>      -0.30000000       0.10000000       0.20000000 </v>
   <v>      -0.25000000       0.10000000       0.20000000 </v>
   <v>      -0.20000000       0.10000000       0.20000000 </v>
   <v>      -0.15000000       0.10000000       0.20000000 </v>
   <v>      -0.10000000       0.10000000       0.20000000 </v>
   <v>      -0.05000000       0.10000000       0.20000000 </v>
   <v>       0.00000000       0.15000000       0.20000000 </v>
   <v>       0.05000000       0.15000000       0.20000000 </v>
   <v>       0.10000000       0.15000000       0.20000000 </v>
   <v>       0.15000000       0.15000000       0.20000000 </v>
   <v>       0.20000000       0.15000000       0.20000000 </v>
   <v>       0.25000000       0.15000000       0.20000000 </v>
   <v>       0.30000000       0.15000000       0.20000000 </v>
   <v>       0.35000000       0.15000000       0.20000000 </v>
   <v>       0.40000000       0.15000000       0.20000000 </v>
   <v>       0.45000000       0.15000000       0.20000000 </v>
   <v>       0.50000000       0.15000000       0.20000000 </v>
   <v>      -0.45000000       0.15000000       0.20000000 </v>
   <v>      -0.40000000       0.15000000       0.20000000 </v>
   <v>      -0.35000000       0.15000000       0.20000000 </v>
   <v>      -0.30000000       0.15000000       0.20000000 </v>
   <v>      -0.25000000       0.15000000       0.20000000 </v>
   <v>      -0.20000000       0.15000000       0.20000000 </v>
   <v>      -0.15000000       0.15000000       0.20000000 </v>
   <v>      -0.10000000       0.15000000       0.20000000 </v>
   <v>      -0.05000000       0.15000000       0.20000000 </v>
   <v>       0.00000000       0.20000000       0.20000000 </v>
   <v>       0.05000000       0.20000000       0.20000000 </v>
   <v>       0.10000000       0.20000000       0.20000000 </v>
   <v>       0.15000000       0.20000000       0.20000000 </v>
   <v>       0.20000000       0.20000000       0.20000000 </v>
   <v>       0.25000000       0.20000000       0.20000000 </v>
   <v>       0.30000000       0.20000000       0.20000000 </v>
   <v>       0.35000000       0.20000000       0.20000000 </v>
   <v>       0.40000000       0.20000000       0.20000000 </v>
   <v>       0.45000000       0.20000000       0.20000000 </v>
   <v>       0.50000000       0.20000000       0.20000000 </v>
   <v>      -0.45000000       0.20000000       0.20000000 </v>
   <v>      -0.40000000       0.20000000       0.20000000 </v>
   <v>      -0.35000000       0.20000000       0.20000000 </v>
   <v>      -0.30000000       0.20000000       0.20000000 </v>
   <v>      -0.25000000       0.20000000       0.20000000 </v>
   <v>      -0.20000000       0.20000000       0.20000000 </v>
   <v>      -0.15000000       0.20000000       0.20000000 </v>
   <v>      -0.10000000       0.20000000       0.20000000 </v>
   <v>      -0.05000000       0.20000000       0.20000000 </v>
   <v>       0.00000000       0.25000000       0.20000000 </v>
   <v>       0.05000000       0.25000000       0.20000000 </v>
   <v>       0.10000000       0.25000000       0.20000000 </v>
   <v>       0.15000000       0.25000000       0.20000000 </v>
   <v>       0.20000000       0.25000000       0.20000000 </v>
   <v>       0.25000000       0.25000000       0.20000000 </v>
   <v>       0.30000000       0.25000000       0.20000000 </v>
   <v>       0.35000000       0.25000000       0.20000000 </v>
   <v>       0.40000000       0.25000000       0.20000000 </v>
   <v>       0.45000000       0.25000000       0.20000000 </v>
   <v>       0.50000000       0.25000000       0.20000000 </v>
   <v>      -0.45000000       0.25000000       0.20000000 </v>
   <v>      -0.40000000       0.25000000       0.20000000 </v>
   <v>      -0.35000000       0.25000000       0.20000000 </v>
   <v>      -0.30000000       0.25000000       0.20000000 </v>
   <v>      -0.25000000       0.25000000       0.20000000 </v>
   <v>      -0.20000000       0.25000000       0.20000000 </v>
   <v>      -0.15000000       0.25000000       0.20000000 </v>
   <v>      -0.10000000       0.25000000       0.20000000 </v>
   <v>      -0.05000000       0.25000000       0.20000000 </v>
   <v>       0.00000000       0.30000000       0.20000000 </v>
   <v>       0.05000000       0.30000000       0.20000000 </v>
   <v>       0.10000000       0.30000000       0.20000000 </v>
   <v>       0.15000000       0.30000000       0.20000000 </v>
   <v>       0.20000000       0.30000000       0.20000000 </v>
   <v>       0.25000000       0.30000000       0.20000000 </v>
   <v>       0.30000000       0.30000000       0.20000000 </v>
   <v>       0.35000000       0.30000000       0.20000000 </v>
   <v>       0.40000000       0.30000000       0.20000000 </v>
   <v>       0.45000000       0.30000000       0.20000000 </v>
   <v>       0.50000000       0.30000000       0.20000000 </v>
   <v>      -0.45000000       0.30000000       0.20000000 </v>
   <v>      -0.40000000       0.30000000       0.20000000 </v>
   <v>      -0.35000000       0.30000000       0.20000000 </v>
   <v>      -0.30000000       0.30000000       0.20000000 </v>
   <v>      -0.25000000       0.30000000       0.20000000 </v>
   <v>      -0.20000000       0.30000000       0.20000000 </v>
   <v>      -0.15000000       0.30000000       0.20000000 </v>
   <v>      -0.10000000       0.30000000       0.20000000 </v>
   <v>      -0.05000000       0.30000000       0.20000000 </v>
   <v>       0.00000000       0.35000000       0.20000000 </v>
   <v>       0.05000000       0.35000000       0.20000000 </v>
   <v>       0.10000000       0.35000000       0.20000000 </v>
   <v>       0.15000000       0.35000000       0.20000000 </v>
   <v>       0.20000000       0.35000000       0.20000000 </v>
   <v>       0.25000000       0.35000000       0.20000000 </v>
   <v>       0.30000000       0.35000000       0.20000000 </v>
   <v>       0.35000000       0.35000000       0.20000000 </v>
   <v>       0.40000000       0.35000000       0.20000000 </v>
   <v>       0.45000000       0.35000000       0.20000000 </v>
   <v>       0.50000000       0.35000000       0.20000000 </v>
   <v>      -0.45000000       0.35000000       0.20000000 </v>
   <v>      -0.40000000       0.35000000       0.20000000 </v>
   <v>      -0.35000000       0.35000000       0.20000000 </v>
   <v>      -0.30000000       0.35000000       0.20000000 </v>
   <v>      -0.25000000       0.35000000       0.20000000 </v>
   <v>      -0.20000000       0.35000000       0.20000000 </v>
   <v>      -0.15000000       0.35000000       0.20000000 </v>
   <v>      -0.10000000       0.35000000       0.20000000 </v>
   <v>      -0.05000000       0.35000000       0.20000000 </v>
   <v>       0.00000000       0.40000000       0.20000000 </v>
   <v>       0.05000000       0.40000000       0.20000000 </v>
   <v>       0.10000000       0.40000000       0.20000000 </v>
   <v>       0.15000000       0.40000000       0.20000000 </v>
   <v>       0.20000000       0.40000000       0.20000000 </v>
   <v>       0.25000000       0.40000000       0.20000000 </v>
   <v>       0.30000000       0.40000000       0.20000000 </v>
   <v>       0.35000000       0.40000000       0.20000000 </v>
   <v>       0.40000000       0.40000000       0.20000000 </v>
   <v>       0.45000000       0.40000000       0.20000000 </v>
   <v>       0.50000000       0.40000000       0.20000000 </v>
   <v>      -0.45000000       0.40000000       0.20000000 </v>
   <v>      -0.40000000       0.40000000       0.20000000 </v>
   <v>      -0.35000000       0.40000000       0.20000000 </v>
   <v>      -0.30000000       0.40000000       0.20000000 </v>
   <v>      -0.25000000       0.40000000       0.20000000 </v>
   <v>      -0.20000000       0.40000000       0.20000000 </v>
   <v>      -0.15000000       0.40000000       0.20000000 </v>
   <v>      -0.10000000       0.40000000       0.20000000 </v>
   <v>      -0.05000000       0.40000000       0.20000000 </v>
   <v>       0.00000000       0.45000000       0.20000000 </v>
   <v>       0.05000000       0.45000000       0.20000000 </v>
   <v>       0.10000000       0.45000000       0.20000000 </v>
   <v>       0.15000000       0.45000000       0.20000000 </v>
   <v>       0.20000000       0.45000000       0.20000000 </v>
   <v>       0.25000000       0.45000000       0.20000000 </v>
   <v>       0.30000000       0.45000000       0.20000000 </v>
   <v>       0.35000000       0.45000000       0.20000000 </v>
   <v>       0.40000000       0.45000000       0.20000000 </v>
   <v>       0.45000000       0.45000000       0.20000000 </v>
   <v>       0.50000000       0.45000000       0.20000000 </v>
   <v>      -0.45000000       0.45000000       0.20000000 </v>
   <v>      -0.40000000       0.45000000       0.20000000 </v>
   <v>      -0.35000000       0.45000000       0.20000000 </v>
   <v>      -0.30000000       0.45000000       0.20000000 </v>
   <v>      -0.25000000       0.45000000       0.20000000 </v>
   <v>      -0.20000000       0.45000000       0.20000000 </v>
   <v>      -0.15000000       0.45000000       0.20000000 </v>
   <v>      -0.10000000       0.45000000       0.20000000 </v>
   <v>      -0.05000000       0.45000000       0.20000000 </v>
   <v>       0.00000000       0.50000000       0.20000000 </v>
   <v>       0.05000000       0.50000000       0.20000000 </v>
   <v>       0.10000000       0.50000000       0.20000000 </v>
   <v>       0.15000000       0.50000000       0.20000000 </v>
   <v>       0.20000000       0.50000000       0.20000000 </v>
   <v>       0.25000000       0.50000000       0.20000000 </v>
   <v>       0.30000000       0.50000000       0.20000000 </v>
   <v>       0.35000000       0.50000000       0.20000000 </v>
   <v>       0.40000000       0.50000000       0.20000000 </v>
   <v>       0.45000000       0.50000000       0.20000000 </v>
   <v>       0.50000000       0.50000000       0.20000000 </v>
   <v>       0.00000000       0.00000000       0.25000000 </v>
   <v>       0.05000000       0.00000000       0.25000000 </v>
   <v>       0.10000000       0.00000000       0.25000000 </v>
   <v>       0.15000000       0.00000000       0.25000000 </v>
   <v>       0.20000000       0.00000000       0.25000000 </v>
   <v>       0.25000000       0.00000000       0.25000000 </v>
   <v>       0.30000000       0.00000000       0.25000000 </v>
   <v>       0.35000000       0.00000000       0.25000000 </v>
   <v>       0.40000000       0.00000000       0.25000000 </v>
   <v>       0.45000000       0.00000000       0.25000000 </v>
   <v>       0.50000000       0.00000000       0.25000000 </v>
   <v>       0.00000000       0.05000000       0.25000000 </v>
   <v>       0.05000000       0.05000000       0.25000000 </v>
   <v>       0.10000000       0.05000000       0.25000000 </v>
   <v>       0.15000000       0.05000000       0.25000000 </v>
   <v>       0.20000000       0.05000000       0.25000000 </v>
   <v>       0.25000000       0.05000000       0.25000000 </v>
   <v>       0.30000000       0.05000000       0.25000000 </v>
   <v>       0.35000000       0.05000000       0.25000000 </v>
   <v>       0.40000000       0.05000000       0.25000000 </v>
   <v>       0.45000000       0.05000000       0.25000000 </v>
   <v>       0.50000000       0.05000000       0.25000000 </v>
   <v>      -0.45000000       0.05000000       0.25000000 </v>
   <v>      -0.40000000       0.05000000       0.25000000 </v>
   <v>      -0.35000000       0.05000000       0.25000000 </v>
   <v>      -0.30000000       0.05000000       0.25000000 </v>
   <v>      -0.25000000       0.05000000       0.25000000 </v>
   <v>      -0.20000000       0.05000000       0.25000000 </v>
   <v>      -0.15000000       0.05000000       0.25000000 </v>
   <v>      -0.10000000       0.05000000       0.25000000 </v>
   <v>      -0.05000000       0.05000000       0.25000000 </v>
   <v>       0.00000000       0.10000000       0.25000000 </v>
   <v>       0.05000000       0.10000000       0.25000000 </v>
   <v>       0.10000000       0.10000000       0.25000000 </v>
   <v>       0.15000000       0.10000000       0.25000000 </v>
   <v>       0.20000000       0.10000000       0.25000000 </v>
   <v>       0.25000000       0.10000000       0.25000000 </v>
   <v>       0.30000000       0.10000000       0.25000000 </v>
   <v>       0.35000000       0.10000000       0.25000000 </v>
   <v>       0.40000000       0.10000000       0.25000000 </v>
   <v>       0.45000000       0.10000000       0.25000000 </v>
   <v>       0.50000000       0.10000000       0.25000000 </v>
   <v>      -0.45000000       0.10000000       0.25000000 </v>
   <v>      -0.40000000       0.10000000       0.25000000 </v>
   <v>      -0.35000000       0.10000000       0.25000000 </v>
   <v>      -0.30000000       0.10000000       0.25000000 </v>
   <v>      -0.25000000       0.10000000       0.25000000 </v>
   <v>      -0.20000000       0.10000000       0.25000000 </v>
   <v>      -0.15000000       0.10000000       0.25000000 </v>
   <v>      -0.10000000       0.10000000       0.25000000 </v>
   <v>      -0.05000000       0.10000000       0.25000000 </v>
   <v>       0.00000000       0.15000000       0.25000000 </v>
   <v>       0.05000000       0.15000000       0.25000000 </v>
   <v>       0.10000000       0.15000000       0.25000000 </v>
   <v>       0.15000000       0.15000000       0.25000000 </v>
   <v>       0.20000000       0.15000000       0.25000000 </v>
   <v>       0.25000000       0.15000000       0.25000000 </v>
   <v>       0.30000000       0.15000000       0.25000000 </v>
   <v>       0.35000000       0.15000000       0.25000000 </v>
   <v>       0.40000000       0.15000000       0.25000000 </v>
   <v>       0.45000000       0.15000000       0.25000000 </v>
   <v>       0.50000000       0.15000000       0.25000000 </v>
   <v>      -0.45000000       0.15000000       0.25000000 </v>
   <v>      -0.40000000       0.15000000       0.25000000 </v>
   <v>      -0.35000000       0.15000000       0.25000000 </v>
   <v>      -0.30000000       0.15000000       0.25000000 </v>
   <v>      -0.25000000       0.15000000       0.25000000 </v>
   <v>      -0.20000000       0.15000000       0.25000000 </v>
   <v>      -0.15000000       0.15000000       0.25000000 </v>
   <v>      -0.10000000       0.15000000       0.25000000 </v>
   <v>      -0.05000000       0.15000000       0.25000000 </v>
   <v>       0.00000000       0.20000000       0.25000000 </v>
   <v>       0.05000000       0.20000000       0.25000000 </v>
   <v>       0.10000000       0.20000000       0.25000000 </v>
   <v>       0.15000000       0.20000000       0.25000000 </v>
   <v>       0.20000000       0.20000000       0.25000000 </v>
   <v>       0.25000000       0.20000000       0.25000000 </v>
   <v>       0.30000000       0.20000000       0.25000000 </v>
   <v>       0.35000000       0.20000000       0.25000000 </v>
   <v>       0.40000000       0.20000000       0.25000000 </v>
   <v>       0.45000000       0.20000000       0.25000000 </v>
   <v>       0.50000000       0.20000000       0.25000000 </v>
   <v>      -0.45000000       0.20000000       0.25000000 </v>
   <v>      -0.40000000       0.20000000       0.25000000 </v>
   <v>      -0.35000000       0.20000000       0.25000000 </v>
   <v>      -0.30000000       0.20000000       0.25000000 </v>
   <v>      -0.25000000       0.20000000       0.25000000 </v>
   <v>      -0.20000000       0.20000000       0.25000000 </v>
   <v>      -0.15000000       0.20000000       0.25000000 </v>
   <v>      -0.10000000       0.20000000       0.25000000 </v>
   <v>      -0.05000000       0.20000000       0.25000000 </v>
   <v>       0.00000000       0.25000000       0.25000000 </v>
   <v>       0.05000000       0.25000000       0.25000000 </v>
   <v>       0.10000000       0.25000000       0.25000000 </v>
   <v>       0.15000000       0.25000000       0.25000000 </v>
   <v>       0.20000000       0.25000000       0.25000000 </v>
   <v>       0.25000000       0.25000000       0.25000000 </v>
   <v>       0.30000000       0.25000000       0.25000000 </v>
   <v>       0.35000000       0.25000000       0.25000000 </v>
   <v>       0.40000000       0.25000000       0.25000000 </v>
   <v>       0.45000000       0.25000000       0.25000000 </v>
   <v>       0.50000000       0.25000000       0.25000000 </v>
   <v>      -0.45000000       0.25000000       0.25000000 </v>
   <v>      -0.40000000       0.25000000       0.25000000 </v>
   <v>      -0.35000000       0.25000000       0.25000000 </v>
   <v>      -0.30000000       0.25000000       0.25000000 </v>
   <v>      -0.25000000       0.25000000       0.25000000 </v>
   <v>      -0.20000000       0.25000000       0.25000000 </v>
   <v>      -0.15000000       0.25000000       0.25000000 </v>
   <v>      -0.10000000       0.25000000       0.25000000 </v>
   <v>      -0.05000000       0.25000000       0.25000000 </v>
   <v>       0.00000000       0.30000000       0.25000000 </v>
   <v>       0.05000000       0.30000000       0.25000000 </v>
   <v>       0.10000000       0.30000000       0.25000000 </v>
   <v>       0.15000000       0.30000000       0.25000000 </v>
   <v>       0.20000000       0.30000000       0.25000000 </v>
   <v>       0.25000000       0.30000000       0.25000000 </v>
   <v>       0.30000000       0.30000000       0.25000000 </v>
   <v>       0.35000000       0.30000000       0.25000000 </v>
   <v>       0.40000000       0.30000000       0.25000000 </v>
   <v>       0.45000000       0.30000000       0.25000000 </v>
   <v>       0.50000000       0.30000000       0.25000000 </v>
   <v>      -0.45000000       0.30000000       0.25000000 </v>
   <v>      -0.40000000       0.30000000       0.25000000 </v>
   <v>      -0.35000000       0.30000000       0.25000000 </v>
   <v>      -0.30000000       0.30000000       0.25000000 </v>
   <v>      -0.25000000       0.30000000       0.25000000 </v>
   <v>      -0.20000000       0.30000000       0.25000000 </v>
   <v>      -0.15000000       0.30000000       0.25000000 </v>
   <v>      -0.10000000       0.30000000       0.25000000 </v>
   <v>      -0.05000000       0.30000000       0.25000000 </v>
   <v>       0.00000000       0.35000000       0.25000000 </v>
   <v>       0.05000000       0.35000000       0.25000000 </v>
   <v>       0.10000000       0.35000000       0.25000000 </v>
   <v>       0.15000000       0.35000000       0.25000000 </v>
   <v>       0.20000000       0.35000000       0.25000000 </v>
   <v>       0.25000000       0.35000000       0.25000000 </v>
   <v>       0.30000000       0.35000000       0.25000000 </v>
   <v>       0.35000000       0.35000000       0.25000000 </v>
   <v>       0.40000000       0.35000000       0.25000000 </v>
   <v>       0.45000000       0.35000000       0.25000000 </v>
   <v>       0.50000000       0.35000000       0.25000000 </v>
   <v>      -0.45000000       0.35000000       0.25000000 </v>
   <v>      -0.40000000       0.35000000       0.25000000 </v>
   <v>      -0.35000000       0.35000000       0.25000000 </v>
   <v>      -0.30000000       0.35000000       0.25000000 </v>
   <v>      -0.25000000       0.35000000       0.25000000 </v>
   <v>      -0.20000000       0.35000000       0.25000000 </v>
   <v>      -0.15000000       0.35000000       0.25000000 </v>
   <v>      -0.10000000       0.35000000       0.25000000 </v>
   <v>      -0.05000000       0.35000000       0.25000000 </v>
   <v>       0.00000000       0.40000000       0.25000000 </v>
   <v>       0.05000000       0.40000000       0.25000000 </v>
   <v>       0.10000000       0.40000000       0.25000000 </v>
   <v>       0.15000000       0.40000000       0.25000000 </v>
   <v>       0.20000000       0.40000000       0.25000000 </v>
   <v>       0.25000000       0.40000000       0.25000000 </v>
   <v>       0.30000000       0.40000000       0.25000000 </v>
   <v>       0.35000000       0.40000000       0.25000000 </v>
   <v>       0.40000000       0.40000000       0.25000000 </v>
   <v>       0.45000000       0.40000000       0.25000000 </v>
   <v>       0.50000000       0.40000000       0.25000000 </v>
   <v>      -0.45000000       0.40000000       0.25000000 </v>
   <v>      -0.40000000       0.40000000       0.25000000 </v>
   <v>      -0.35000000       0.40000000       0.25000000 </v>
   <v>      -0.30000000       0.40000000       0.25000000 </v>
   <v>      -0.25000000       0.40000000       0.25000000 </v>
   <v>      -0.20000000       0.40000000       0.25000000 </v>
   <v>      -0.15000000       0.40000000       0.25000000 </v>
   <v>      -0.10000000       0.40000000       0.25000000 </v>
   <v>      -0.05000000       0.40000000       0.25000000 </v>
   <v>       0.00000000       0.45000000       0.25000000 </v>
   <v>       0.05000000       0.45000000       0.25000000 </v>
   <v>       0.10000000       0.45000000       0.25000000 </v>
   <v>       0.15000000       0.45000000       0.25000000 </v>
   <v>       0.20000000       0.45000000       0.25000000 </v>
   <v>       0.25000000       0.45000000       0.25000000 </v>
   <v>       0.30000000       0.45000000       0.25000000 </v>
   <v>       0.35000000       0.45000000       0.25000000 </v>
   <v>       0.40000000       0.45000000       0.25000000 </v>
   <v>       0.45000000       0.45000000       0.25000000 </v>
   <v>       0.50000000       0.45000000       0.25000000 </v>
   <v>      -0.45000000       0.45000000       0.25000000 </v>
   <v>      -0.40000000       0.45000000       0.25000000 </v>
   <v>      -0.35000000       0.45000000       0.25000000 </v>
   <v>      -0.30000000       0.45000000       0.25000000 </v>
   <v>      -0.25000000       0.45000000       0.25000000 </v>
   <v>      -0.20000000       0.45000000       0.25000000 </v>
   <v>      -0.15000000       0.45000000       0.25000000 </v>
   <v>      -0.10000000       0.45000000       0.25000000 </v>
   <v>      -0.05000000       0.45000000       0.25000000 </v>
   <v>       0.00000000       0.50000000       0.25000000 </v>
   <v>       0.05000000       0.50000000       0.25000000 </v>
   <v>       0.10000000       0.50000000       0.25000000 </v>
   <v>       0.15000000       0.50000000       0.25000000 </v>
   <v>       0.20000000       0.50000000       0.25000000 </v>
   <v>       0.25000000       0.50000000       0.25000000 </v>
   <v>       0.30000000       0.50000000       0.25000000 </v>
   <v>       0.35000000       0.50000000       0.25000000 </v>
   <v>       0.40000000       0.50000000       0.25000000 </v>
   <v>       0.45000000       0.50000000       0.25000000 </v>
   <v>       0.50000000       0.50000000       0.25000000 </v>
   <v>       0.00000000       0.00000000       0.30000000 </v>
   <v>       0.05000000       0.00000000       0.30000000 </v>
   <v>       0.10000000       0.00000000       0.30000000 </v>
   <v>       0.15000000       0.00000000       0.30000000 </v>
   <v>       0.20000000       0.00000000       0.30000000 </v>
   <v>       0.25000000       0.00000000       0.30000000 </v>
   <v>       0.30000000       0.00000000       0.30000000 </v>
   <v>       0.35000000       0.00000000       0.30000000 </v>
   <v>       0.40000000       0.00000000       0.30000000 </v>
   <v>       0.45000000       0.00000000       0.30000000 </v>
   <v>       0.50000000       0.00000000       0.30000000 </v>
   <v>       0.00000000       0.05000000       0.30000000 </v>
   <v>       0.05000000       0.05000000       0.30000000 </v>
   <v>       0.10000000       0.05000000       0.30000000 </v>
   <v>       0.15000000       0.05000000       0.30000000 </v>
   <v>       0.20000000       0.05000000       0.30000000 </v>
   <v>       0.25000000       0.05000000       0.30000000 </v>
   <v>       0.30000000       0.05000000       0.30000000 </v>
   <v>       0.35000000       0.05000000       0.30000000 </v>
   <v>       0.40000000       0.05000000       0.30000000 </v>
   <v>       0.45000000       0.05000000       0.30000000 </v>
   <v>       0.50000000       0.05000000       0.30000000 </v>
   <v>      -0.45000000       0.05000000       0.30000000 </v>
   <v>      -0.40000000       0.05000000       0.30000000 </v>
   <v>      -0.35000000       0.05000000       0.30000000 </v>
   <v>      -0.30000000       0.05000000       0.30000000 </v>
   <v>      -0.25000000       0.05000000       0.30000000 </v>
[...]
      </set>
      <set comment="kpoint 2214">
       <r>    1.4140    1.0000 </r>
       <r>    1.4140    1.0000 </r>
       <r>    1.4227    1.0000 </r>
       <r>    1.4227    1.0000 </r>
       <r>    8.1924   -0.0021 </r>
       <r>    8.1924   -0.0021 </r>
       <r>    8.2630    0.0031 </r>
       <r>    8.2630    0.0031 </r>
       <r>   11.8830    0.0000 </r>
       <r>   11.8830    0.0000 </r>
       <r>   11.9693    0.0000 </r>
       <r>   11.9693    0.0000 </r>
       <r>   17.5643    0.0000 </r>
       <r>   17.5643    0.0000 </r>
       <r>   17.5717    0.0000 </r>
       <r>   17.5717    0.0000 </r>
      </set>
      <set comment="kpoint 2215">
       <r>    1.5216    1.0000 </r>
       <r>    1.5216    1.0000 </r>
       <r>    1.5346    1.0000 </r>
       <r>    1.5346    1.0000 </r>
       <r>    7.4965    1.0000 </r>
       <r>    7.4965    1.0000 </r>
       <r>    7.5670    1.0000 </r>
       <r>    7.5670    1.0000 </r>
       <r>   12.7606    0.0000 </r>
       <r>   12.7606    0.0000 </r>
       <r>   12.8547    0.0000 </r>
       <r>   12.8547    0.0000 </r>
       <r>   17.6600    0.0000 </r>
       <r>   17.6600    0.0000 </r>
       <r>   17.6711    0.0000 </r>
       <r>   17.6711    0.0000 </r>
      </set>
      <set comment="kpoint 2216">
       <r>    1.6730    1.0000 </r>
       <r>    1.6730    1.0000 </r>
       <r>    1.6903    1.0000 </r>
       <r>    1.6903    1.0000 </r>
       <r>    6.8173    1.0000 </r>
       <r>    6.8173    1.0000 </r>
       <r>    6.8854    1.0000 </r>
       <r>    6.8854    1.0000 </r>
       <r>   13.6954    0.0000 </r>
       <r>   13.6954    0.0000 </r>
       <r>   13.7948    0.0000 </r>
       <r>   13.7948    0.0000 </r>
       <r>   17.7947    0.0000 </r>
       <r>   17.7947    0.0000 </r>
       <r>   17.8096    0.0000 </r>
       <r>   17.8096    0.0000 </r>
      </set>
      <set comment="kpoint 2217">
       <r>    1.8680    1.0000 </r>
       <r>    1.8680    1.0000 </r>
       <r>    1.8896    1.0000 </r>
       <r>    1.8896    1.0000 </r>
       <r>    6.1687    1.0000 </r>
       <r>    6.1687    1.0000 </r>
       <r>    6.2335    1.0000 </r>
       <r>    6.2335    1.0000 </r>
       <r>   14.6684    0.0000 </r>
       <r>   14.6684    0.0000 </r>
       <r>   14.7722    0.0000 </r>
       <r>   14.7722    0.0000 </r>
       <r>   17.9685    0.0000 </r>
       <r>   17.9685    0.0000 </r>
       <r>   17.9871    0.0000 </r>
       <r>   17.9871    0.0000 </r>
      </set>
      <set comment="kpoint 2218">
       <r>    2.1064    1.0000 </r>
       <r>    2.1064    1.0000 </r>
       <r>    2.1321    1.0000 </r>
       <r>    2.1321    1.0000 </r>
       <r>    5.5559    1.0000 </r>
       <r>    5.5559    1.0000 </r>
       <r>    5.6172    1.0000 </r>
       <r>    5.6172    1.0000 </r>
       <r>   15.6677    0.0000 </r>
       <r>   15.6677    0.0000 </r>
       <r>   15.7752    0.0000 </r>
       <r>   15.7752    0.0000 </r>
       <r>   18.1814    0.0000 </r>
       <r>   18.1814    0.0000 </r>
       <r>   18.2038    0.0000 </r>
       <r>   18.2038    0.0000 </r>
      </set>
      <set comment="kpoint 2219">
       <r>    2.3877    1.0000 </r>
       <r>    2.3877    1.0000 </r>
       <r>    2.4174    1.0000 </r>
       <r>    2.4174    1.0000 </r>
       <r>    4.9819    1.0000 </r>
       <r>    4.9819    1.0000 </r>
       <r>    5.0396    1.0000 </r>
       <r>    5.0396    1.0000 </r>
       <r>   16.6786    0.0000 </r>
       <r>   16.6786    0.0000 </r>
       <r>   16.7891    0.0000 </r>
       <r>   16.7891    0.0000 </r>
       <r>   18.4334    0.0000 </r>
       <r>   18.4334    0.0000 </r>
       <r>   18.4596    0.0000 </r>
       <r>   18.4596    0.0000 </r>
      </set>
      <set comment="kpoint 2220">
       <r>    2.7113    1.0000 </r>
       <r>    2.7113    1.0000 </r>
       <r>    2.7446    1.0000 </r>
       <r>    2.7446    1.0000 </r>
       <r>    4.4486    1.0000 </r>
       <r>    4.4486    1.0000 </r>
       <r>    4.5029    1.0000 </r>
       <r>    4.5029    1.0000 </r>
       <r>   17.6767    0.0000 </r>
       <r>   17.6767    0.0000 </r>
       <r>   17.7886    0.0000 </r>
       <r>   17.7886    0.0000 </r>
       <r>   18.7245    0.0000 </r>
       <r>   18.7245    0.0000 </r>
       <r>   18.7547    0.0000 </r>
       <r>   18.7547    0.0000 </r>
      </set>
      <set comment="kpoint 2221">
       <r>    3.0741    1.0000 </r>
       <r>    3.0741    1.0000 </r>
       <r>    3.1097    1.0000 </r>
       <r>    3.1097    1.0000 </r>
       <r>    3.9597    1.0000 </r>
       <r>    3.9597    1.0000 </r>
       <r>    4.0120    1.0000 </r>
       <r>    4.0120    1.0000 </r>
       <r>   18.6130    0.0000 </r>
       <r>   18.6130    0.0000 </r>
       <r>   18.7228    0.0000 </r>
       <r>   18.7228    0.0000 </r>
       <r>   19.0540    0.0000 </r>
       <r>   19.0540    0.0000 </r>
       <r>   19.0887    0.0000 </r>
       <r>   19.0887    0.0000 </r>
      </set>
      <set comment="kpoint 2222">
       <r>    3.3976    1.0000 </r>
       <r>    3.3976    1.0000 </r>
       <r>    3.4239    1.0000 </r>
       <r>    3.4239    1.0000 </r>
       <r>    3.5942    1.0000 </r>
       <r>    3.5942    1.0000 </r>
       <r>    3.6558    1.0000 </r>
       <r>    3.6558    1.0000 </r>
       <r>   19.3597    0.0000 </r>
       <r>   19.3601    0.0000 </r>
       <r>   19.3988    0.0000 </r>
       <r>   19.3990    0.0000 </r>
       <r>   19.4004    0.0000 </r>
       <r>   19.4017    0.0000 </r>
       <r>   19.4477    0.0000 </r>
       <r>   19.4545    0.0000 </r>
      </set>
     </set>
    </set>
   </array>
  </eigenvalues>
  <separator name="orbital magnetization" >
   <v name="MAGDIPOLOUT">      0.00000000      0.00000000      0.00000000</v>
  </separator>
  <dos>
   <i name="efermi">      8.02738109 </i>
   <total>
    <array>
     <dimension dim="1">gridpoints</dimension>
     <dimension dim="2">spin</dimension>
     <field>energy</field>
     <field>total</field>
     <field>integrated</field>
     <set>
      <set comment="spin 1">
       <r>  -4.2686   0.0000   0.0000 </r>
       <r>  -4.1853   0.0000   0.0000 </r>
       <r>  -4.1020   0.0000   0.0000 </r>
       <r>  -4.0187   0.0000   0.0000 </r>
       <r>  -3.9354   0.0000   0.0000 </r>
       <r>  -3.8521   0.0000   0.0000 </r>
       <r>  -3.7688   0.0000   0.0000 </r>
       <r>  -3.6855   0.0000   0.0000 </r>
       <r>  -3.6022   0.0000   0.0000 </r>
       <r>  -3.5189   0.0000   0.0000 </r>
       <r>  -3.4356   0.0000   0.0000 </r>
       <r>  -3.3523   0.0001   0.0000 </r>
       <r>  -3.2690   0.0002   0.0000 </r>
       <r>  -3.1857  -0.0033  -0.0002 </r>
       <r>  -3.1024   0.0257   0.0019 </r>
       <r>  -3.0191   0.1180   0.0117 </r>
       <r>  -2.9358   0.1792   0.0266 </r>
       <r>  -2.8525   0.2322   0.0460 </r>
       <r>  -2.7692   0.2460   0.0665 </r>
       <r>  -2.6859   0.3206   0.0932 </r>
       <r>  -2.6026   0.2913   0.1174 </r>
       <r>  -2.5193   0.3663   0.1480 </r>
       <r>  -2.4360   0.3895   0.1804 </r>
       <r>  -2.3527   0.3673   0.2110 </r>
       <r>  -2.2694   0.4221   0.2462 </r>
       <r>  -2.1861   0.4736   0.2856 </r>
       <r>  -2.1028   0.4660   0.3244 </r>
       <r>  -2.0195   0.3886   0.3568 </r>
       <r>  -1.9362   0.5931   0.4062 </r>
       <r>  -1.8529   0.5362   0.4509 </r>
       <r>  -1.7696   0.4668   0.4898 </r>
       <r>  -1.6863   0.5300   0.5339 </r>
       <r>  -1.6030   0.6491   0.5880 </r>
       <r>  -1.5197   0.5480   0.6336 </r>
       <r>  -1.4364   0.6319   0.6863 </r>
       <r>  -1.3531   0.5858   0.7350 </r>
       <r>  -1.2698   0.5701   0.7825 </r>
       <r>  -1.1865   0.6800   0.8392 </r>
       <r>  -1.1032   0.7960   0.9055 </r>
       <r>  -1.0199   0.6129   0.9565 </r>
       <r>  -0.9366   0.5095   0.9990 </r>
       <r>  -0.8533   0.8284   1.0680 </r>
       <r>  -0.7700   0.7467   1.1302 </r>
       <r>  -0.6867   0.7642   1.1938 </r>
       <r>  -0.6034   0.6643   1.2492 </r>
       <r>  -0.5201   0.7823   1.3144 </r>
       <r>  -0.4368   0.7341   1.3755 </r>
       <r>  -0.3535   0.7534   1.4383 </r>
       <r>  -0.2702   0.8399   1.5082 </r>
       <r>  -0.1869   0.8385   1.5781 </r>
       <r>  -0.1036   0.8534   1.6492 </r>
       <r>  -0.0203   0.8249   1.7179 </r>
       <r>   0.0630   0.6724   1.7739 </r>
       <r>   0.1463   0.7987   1.8404 </r>
       <r>   0.2296   1.0730   1.9298 </r>
       <r>   0.3129   0.9839   2.0118 </r>
       <r>   0.3962   0.7611   2.0752 </r>
       <r>   0.4795   0.7833   2.1404 </r>
       <r>   0.5628   0.9868   2.2226 </r>
       <r>   0.6461   0.8174   2.2907 </r>
       <r>   0.7294   1.1124   2.3834 </r>
       <r>   0.8127   0.8661   2.4555 </r>
       <r>   0.8960   0.8854   2.5292 </r>
       <r>   0.9793   1.0909   2.6201 </r>
       <r>   1.0626   1.0858   2.7106 </r>
       <r>   1.1459   0.7099   2.7697 </r>
       <r>   1.2292   0.9934   2.8524 </r>
       <r>   1.3125   1.0801   2.9424 </r>
       <r>   1.3958   0.9663   3.0229 </r>
       <r>   1.4791   1.1387   3.1177 </r>
       <r>   1.5624   1.2111   3.2186 </r>
       <r>   1.6457   0.9088   3.2943 </r>
       <r>   1.7290   0.8689   3.3667 </r>
       <r>   1.8123   1.0946   3.4579 </r>
       <r>   1.8955   1.0345   3.5441 </r>
       <r>   1.9788   1.2028   3.6443 </r>
       <r>   2.0621   1.2223   3.7461 </r>
       <r>   2.1454   1.1548   3.8423 </r>
       <r>   2.2287   0.8392   3.9122 </r>
       <r>   2.3120   1.1855   4.0109 </r>
       <r>   2.3953   1.2476   4.1149 </r>
       <r>   2.4786   1.1828   4.2134 </r>
       <r>   2.5619   0.9181   4.2899 </r>
       <r>   2.6452   1.2368   4.3929 </r>
       <r>   2.7285   1.1570   4.4892 </r>
       <r>   2.8118   1.2977   4.5973 </r>
       <r>   2.8951   1.3424   4.7092 </r>
       <r>   2.9784   1.1460   4.8046 </r>
       <r>   3.0617   1.1316   4.8989 </r>
       <r>   3.1450   1.1737   4.9967 </r>
       <r>   3.2283   1.0376   5.0831 </r>
       <r>   3.3116   1.2919   5.1907 </r>
       <r>   3.3949   1.4859   5.3145 </r>
       <r>   3.4782   1.4553   5.4357 </r>
       <r>   3.5615   1.1145   5.5285 </r>
       <r>   3.6448   1.2627   5.6337 </r>
       <r>   3.7281   1.2349   5.7366 </r>
       <r>   3.8114   1.2652   5.8420 </r>
       <r>   3.8947   1.1452   5.9374 </r>
       <r>   3.9780   1.3242   6.0477 </r>
       <r>   4.0613   1.5055   6.1731 </r>
       <r>   4.1446   1.4408   6.2931 </r>
       <r>   4.2279   1.2646   6.3984 </r>
       <r>   4.3112   1.1439   6.4937 </r>
       <r>   4.3945   1.5335   6.6215 </r>
       <r>   4.4778   1.3712   6.7357 </r>
       <r>   4.5611   1.4748   6.8585 </r>
       <r>   4.6444   1.3001   6.9668 </r>
       <r>   4.7277   1.4173   7.0849 </r>
       <r>   4.8110   1.3199   7.1948 </r>
       <r>   4.8943   1.3715   7.3091 </r>
       <r>   4.9776   1.5819   7.4409 </r>
       <r>   5.0609   1.8585   7.5957 </r>
       <r>   5.1442   1.4332   7.7151 </r>
       <r>   5.2275   1.4436   7.8353 </r>
       <r>   5.3108   1.3202   7.9453 </r>
       <r>   5.3941   1.4249   8.0640 </r>
       <r>   5.4774   1.9342   8.2251 </r>
       <r>   5.5607   1.5925   8.3577 </r>
       <r>   5.6440   1.0135   8.4422 </r>
       <r>   5.7273   1.4992   8.5670 </r>
       <r>   5.8106   1.8682   8.7227 </r>
       <r>   5.8939   1.3477   8.8349 </r>
       <r>   5.9772   1.0831   8.9252 </r>
       <r>   6.0605   1.4801   9.0484 </r>
       <r>   6.1438   1.6486   9.1858 </r>
       <r>   6.2271   1.3062   9.2946 </r>
       <r>   6.3104   1.1786   9.3928 </r>
       <r>   6.3937   1.4686   9.5151 </r>
       <r>   6.4770   1.7617   9.6618 </r>
       <r>   6.5603   1.2552   9.7664 </r>
       <r>   6.6436   1.2642   9.8717 </r>
       <r>   6.7269   1.4625   9.9935 </r>
       <r>   6.8102   1.4531  10.1146 </r>
       <r>   6.8935   1.6514  10.2521 </r>
       <r>   6.9768   1.7429  10.3973 </r>
       <r>   7.0601   1.3712  10.5115 </r>
       <r>   7.1434   1.7638  10.6585 </r>
       <r>   7.2267   1.6625  10.7969 </r>
       <r>   7.3100   1.4245  10.9156 </r>
       <r>   7.3933   1.3897  11.0314 </r>
       <r>   7.4766   1.5827  11.1632 </r>
       <r>   7.5599   1.5509  11.2924 </r>
       <r>   7.6432   1.5515  11.4216 </r>
       <r>   7.7265   1.4058  11.5387 </r>
       <r>   7.8098   1.5802  11.6703 </r>
       <r>   7.8931   1.5950  11.8032 </r>
       <r>   7.9764   1.4686  11.9255 </r>
       <r>   8.0597   1.5497  12.0546 </r>
       <r>   8.1430   1.9277  12.2152 </r>
       <r>   8.2263   1.9830  12.3804 </r>
       <r>   8.3096   1.7363  12.5250 </r>
       <r>   8.3929   1.3344  12.6362 </r>
       <r>   8.4762   1.4823  12.7596 </r>
       <r>   8.5595   1.3981  12.8761 </r>
       <r>   8.6428   1.6266  13.0116 </r>
       <r>   8.7261   1.6933  13.1527 </r>
       <r>   8.8094   2.1227  13.3295 </r>
       <r>   8.8927   2.0160  13.4974 </r>
       <r>   8.9760   1.8605  13.6524 </r>
       <r>   9.0593   1.4931  13.7768 </r>
       <r>   9.1426   1.4745  13.8996 </r>
       <r>   9.2259   1.4418  14.0197 </r>
       <r>   9.3092   1.4832  14.1432 </r>
       <r>   9.3925   1.8076  14.2938 </r>
       <r>   9.4758   1.8416  14.4472 </r>
       <r>   9.5591   1.6626  14.5857 </r>
       <r>   9.6424   1.8832  14.7426 </r>
       <r>   9.7257   1.9898  14.9083 </r>
       <r>   9.8090   1.9970  15.0747 </r>
       <r>   9.8923   1.6204  15.2096 </r>
       <r>   9.9756   1.4430  15.3298 </r>
       <r>  10.0589   1.3940  15.4460 </r>
       <r>  10.1422   2.2325  15.6319 </r>
       <r>  10.2255   2.1752  15.8131 </r>
       <r>  10.3088   1.4447  15.9335 </r>
       <r>  10.3921   1.5364  16.0614 </r>
       <r>  10.4754   2.2673  16.2503 </r>
       <r>  10.5587   1.9458  16.4124 </r>
       <r>  10.6420   1.2366  16.5154 </r>
       <r>  10.7253   1.6416  16.6521 </r>
       <r>  10.8086   2.4745  16.8583 </r>
       <r>  10.8919   2.0430  17.0285 </r>
       <r>  10.9752   1.5888  17.1608 </r>
       <r>  11.0585   1.6640  17.2994 </r>
       <r>  11.1418   2.2036  17.4830 </r>
       <r>  11.2251   2.0545  17.6541 </r>
       <r>  11.3083   1.7672  17.8013 </r>
       <r>  11.3916   1.7361  17.9459 </r>
       <r>  11.4749   2.0293  18.1150 </r>
       <r>  11.5582   1.7527  18.2610 </r>
       <r>  11.6415   1.3342  18.3721 </r>
       <r>  11.7248   2.2434  18.5590 </r>
       <r>  11.8081   2.4417  18.7624 </r>
       <r>  11.8914   2.0325  18.9317 </r>
       <r>  11.9747   1.9116  19.0909 </r>
       <r>  12.0580   1.9078  19.2498 </r>
       <r>  12.1413   1.9310  19.4107 </r>
       <r>  12.2246   2.0939  19.5851 </r>
       <r>  12.3079   1.8508  19.7393 </r>
       <r>  12.3912   2.0495  19.9100 </r>
       <r>  12.4745   2.1796  20.0915 </r>
       <r>  12.5578   1.7971  20.2412 </r>
       <r>  12.6411   1.8199  20.3928 </r>
       <r>  12.7244   1.8221  20.5446 </r>
       <r>  12.8077   2.4115  20.7455 </r>
       <r>  12.8910   2.2893  20.9362 </r>
       <r>  12.9743   2.2932  21.1272 </r>
       <r>  13.0576   2.0262  21.2960 </r>
       <r>  13.1409   2.1350  21.4738 </r>
       <r>  13.2242   2.2030  21.6573 </r>
       <r>  13.3075   1.8341  21.8101 </r>
       <r>  13.3908   1.8809  21.9668 </r>
       <r>  13.4741   2.5544  22.1796 </r>
       <r>  13.5574   2.4159  22.3808 </r>
       <r>  13.6407   2.4443  22.5844 </r>
       <r>  13.7240   2.3738  22.7822 </r>
       <r>  13.8073   2.1520  22.9614 </r>
       <r>  13.8906   2.1644  23.1417 </r>
       <r>  13.9739   2.3316  23.3359 </r>
       <r>  14.0572   2.3550  23.5321 </r>
       <r>  14.1405   2.4691  23.7378 </r>
       <r>  14.2238   2.1218  23.9145 </r>
       <r>  14.3071   2.3547  24.1107 </r>
       <r>  14.3904   2.5135  24.3200 </r>
       <r>  14.4737   2.0525  24.4910 </r>
       <r>  14.5570   1.9896  24.6567 </r>
       <r>  14.6403   2.0576  24.8281 </r>
       <r>  14.7236   2.5076  25.0370 </r>
       <r>  14.8069   2.4646  25.2423 </r>
       <r>  14.8902   1.7168  25.3853 </r>
       <r>  14.9735   1.7833  25.5339 </r>
       <r>  15.0568   2.1063  25.7093 </r>
       <r>  15.1401   2.2953  25.9005 </r>
       <r>  15.2234   2.2708  26.0897 </r>
       <r>  15.3067   2.2577  26.2778 </r>
       <r>  15.3900   2.2018  26.4612 </r>
       <r>  15.4733   1.8628  26.6163 </r>
       <r>  15.5566   2.2236  26.8016 </r>
       <r>  15.6399   2.5238  27.0118 </r>
       <r>  15.7232   2.1720  27.1927 </r>
       <r>  15.8065   1.8717  27.3486 </r>
       <r>  15.8898   1.6393  27.4852 </r>
       <r>  15.9731   2.0025  27.6520 </r>
       <r>  16.0564   2.2445  27.8389 </r>
       <r>  16.1397   2.4180  28.0404 </r>
       <r>  16.2230   2.0407  28.2104 </r>
       <r>  16.3063   1.8050  28.3607 </r>
       <r>  16.3896   2.1684  28.5413 </r>
       <r>  16.4729   2.2474  28.7285 </r>
       <r>  16.5562   1.9066  28.8874 </r>
       <r>  16.6395   1.6560  29.0253 </r>
       <r>  16.7228   1.7894  29.1744 </r>
       <r>  16.8061   2.2996  29.3659 </r>
       <r>  16.8894   2.5099  29.5750 </r>
       <r>  16.9727   1.9946  29.7411 </r>
       <r>  17.0560   1.5865  29.8733 </r>
       <r>  17.1393   1.4596  29.9949 </r>
       <r>  17.2226   1.4239  30.1135 </r>
       <r>  17.3059   1.8110  30.2643 </r>
       <r>  17.3892   1.8076  30.4149 </r>
       <r>  17.4725   1.5998  30.5482 </r>
       <r>  17.5558   1.3059  30.6569 </r>
       <r>  17.6391   1.1561  30.7533 </r>
       <r>  17.7224   1.3218  30.8634 </r>
       <r>  17.8057   1.3619  30.9768 </r>
       <r>  17.8890   1.2157  31.0781 </r>
       <r>  17.9723   1.0815  31.1682 </r>
       <r>  18.0556   1.1191  31.2614 </r>
       <r>  18.1389   1.0651  31.3501 </r>
       <r>  18.2222   0.8445  31.4204 </r>
       <r>  18.3055   0.7965  31.4868 </r>
       <r>  18.3888   1.0816  31.5769 </r>
       <r>  18.4721   1.1061  31.6690 </r>
       <r>  18.5554   0.8669  31.7412 </r>
       <r>  18.6387   0.5926  31.7906 </r>
       <r>  18.7220   0.4393  31.8272 </r>
       <r>  18.8053   0.5491  31.8729 </r>
       <r>  18.8886   0.5081  31.9153 </r>
       <r>  18.9719   0.2003  31.9319 </r>
       <r>  19.0552   0.1451  31.9440 </r>
       <r>  19.1385   0.1648  31.9577 </r>
       <r>  19.2218   0.1494  31.9702 </r>
       <r>  19.3051   0.1555  31.9832 </r>
       <r>  19.3884   0.1070  31.9921 </r>
       <r>  19.4717   0.0361  31.9951 </r>
       <r>  19.5550   0.0354  31.9980 </r>
       <r>  19.6383   0.0240  32.0000 </r>
       <r>  19.7216   0.0000  32.0000 </r>
       <r>  19.8049  -0.0004  32.0000 </r>
       <r>  19.8882   0.0001  32.0000 </r>
       <r>  19.9715   0.0000  32.0000 </r>
       <r>  20.0548   0.0000  32.0000 </r>
       <r>  20.1381   0.0000  32.0000 </r>
       <r>  20.2214   0.0000  32.0000 </r>
       <r>  20.3047   0.0000  32.0000 </r>
       <r>  20.3880   0.0000  32.0000 </r>
       <r>  20.4713   0.0000  32.0000 </r>
       <r>  20.5546   0.0000  32.0000 </r>
       <r>  20.6379   0.0000  32.0000 </r>
       <r>  20.7212   0.0000  32.0000 </r>
      </set>
     </set>
    </array>
   </total>
  </dos>
 </calculation>
 <structure name="finalpos" >
  <crystal>
   <varray name="basis" >
    <v>       4.04053900       0.02020300       0.00000000 </v>
    <v>       0.00000000       4.04053900       0.00000000 </v>
    <v>       0.00000000       0.00000000       4.04053900 </v>
   </varray>
   <i name="volume">     65.96565955 </i>
   <varray name="rec_basis" >
    <v>       0.24749173       0.00000000       0.00000000 </v>
    <v>      -0.00123748       0.24749173       0.00000000 </v>
    <v>       0.00000000       0.00000000       0.24749173 </v>
   </varray>
  </crystal>
  <varray name="positions" >
   <v>       0.00000000       0.00000000       0.00000000 </v>
   <v>       0.50000000       0.50000000       0.00000000 </v>
   <v>       0.50000000       0.00000000       0.50000000 </v>
   <v>       0.00000000       0.50000000       0.50000000 </v>
  </varray>
 </structure>
</modeling>
