 vasp.6.2.1 16May21 (build Jul 28 2021 23:24:15) complex                        
  
 executed on      IFC19_CrayMPICH date 2021.12.07  16:55:31
 running   16 mpi-ranks, with    8 threads/rank
 distrk:  each k-point on   16 cores,    1 groups
 distr:  one band on NCORE=   1 cores,   16 groups


--------------------------------------------------------------------------------------------------------


 INCAR:
   ALGO = Exact
   CSHIFT = 0.1
   EDIFF = 1e-05
   EDIFFG = -0.05
   ENAUG = 1360.0
   ENCUT = 680.0
   GGA = Ps
   IBRION = -1
   ISIF = 3
   ISMEAR = -5
   ISPIN = 2
   KSPACING = 0.22
   LAECHG = True
   LASPH = True
   LCHARG = True
   LELF = True
   LMIXTAU = True
   LOPTICS = True
   LORBIT = 11
   LREAL = Auto
   LVHAR = True
   LVTOT = True
   LWAVE = True
   MAGMOM = 2*0.0
   METAGGA = None
   NBANDS = 48
   NEDOS = 2001
   NELM = 200
   NSW = 0
   PREC = Accurate
   SIGMA = 0.2

 POTCAR:   PAW_PBE Si 05Jan2001                   
 POTCAR:   PAW_PBE Si 05Jan2001                   
   VRHFIN =Si: s2p2                                                                                 
   LEXCH  = PE                                                                                      
   EATOM  =   103.0669 eV,    7.5752 Ry                                                             
                                                                                                    
   TITEL  = PAW_PBE Si 05Jan2001                                                                    
   LULTRA =        F    use ultrasoft PP ?                                                          
   IUNSCR =        1    unscreen: 0-lin 1-nonlin 2-no                                               
   RPACOR =    1.500    partial core radius                                                         
   POMASS =   28.085; ZVAL   =    4.000    mass and valenz                                          
   RCORE  =    1.900    outmost cutoff radius                                                       
   RWIGS  =    2.480; RWIGS  =    1.312    wigner-seitz radius (au A)                               
   ENMAX  =  245.345; ENMIN  =  184.009 eV                                                          
   ICORE  =        2    local potential                                                             
   LCOR   =        T    correct aug charges                                                         
   LPAW   =        T    paw PP                                                                      
   EAUG   =  322.069                                                                                
   DEXC   =    -.007                                                                                
   RMAX   =    2.944    core radius for proj-oper                                                   
   RAUG   =    1.300    factor for augmentation sphere                                              
   RDEP   =    1.993    radius for radial grids                                                     
   QCUT   =   -4.246; QGAM   =    8.493    optimization parameters                                  
                                                                                                    
   Description                                                                                      
     l     E      TYP  RCUT    TYP  RCUT                                                            
     0   .000     23  1.900                                                                         
     0   .000     23  1.900                                                                         
     1   .000     23  1.900                                                                         
     1   .000     23  1.900                                                                         
     2   .000      7  1.900                                                                         
  local pseudopotential read in
  partial core-charges read in
  atomic valenz-charges read in
  non local Contribution for L=           0  read in
    real space projection operators read in
  non local Contribution for L=           0  read in
    real space projection operators read in
  non local Contribution for L=           1  read in
    real space projection operators read in
  non local Contribution for L=           1  read in
    real space projection operators read in
    PAW grid and wavefunctions read in
 
   number of l-projection  operators is LMAX  =           4
   number of lm-projection operators is LMMAX =           8
 
 -----------------------------------------------------------------------------
|                                                                             |
|               ----> ADVICE to this user running VASP <----                  |
|                                                                             |
|     You have a (more or less) 'small supercell' and for smaller cells       |
|     it is recommended to use the reciprocal-space projection scheme!        |
|     The real-space optimization is not efficient for small cells and it     |
|     is also less accurate ...                                               |
|     Therefore, set LREAL=.FALSE. in the INCAR file.                         |
|                                                                             |
 -----------------------------------------------------------------------------

 Optimization of the real space projectors (new method)

 maximal supplied QI-value         = 19.84
 optimisation between [QCUT,QGAM] = [ 13.29, 26.59] = [ 49.49,197.96] Ry 
 Optimized for a Real-space Cutoff    1.12 Angstroem

   l    n(q)    QCUT    max X(q) W(low)/X(q) W(high)/X(q)  e(spline) 
   0      9    13.294     8.708    0.13E-04    0.27E-05    0.49E-08
   0      9    13.294   106.241    0.22E-03    0.87E-04    0.52E-07
   1      8    13.294     5.901    0.77E-05    0.26E-04    0.14E-07
   1      8    13.294    73.241    0.79E-04    0.17E-03    0.12E-06
 -----------------------------------------------------------------------------
|                                                                             |
|               ----> ADVICE to this user running VASP <----                  |
|                                                                             |
|     You enforced a specific xc type in the INCAR file but a different       |
|     type was found in the POTCAR file.                                      |
|     I HOPE YOU KNOW WHAT YOU ARE DOING!                                     |
|                                                                             |
 -----------------------------------------------------------------------------

 PAW_PBE Si 05Jan2001                   :
 energy of atom  1       EATOM= -103.0669
 kinetic energy error for atom=    0.0003 (will be added to EATOM!!)
 
 
 POSCAR: Si2
  positions in direct lattice
  No initial velocities read in
 exchange correlation table for  LEXCH =       14
   RHO(1)=    0.500       N(1)  =     2000
   RHO(2)=  100.500       N(2)  =     4000
 


--------------------------------------------------------------------------------------------------------


 ion  position               nearest neighbor table
   1  0.250  0.250  0.250-   2 2.35   2 2.35   2 2.35   2 2.35
   2  0.000  0.000  0.000-   1 2.35   1 2.35   1 2.35   1 2.35
 
  LATTYP: Found a face centered cubic cell.
 ALAT       =     5.4358040000
  
  Lattice vectors:
  
 A1 = (   0.0000000000,   2.7179020000,   2.7179020000)
 A2 = (   2.7179020000,   0.0000000000,   2.7179020000)
 A3 = (   2.7179020000,   2.7179020000,   0.0000000000)


Analysis of symmetry for initial positions (statically):
=====================================================================
 Subroutine PRICEL returns:
 Original cell was already a primitive cell.
 

 Routine SETGRP: Setting up the symmetry group for a 
 face centered cubic supercell.


 Subroutine GETGRP returns: Found 48 space group operations
 (whereof 24 operations were pure point group operations)
 out of a pool of 48 trial point group operations.


The static configuration has the point symmetry T_d .
 The point group associated with its full space group is O_h .


Analysis of symmetry for dynamics (positions and initial velocities):
=====================================================================
 Subroutine PRICEL returns:
 Original cell was already a primitive cell.
 

 Routine SETGRP: Setting up the symmetry group for a 
 face centered cubic supercell.


 Subroutine GETGRP returns: Found 48 space group operations
 (whereof 24 operations were pure point group operations)
 out of a pool of 48 trial point group operations.


The dynamic configuration has the point symmetry T_d .
 The point group associated with its full space group is O_h .


Analysis of structural, dynamic, and magnetic symmetry:
=====================================================================
 Subroutine PRICEL returns:
 Original cell was already a primitive cell.
 

 Routine SETGRP: Setting up the symmetry group for a 
 face centered cubic supercell.


 Subroutine GETGRP returns: Found 48 space group operations
 (whereof 24 operations were pure point group operations)
 out of a pool of 48 trial point group operations.


The overall configuration has the point symmetry T_d .
 The point group associated with its full space group is O_h .


 Subroutine INISYM returns: Found 48 space group operations
 (whereof 24 operations are pure point group operations),
 and found     1 'primitive' translations


----------------------------------------------------------------------------------------

                                     Primitive cell                                     

  volume of cell :      40.1542

  direct lattice vectors                    reciprocal lattice vectors
     0.000000000  2.717902000  2.717902000    -0.183965426  0.183965426  0.183965426
     2.717902000  0.000000000  2.717902000     0.183965426 -0.183965426  0.183965426
     2.717902000  2.717902000  0.000000000     0.183965426  0.183965426 -0.183965426

  length of vectors
     3.843693870  3.843693870  3.843693870     0.318637465  0.318637465  0.318637465

  position of ions in fractional coordinates (direct lattice)
     0.250000000  0.250000000  0.250000000
     0.000000000  0.000000000  0.000000000

  ion indices of the primitive-cell ions
   primitive index   ion index
                 1           1
                 2           2

----------------------------------------------------------------------------------------

 
 
 KPOINTS: pymatgen with grid density = 4942 / numb

Automatic generation of k-mesh.
 Grid dimensions read from file:
 generate k-points for:   13   13   13

 Generating k-lattice:

  Cartesian coordinates                     Fractional coordinates (reciprocal lattice)
    -0.014151187  0.014151187  0.014151187     0.076923077  0.000000000 -0.000000000
     0.014151187 -0.014151187  0.014151187     0.000000000  0.076923077  0.000000000
     0.014151187  0.014151187 -0.014151187    -0.000000000 -0.000000000  0.076923077

  Length of vectors
     0.024510574  0.024510574  0.024510574

  Shift w.r.t. Gamma in fractional coordinates (k-lattice)
     0.000000000  0.000000000  0.000000000

 TETIRR: Found    322 inequivalent tetrahedra from    13182
 
 Subroutine IBZKPT returns following result:
 ===========================================
 
 Found     84 irreducible k-points:
 
 Following reciprocal coordinates:
            Coordinates               Weight
  0.000000  0.000000  0.000000      1.000000
  0.076923  0.000000 -0.000000      8.000000
  0.153846 -0.000000  0.000000      8.000000
  0.230769  0.000000 -0.000000      8.000000
  0.307692 -0.000000  0.000000      8.000000
  0.384615 -0.000000 -0.000000      8.000000
  0.461538 -0.000000 -0.000000      8.000000
  0.076923  0.076923 -0.000000      6.000000
  0.153846  0.076923 -0.000000     24.000000
  0.230769  0.076923 -0.000000     24.000000
  0.307692  0.076923 -0.000000     24.000000
  0.384615  0.076923  0.000000     24.000000
  0.461538  0.076923 -0.000000     24.000000
 -0.461538  0.076923 -0.000000     24.000000
 -0.384615  0.076923  0.000000     24.000000
 -0.307692  0.076923  0.000000     24.000000
 -0.230769  0.076923 -0.000000     24.000000
 -0.153846  0.076923 -0.000000     24.000000
 -0.076923  0.076923  0.000000     12.000000
  0.153846  0.153846 -0.000000      6.000000
  0.230769  0.153846 -0.000000     24.000000
  0.307692  0.153846 -0.000000     24.000000
  0.384615  0.153846 -0.000000     24.000000
  0.461538  0.153846 -0.000000     24.000000
 -0.461538  0.153846 -0.000000     24.000000
 -0.384615  0.153846  0.000000     24.000000
 -0.307692  0.153846  0.000000     24.000000
 -0.230769  0.153846 -0.000000     24.000000
 -0.153846  0.153846 -0.000000     12.000000
  0.230769  0.230769 -0.000000      6.000000
  0.307692  0.230769 -0.000000     24.000000
  0.384615  0.230769 -0.000000     24.000000
  0.461538  0.230769 -0.000000     24.000000
 -0.461538  0.230769 -0.000000     24.000000
 -0.384615  0.230769 -0.000000     24.000000
 -0.307692  0.230769 -0.000000     24.000000
 -0.230769  0.230769  0.000000     12.000000
  0.307692  0.307692 -0.000000      6.000000
  0.384615  0.307692 -0.000000     24.000000
  0.461538  0.307692 -0.000000     24.000000
 -0.461538  0.307692  0.000000     24.000000
 -0.384615  0.307692 -0.000000     24.000000
 -0.307692  0.307692 -0.000000     12.000000
  0.384615  0.384615 -0.000000      6.000000
  0.461538  0.384615 -0.000000     24.000000
 -0.461538  0.384615 -0.000000     24.000000
 -0.384615  0.384615 -0.000000     12.000000
  0.461538  0.461538 -0.000000      6.000000
 -0.461538  0.461538 -0.000000     12.000000
  0.230769  0.153846  0.076923     24.000000
  0.307692  0.153846  0.076923     48.000000
  0.384615  0.153846  0.076923     48.000000
  0.461538  0.153846  0.076923     48.000000
 -0.461538  0.153846  0.076923     48.000000
  0.307692  0.230769  0.076923     24.000000
  0.384615  0.230769  0.076923     48.000000
  0.461538  0.230769  0.076923     48.000000
 -0.461538  0.230769  0.076923     48.000000
 -0.384615  0.230769  0.076923     48.000000
 -0.307692  0.230769  0.076923     48.000000
 -0.230769  0.230769  0.076923     48.000000
 -0.153846  0.230769  0.076923     24.000000
  0.384615  0.307692  0.076923     24.000000
  0.461538  0.307692  0.076923     48.000000
 -0.461538  0.307692  0.076923     48.000000
 -0.384615  0.307692  0.076923     48.000000
 -0.307692  0.307692  0.076923     48.000000
 -0.230769  0.307692  0.076923     24.000000
  0.461538  0.384615  0.076923     24.000000
 -0.461538  0.384615  0.076923     48.000000
 -0.384615  0.384615  0.076923     48.000000
 -0.307692  0.384615  0.076923     24.000000
 -0.461538  0.461538  0.076923     24.000000
 -0.384615  0.461538  0.076923     24.000000
  0.461538  0.307692  0.153846     24.000000
 -0.461538  0.307692  0.153846     48.000000
 -0.384615  0.307692  0.153846     48.000000
 -0.461538  0.384615  0.153846     24.000000
 -0.384615  0.384615  0.153846     48.000000
 -0.307692  0.384615  0.153846     48.000000
 -0.230769  0.384615  0.153846     24.000000
 -0.384615  0.461538  0.153846     24.000000
 -0.307692  0.461538  0.153846     24.000000
 -0.307692  0.461538  0.230769     24.000000
 
 Following cartesian coordinates:
            Coordinates               Weight
  0.000000  0.000000  0.000000      1.000000
 -0.014151  0.014151  0.014151      8.000000
 -0.028302  0.028302  0.028302      8.000000
 -0.042454  0.042454  0.042454      8.000000
 -0.056605  0.056605  0.056605      8.000000
 -0.070756  0.070756  0.070756      8.000000
 -0.084907  0.084907  0.084907      8.000000
 -0.000000 -0.000000  0.028302      6.000000
 -0.014151  0.014151  0.042454     24.000000
 -0.028302  0.028302  0.056605     24.000000
 -0.042454  0.042454  0.070756     24.000000
 -0.056605  0.056605  0.084907     24.000000
 -0.070756  0.070756  0.099058     24.000000
  0.099058 -0.099058 -0.070756     24.000000
  0.084907 -0.084907 -0.056605     24.000000
  0.070756 -0.070756 -0.042454     24.000000
  0.056605 -0.056605 -0.028302     24.000000
  0.042454 -0.042454 -0.014151     24.000000
  0.028302 -0.028302 -0.000000     12.000000
 -0.000000  0.000000  0.056605      6.000000
 -0.014151  0.014151  0.070756     24.000000
 -0.028302  0.028302  0.084907     24.000000
 -0.042454  0.042454  0.099058     24.000000
 -0.056605  0.056605  0.113209     24.000000
  0.113209 -0.113209 -0.056605     24.000000
  0.099058 -0.099058 -0.042454     24.000000
  0.084907 -0.084907 -0.028302     24.000000
  0.070756 -0.070756 -0.014151     24.000000
  0.056605 -0.056605  0.000000     12.000000
  0.000000 -0.000000  0.084907      6.000000
 -0.014151  0.014151  0.099058     24.000000
 -0.028302  0.028302  0.113209     24.000000
 -0.042454  0.042454  0.127361     24.000000
  0.127361 -0.127361 -0.042454     24.000000
  0.113209 -0.113209 -0.028302     24.000000
  0.099058 -0.099058 -0.014151     24.000000
  0.084907 -0.084907  0.000000     12.000000
 -0.000000  0.000000  0.113209      6.000000
 -0.014151  0.014151  0.127361     24.000000
 -0.028302  0.028302  0.141512     24.000000
  0.141512 -0.141512 -0.028302     24.000000
  0.127361 -0.127361 -0.014151     24.000000
  0.113209 -0.113209  0.000000     12.000000
  0.000000 -0.000000  0.141512      6.000000
 -0.014151  0.014151  0.155663     24.000000
  0.155663 -0.155663 -0.014151     24.000000
  0.141512 -0.141512  0.000000     12.000000
  0.000000 -0.000000  0.169814      6.000000
  0.169814 -0.169814  0.000000     12.000000
  0.000000  0.028302  0.056605     24.000000
 -0.014151  0.042454  0.070756     48.000000
 -0.028302  0.056605  0.084907     48.000000
 -0.042454  0.070756  0.099058     48.000000
  0.127361 -0.099058 -0.070756     48.000000
  0.000000  0.028302  0.084907     24.000000
 -0.014151  0.042454  0.099058     48.000000
 -0.028302  0.056605  0.113209     48.000000
  0.141512 -0.113209 -0.056605     48.000000
  0.127361 -0.099058 -0.042454     48.000000
  0.113209 -0.084907 -0.028302     48.000000
  0.099058 -0.070756 -0.014151     48.000000
  0.084907 -0.056605 -0.000000     24.000000
 -0.000000  0.028302  0.113209     24.000000
 -0.014151  0.042454  0.127361     48.000000
  0.155663 -0.127361 -0.042454     48.000000
  0.141512 -0.113209 -0.028302     48.000000
  0.127361 -0.099058 -0.014151     48.000000
  0.113209 -0.084907 -0.000000     24.000000
  0.000000  0.028302  0.141512     24.000000
  0.169814 -0.141512 -0.028302     48.000000
  0.155663 -0.127361 -0.014151     48.000000
  0.141512 -0.113209 -0.000000     24.000000
  0.183965 -0.155663 -0.014151     24.000000
  0.169814 -0.141512 -0.000000     24.000000
 -0.000000  0.056605  0.113209     24.000000
  0.169814 -0.113209 -0.056605     48.000000
  0.155663 -0.099058 -0.042454     48.000000
  0.183965 -0.127361 -0.042454     24.000000
  0.169814 -0.113209 -0.028302     48.000000
  0.155663 -0.099058 -0.014151     48.000000
  0.141512 -0.084907  0.000000     24.000000
  0.183965 -0.127361 -0.014151     24.000000
  0.169814 -0.113209 -0.000000     24.000000
  0.183965 -0.099058 -0.014151     24.000000
 


--------------------------------------------------------------------------------------------------------




 Dimension of arrays:
   k-points           NKPTS =     84   k-points in BZ     NKDIM =     84   number of bands    NBANDS=     48
   number of dos      NEDOS =   2001   number of ions     NIONS =      2
   non local maximal  LDIM  =      4   non local SUM 2l+1 LMDIM =      8
   total plane-waves  NPLWV =  46656
   max r-space proj   IRMAX =   6948   max aug-charges    IRDMAX=  39044
   dimension x,y,z NGX =    36 NGY =   36 NGZ =   36
   dimension x,y,z NGXF=    72 NGYF=   72 NGZF=   72
   support grid    NGXF=    72 NGYF=   72 NGZF=   72
   ions per type =               2
   NGX,Y,Z   is equivalent  to a cutoff of  15.57, 15.57, 15.57 a.u.
   NGXF,Y,Z  is equivalent  to a cutoff of  31.14, 31.14, 31.14 a.u.

 SYSTEM =  unknown system                          
 POSCAR =  Si2                                     

 Startparameter for this run:
   NWRITE =      2    write-flag & timer
   PREC   = accura    normal or accurate (medium, high low for compatibility)
   ISTART =      1    job   : 0-new  1-cont  2-samecut
   ICHARG =      0    charge: 1-file 2-atom 10-const
   ISPIN  =      2    spin polarized calculation?
   LNONCOLLINEAR =      F non collinear calculations
   LSORBIT =      F    spin-orbit coupling
   INIWAV =      1    electr: 0-lowe 1-rand  2-diag
   LASPH  =      T    aspherical Exc in radial PAW
 Electronic Relaxation 1
   ENCUT  =  680.0 eV  49.98 Ry    7.07 a.u.   8.17  8.17  8.17*2*pi/ulx,y,z
   ENINI  =  680.0     initial cutoff
   ENAUG  = 1360.0 eV  augmentation charge cutoff
   NELM   =    200;   NELMIN=  2; NELMDL=  0     # of ELM steps 
   EDIFF  = 0.1E-04   stopping-criterion for ELM
   LREAL  =      T    real-space projection
   NLSPLINE    = F    spline interpolate recip. space projectors
   LCOMPAT=      F    compatible to vasp.4.4
   GGA_COMPAT  = T    GGA compatible to vasp.4.4-vasp.4.6
   LMAXPAW     = -100 max onsite density
   LMAXMIX     =    2 max onsite mixed and CHGCAR
   VOSKOWN=      0    Vosko Wilk Nusair interpolation
   ROPT   =   -0.00025
 Ionic relaxation
   EDIFFG = -.5E-01   stopping-criterion for IOM
   NSW    =      0    number of steps for IOM
   NBLOCK =      1;   KBLOCK =      1    inner block; outer block 
   IBRION =     -1    ionic relax: 0-MD 1-quasi-New 2-CG
   NFREE  =      0    steps in history (QN), initial steepest desc. (CG)
   ISIF   =      3    stress and relaxation
   IWAVPR =     10    prediction:  0-non 1-charg 2-wave 3-comb
   ISYM   =      2    0-nonsym 1-usesym 2-fastsym
   LCORR  =      T    Harris-Foulkes like correction to forces

   POTIM  = 0.5000    time-step for ionic-motion
   TEIN   =    0.0    initial temperature
   TEBEG  =    0.0;   TEEND  =   0.0 temperature during run
   SMASS  =  -3.00    Nose mass-parameter (am)
   estimated Nose-frequenzy (Omega)   =  0.10E-29 period in steps = 0.13E+47 mass=  -0.338E-27a.u.
   SCALEE = 1.0000    scale energy and forces
   NPACO  =    256;   APACO  = 16.0  distance and # of slots for P.C.
   PSTRESS=    0.0 pullay stress

  Mass of Ions in am
   POMASS =  28.09
  Ionic Valenz
   ZVAL   =   4.00
  Atomic Wigner-Seitz radii
   RWIGS  =  -1.00
  virtual crystal weights 
   VCA    =   1.00
   NELECT =       8.0000    total number of electrons
   NUPDOWN=      -1.0000    fix difference up-down

 DOS related values:
   EMIN   =  10.00;   EMAX   =-10.00  energy-range for DOS
   EFERMI =   0.00
   ISMEAR =    -5;   SIGMA  =   0.20  broadening in eV -4-tet -1-fermi 0-gaus

 Electronic relaxation 2 (details)
   IALGO  =     90    algorithm
   LDIAG  =      T    sub-space diagonalisation (order eigenvalues)
   LSUBROT=      F    optimize rotation matrix (better conditioning)
   TURBO    =      0    0=normal 1=particle mesh
   IRESTART =      0    0=no restart 2=restart with 2 vectors
   NREBOOT  =      0    no. of reboots
   NMIN     =      0    reboot dimension
   EREF     =   0.00    reference energy to select bands
   IMIX   =      4    mixing-type and parameters
     AMIX     =   0.40;   BMIX     =  1.00
     AMIX_MAG =   1.60;   BMIX_MAG =  1.00
     AMIN     =   0.10
     WC   =   100.;   INIMIX=   1;  MIXPRE=   1;  MAXMIX= -45

 Intra band minimization:
   WEIMIN = 0.0000     energy-eigenvalue tresh-hold
   EBREAK =  0.52E-07  absolut break condition
   DEPER  =   0.30     relativ break condition  

   TIME   =   0.40     timestep for ELM

  volume/ion in A,a.u.               =      20.08       135.49
  Fermi-wavevector in a.u.,A,eV,Ry     =   0.956154  1.806868 12.438852  0.914230
  Thomas-Fermi vector in A             =   2.085056
 
 Write flags
   LWAVE        =      T    write WAVECAR
   LDOWNSAMPLE  =      F    k-point downsampling of WAVECAR
   LCHARG       =      T    write CHGCAR
   LVTOT        =      F    write LOCPOT, total local potential
   LVHAR        =      T    write LOCPOT, Hartree potential only
   LELF         =      T    write electronic localiz. function (ELF)
   LORBIT       =     11    0 simple, 1 ext, 2 COOP (PROOUT), +10 PAW based schemes


 Dipole corrections
   LMONO  =      F    monopole corrections only (constant potential shift)
   LDIPOL =      F    correct potential (dipole corrections)
   IDIPOL =      0    1-x, 2-y, 3-z, 4-all directions 
   EPSILON=  1.0000000 bulk dielectric constant

 Exchange correlation treatment:
   GGA     =    PS    GGA type
   LEXCH   =    14    internal setting for exchange type
   VOSKOWN=      0    Vosko Wilk Nusair interpolation
   LHFCALC =     F    Hartree Fock is set to
   LHFONE  =     F    Hartree Fock one center treatment
   AEXX    =    0.0000 exact exchange contribution

 Linear response parameters
   LEPSILON=     F    determine dielectric tensor
   LRPA    =     F    only Hartree local field effects (RPA)
   LNABLA  =     F    use nabla operator in PAW spheres
   LVEL    =     F    velocity operator in full k-point grid
   LINTERFAST=   F  fast interpolation
   KINTER  =     0    interpolate to denser k-point grid
   CSHIFT  =0.1000    complex shift for real part using Kramers Kronig
   OMEGAMAX=  -1.0    maximum frequency
   DEG_THRESHOLD= 0.2000000E-02 threshold for treating states as degnerate
   RTIME   =   -0.100 relaxation time in fs
  (WPLASMAI=    0.000 imaginary part of plasma frequency in eV, 0.658/RTIME)
   DFIELD  = 0.0000000 0.0000000 0.0000000 field for delta impulse in time
 
 Orbital magnetization related:
   ORBITALMAG=     F  switch on orbital magnetization
   LCHIMAG   =     F  perturbation theory with respect to B field
   DQ        =  0.001000  dq finite difference perturbation B field
   LLRAUG    =     F  two centre corrections for induced B field



--------------------------------------------------------------------------------------------------------


 Static calculation
 charge density and potential will be updated during run
 spin polarized calculation
 Exact diagonalization
 preconditioned conjugated gradient (Jacobi prec)
    charged. constant during bandupdate  
    band-by band algorithm
 perform sub-space diagonalisation
    after iterative eigenvector-optimisation
 modified Broyden-mixing scheme, WC =      100.0
 initial mixing is a Kerker type mixing with AMIX =  0.4000 and BMIX =      1.0000
 Hartree-type preconditioning will be used
 using additional bands           44
 real space projection scheme for non local part
 use partial core corrections
 calculate Harris-corrections to forces 
   (improved forces if not selfconsistent)
 use gradient corrections 
 use of overlap-Matrix (Vanderbilt PP)
 Fermi weights with tetrahedron method with Bloechl corrections


--------------------------------------------------------------------------------------------------------


  energy-cutoff  :      680.00
  volume of cell :       40.15
      direct lattice vectors                 reciprocal lattice vectors
     0.000000000  2.717902000  2.717902000    -0.183965426  0.183965426  0.183965426
     2.717902000  0.000000000  2.717902000     0.183965426 -0.183965426  0.183965426
     2.717902000  2.717902000  0.000000000     0.183965426  0.183965426 -0.183965426

  length of vectors
     3.843693870  3.843693870  3.843693870     0.318637465  0.318637465  0.318637465


 
 old parameters found on file WAVECAR:
  energy-cutoff  :      680.00
  volume of cell :       40.15
      direct lattice vectors                 reciprocal lattice vectors
     0.000000000  2.717902000  2.717902000    -0.183965426  0.183965426  0.183965426
     2.717902000  0.000000000  2.717902000     0.183965426 -0.183965426  0.183965426
     2.717902000  2.717902000  0.000000000     0.183965426  0.183965426 -0.183965426

  length of vectors

 
 k-points in units of 2pi/SCALE and weight: pymatgen with grid density = 4942 / numb
   0.00000000  0.00000000  0.00000000       0.000
  -0.01415119  0.01415119  0.01415119       0.004
  -0.02830237  0.02830237  0.02830237       0.004
  -0.04245356  0.04245356  0.04245356       0.004
  -0.05660475  0.05660475  0.05660475       0.004
  -0.07075593  0.07075593  0.07075593       0.004
  -0.08490712  0.08490712  0.08490712       0.004
  -0.00000000 -0.00000000  0.02830237       0.003
  -0.01415119  0.01415119  0.04245356       0.011
  -0.02830237  0.02830237  0.05660475       0.011
  -0.04245356  0.04245356  0.07075593       0.011
  -0.05660475  0.05660475  0.08490712       0.011
  -0.07075593  0.07075593  0.09905831       0.011
   0.09905831 -0.09905831 -0.07075593       0.011
   0.08490712 -0.08490712 -0.05660475       0.011
   0.07075593 -0.07075593 -0.04245356       0.011
   0.05660475 -0.05660475 -0.02830237       0.011
   0.04245356 -0.04245356 -0.01415119       0.011
   0.02830237 -0.02830237 -0.00000000       0.005
   0.00000000 -0.00000000  0.05660475       0.003
  -0.01415119  0.01415119  0.07075593       0.011
  -0.02830237  0.02830237  0.08490712       0.011
  -0.04245356  0.04245356  0.09905831       0.011
  -0.05660475  0.05660475  0.11320949       0.011
   0.11320949 -0.11320949 -0.05660475       0.011
   0.09905831 -0.09905831 -0.04245356       0.011
   0.08490712 -0.08490712 -0.02830237       0.011
   0.07075593 -0.07075593 -0.01415119       0.011
   0.05660475 -0.05660475  0.00000000       0.005
  -0.00000000  0.00000000  0.08490712       0.003
  -0.01415119  0.01415119  0.09905831       0.011
  -0.02830237  0.02830237  0.11320949       0.011
  -0.04245356  0.04245356  0.12736068       0.011
   0.12736068 -0.12736068 -0.04245356       0.011
   0.11320949 -0.11320949 -0.02830237       0.011
   0.09905831 -0.09905831 -0.01415119       0.011
   0.08490712 -0.08490712 -0.00000000       0.005
   0.00000000 -0.00000000  0.11320949       0.003
  -0.01415119  0.01415119  0.12736068       0.011
  -0.02830237  0.02830237  0.14151187       0.011
   0.14151187 -0.14151187 -0.02830237       0.011
   0.12736068 -0.12736068 -0.01415119       0.011
   0.11320949 -0.11320949  0.00000000       0.005
  -0.00000000  0.00000000  0.14151187       0.003
  -0.01415119  0.01415119  0.15566305       0.011
   0.15566305 -0.15566305 -0.01415119       0.011
   0.14151187 -0.14151187 -0.00000000       0.005
  -0.00000000  0.00000000  0.16981424       0.003
   0.16981424 -0.16981424 -0.00000000       0.005
  -0.00000000  0.02830237  0.05660475       0.011
  -0.01415119  0.04245356  0.07075593       0.022
  -0.02830237  0.05660475  0.08490712       0.022
  -0.04245356  0.07075593  0.09905831       0.022
   0.12736068 -0.09905831 -0.07075593       0.022
   0.00000000  0.02830237  0.08490712       0.011
  -0.01415119  0.04245356  0.09905831       0.022
  -0.02830237  0.05660475  0.11320949       0.022
   0.14151187 -0.11320949 -0.05660475       0.022
   0.12736068 -0.09905831 -0.04245356       0.022
   0.11320949 -0.08490712 -0.02830237       0.022
   0.09905831 -0.07075593 -0.01415119       0.022
   0.08490712 -0.05660475 -0.00000000       0.011
  -0.00000000  0.02830237  0.11320949       0.011
  -0.01415119  0.04245356  0.12736068       0.022
   0.15566305 -0.12736068 -0.04245356       0.022
   0.14151187 -0.11320949 -0.02830237       0.022
   0.12736068 -0.09905831 -0.01415119       0.022
   0.11320949 -0.08490712 -0.00000000       0.011
   0.00000000  0.02830237  0.14151187       0.011
   0.16981424 -0.14151187 -0.02830237       0.022
   0.15566305 -0.12736068 -0.01415119       0.022
   0.14151187 -0.11320949 -0.00000000       0.011
   0.18396543 -0.15566305 -0.01415119       0.011
   0.16981424 -0.14151187 -0.00000000       0.011
   0.00000000  0.05660475  0.11320949       0.011
   0.16981424 -0.11320949 -0.05660475       0.022
   0.15566305 -0.09905831 -0.04245356       0.022
   0.18396543 -0.12736068 -0.04245356       0.011
   0.16981424 -0.11320949 -0.02830237       0.022
   0.15566305 -0.09905831 -0.01415119       0.022
   0.14151187 -0.08490712 -0.00000000       0.011
   0.18396543 -0.12736068 -0.01415119       0.011
   0.16981424 -0.11320949 -0.00000000       0.011
   0.18396543 -0.09905831 -0.01415119       0.011
 
 k-points in reciprocal lattice and weights: pymatgen with grid density = 4942 / numb
   0.00000000  0.00000000  0.00000000       0.000
   0.07692308  0.00000000 -0.00000000       0.004
   0.15384615 -0.00000000  0.00000000       0.004
   0.23076923  0.00000000 -0.00000000       0.004
   0.30769231 -0.00000000  0.00000000       0.004
   0.38461538 -0.00000000 -0.00000000       0.004
   0.46153846 -0.00000000 -0.00000000       0.004
   0.07692308  0.07692308 -0.00000000       0.003
   0.15384615  0.07692308 -0.00000000       0.011
   0.23076923  0.07692308 -0.00000000       0.011
   0.30769231  0.07692308 -0.00000000       0.011
   0.38461538  0.07692308  0.00000000       0.011
   0.46153846  0.07692308 -0.00000000       0.011
  -0.46153846  0.07692308 -0.00000000       0.011
  -0.38461538  0.07692308  0.00000000       0.011
  -0.30769231  0.07692308  0.00000000       0.011
  -0.23076923  0.07692308 -0.00000000       0.011
  -0.15384615  0.07692308 -0.00000000       0.011
  -0.07692308  0.07692308  0.00000000       0.005
   0.15384615  0.15384615 -0.00000000       0.003
   0.23076923  0.15384615 -0.00000000       0.011
   0.30769231  0.15384615 -0.00000000       0.011
   0.38461538  0.15384615 -0.00000000       0.011
   0.46153846  0.15384615 -0.00000000       0.011
  -0.46153846  0.15384615 -0.00000000       0.011
  -0.38461538  0.15384615  0.00000000       0.011
  -0.30769231  0.15384615  0.00000000       0.011
  -0.23076923  0.15384615 -0.00000000       0.011
  -0.15384615  0.15384615 -0.00000000       0.005
   0.23076923  0.23076923 -0.00000000       0.003
   0.30769231  0.23076923 -0.00000000       0.011
   0.38461538  0.23076923 -0.00000000       0.011
   0.46153846  0.23076923 -0.00000000       0.011
  -0.46153846  0.23076923 -0.00000000       0.011
  -0.38461538  0.23076923 -0.00000000       0.011
  -0.30769231  0.23076923 -0.00000000       0.011
  -0.23076923  0.23076923  0.00000000       0.005
   0.30769231  0.30769231 -0.00000000       0.003
   0.38461538  0.30769231 -0.00000000       0.011
   0.46153846  0.30769231 -0.00000000       0.011
  -0.46153846  0.30769231  0.00000000       0.011
  -0.38461538  0.30769231 -0.00000000       0.011
  -0.30769231  0.30769231 -0.00000000       0.005
   0.38461538  0.38461538 -0.00000000       0.003
   0.46153846  0.38461538 -0.00000000       0.011
  -0.46153846  0.38461538 -0.00000000       0.011
  -0.38461538  0.38461538 -0.00000000       0.005
   0.46153846  0.46153846 -0.00000000       0.003
  -0.46153846  0.46153846 -0.00000000       0.005
   0.23076923  0.15384615  0.07692308       0.011
   0.30769231  0.15384615  0.07692308       0.022
   0.38461538  0.15384615  0.07692308       0.022
   0.46153846  0.15384615  0.07692308       0.022
  -0.46153846  0.15384615  0.07692308       0.022
   0.30769231  0.23076923  0.07692308       0.011
   0.38461538  0.23076923  0.07692308       0.022
   0.46153846  0.23076923  0.07692308       0.022
  -0.46153846  0.23076923  0.07692308       0.022
  -0.38461538  0.23076923  0.07692308       0.022
  -0.30769231  0.23076923  0.07692308       0.022
  -0.23076923  0.23076923  0.07692308       0.022
  -0.15384615  0.23076923  0.07692308       0.011
   0.38461538  0.30769231  0.07692308       0.011
   0.46153846  0.30769231  0.07692308       0.022
  -0.46153846  0.30769231  0.07692308       0.022
  -0.38461538  0.30769231  0.07692308       0.022
  -0.30769231  0.30769231  0.07692308       0.022
  -0.23076923  0.30769231  0.07692308       0.011
   0.46153846  0.38461538  0.07692308       0.011
  -0.46153846  0.38461538  0.07692308       0.022
  -0.38461538  0.38461538  0.07692308       0.022
  -0.30769231  0.38461538  0.07692308       0.011
  -0.46153846  0.46153846  0.07692308       0.011
  -0.38461538  0.46153846  0.07692308       0.011
   0.46153846  0.30769231  0.15384615       0.011
  -0.46153846  0.30769231  0.15384615       0.022
  -0.38461538  0.30769231  0.15384615       0.022
  -0.46153846  0.38461538  0.15384615       0.011
  -0.38461538  0.38461538  0.15384615       0.022
  -0.30769231  0.38461538  0.15384615       0.022
  -0.23076923  0.38461538  0.15384615       0.011
  -0.38461538  0.46153846  0.15384615       0.011
  -0.30769231  0.46153846  0.15384615       0.011
  -0.30769231  0.46153846  0.23076923       0.011
 
 position of ions in fractional coordinates (direct lattice) 
   0.25000000  0.25000000  0.25000000
   0.00000000  0.00000000  0.00000000
 
 position of ions in cartesian coordinates  (Angst):
   1.35895100  1.35895100  1.35895100
   0.00000000  0.00000000  0.00000000
 


--------------------------------------------------------------------------------------------------------


 k-point   1 :   0.0000 0.0000 0.0000  plane waves:    1639
 k-point   2 :   0.0769 0.0000-0.0000  plane waves:    1630
 k-point   3 :   0.1538-0.0000 0.0000  plane waves:    1600
 k-point   4 :   0.2308 0.0000-0.0000  plane waves:    1612
 k-point   5 :   0.3077-0.0000 0.0000  plane waves:    1624
 k-point   6 :   0.3846-0.0000-0.0000  plane waves:    1619
 k-point   7 :   0.4615-0.0000-0.0000  plane waves:    1616
 k-point   8 :   0.0769 0.0769-0.0000  plane waves:    1615
 k-point   9 :   0.1538 0.0769-0.0000  plane waves:    1601
 k-point  10 :   0.2308 0.0769-0.0000  plane waves:    1613
 k-point  11 :   0.3077 0.0769-0.0000  plane waves:    1612
 k-point  12 :   0.3846 0.0769 0.0000  plane waves:    1623
 k-point  13 :   0.4615 0.0769-0.0000  plane waves:    1621
 k-point  14 :  -0.4615 0.0769-0.0000  plane waves:    1615
 k-point  15 :  -0.3846 0.0769 0.0000  plane waves:    1621
 k-point  16 :  -0.3077 0.0769 0.0000  plane waves:    1622
 k-point  17 :  -0.2308 0.0769-0.0000  plane waves:    1614
 k-point  18 :  -0.1538 0.0769-0.0000  plane waves:    1602
 k-point  19 :  -0.0769 0.0769 0.0000  plane waves:    1605
 k-point  20 :   0.1538 0.1538-0.0000  plane waves:    1615
 k-point  21 :   0.2308 0.1538-0.0000  plane waves:    1612
 k-point  22 :   0.3077 0.1538-0.0000  plane waves:    1619
 k-point  23 :   0.3846 0.1538-0.0000  plane waves:    1610
 k-point  24 :   0.4615 0.1538-0.0000  plane waves:    1611
 k-point  25 :  -0.4615 0.1538-0.0000  plane waves:    1602
 k-point  26 :  -0.3846 0.1538 0.0000  plane waves:    1616
 k-point  27 :  -0.3077 0.1538 0.0000  plane waves:    1616
 k-point  28 :  -0.2308 0.1538-0.0000  plane waves:    1612
 k-point  29 :  -0.1538 0.1538-0.0000  plane waves:    1608
 k-point  30 :   0.2308 0.2308-0.0000  plane waves:    1616
 k-point  31 :   0.3077 0.2308-0.0000  plane waves:    1613
 k-point  32 :   0.3846 0.2308-0.0000  plane waves:    1627
 k-point  33 :   0.4615 0.2308-0.0000  plane waves:    1620
 k-point  34 :  -0.4615 0.2308-0.0000  plane waves:    1611
 k-point  35 :  -0.3846 0.2308-0.0000  plane waves:    1611
 k-point  36 :  -0.3077 0.2308-0.0000  plane waves:    1610
 k-point  37 :  -0.2308 0.2308 0.0000  plane waves:    1620
 k-point  38 :   0.3077 0.3077-0.0000  plane waves:    1620
 k-point  39 :   0.3846 0.3077-0.0000  plane waves:    1625
 k-point  40 :   0.4615 0.3077-0.0000  plane waves:    1624
 k-point  41 :  -0.4615 0.3077 0.0000  plane waves:    1623
 k-point  42 :  -0.3846 0.3077-0.0000  plane waves:    1624
 k-point  43 :  -0.3077 0.3077-0.0000  plane waves:    1612
 k-point  44 :   0.3846 0.3846-0.0000  plane waves:    1624
 k-point  45 :   0.4615 0.3846-0.0000  plane waves:    1623
 k-point  46 :  -0.4615 0.3846-0.0000  plane waves:    1622
 k-point  47 :  -0.3846 0.3846-0.0000  plane waves:    1624
 k-point  48 :   0.4615 0.4615-0.0000  plane waves:    1608
 k-point  49 :  -0.4615 0.4615-0.0000  plane waves:    1618
 k-point  50 :   0.2308 0.1538 0.0769  plane waves:    1613
 k-point  51 :   0.3077 0.1538 0.0769  plane waves:    1611
 k-point  52 :   0.3846 0.1538 0.0769  plane waves:    1609
 k-point  53 :   0.4615 0.1538 0.0769  plane waves:    1615
 k-point  54 :  -0.4615 0.1538 0.0769  plane waves:    1610
 k-point  55 :   0.3077 0.2308 0.0769  plane waves:    1616
 k-point  56 :   0.3846 0.2308 0.0769  plane waves:    1624
 k-point  57 :   0.4615 0.2308 0.0769  plane waves:    1617
 k-point  58 :  -0.4615 0.2308 0.0769  plane waves:    1615
 k-point  59 :  -0.3846 0.2308 0.0769  plane waves:    1609
 k-point  60 :  -0.3077 0.2308 0.0769  plane waves:    1616
 k-point  61 :  -0.2308 0.2308 0.0769  plane waves:    1611
 k-point  62 :  -0.1538 0.2308 0.0769  plane waves:    1614
 k-point  63 :   0.3846 0.3077 0.0769  plane waves:    1627
 k-point  64 :   0.4615 0.3077 0.0769  plane waves:    1628
 k-point  65 :  -0.4615 0.3077 0.0769  plane waves:    1628
 k-point  66 :  -0.3846 0.3077 0.0769  plane waves:    1612
 k-point  67 :  -0.3077 0.3077 0.0769  plane waves:    1614
 k-point  68 :  -0.2308 0.3077 0.0769  plane waves:    1612
 k-point  69 :   0.4615 0.3846 0.0769  plane waves:    1630
 k-point  70 :  -0.4615 0.3846 0.0769  plane waves:    1624
 k-point  71 :  -0.3846 0.3846 0.0769  plane waves:    1626
 k-point  72 :  -0.3077 0.3846 0.0769  plane waves:    1620
 k-point  73 :  -0.4615 0.4615 0.0769  plane waves:    1626
 k-point  74 :  -0.3846 0.4615 0.0769  plane waves:    1626
 k-point  75 :   0.4615 0.3077 0.1538  plane waves:    1611
 k-point  76 :  -0.4615 0.3077 0.1538  plane waves:    1621
 k-point  77 :  -0.3846 0.3077 0.1538  plane waves:    1617
 k-point  78 :  -0.4615 0.3846 0.1538  plane waves:    1620
 k-point  79 :  -0.3846 0.3846 0.1538  plane waves:    1613
 k-point  80 :  -0.3077 0.3846 0.1538  plane waves:    1611
 k-point  81 :  -0.2308 0.3846 0.1538  plane waves:    1618
 k-point  82 :  -0.3846 0.4615 0.1538  plane waves:    1625
 k-point  83 :  -0.3077 0.4615 0.1538  plane waves:    1623
 k-point  84 :  -0.3077 0.4615 0.2308  plane waves:    1619

 maximum and minimum number of plane-waves per node :      1639     1600

 maximum number of plane-waves:      1639
 maximum index in each direction: 
   IXMAX=    8   IYMAX=    8   IZMAX=    8
   IXMIN=   -8   IYMIN=   -8   IZMIN=   -8


 serial   3D FFT for wavefunctions
 parallel 3D FFT for charge:
    minimum data exchange during FFTs selected (reduces bandwidth)


 total amount of memory used by VASP MPI-rank0    50776. kBytes
=======================================================================

   base      :      30000. kBytes
   nonlr-proj:        595. kBytes
   fftplans  :       1071. kBytes
   grid      :       5680. kBytes
   one-center:         12. kBytes
   wavefun   :      13418. kBytes
 
     INWAV:  cpu time    3.9051: real time    2.8272
 Broyden mixing: mesh for mixing (old mesh)
   NGX = 17   NGY = 17   NGZ = 17
  (NGX  = 72   NGY  = 72   NGZ  = 72)
  gives a total of   4913 points

 charge density for first step will be calculated from the start-wavefunctions


--------------------------------------------------------------------------------------------------------


 Maximum index for non-local projection operator         1080
 Maximum index for augmentation-charges         2980 (set IRDMAX)


--------------------------------------------------------------------------------------------------------


 initial charge from wavefunction
 First call to EWALD:  gamma=   0.518
 Maximum number of real-space cells 3x 3x 3
 Maximum number of reciprocal cells 3x 3x 3

    FEWALD:  cpu time    0.1749: real time    0.0239


--------------------------------------- Iteration      1(   1)  ---------------------------------------


    POTLOK:  cpu time    0.7699: real time    0.1290
    SETDIJ:  cpu time    1.9480: real time    0.6795

 total amount of memory used by VASP MPI-rank0   511477. kBytes
=======================================================================

   base      :      30000. kBytes
   nonlr-proj:        595. kBytes
   fftplans  :       1071. kBytes
   grid      :       5680. kBytes
   one-center:         12. kBytes
   wavefun   :     474119. kBytes
 
    EDDIAG:  cpu time 4376.1925: real time  687.3928
 BZINTS: Fermi energy:    5.390239;    8.000000 electrons
         Band energy: 0.311031E+01;  BLOECHL correction:   -0.000000
       DOS:  cpu time    0.4025: real time    0.1279
    CHARGE:  cpu time    1.3295: real time    0.1741
    MIXING:  cpu time    0.0291: real time    0.0037
    --------------------------------------------
      LOOP:  cpu time 4380.6724: real time  688.5071

 eigenvalue-minimisations  :     0
 total energy-change (2. order) :-0.1073617E+02  ( 0.0000000E+00)
 number of electron       8.0000000 magnetization      -0.0000000
 augmentation part       -0.4685937 magnetization      -0.0000009

 Broyden mixing:
  rms(total) = 0.12338E+00    rms(broyden)= 0.12338E+00
  rms(prec ) = 0.43981E+00
  weight for this iteration     100.00

 Free energy of the ion-electron system (eV)
  ---------------------------------------------------
  alpha Z        PSCENC =         3.35337749
  Ewald energy   TEWEN  =      -228.31947958
  -Hartree energ DENC   =       -12.24360292
  -exchange      EXHF   =         0.00000000
  -V(xc)+E(xc)   XCENC  =       -17.15757320
  PAW double counting   =        66.42081650      -31.89528500
  entropy T*S    EENTRO =         0.00000000
  eigenvalues    EBANDS =         3.11030996
  atomic energy  EATOM  =       205.99526524
  Solvation  Ediel_sol  =         0.00000000
  ---------------------------------------------------
  free energy    TOTEN  =       -10.73617152 eV

  energy without entropy =      -10.73617152  energy(sigma->0) =      -10.73617152


--------------------------------------------------------------------------------------------------------




--------------------------------------- Iteration      1(   2)  ---------------------------------------


    POTLOK:  cpu time    1.5121: real time    0.1907
    SETDIJ:  cpu time    1.9830: real time    0.6835

 total amount of memory used by VASP MPI-rank0   511477. kBytes
=======================================================================

   base      :      30000. kBytes
   nonlr-proj:        595. kBytes
   fftplans  :       1071. kBytes
   grid      :       5680. kBytes
   one-center:         12. kBytes
   wavefun   :     474119. kBytes
 
    EDDIAG:  cpu time 4368.1184: real time  683.8887
 BZINTS: Fermi energy:    5.556407;    8.000000 electrons
         Band energy: 0.415523E+01;  BLOECHL correction:    0.000000
       DOS:  cpu time    0.5815: real time    0.1155
    CHARGE:  cpu time    1.2018: real time    0.1577
    MIXING:  cpu time    0.0280: real time    0.0035
    --------------------------------------------
      LOOP:  cpu time 4373.4247: real time  685.0395

 eigenvalue-minimisations  :     0
 total energy-change (2. order) : 0.6179764E-01  ( 0.0000000E+00)
 number of electron       8.0000000 magnetization       0.0000000
 augmentation part       -0.4636599 magnetization       0.0000003

 Broyden mixing:
  rms(total) = 0.66614E-01    rms(broyden)= 0.66614E-01
  rms(prec ) = 0.24085E+00
  weight for this iteration     100.00

 eigenvalues of (default mixing * dielectric matrix)
  average eigenvalue GAMMA=   2.1436
  2.1436

 Free energy of the ion-electron system (eV)
  ---------------------------------------------------
  alpha Z        PSCENC =         3.35337749
  Ewald energy   TEWEN  =      -228.31947958
  -Hartree energ DENC   =       -13.27252977
  -exchange      EXHF   =         0.00000000
  -V(xc)+E(xc)   XCENC  =       -17.03450531
  PAW double counting   =        69.61227112      -35.16400332
  entropy T*S    EENTRO =         0.00000000
  eigenvalues    EBANDS =         4.15523024
  atomic energy  EATOM  =       205.99526524
  Solvation  Ediel_sol  =         0.00000000
  ---------------------------------------------------
  free energy    TOTEN  =       -10.67437388 eV

  energy without entropy =      -10.67437388  energy(sigma->0) =      -10.67437388


--------------------------------------------------------------------------------------------------------




--------------------------------------- Iteration      1(   3)  ---------------------------------------


    POTLOK:  cpu time    1.0048: real time    0.1257
    SETDIJ:  cpu time    2.0047: real time    0.6852

 total amount of memory used by VASP MPI-rank0   511477. kBytes
=======================================================================

   base      :      30000. kBytes
   nonlr-proj:        595. kBytes
   fftplans  :       1071. kBytes
   grid      :       5680. kBytes
   one-center:         12. kBytes
   wavefun   :     474119. kBytes
 
    EDDIAG:  cpu time 4429.7041: real time  699.7117
 BZINTS: Fermi energy:    5.755991;    8.000000 electrons
         Band energy: 0.541954E+01;  BLOECHL correction:   -0.000000
       DOS:  cpu time    0.5277: real time    0.1143
    CHARGE:  cpu time    2.0459: real time    0.2683
    MIXING:  cpu time    0.0278: real time    0.0035
    --------------------------------------------
      LOOP:  cpu time 4435.3150: real time  700.9087

 eigenvalue-minimisations  :     0
 total energy-change (2. order) : 0.2416437E-01  ( 0.0000000E+00)
 number of electron       8.0000000 magnetization      -0.0000000
 augmentation part       -0.4579776 magnetization      -0.0000006

 Broyden mixing:
  rms(total) = 0.68985E-02    rms(broyden)= 0.68985E-02
  rms(prec ) = 0.17965E-01
  weight for this iteration     100.00

 eigenvalues of (default mixing * dielectric matrix)
  average eigenvalue GAMMA=   2.4419
  2.1373  2.7465

 Free energy of the ion-electron system (eV)
  ---------------------------------------------------
  alpha Z        PSCENC =         3.35337749
  Ewald energy   TEWEN  =      -228.31947958
  -Hartree energ DENC   =       -14.58208745
  -exchange      EXHF   =         0.00000000
  -V(xc)+E(xc)   XCENC  =       -16.87444612
  PAW double counting   =        73.52916208      -39.17153902
  entropy T*S    EENTRO =         0.00000000
  eigenvalues    EBANDS =         5.41953784
  atomic energy  EATOM  =       205.99526524
  Solvation  Ediel_sol  =         0.00000000
  ---------------------------------------------------
  free energy    TOTEN  =       -10.65020952 eV

  energy without entropy =      -10.65020952  energy(sigma->0) =      -10.65020952


--------------------------------------------------------------------------------------------------------




--------------------------------------- Iteration      1(   4)  ---------------------------------------


    POTLOK:  cpu time    1.1441: real time    0.1431
    SETDIJ:  cpu time    1.9478: real time    0.6801

 total amount of memory used by VASP MPI-rank0   511477. kBytes
=======================================================================

   base      :      30000. kBytes
   nonlr-proj:        595. kBytes
   fftplans  :       1071. kBytes
   grid      :       5680. kBytes
   one-center:         12. kBytes
   wavefun   :     474119. kBytes
 
    EDDIAG:  cpu time 4228.3675: real time  664.5037
 BZINTS: Fermi energy:    5.760986;    8.000000 electrons
         Band energy: 0.545768E+01;  BLOECHL correction:   -0.000000
       DOS:  cpu time    0.5973: real time    0.1139
    CHARGE:  cpu time    1.2484: real time    0.1639
    MIXING:  cpu time    0.0303: real time    0.0038
    --------------------------------------------
      LOOP:  cpu time 4233.3354: real time  665.6086

 eigenvalue-minimisations  :     0
 total energy-change (2. order) :-0.3091959E-03  ( 0.0000000E+00)
 number of electron       8.0000000 magnetization       0.0000000
 augmentation part       -0.4580541 magnetization       0.0000014

 Broyden mixing:
  rms(total) = 0.88384E-03    rms(broyden)= 0.88384E-03
  rms(prec ) = 0.21626E-02
  weight for this iteration     100.00

 eigenvalues of (default mixing * dielectric matrix)
  average eigenvalue GAMMA=   2.2170
  2.8548  1.5864  2.2099

 Free energy of the ion-electron system (eV)
  ---------------------------------------------------
  alpha Z        PSCENC =         3.35337749
  Ewald energy   TEWEN  =      -228.31947958
  -Hartree energ DENC   =       -14.63872477
  -exchange      EXHF   =         0.00000000
  -V(xc)+E(xc)   XCENC  =       -16.86240130
  PAW double counting   =        73.40197717      -39.03821792
  entropy T*S    EENTRO =         0.00000000
  eigenvalues    EBANDS =         5.45768495
  atomic energy  EATOM  =       205.99526524
  Solvation  Ediel_sol  =         0.00000000
  ---------------------------------------------------
  free energy    TOTEN  =       -10.65051871 eV

  energy without entropy =      -10.65051871  energy(sigma->0) =      -10.65051871


--------------------------------------------------------------------------------------------------------




--------------------------------------- Iteration      1(   5)  ---------------------------------------


    POTLOK:  cpu time    0.8311: real time    0.1040
    SETDIJ:  cpu time    2.0086: real time    0.6868

 total amount of memory used by VASP MPI-rank0   511477. kBytes
=======================================================================

   base      :      30000. kBytes
   nonlr-proj:        595. kBytes
   fftplans  :       1071. kBytes
   grid      :       5680. kBytes
   one-center:         12. kBytes
   wavefun   :     474119. kBytes
 
    EDDIAG:  cpu time 4239.6115: real time  666.0932
 BZINTS: Fermi energy:    5.761232;    8.000000 electrons
         Band energy: 0.545728E+01;  BLOECHL correction:    0.000000
       DOS:  cpu time    0.6361: real time    0.1198
    --------------------------------------------
      LOOP:  cpu time 4243.0867: real time  667.0038

 eigenvalue-minimisations  :     0
 total energy-change (2. order) :-0.5020554E-05  ( 0.0000000E+00)
 number of electron       8.0000000 magnetization       0.0000000
 augmentation part       -0.4580541 magnetization       0.0000014

 Free energy of the ion-electron system (eV)
  ---------------------------------------------------
  alpha Z        PSCENC =         3.35337749
  Ewald energy   TEWEN  =      -228.31947958
  -Hartree energ DENC   =       -14.63940516
  -exchange      EXHF   =         0.00000000
  -V(xc)+E(xc)   XCENC  =       -16.86209664
  PAW double counting   =        73.36985575      -39.00531905
  entropy T*S    EENTRO =         0.00000000
  eigenvalues    EBANDS =         5.45727822
  atomic energy  EATOM  =       205.99526524
  Solvation  Ediel_sol  =         0.00000000
  ---------------------------------------------------
  free energy    TOTEN  =       -10.65052373 eV

  energy without entropy =      -10.65052373  energy(sigma->0) =      -10.65052373


--------------------------------------------------------------------------------------------------------




 average (electrostatic) potential at core
  the test charge radii are     0.9892
  (the norm of the test charge is              1.0000)
       1 -83.0704       2 -83.0704
 
 
 
 E-fermi :   5.7612     XC(G=0):  -9.5432     alpha+bet :-11.9462

 Fermi energy:         5.7612315414

 spin component 1

 k-point     1 :       0.0000    0.0000    0.0000
  band No.  band energies     occupation 
      1      -6.2100      1.00000
      2       5.7611      1.00000
      3       5.7611      1.00000
      4       5.7611      1.00000
      5       8.2775      0.00000
      6       8.2775      0.00000
      7       8.2775      0.00000
      8       9.0523      0.00000
      9      13.4483      0.00000
     10      13.4483      0.00000
     11      13.4593      0.00000
     12      16.8493      0.00000
     13      16.8493      0.00000
     14      16.8493      0.00000
     15      20.8282      0.00000
     16      28.7278      0.00000
     17      28.7278      0.00000
     18      28.7278      0.00000
     19      29.8927      0.00000
     20      29.8927      0.00000
     21      31.4162      0.00000
     22      31.4162      0.00000
     23      31.4162      0.00000
     24      34.9209      0.00000
     25      34.9209      0.00000
     26      34.9209      0.00000
     27      40.4902      0.00000
     28      40.4902      0.00000
     29      40.4902      0.00000
     30      43.7994      0.00000
     31      44.2947      0.00000
     32      44.2947      0.00000
     33      46.2317      0.00000
     34      46.2317      0.00000
     35      47.8096      0.00000
     36      47.8096      0.00000
     37      47.8096      0.00000
     38      49.5536      0.00000
     39      49.5536      0.00000
     40      49.5536      0.00000
     41      50.1010      0.00000
     42      50.5520      0.00000
     43      50.5520      0.00000
     44      50.5520      0.00000
     45      50.6559      0.00000
     46      50.6559      0.00000
     47      50.6559      0.00000
     48      52.0233      0.00000

 k-point     2 :       0.0769    0.0000   -0.0000
  band No.  band energies     occupation 
      1      -6.1323      1.00000
      2       4.9992      1.00000
      3       5.6354      1.00000
      4       5.6354      1.00000
      5       8.3224      0.00000
      6       8.4617      0.00000
      7       8.4617      0.00000
      8       9.6290      0.00000
      9      13.2005      0.00000
     10      13.2005      0.00000
     11      13.7991      0.00000
     12      16.5532      0.00000
     13      17.3506      0.00000
     14      17.3506      0.00000
     15      21.3648      0.00000
     16      27.9015      0.00000
     17      27.9015      0.00000
     18      27.9168      0.00000
     19      29.5588      0.00000
     20      29.5588      0.00000
     21      31.7553      0.00000
     22      31.7553      0.00000
     23      32.1129      0.00000
     24      34.9919      0.00000
     25      35.8897      0.00000
     26      35.8897      0.00000
     27      39.4182      0.00000
     28      40.2793      0.00000
     29      40.2793      0.00000
     30      43.5366      0.00000
     31      43.5366      0.00000
     32      44.1120      0.00000
     33      45.2403      0.00000
     34      45.2403      0.00000
     35      47.7113      0.00000
     36      47.7113      0.00000
     37      47.9311      0.00000
     38      48.9510      0.00000
     39      49.0604      0.00000
     40      49.4018      0.00000
     41      49.4018      0.00000
     42      50.1186      0.00000
     43      50.1186      0.00000
     44      50.2514      0.00000
     45      51.3230      0.00000
     46      51.7376      0.00000
     47      51.7376      0.00000
     48      53.6715      0.00000

 k-point     3 :       0.1538   -0.0000    0.0000
  band No.  band energies     occupation 
      1      -5.9013      1.00000
      2       3.6070      1.00000
      3       5.3576      1.00000
      4       5.3576      1.00000
      5       8.0925      0.00000
      6       8.8607      0.00000
      7       8.8607      0.00000
      8      10.9129      0.00000
      9      12.8234      0.00000
     10      12.8234      0.00000
     11      14.5337      0.00000
     12      16.1951      0.00000
     13      18.5282      0.00000
     14      18.5282      0.00000
     15      22.6028      0.00000
     16      25.9571      0.00000
     17      25.9571      0.00000
     18      26.4582      0.00000
     19      29.5514      0.00000
     20      29.5514      0.00000
     21      32.0441      0.00000
     22      32.0441      0.00000
     23      33.2560      0.00000
     24      35.2008      0.00000
     25      37.2131      0.00000
     26      37.8161      0.00000
     27      37.8161      0.00000
     28      39.7284      0.00000
     29      39.7284      0.00000
     30      41.5549      0.00000
     31      41.5549      0.00000
     32      43.8273      0.00000
     33      43.8273      0.00000
     34      44.4795      0.00000
     35      46.9073      0.00000
     36      47.1381      0.00000
     37      47.2897      0.00000
     38      47.2897      0.00000
     39      49.0990      0.00000
     40      49.5795      0.00000
     41      49.5795      0.00000
     42      49.8303      0.00000
     43      50.8339      0.00000
     44      50.8339      0.00000
     45      51.0709      0.00000
     46      53.4721      0.00000
     47      53.6173      0.00000
     48      53.6173      0.00000

 k-point     4 :       0.2308    0.0000   -0.0000
  band No.  band energies     occupation 
      1      -5.5242      1.00000
      2       2.1634      1.00000
      3       5.0643      1.00000
      4       5.0643      1.00000
      5       7.7855      0.00000
      6       9.1784      0.00000
      7       9.1784      0.00000
      8      12.2666      0.00000
      9      12.8048      0.00000
     10      12.8048      0.00000
     11      14.6061      0.00000
     12      17.0265      0.00000
     13      19.9638      0.00000
     14      19.9638      0.00000
     15      23.6740      0.00000
     16      23.9410      0.00000
     17      23.9410      0.00000
     18      25.4473      0.00000
     19      29.6702      0.00000
     20      29.6702      0.00000
     21      32.2613      0.00000
     22      32.2613      0.00000
     23      33.8582      0.00000
     24      35.1208      0.00000
     25      35.5318      0.00000
     26      37.9871      0.00000
     27      37.9871      0.00000
     28      39.2778      0.00000
     29      39.2778      0.00000
     30      40.0736      0.00000
     31      40.0736      0.00000
     32      43.5998      0.00000
     33      43.5998      0.00000
     34      44.3454      0.00000
     35      44.6962      0.00000
     36      45.4101      0.00000
     37      46.9273      0.00000
     38      46.9273      0.00000
     39      49.2057      0.00000
     40      49.5420      0.00000
     41      49.5420      0.00000
     42      49.7775      0.00000
     43      50.1062      0.00000
     44      52.2866      0.00000
     45      52.2866      0.00000
     46      55.0312      0.00000
     47      55.0312      0.00000
     48      55.7948      0.00000

 k-point     5 :       0.3077   -0.0000    0.0000
  band No.  band energies     occupation 
      1      -5.0195      1.00000
      2       0.8160      1.00000
      3       4.8220      1.00000
      4       4.8220      1.00000
      5       7.5165      0.00000
      6       9.2354      0.00000
      7       9.2354      0.00000
      8      13.3371      0.00000
      9      13.3743      0.00000
     10      13.3743      0.00000
     11      14.5044      0.00000
     12      18.6732      0.00000
     13      20.6586      0.00000
     14      20.6586      0.00000
     15      22.8099      0.00000
     16      22.9618      0.00000
     17      22.9618      0.00000
     18      26.7452      0.00000
     19      29.7391      0.00000
     20      29.7391      0.00000
     21      31.7280      0.00000
     22      32.4387      0.00000
     23      32.4387      0.00000
     24      35.3815      0.00000
     25      35.7368      0.00000
     26      35.7368      0.00000
     27      35.9493      0.00000
     28      38.5884      0.00000
     29      38.5884      0.00000
     30      39.7441      0.00000
     31      39.7441      0.00000
     32      42.0188      0.00000
     33      43.8468      0.00000
     34      43.9384      0.00000
     35      45.3084      0.00000
     36      45.3084      0.00000
     37      46.7413      0.00000
     38      46.7413      0.00000
     39      48.7409      0.00000
     40      49.4629      0.00000
     41      49.4629      0.00000
     42      49.7225      0.00000
     43      51.1148      0.00000
     44      53.6654      0.00000
     45      53.6654      0.00000
     46      55.7567      0.00000
     47      55.7567      0.00000
     48      57.5614      0.00000

 k-point     6 :       0.3846   -0.0000   -0.0000
  band No.  band energies     occupation 
      1      -4.4384      1.00000
      2      -0.3414      1.00000
      3       4.6550      1.00000
      4       4.6550      1.00000
      5       7.3261      0.00000
      6       9.1364      0.00000
      7       9.1364      0.00000
      8      13.4241      0.00000
      9      14.4339      0.00000
     10      14.4339      0.00000
     11      15.4613      0.00000
     12      19.2394      0.00000
     13      19.2394      0.00000
     14      19.6913      0.00000
     15      22.3916      0.00000
     16      24.3955      0.00000
     17      24.3955      0.00000
     18      28.6490      0.00000
     19      29.2542      0.00000
     20      29.4534      0.00000
     21      29.4534      0.00000
     22      32.4597      0.00000
     23      32.4597      0.00000
     24      33.8074      0.00000
     25      33.8074      0.00000
     26      35.3608      0.00000
     27      36.3775      0.00000
     28      38.1346      0.00000
     29      38.1346      0.00000
     30      39.0713      0.00000
     31      39.0713      0.00000
     32      40.1162      0.00000
     33      42.8055      0.00000
     34      43.0256      0.00000
     35      46.4201      0.00000
     36      46.4201      0.00000
     37      47.6305      0.00000
     38      47.6305      0.00000
     39      48.4989      0.00000
     40      49.5564      0.00000
     41      49.8515      0.00000
     42      49.8515      0.00000
     43      52.7990      0.00000
     44      54.5179      0.00000
     45      54.5179      0.00000
     46      57.0641      0.00000
     47      57.0641      0.00000
     48      58.6673      0.00000

 k-point     7 :       0.4615   -0.0000   -0.0000
  band No.  band energies     occupation 
      1      -3.9503      1.00000
      2      -1.1212      1.00000
      3       4.5707      1.00000
      4       4.5707      1.00000
      5       7.2286      0.00000
      6       9.0482      0.00000
      7       9.0482      0.00000
      8      13.2908      0.00000
      9      15.7746      0.00000
     10      15.7746      0.00000
     11      16.6765      0.00000
     12      17.5573      0.00000
     13      17.5573      0.00000
     14      18.9198      0.00000
     15      24.0963      0.00000
     16      26.3700      0.00000
     17      26.3700      0.00000
     18      26.5503      0.00000
     19      28.2765      0.00000
     20      28.2765      0.00000
     21      30.7715      0.00000
     22      32.1469      0.00000
     23      32.1469      0.00000
     24      33.1605      0.00000
     25      33.1605      0.00000
     26      34.2156      0.00000
     27      36.6734      0.00000
     28      37.9651      0.00000
     29      37.9651      0.00000
     30      38.5759      0.00000
     31      38.5759      0.00000
     32      39.5324      0.00000
     33      42.1568      0.00000
     34      42.4038      0.00000
     35      46.4183      0.00000
     36      46.4183      0.00000
     37      48.2432      0.00000
     38      48.2432      0.00000
     39      48.4012      0.00000
     40      49.4537      0.00000
     41      51.6596      0.00000
     42      51.6596      0.00000
     43      54.3227      0.00000
     44      54.3227      0.00000
     45      54.4584      0.00000
     46      58.0945      0.00000
     47      58.0945      0.00000
     48      58.3946      0.00000

 k-point     8 :       0.0769    0.0769   -0.0000
  band No.  band energies     occupation 
      1      -6.1063      1.00000
      2       5.1514      1.00000
      3       5.3795      1.00000
      4       5.3795      1.00000
      5       8.0293      0.00000
      6       8.7856      0.00000
      7       8.7856      0.00000
      8       9.6218      0.00000
      9      12.7442      0.00000
     10      13.5627      0.00000
     11      13.9108      0.00000
     12      17.0308      0.00000
     13      17.0308      0.00000
     14      17.3220      0.00000
     15      21.5850      0.00000
     16      27.4980      0.00000
     17      27.4980      0.00000
     18      28.7803      0.00000
     19      28.8584      0.00000
     20      29.1525      0.00000
     21      31.8576      0.00000
     22      32.0941      0.00000
     23      32.0941      0.00000
     24      35.7033      0.00000
     25      35.7033      0.00000
     26      36.0899      0.00000
     27      39.7777      0.00000
     28      39.7777      0.00000
     29      39.7966      0.00000
     30      42.7745      0.00000
     31      43.9508      0.00000
     32      44.0453      0.00000
     33      44.8184      0.00000
     34      46.1081      0.00000
     35      47.6621      0.00000
     36      47.6900      0.00000
     37      47.6900      0.00000
     38      48.0716      0.00000
     39      48.0716      0.00000
     40      49.1915      0.00000
     41      49.1915      0.00000
     42      49.8977      0.00000
     43      51.1289      0.00000
     44      51.6139      0.00000
     45      51.8792      0.00000
     46      51.8792      0.00000
     47      52.2483      0.00000
     48      52.5459      0.00000

 k-point     9 :       0.1538    0.0769   -0.0000
  band No.  band energies     occupation 
      1      -5.9260      1.00000
      2       4.0235      1.00000
      3       5.0444      1.00000
      4       5.2349      1.00000
      5       8.0360      0.00000
      6       8.8693      0.00000
      7       9.2747      0.00000
      8      10.4849      0.00000
      9      12.3429      0.00000
     10      13.4879      0.00000
     11      14.5720      0.00000
     12      16.6409      0.00000
     13      17.6785      0.00000
     14      18.4303      0.00000
     15      22.6398      0.00000
     16      25.8446      0.00000
     17      26.1001      0.00000
     18      28.0305      0.00000
     19      28.4072      0.00000
     20      28.9566      0.00000
     21      31.9554      0.00000
     22      32.4239      0.00000
     23      33.0919      0.00000
     24      36.0012      0.00000
     25      37.0720      0.00000
     26      37.8114      0.00000
     27      37.8888      0.00000
     28      38.9943      0.00000
     29      39.6959      0.00000
     30      41.1743      0.00000
     31      42.8043      0.00000
     32      42.9774      0.00000
     33      44.9206      0.00000
     34      44.9863      0.00000
     35      46.3437      0.00000
     36      46.6698      0.00000
     37      47.7327      0.00000
     38      48.0327      0.00000
     39      48.3327      0.00000
     40      49.0294      0.00000
     41      49.8410      0.00000
     42      50.2595      0.00000
     43      50.3024      0.00000
     44      51.6664      0.00000
     45      52.4148      0.00000
     46      52.5308      0.00000
     47      53.2910      0.00000
     48      53.8399      0.00000

 k-point    10 :       0.2308    0.0769   -0.0000
  band No.  band energies     occupation 
      1      -5.5967      1.00000
      2       2.6271      1.00000
      3       4.7414      1.00000
      4       4.9501      1.00000
      5       8.1490      0.00000
      6       8.8579      0.00000
      7       9.6710      0.00000
      8      11.1009      0.00000
      9      12.7998      0.00000
     10      13.4504      0.00000
     11      15.0596      0.00000
     12      16.7943      0.00000
     13      18.9158      0.00000
     14      19.9284      0.00000
     15      23.7792      0.00000
     16      23.8062      0.00000
     17      24.5138      0.00000
     18      26.5833      0.00000
     19      28.4832      0.00000
     20      29.1106      0.00000
     21      31.9781      0.00000
     22      32.6813      0.00000
     23      34.0656      0.00000
     24      35.5721      0.00000
     25      36.2569      0.00000
     26      38.0366      0.00000
     27      38.2030      0.00000
     28      38.8669      0.00000
     29      39.3472      0.00000
     30      39.7988      0.00000
     31      41.0505      0.00000
     32      42.0610      0.00000
     33      44.0963      0.00000
     34      44.8284      0.00000
     35      45.6938      0.00000
     36      45.8206      0.00000
     37      45.8988      0.00000
     38      48.2114      0.00000
     39      48.6306      0.00000
     40      49.0158      0.00000
     41      49.7897      0.00000
     42      50.2383      0.00000
     43      50.8914      0.00000
     44      51.5143      0.00000
     45      52.6245      0.00000
     46      53.4096      0.00000
     47      54.5527      0.00000
     48      54.7819      0.00000

 k-point    11 :       0.3077    0.0769   -0.0000
  band No.  band energies     occupation 
      1      -5.1316      1.00000
      2       1.2643      1.00000
      3       4.5197      1.00000
      4       4.6234      1.00000
      5       8.0080      0.00000
      6       8.9764      0.00000
      7       9.7671      0.00000
      8      11.5451      0.00000
      9      13.9026      0.00000
     10      13.9465      0.00000
     11      14.8251      0.00000
     12      18.1729      0.00000
     13      20.0041      0.00000
     14      21.1488      0.00000
     15      22.2359      0.00000
     16      22.8837      0.00000
     17      24.1446      0.00000
     18      26.6925      0.00000
     19      28.6335      0.00000
     20      29.3343      0.00000
     21      31.8648      0.00000
     22      32.4071      0.00000
     23      32.9282      0.00000
     24      35.5598      0.00000
     25      36.1648      0.00000
     26      36.3800      0.00000
     27      37.1392      0.00000
     28      37.7536      0.00000
     29      38.5226      0.00000
     30      39.3586      0.00000
     31      40.6815      0.00000
     32      42.9171      0.00000
     33      43.7474      0.00000
     34      43.9728      0.00000
     35      44.4815      0.00000
     36      45.1163      0.00000
     37      46.1961      0.00000
     38      47.9775      0.00000
     39      48.3229      0.00000
     40      48.9645      0.00000
     41      49.9753      0.00000
     42      50.4318      0.00000
     43      52.0457      0.00000
     44      52.6409      0.00000
     45      52.8493      0.00000
     46      54.6833      0.00000
     47      55.2348      0.00000
     48      56.5108      0.00000

 k-point    12 :       0.3846    0.0769    0.0000
  band No.  band energies     occupation 
      1      -4.5663      1.00000
      2       0.0447      1.00000
      3       4.3347      1.00000
      4       4.3973      1.00000
      5       7.8268      0.00000
      6       8.9659      0.00000
      7       9.6212      0.00000
      8      12.3997      0.00000
      9      14.2807      0.00000
     10      14.8665      0.00000
     11      15.5409      0.00000
     12      19.0156      0.00000
     13      19.2331      0.00000
     14      20.7191      0.00000
     15      22.5998      0.00000
     16      23.1203      0.00000
     17      24.3559      0.00000
     18      28.3983      0.00000
     19      28.7106      0.00000
     20      29.3384      0.00000
     21      30.0186      0.00000
     22      31.3270      0.00000
     23      33.1395      0.00000
     24      34.4210      0.00000
     25      34.5818      0.00000
     26      35.8968      0.00000
     27      36.7320      0.00000
     28      37.2683      0.00000
     29      37.6940      0.00000
     30      38.9957      0.00000
     31      40.0061      0.00000
     32      40.9120      0.00000
     33      43.3885      0.00000
     34      44.0120      0.00000
     35      44.5496      0.00000
     36      45.8718      0.00000
     37      46.9612      0.00000
     38      48.3260      0.00000
     39      48.4316      0.00000
     40      49.3813      0.00000
     41      49.9850      0.00000
     42      51.5356      0.00000
     43      52.7380      0.00000
     44      53.3810      0.00000
     45      53.7852      0.00000
     46      55.9342      0.00000
     47      56.4326      0.00000
     48      58.6663      0.00000

 k-point    13 :       0.4615    0.0769   -0.0000
  band No.  band energies     occupation 
      1      -4.0129      1.00000
      2      -0.8899      1.00000
      3       4.1163      1.00000
      4       4.3776      1.00000
      5       7.7101      0.00000
      6       8.9351      0.00000
      7       9.4222      0.00000
      8      13.3089      0.00000
      9      14.3960      0.00000
     10      16.1123      0.00000
     11      16.8429      0.00000
     12      17.3622      0.00000
     13      18.1722      0.00000
     14      20.1443      0.00000
     15      23.3820      0.00000
     16      25.0443      0.00000
     17      26.1787      0.00000
     18      27.1277      0.00000
     19      28.4637      0.00000
     20      28.5203      0.00000
     21      30.5526      0.00000
     22      30.9809      0.00000
     23      32.4364      0.00000
     24      33.3225      0.00000
     25      33.7638      0.00000
     26      35.0681      0.00000
     27      36.5217      0.00000
     28      36.9438      0.00000
     29      37.5666      0.00000
     30      38.7203      0.00000
     31      39.3297      0.00000
     32      40.0839      0.00000
     33      42.8250      0.00000
     34      43.4007      0.00000
     35      44.4619      0.00000
     36      46.4951      0.00000
     37      46.9401      0.00000
     38      49.0251      0.00000
     39      49.2667      0.00000
     40      50.3168      0.00000
     41      51.3859      0.00000
     42      52.0142      0.00000
     43      53.7367      0.00000
     44      53.8574      0.00000
     45      54.7006      0.00000
     46      55.9619      0.00000
     47      57.1503      0.00000
     48      58.7086      0.00000

 k-point    14 :      -0.4615    0.0769   -0.0000
  band No.  band energies     occupation 
      1      -3.8082      1.00000
      2      -1.1902      1.00000
      3       3.9842      1.00000
      4       4.4562      1.00000
      5       7.6829      0.00000
      6       8.9883      0.00000
      7       9.2816      0.00000
      8      13.5690      0.00000
      9      15.2388      0.00000
     10      15.5277      0.00000
     11      16.7089      0.00000
     12      17.8539      0.00000
     13      18.1106      0.00000
     14      19.1454      0.00000
     15      24.6438      0.00000
     16      25.6391      0.00000
     17      26.4998      0.00000
     18      27.0725      0.00000
     19      27.4699      0.00000
     20      27.9311      0.00000
     21      31.1508      0.00000
     22      31.3555      0.00000
     23      31.6817      0.00000
     24      33.4043      0.00000
     25      33.4575      0.00000
     26      34.4218      0.00000
     27      36.4995      0.00000
     28      36.6401      0.00000
     29      37.7477      0.00000
     30      38.9114      0.00000
     31      38.9371      0.00000
     32      39.9831      0.00000
     33      42.6384      0.00000
     34      43.1901      0.00000
     35      44.6283      0.00000
     36      46.1559      0.00000
     37      46.9282      0.00000
     38      48.9885      0.00000
     39      49.8755      0.00000
     40      51.0608      0.00000
     41      51.9956      0.00000
     42      52.1139      0.00000
     43      53.6359      0.00000
     44      54.3848      0.00000
     45      54.7874      0.00000
     46      55.9711      0.00000
     47      57.3012      0.00000
     48      58.5762      0.00000

 k-point    15 :      -0.3846    0.0769    0.0000
  band No.  band energies     occupation 
      1      -4.1827      1.00000
      2      -0.6232      1.00000
      3       3.9497      1.00000
      4       4.6240      1.00000
      5       7.7495      0.00000
      6       9.1437      0.00000
      7       9.2287      0.00000
      8      13.5012      0.00000
      9      14.1028      0.00000
     10      14.9010      0.00000
     11      16.9465      0.00000
     12      17.4972      0.00000
     13      19.5347      0.00000
     14      20.0058      0.00000
     15      22.6950      0.00000
     16      24.3127      0.00000
     17      25.7823      0.00000
     18      28.1058      0.00000
     19      28.6017      0.00000
     20      28.8137      0.00000
     21      29.9734      0.00000
[...]
  318        m_sumb_d                              0.675763                            7   3
  319      lr_optic                             12.105055                              1   2
  320        rspher_all                            0.001113                            1   3
  321        potlok                                0.019726                            1   3
  322          fft3d_mpi                             0.017563                         10   4
  323            fftbas_plan_mpi                       0.015803                       10   5
  324              dfftw_execute                         0.001528                     30   6
  325              map_forward                           0.008881                     12   6
  326                map_gather                            0.000462                    8   7
  327                m_alltoallv_z                         0.007761                    8   7
  328                map_scatter                           0.000371                    8   7
  329              map_backward                          0.003034                      8   6
  330                map_gather                            0.000106                    4   7
  331                m_alltoallv_z                         0.002497                    4   7
  332                map_scatter                           0.000288                    4   7
  333          pothar                                0.000326                          1   4
  334            m_sumb_d                              0.000087                        1   5
  335          m_bcast_d                             0.000753                          2   4
  336        setdij_                               0.002211                            1   3
  337          m_sumb_d                              0.000254                          1   4
  338        set_dd_paw                            0.063415                            1   3
  339          set_rsgf_all                          0.000005                          1   4
  340          m_sumb_d                              0.063259                          7   4
  341        lrf_rphi0                             5.919983                            3   3
  342          lrf_commutator                        2.413868                          3   4
  343            phaser                                0.269884                      504   5
  344            fftwav_mpi                            0.394030                     1008   5
  345              fftwav                                0.382028                   1008   6
  346                fft3d                                 0.329566                 1008   7
  347            hamiltmu_commutator                   1.390625                      504   5
  348              raccmu                                0.289787                   1008   6
  349                overl1                                0.035523                 2016   7
  350                racc0mu                               0.223412                 1008   7
  351                  gemm                                  0.078185               2016   8
  352                  crrexp_mul_work_add                   0.071505               4032   8
  353              rpromu                                0.228749                    504   6
  354                crrexp_mul_wave                       0.086907                 8064   7
  355              raccmu_c                              0.115746                    504   6
  356                overl1_c                              0.017170                 1008   7
  357                racc0mu                               0.083481                  504   7
  358                  gemm                                  0.021504               1008   8
  359                  crrexp_mul_work_add                   0.028466               2016   8
  360              fftext_mpi                            0.481187                   1008   6
  361                fft3d_mpi                             0.372274                 1008   7
  362                  fft3d                                 0.358188               1008   8
  363            m_sumb_d                              0.009344                        3   5
  364          m_sumb_d                              0.003495                          6   4
  365          eddiag_lr                             3.437613                          3   4
  366            overl                                 0.016241                      504   5
  367            redis_proj                            0.791715                     3528   5
  368              m_alltoall_d                          0.703831                   8064   6
  369            redis_pw                              2.098132                     3024   5
  370              m_alltoall_d                          1.981666                   7056   6
  371            m_sumb_d                              0.232655                     1008   5
  372          overl1                                0.015163                       2016   4
  373        redis_pw                              1.149711                         1512   3
  374          m_alltoall_d                          1.081681                       4032   4
  375        redis_proj                            0.388485                         1512   3
  376          m_alltoall_d                          0.345355                       4032   4
  377        m_sumb_d                              0.368109                          522   3
  378        densta                                0.393547                            1   3
  379      augmentation_charge                   0.006730                              1   2
  380        fft3d_mpi                             0.002696                            2   3
  381          fftbas_plan_mpi                       0.002547                          2   4
  382            dfftw_execute                         0.000277                        6   5
  383            map_backward                          0.001593                        4   5
  384              map_gather                            0.000054                      2   6
  385              m_alltoallv_z                         0.001313                      2   6
  386              map_scatter                           0.000151                      2   6
  387      fftwav_mpi                            0.666102                           1512   2
  388        fftwav                                0.647855                         1512   3
  389          fft3d                                 0.504273                       1512   4
  390      densta                                0.696546                              1   2
 
 Flat profile
 ============
 
             routine name                   CPU           calls
 ---------------------------------------------------------------
 bg_pdssyex_zheevx                    1479.444678         840
 m_sumb_d                              805.548050       34331
 m_alltoall_d                          313.639746      977424
 eddiag_exact                          272.673612           5
 bg_ppotrf_trtri                       209.285713         840
 m_bcast_z                             120.500636     1352066
 fft3d                                  85.393587      270648
 lincom_slice                           30.919635       11760
 total_time                             29.470091           1
 orth1_nosubindex                       15.325530       11760
 fftwav                                 11.816318      183120
 recon_slice                            11.620885       11760
 rpromu                                 10.646062       24528
 orth1_distri                           10.644476       11760
 crrexp_mul_wave                         7.571842      752640
 redis_pw                                5.985929       19152
 vhamil                                  4.793012       86520
 redis_proj                              4.248080       10584
 lr_optic                                3.798754           1
 distri_slice                            3.719625       11760
 eddiag                                  3.350685           5
 fftext_mpi                              2.365419       87528
 fftwav_mpi                              2.125403      183120
 hamilt_local                            1.722759       86520
 kinhamil                                1.676941       86520
 densta                                  1.570296           7
 lincom_distri                           1.556032        1680
 fft3d_mpi                               1.314472       87791
 sphpro_fast                             1.250442           2
 rpro_isp                                1.178670        1512
 orthch                                  1.092224           6
 phaser                                  1.088089        2016
 m_alltoallv_z                           0.669674         311
 m_sum_g                                 0.400717       23520
 lrf_commutator                          0.349985           3
 bg_change_diagonale                     0.325296         840
 potlok                                  0.315303           8
 eddiag_lr                               0.298870           3
 hamiltmu_commutator                     0.275156         504
 set_charge                              0.243268           6
 elmin                                   0.203315           1
 overl                                   0.124532        2352
 racc0mu                                 0.107233        1512
 crrexp_mul_work_add                     0.099971        6048
 gemm                                    0.099690        3024
 fftbas_plan_mpi                         0.069659         263
 setdij_                                 0.065439          34
 force_and_stress                        0.053564           1
 strnlr                                  0.052684           1
 overl1                                  0.050686        4032
 lrf_rphi0                               0.049844           3
 choleski                                0.049763        1008
 dfftw_execute                           0.045598         789
 lincom                                  0.033417         168
 augmentation_charge                     0.032793           7
 pw_charge                               0.031863        1008
 inisym                                  0.031083           1
 raccmu                                  0.030853        1008
 rspher_all                              0.028461          15
 orth1                                   0.025587         168
 soft_charge                             0.025271           6
 FERMAT_RAZOR                            0.022714        1590
 fewald                                  0.020885           1
 m_bcast_d                               0.018196          23
 map_scatter                             0.017335         311
 fornlr                                  0.017307           1
 overl1_c                                0.017170        1008
 raccmu_c                                0.015095         504
 map_gather                              0.011587         311
 depsum                                  0.011064           6
 map_forward                             0.005525         264
 setg0                                   0.005325           7
 map_backward                            0.005171         262
 brmix                                   0.004743           5
 strkin                                  0.004514           1
 strelo                                  0.003402           1
 shift_bands_between_low_high            0.003335         840
 rsp                                     0.002628           1
 broyd                                   0.002151           5
 set_dd_paw                              0.002143           8
 pothar                                  0.002111           9
 fft_gq                                  0.001124           6
 chggra                                  0.000996           1
 strehar                                 0.000837           1
 brsav                                   0.000642          35
 brgrid                                  0.000593           1
 stufak                                  0.000561           1
 brget                                   0.000502          89
 forhar                                  0.000459           2
 brpre                                   0.000352          10
 forloc                                  0.000281           1
 crpa_reader                             0.000168           1
 fordep                                  0.000147           1
 posmap                                  0.000070           2
 rcp                                     0.000070           1
 set_rsgf_all                            0.000044           8
 vectorpot                               0.000031           6
 set_dd_magatom                          0.000027           7
 potlok_metagga                          0.000027           6
 redis_pw_over_bands                     0.000020           6
 rotate_active_occupied_orbital          0.000012           1
 ---------------------------------------------------------------
  summed up times    3461.72663092613     
 
 Accumulative profile
 ====================
 
             routine name                   CPU           calls
 ---------------------------------------------------------------
 total_time                           3461.726631           1
 elmin                                3407.188736           1
 eddiag_exact                         3401.589430           5
 eddiag                               2182.764403           5
 bg_pdssyex_zheevx                    1479.444678         840
 m_sumb_d                              805.548050       34331
 m_sum_g                               798.149123       23520
 orthch                                776.729684           6
 lincom_distri                         456.352664        1680
 orth1_distri                          415.582642       11760
 m_alltoall_d                          313.639746      977424
 redis_pw                              275.823295       19152
 choleski                              209.335476        1008
 bg_ppotrf_trtri                       209.285713         840
 m_bcast_z                             120.500636     1352066
 fft3d                                  85.393587      270648
 fftwav_mpi                             70.726990      183120
 fftwav                                 68.601587      183120
 rpro_isp                               54.155948        1512
 redis_proj                             48.050460       10584
 hamilt_local                           39.955371       86520
 kinhamil                               33.439600       86520
 fftext_mpi                             32.243845       87528
 lincom_slice                           30.919635       11760
 fft3d_mpi                              30.747338       87791
 rpromu                                 18.217904       24528
 orth1_nosubindex                       15.325530       11760
 lr_optic                               12.105055           1
 recon_slice                            11.620885       11760
 crrexp_mul_wave                         7.571842      752640
 lrf_rphi0                               5.919983           3
 force_and_stress                        5.341902           1
 set_dd_paw                              4.796465           8
 vhamil                                  4.793012       86520
 distri_slice                            3.719625       11760
 eddiag_lr                               3.437613           3
 strnlr                                  3.221154           1
 lrf_commutator                          2.413868           3
 densta                                  1.570296           7
 hamiltmu_commutator                     1.390625         504
 sphpro_fast                             1.265025           2
 phaser                                  1.088089        2016
 fornlr                                  1.075825           1
 set_charge                              1.068515           6
 fftbas_plan_mpi                         0.824548         263
 potlok                                  0.778245           8
 soft_charge                             0.682157           6
 m_alltoallv_z                           0.669674         311
 map_backward                            0.444027         262
 bg_change_diagonale                     0.325296         840
 racc0mu                                 0.306893        1512
 raccmu                                  0.289787        1008
 map_forward                             0.265265         264
 fft_gq                                  0.197435           6
 overl                                   0.124532        2352
 raccmu_c                                0.115746         504
 setdij_                                 0.104178          34
 crrexp_mul_work_add                     0.099971        6048
 gemm                                    0.099690        3024
 augmentation_charge                     0.088517           7
 overl1                                  0.050686        4032
 dfftw_execute                           0.045598         789
 lincom                                  0.033417         168
 pw_charge                               0.031863        1008
 inisym                                  0.031153           1
 rspher_all                              0.028461          15
 orth1                                   0.025587         168
 fewald                                  0.023806           1
 FERMAT_RAZOR                            0.022714        1590
 depsum                                  0.020841           6
 m_bcast_d                               0.018196          23
 fordep                                  0.017863           1
 map_scatter                             0.017335         311
 overl1_c                                0.017170        1008
 brmix                                   0.016943           5
 chggra                                  0.011948           1
 map_gather                              0.011587         311
 setg0                                   0.005325           7
 broyd                                   0.005026           5
 strkin                                  0.004609           1
 strelo                                  0.003540           1
 shift_bands_between_low_high            0.003335         840
 pothar                                  0.003067           9
 rsp                                     0.002628           1
 forloc                                  0.000988           1
 strehar                                 0.000953           1
 brsav                                   0.000642          35
 brgrid                                  0.000593           1
 forhar                                  0.000592           2
 stufak                                  0.000561           1
 brget                                   0.000502          89
 brpre                                   0.000352          10
 crpa_reader                             0.000168           1
 posmap                                  0.000070           2
 rcp                                     0.000070           1
 set_rsgf_all                            0.000044           8
 vectorpot                               0.000031           6
 set_dd_magatom                          0.000027           7
 potlok_metagga                          0.000027           6
 redis_pw_over_bands                     0.000020           6
 rotate_active_occupied_orbital          0.000012           1
 ---------------------------------------------------------------
 
Profiling took   9.223462 12.821514  0.006538  0.004738 seconds
Profiling took  10.969431 seconds
