# Projected DOS for atomic kind Si_1 at iteration step i = 0, E(Fermi) =     0.187273 a.u.
#     MO Eigenvalue [a.u.]      Occupation                 s                py                pz                px               d-2               d-1                d0               d+1               d+2
       1         -0.247583        1.000000        1.00000000        0.00000000        0.00000000        0.00000000        0.00000000        0.00000000        0.00000000        0.00000000        0.00000000
       2          0.281171        0.000000        0.00000000        0.18690139        0.18690139        0.18690139        0.14643195        0.14643194        0.00000000        0.14643195        0.00000000