
*************** JDFTx 1.7.0 (git hash 80df9f08) ***************

Start date and time: Wed Feb 14 02:05:28 2024
Executable /global/cfs/cdirs/m4025/Software/Perlmutter/JDFTx/build-gpu/jdftx_gpu with command-line: -i in -o out
Running on hosts (process indices):  nid002133 (0-3)
Divided in process groups (process indices):  0 (0)  1 (1)  2 (2)  3 (3)
gpuInit: Found compatible cuda device 0 'NVIDIA A100-SXM4-40GB'
gpuInit: Found compatible cuda device 1 'NVIDIA A100-SXM4-40GB'
gpuInit: Found compatible cuda device 2 'NVIDIA A100-SXM4-40GB'
gpuInit: Found compatible cuda device 3 'NVIDIA A100-SXM4-40GB'
gpuInit: Selected device 0
Resource initialization completed at t[s]:      1.86
Run totals: 4 processes, 128 threads, 4 GPUs
Memory pool size: 36000 MB (per process)


Input parsed successfully to the following command list (including defaults):

basis kpoint-dependent
converge-empty-states yes
coords-type Cartesian
core-overlap-check none
coulomb-interaction Slab 001
coulomb-truncation-embed 4.61248 6.52755 27.027
davidson-band-ratio 1.1
dump End State Forces ElecDensity KEdensity Dtot VfluidTot BandEigs EigStats Ecomponents BoundCharge DOS
dump 
dump 
dump 
dump 
dump 
dump 
dump 
dump 
dump 
dump 
dump 
dump-name $VAR
elec-cutoff 20 100
elec-eigen-algo Davidson
elec-ex-corr gga-PBE
elec-initial-magnetization 0.000000 no
elec-n-bands 302
elec-smearing Fermi 0.001
electronic-minimize  \
	dirUpdateScheme      FletcherReeves \
	linminMethod         DirUpdateRecommended \
	nIterations          100 \
	history              15 \
	knormThreshold       0 \
	maxThreshold         no \
	energyDiffThreshold  1e-07 \
	nEnergyDiff          2 \
	alphaTstart          1 \
	alphaTmin            1e-10 \
	updateTestStepSize   yes \
	alphaTreduceFactor   0.1 \
	alphaTincreaseFactor 3 \
	nAlphaAdjustMax      3 \
	wolfeEnergy          0.0001 \
	wolfeGradient        0.9 \
	fdTest               no
exchange-regularization WignerSeitzTruncated
fluid LinearPCM 298.000000 1.013250
fluid-anion F- 0.5 MeanFieldLJ \
	epsBulk 1 \
	pMol 0 \
	epsInf 1 \
	Pvap 0 \
	sigmaBulk 0 \
	Rvdw 2.24877 \
	Res 0 \
	tauNuc 343133
fluid-cation Na+ 0.5 MeanFieldLJ \
	epsBulk 1 \
	pMol 0 \
	epsInf 1 \
	Pvap 0 \
	sigmaBulk 0 \
	Rvdw 2.19208 \
	Res 0 \
	tauNuc 343133
fluid-ex-corr (null) lda-PZ
fluid-gummel-loop 10 1.000000e-05
fluid-minimize  \
	dirUpdateScheme      PolakRibiere \
	linminMethod         DirUpdateRecommended \
	nIterations          400 \
	history              15 \
	knormThreshold       1e-11 \
	maxThreshold         no \
	energyDiffThreshold  0 \
	nEnergyDiff          2 \
	alphaTstart          1 \
	alphaTmin            1e-10 \
	updateTestStepSize   yes \
	alphaTreduceFactor   0.1 \
	alphaTincreaseFactor 3 \
	nAlphaAdjustMax      6 \
	wolfeEnergy          0.0001 \
	wolfeGradient        0.9 \
	fdTest               no
fluid-solvent H2O 55.338 ScalarEOS \
	epsBulk 78.4 \
	pMol 0.92466 \
	epsInf 1.77 \
	Pvap 1.06736e-10 \
	sigmaBulk 4.62e-05 \
	Rvdw 2.61727 \
	Res 1.42 \
	tauNuc 343133 \
	poleEl 15 7 1
forces-output-coords Positions
initial-state $VAR
ion Cr   0.647365000000000   0.916147000000000  21.623134000000004 0
ion Cr   2.265779000000001   3.206515000000000  25.291792999999998 1
ion Cr   0.809207000000000   1.145184000000000  29.158758000000002 1
ion Cr   2.427620999999999   3.435551000000000  32.827417000000004 1
ion Cr  -0.894387000000000   5.267845000000001  21.523981000000003 0
ion Cr   0.724027000000000   7.558213000000001  25.192640000000004 1
ion Cr  -0.732545000000000   5.496882000000001  29.059605000000001 1
ion Cr   0.885869000000000   7.787250000000000  32.728264000000003 1
ion Cr  -2.436139000000000   9.619543000000000  21.424828000000005 0
ion Cr  -0.817725000000000  11.909910999999999  25.093487000000003 1
ion Cr  -2.274298000000000   9.848580000000002  28.960452000000007 1
ion Cr  -0.655884000000000  12.138948000000001  32.629111000000009 1
ion Cr   5.264104000000001   0.916147000000000  21.523981000000003 0
ion Cr   6.882518000000000   3.206515000000000  25.192640000000004 1
ion Cr   5.425946000000001   1.145184000000000  29.059605000000001 1
ion Cr   7.044360000000001   3.435551000000000  32.728264000000003 1
ion Cr   3.722352000000001   5.267845000000001  21.424828000000005 0
ion Cr   5.340766000000001   7.558213000000001  25.093487000000003 1
ion Cr   3.884193000000001   5.496882000000001  28.960452000000007 1
ion Cr   5.502607000000000   7.787250000000000  32.629111000000009 1
ion Cr   2.180600000000001   9.619543000000000  21.325675000000000 0
ion Cr   3.799014000000001  11.909910999999999  24.994334000000002 1
ion Cr   2.342441000000000   9.848580000000002  28.861299000000002 1
ion Cr   3.960855000000001  12.138948000000001  32.529958000000001 1
ion Cr   9.880843000000002   0.916147000000000  21.424828000000005 0
ion Cr  11.499257000000002   3.206515000000000  25.093487000000003 1
ion Cr  10.042684000000000   1.145184000000000  28.960452000000007 1
ion Cr  11.661098000000003   3.435551000000000  32.629111000000009 1
ion Cr   8.339091000000002   5.267845000000001  21.325675000000000 0
ion Cr   9.957505000000001   7.558213000000001  24.994334000000002 1
ion Cr   8.500932000000001   5.496882000000001  28.861299000000002 1
ion Cr  10.119346000000000   7.787250000000000  32.529958000000001 1
ion Cr   6.797338000000001   9.619543000000000  21.226522000000003 0
ion Cr   8.415751999999999  11.909910999999999  24.895181000000004 1
ion Cr   6.959180000000001   9.848580000000002  28.762146000000001 1
ion Cr   8.577593999999999  12.138948000000001  32.430805999999997 1
ion-species GBRV_v1.5/$ID_pbe_v1.uspp
ion-width Ecut
ionic-minimize  \
	dirUpdateScheme      L-BFGS \
	linminMethod         DirUpdateRecommended \
	nIterations          100 \
	history              15 \
	knormThreshold       0.000388938 \
	maxThreshold         yes \
	energyDiffThreshold  3.67493e-06 \
	nEnergyDiff          2 \
	alphaTstart          1 \
	alphaTmin            1e-10 \
	updateTestStepSize   yes \
	alphaTreduceFactor   0.1 \
	alphaTincreaseFactor 3 \
	nAlphaAdjustMax      3 \
	wolfeEnergy          0.0001 \
	wolfeGradient        0.9 \
	fdTest               no
kpoint   0.000000000000   0.000000000000   0.000000000000  1.00000000000000
kpoint-folding 4 4 1 
latt-move-scale 0 0 0
latt-scale 1 1 1 
lattice  \
	  13.850216000000000   -4.625257000000000    0.000000000000000  \
	   0.000000000000000   13.055094000000000    0.000000000000000  \
	  -0.297459000000000   -0.297459000000000   54.648857000000000 
lattice-minimize  \
	dirUpdateScheme      L-BFGS \
	linminMethod         DirUpdateRecommended \
	nIterations          0 \
	history              15 \
	knormThreshold       0 \
	maxThreshold         no \
	energyDiffThreshold  1e-06 \
	nEnergyDiff          2 \
	alphaTstart          1 \
	alphaTmin            1e-10 \
	updateTestStepSize   yes \
	alphaTreduceFactor   0.1 \
	alphaTincreaseFactor 3 \
	nAlphaAdjustMax      3 \
	wolfeEnergy          0.0001 \
	wolfeGradient        0.9 \
	fdTest               no
lcao-params -1 1e-06 0.001
pcm-variant CANDLE
perturb-minimize  \
	nIterations            0 \
	algorithm              MINRES \
	residualTol            0.0001 \
	residualDiffThreshold  0.0001 \
	CGBypass               no \
	recomputeResidual      no
spintype z-spin
subspace-rotation-factor 1 yes
symmetries none
symmetry-threshold 0.0001
van-der-waals D3


Applied RMS atom displacement 0 bohrs to make symmetries exact.

---------- Initializing the Grid ----------
R = 
[      13.8502     -4.62526            0  ]
[            0      13.0551            0  ]
[    -0.297459    -0.297459      54.6489  ]
unit cell volume = 9881.38
G =
[   0.453653   0.160723         -0  ]
[         -0   0.481282          0  ]
[ 0.00246927  0.0034945   0.114974  ]
Minimum fftbox size, Smin = [  64  64  248  ]
Chosen fftbox size, S = [  64  64  250  ]

---------- Initializing tighter grid for wavefunction operations ----------
R = 
[      13.8502     -4.62526            0  ]
[            0      13.0551            0  ]
[    -0.297459    -0.297459      54.6489  ]
unit cell volume = 9881.38
G =
[   0.453653   0.160723         -0  ]
[         -0   0.481282          0  ]
[ 0.00246927  0.0034945   0.114974  ]
Minimum fftbox size, Smin = [  56  56  224  ]
Chosen fftbox size, S = [  56  56  224  ]

---------- Exchange Correlation functional ----------
Initalized PBE GGA exchange.
Initalized PBE GGA correlation.

---------- Setting up pseudopotentials ----------
Width of ionic core gaussian charges (only for fluid interactions / plotting) set to 0.397384

Reading pseudopotential file '/global/u2/r/ravish/Project-BEAST/Software/Perlmutter/JDFTx/build-gpu/pseudopotentials/GBRV_v1.5/cr_pbe_v1.uspp':
  Title: Cr.  Created by USPP 7.3.6 on 15-6-15
  Reference state energy: -87.029289.  14 valence electrons in orbitals:
    |300>  occupation: 2  eigenvalue: -3.285614
    |310>  occupation: 6  eigenvalue: -2.226709
    |400>  occupation: 1.6  eigenvalue: -0.454946
    |320>  occupation: 3.4  eigenvalue: -0.614185
  lMax: 2  lLocal: 3  QijEcut: 6
  6 projectors sampled on a log grid with 595 points:
    l: 0  eig: -3.285615  rCut: 1.55
    l: 0  eig: -0.454949  rCut: 1.55
    l: 1  eig: -2.226708  rCut: 1.55
    l: 1  eig: 0.500000  rCut: 1.55
    l: 2  eig: -0.614184  rCut: 1.7
    l: 2  eig: 0.500000  rCut: 1.7
  Partial core density with radius 0.75
  Transforming core density to a uniform radial grid of dG=0.02 with 1477 points.
  Transforming local potential to a uniform radial grid of dG=0.02 with 1477 points.
  Transforming nonlocal projectors to a uniform radial grid of dG=0.02 with 432 points.
  Transforming density augmentations to a uniform radial grid of dG=0.02 with 1477 points.
  Transforming atomic orbitals to a uniform radial grid of dG=0.02 with 432 points.
  Core radius for overlap checks: 1.70 bohrs.

Initialized 1 species with 36 total atoms.

Folded 1 k-points by 4x4x1 to 16 k-points.

---------- Setting up k-points, bands, fillings ----------
No reducable k-points. 
Computing the number of bands and number of electrons
Calculating initial fillings.
nElectrons: 504.000000   nBands: 302   nStates: 32

----- Setting up reduced wavefunction bases (one per k-point) -----
average nbasis = 42218.312 , ideal nbasis = 42214.011

----- Initializing Supercell corresponding to k-point mesh -----
Lattice vector linear combinations in supercell:
[   4   0   0  ]
[   0   4   0  ]
[   0   0   1  ]
Supercell lattice vectors:
[  55.4009  -18.501  0  ]
[  0  52.2204  0  ]
[  -1.18984  -1.18984  54.6489  ]

---------- Setting up coulomb interaction ----------
Fluid mode embedding: using embedded box, but periodic Coulomb kernel.
(Fluid response is responsible for (approximate) separation between periodic images.)
Setting up double-sized grid for truncated Coulomb potentials:
R = 
[      13.8502     -4.62526            0  ]
[            0      13.0551            0  ]
[    -0.297459    -0.297459      109.298  ]
unit cell volume = 19762.8
G =
[   0.453653   0.160723         -0  ]
[         -0   0.481282          0  ]
[ 0.00123464 0.00174725  0.0574869  ]
Chosen fftbox size, S = [  64  64  500  ]
Integer grid location selected as the embedding center:
   Grid: [  32  32  125  ]
   Lattice: [  0.5  0.5  0.500001  ]
   Cartesian: [  4.61248  6.52755  27.027  ]
Constructing Wigner-Seitz cell: 14 faces (6 quadrilaterals, 8 hexagons)
Range-separation parameter for embedded mesh potentials due to point charges: 0.589835 bohrs.

Initializing DFT-D3 calculator:
	Parameters set for gga-PBE functional
	s6:  1.000  s_r6:  1.217
	s8:  0.722  s_r8:  1.000
	Per-atom parameters loaded for:
	Cr:  sqrtQ[a0]:  5.546  Rcov[a0]:  2.079  CN: [ 0.00 1.83 10.62 ]

Initializing DFT-D2 calculator for fluid / solvation:
	Cr:  C6:  187.33 Eh-a0^6  R0: 2.952 a0

---------- Setting up ewald sum ----------
Optimum gaussian width for ewald sums = 5.935521 bohr.
Real space sum over 845 unit cells with max indices [  6  6  2  ]
Reciprocal space sum over 7139 terms with max indices [  5  5  29  ]

Computing DFT-D3 correction:
# coordination-number Cr 8.539 11.841 11.841 8.539 8.539 11.841 11.841 8.539 8.539 11.841 11.841 8.539 8.539 11.841 11.841 8.539 8.539 11.841 11.841 8.539 8.539 11.841 11.841 8.539 8.539 11.841 11.841 8.539 8.539 11.841 11.841 8.539 8.539 11.841 11.841 8.539
# diagonal-C6 Cr 153.34 153.34 153.34 153.34 153.34 153.34 153.34 153.34 153.34 153.34 153.34 153.34 153.34 153.34 153.34 153.34 153.34 153.34 153.34 153.34 153.34 153.34 153.34 153.34 153.34 153.34 153.34 153.34 153.34 153.34 153.34 153.34 153.34 153.34 153.34 153.34
EvdW_6 =   -0.140119
EvdW_8 =   -0.244263

---------- Allocating electronic variables ----------
Initializing wave functions:  linear combination of atomic orbitals
Cr pseudo-atom occupations:   s ( 2 0 )  p ( 6 )  d ( 6 )
	FillingsUpdate:  mu: -0.860043863  nElectrons: 504.000000  magneticMoment: [ Abs: 0.38659  Tot: +0.00408 ]
LCAOMinimize: Iter:   0  F: -3116.2116665464027392  |grad|_K:  6.128e-03  alpha:  1.000e+00
LCAOMinimize: 	Step increased F by 8.570365e+00, reducing alpha to 9.983070e-03.
	FillingsUpdate:  mu: -0.798862548  nElectrons: 504.000000  magneticMoment: [ Abs: 0.38769  Tot: +0.02661 ]
LCAOMinimize: Iter:   1  F: -3117.5542800962998626  |grad|_K:  4.481e-03  alpha:  9.983e-03  linmin: -2.768e-01  cgtest:  1.003e+00  t[s]:     27.90
LCAOMinimize: Encountered beta<0, resetting CG.
LCAOMinimize: 	Predicted alpha/alphaT>3.000000, increasing alphaT to 2.994921e-02.
	FillingsUpdate:  mu: -0.511535578  nElectrons: 504.000000  magneticMoment: [ Abs: 0.38639  Tot: -0.01030 ]
LCAOMinimize: Iter:   2  F: -3119.2188424836854210  |grad|_K:  1.334e-03  alpha:  4.054e-02  linmin:  4.995e-02  cgtest: -2.761e-01  t[s]:     29.70
LCAOMinimize: 	Wrong curvature in test step, increasing alphaT to 1.216127e-01.
	FillingsUpdate:  mu: -0.466444420  nElectrons: 504.000000  magneticMoment: [ Abs: 0.40144  Tot: -0.02857 ]
LCAOMinimize: Iter:   3  F: -3119.4970098258395410  |grad|_K:  1.498e-03  alpha: -3.037e-01  linmin: -1.159e-01  cgtest:  9.131e-01  t[s]:     31.06
	FillingsUpdate:  mu: -0.420667414  nElectrons: 504.000000  magneticMoment: [ Abs: 0.40346  Tot: +0.09950 ]
LCAOMinimize: Iter:   4  F: -3120.0596709379769891  |grad|_K:  1.425e-03  alpha:  5.284e-02  linmin: -1.573e-01  cgtest:  4.840e-01  t[s]:     32.49
LCAOMinimize: 	Wrong curvature in test step, increasing alphaT to 1.585289e-01.
	FillingsUpdate:  mu: -0.247491288  nElectrons: 504.000000  magneticMoment: [ Abs: 0.32151  Tot: +0.10044 ]
LCAOMinimize: Iter:   5  F: -3120.7562507051165994  |grad|_K:  1.262e-03  alpha: -1.802e+00  linmin: -1.934e-01  cgtest:  8.605e-01  t[s]:     33.82
	FillingsUpdate:  mu: -0.163661108  nElectrons: 504.000000  magneticMoment: [ Abs: 0.27195  Tot: +0.09819 ]
LCAOMinimize: Iter:   6  F: -3121.0441869251558273  |grad|_K:  1.605e-03  alpha:  5.360e-02  linmin: -6.174e-02  cgtest:  4.347e-01  t[s]:     35.28
	FillingsUpdate:  mu: -0.079550731  nElectrons: 504.000000  magneticMoment: [ Abs: 0.23412  Tot: +0.11533 ]
LCAOMinimize: Iter:   7  F: -3121.3244100888032335  |grad|_K:  2.302e-03  alpha:  3.621e-02  linmin:  1.298e-03  cgtest: -3.905e-01  t[s]:     36.75
	FillingsUpdate:  mu: +0.046172672  nElectrons: 504.000000  magneticMoment: [ Abs: 0.09566  Tot: +0.02018 ]
LCAOMinimize: Iter:   8  F: -3121.9422910800949467  |grad|_K:  4.713e-03  alpha:  5.479e-02  linmin: -1.031e-03  cgtest:  8.651e-01  t[s]:     38.17
	FillingsUpdate:  mu: +0.084638048  nElectrons: 504.000000  magneticMoment: [ Abs: 0.08722  Tot: +0.01860 ]
LCAOMinimize: Iter:   9  F: -3122.3344089519359841  |grad|_K:  2.424e-03  alpha:  5.185e-03  linmin: -3.424e-02  cgtest:  9.939e-01  t[s]:     39.60
LCAOMinimize: Encountered beta<0, resetting CG.
	FillingsUpdate:  mu: +0.135308451  nElectrons: 504.000000  magneticMoment: [ Abs: 0.08672  Tot: +0.02111 ]
LCAOMinimize: Iter:  10  F: -3122.4382854360301280  |grad|_K:  3.431e-04  alpha:  8.441e-03  linmin: -2.677e-02  cgtest:  6.823e-02  t[s]:     41.00
LCAOMinimize: 	Predicted alpha/alphaT>3.000000, increasing alphaT to 2.532201e-02.
	FillingsUpdate:  mu: +0.159692984  nElectrons: 504.000000  magneticMoment: [ Abs: 0.08513  Tot: +0.01849 ]
LCAOMinimize: Iter:  11  F: -3122.4547492422116193  |grad|_K:  4.070e-04  alpha:  6.758e-02  linmin:  3.637e-03  cgtest: -2.371e-02  t[s]:     42.72
LCAOMinimize: 	Predicted alpha/alphaT>3.000000, increasing alphaT to 2.027295e-01.
	FillingsUpdate:  mu: +0.171863459  nElectrons: 504.000000  magneticMoment: [ Abs: 0.08265  Tot: +0.01676 ]
LCAOMinimize: Iter:  12  F: -3122.5319390768149788  |grad|_K:  8.953e-04  alpha:  2.333e-01  linmin:  2.866e-03  cgtest:  7.228e-02  t[s]:     44.56
	FillingsUpdate:  mu: +0.179791628  nElectrons: 504.000000  magneticMoment: [ Abs: 0.08266  Tot: +0.01596 ]
LCAOMinimize: Iter:  13  F: -3122.5435955662983361  |grad|_K:  5.685e-04  alpha:  4.988e-03  linmin: -2.567e-02  cgtest:  9.280e-01  t[s]:     46.02
LCAOMinimize: Encountered beta<0, resetting CG.
LCAOMinimize: 	Predicted alpha/alphaT>3.000000, increasing alphaT to 1.496280e-02.
	FillingsUpdate:  mu: +0.181896659  nElectrons: 504.000000  magneticMoment: [ Abs: 0.08277  Tot: +0.01511 ]
LCAOMinimize: Iter:  14  F: -3122.5536924033212927  |grad|_K:  4.418e-04  alpha:  1.498e-02  linmin:  4.930e-04  cgtest: -3.082e-03  t[s]:     47.78
	FillingsUpdate:  mu: +0.184704646  nElectrons: 504.000000  magneticMoment: [ Abs: 0.08275  Tot: +0.01434 ]
LCAOMinimize: Iter:  15  F: -3122.5612218707906322  |grad|_K:  7.266e-05  alpha:  1.852e-02  linmin: -1.538e-03  cgtest:  5.610e-02  t[s]:     49.19
LCAOMinimize: 	Predicted alpha/alphaT>3.000000, increasing alphaT to 5.556281e-02.
	FillingsUpdate:  mu: +0.183906294  nElectrons: 504.000000  magneticMoment: [ Abs: 0.08311  Tot: +0.01370 ]
LCAOMinimize: Iter:  16  F: -3122.5618934788467413  |grad|_K:  6.143e-05  alpha:  6.098e-02  linmin:  3.159e-04  cgtest: -2.324e-03  t[s]:     50.97
	FillingsUpdate:  mu: +0.183701104  nElectrons: 504.000000  magneticMoment: [ Abs: 0.08337  Tot: +0.01320 ]
LCAOMinimize: Iter:  17  F: -3122.5620858870543088  |grad|_K:  8.705e-05  alpha:  2.444e-02  linmin: -9.390e-05  cgtest:  3.176e-03  t[s]:     52.38
LCAOMinimize: 	Predicted alpha/alphaT>3.000000, increasing alphaT to 7.330710e-02.
	FillingsUpdate:  mu: +0.182990116  nElectrons: 504.000000  magneticMoment: [ Abs: 0.08626  Tot: +0.00864 ]
LCAOMinimize: Iter:  18  F: -3122.5635798011517181  |grad|_K:  9.014e-05  alpha:  9.465e-02  linmin:  5.227e-04  cgtest: -2.190e-02  t[s]:     54.18
	FillingsUpdate:  mu: +0.178982048  nElectrons: 504.000000  magneticMoment: [ Abs: 0.08926  Tot: +0.00508 ]
LCAOMinimize: Iter:  19  F: -3122.5645689915249932  |grad|_K:  3.431e-05  alpha:  5.856e-02  linmin: -1.498e-04  cgtest:  6.634e-02  t[s]:     55.63
	FillingsUpdate:  mu: +0.179972563  nElectrons: 504.000000  magneticMoment: [ Abs: 0.08958  Tot: +0.00462 ]
LCAOMinimize: Iter:  20  F: -3122.5646359346410463  |grad|_K:  2.041e-05  alpha:  2.723e-02  linmin: -1.098e-04  cgtest: -2.498e-04  t[s]:     57.06
	FillingsUpdate:  mu: +0.180115555  nElectrons: 504.000000  magneticMoment: [ Abs: 0.08967  Tot: +0.00449 ]
LCAOMinimize: Iter:  21  F: -3122.5646445343645610  |grad|_K:  8.523e-06  alpha:  9.888e-03  linmin: -4.629e-05  cgtest: -5.547e-04  t[s]:     58.48
LCAOMinimize: 	Predicted alpha/alphaT>3.000000, increasing alphaT to 2.966477e-02.
	FillingsUpdate:  mu: +0.179970474  nElectrons: 504.000000  magneticMoment: [ Abs: 0.09007  Tot: +0.00390 ]
LCAOMinimize: Iter:  22  F: -3122.5646528589309128  |grad|_K:  6.397e-06  alpha:  5.495e-02  linmin: -1.311e-05  cgtest:  7.318e-04  t[s]:     60.30
LCAOMinimize: 	Predicted alpha/alphaT>3.000000, increasing alphaT to 1.648382e-01.
	FillingsUpdate:  mu: +0.180595654  nElectrons: 504.000000  magneticMoment: [ Abs: 0.09204  Tot: +0.00117 ]
LCAOMinimize: Iter:  23  F: -3122.5646695070804526  |grad|_K:  9.488e-06  alpha:  1.951e-01  linmin:  3.767e-05  cgtest: -2.367e-04  t[s]:     62.11
	FillingsUpdate:  mu: +0.180676843  nElectrons: 504.000000  magneticMoment: [ Abs: 0.09330  Tot: -0.00043 ]
LCAOMinimize: Iter:  24  F: -3122.5646774073693450  |grad|_K:  1.222e-05  alpha:  4.203e-02  linmin: -5.638e-05  cgtest:  2.499e-03  t[s]:     63.52
	FillingsUpdate:  mu: +0.180724921  nElectrons: 504.000000  magneticMoment: [ Abs: 0.09397  Tot: -0.00126 ]
LCAOMinimize: Iter:  25  F: -3122.5646810363050463  |grad|_K:  2.156e-06  alpha:  1.162e-02  linmin: -1.644e-04  cgtest: -1.232e-02  t[s]:     64.98
	FillingsUpdate:  mu: +0.180802572  nElectrons: 504.000000  magneticMoment: [ Abs: 0.09422  Tot: -0.00157 ]
LCAOMinimize: Iter:  26  F: -3122.5646813558505528  |grad|_K:  8.472e-07  alpha:  3.290e-02  linmin: -6.750e-04  cgtest:  3.098e-03  t[s]:     66.46
	FillingsUpdate:  mu: +0.180747065  nElectrons: 504.000000  magneticMoment: [ Abs: 0.09479  Tot: -0.00228 ]
LCAOMinimize: Iter:  27  F: -3122.5646814800788889  |grad|_K:  9.947e-07  alpha:  8.330e-02  linmin:  7.295e-04  cgtest: -7.972e-03  t[s]:     67.89
LCAOMinimize: Converged (|Delta F|<1.000000e-06 for 2 iters).
----- createFluidSolver() ----- (Fluid-side solver setup)
   Initializing fluid molecule 'H2O'
     Initializing site 'O'
       Electron density: proportional to exp(-r/0.36935)*erfc((r-0.51523)/0.36823) with norm 6.826
       Charge density: gaussian nuclear width 0.478731 with net site charge 0.826
       Polarizability: cuspless exponential with width 0.32 and norm 3.73
       Hard sphere radius: 2.57003 bohrs
       Positions in reference frame:
         [ +0.000000 +0.000000 +0.000000 ]
     Initializing site 'H'
       Electron density: proportional to exp(-r/0.34641)*erfc((r-0)/0.390882) with norm 0.587
       Charge density: gaussian nuclear width 0.377945 with net site charge -0.413
       Polarizability: cuspless exponential with width 0.39 and norm 3.3
       Positions in reference frame:
         [ +0.000000 -1.441945 +1.122523 ]
         [ +0.000000 +1.441945 +1.122523 ]
     Net charge: 0   dipole magnitude: 0.927204
     Initializing spherical shell mfKernel with radius 2.61727 Bohr
     deltaS corrections:
       site 'O': -7.54299
       site 'H': -6.83917
   Initializing fluid molecule 'Na+'
     Initializing site 'Na'
       Electron density: proportional to exp(-r/0.19682)*erfc((r-0.71491)/0.41314) with norm 8.1383
       Charge density: gaussian nuclear width 0.365347 with net site charge -1
       Hard sphere radius: 1.86327 bohrs
       Positions in reference frame:
         [ +0.000000 +0.000000 +0.000000 ]
     Net charge: -1   dipole magnitude: 0
     Initializing gaussian mfKernel with width: 1.55004 Bohr
     deltaS corrections:
       site 'Na': -22.3555
   Initializing fluid molecule 'F-'
     Initializing site 'F'
       Electron density: proportional to exp(-r/0.38886)*erfc((r-0)/0.438782) with norm 8
       Charge density: gaussian nuclear width 0.374796 with net site charge 1
       Hard sphere radius: 2.39995 bohrs
       Positions in reference frame:
         [ +0.000000 +0.000000 +0.000000 ]
     Net charge: 1   dipole magnitude: 0
     Initializing gaussian mfKernel with width: 1.59012 Bohr
     deltaS corrections:
       site 'F': -9.04335

Correction to mu due to finite nuclear width = -0.0253036
   Cavity determined by nc: 0.00142 and sigma: 0.707107
   Nonlocal vdW cavity from gaussian model electron density with norm = 8 and sigma = 0.993594 bohr
   Charge asymmetry in cavity with sensitivity pCavity = 36.5 e-bohr/Eh
   Electrostatic cavity expanded by eta = 1.46 bohrs
   Weighted density cavitation model constrained by Nbulk: 0.0049383 bohr^-3, Pvap: 3.14029 kPa, Rvdw: 2.61727 bohr and sigmaBulk: 4.62e-05 Eh/bohr^2 at T: 298 K.
   Weighted density dispersion model using vdW pair potentials with single solvent site with sqrtC6eff: 0.77 SI.


---- Citations for features of the code used in this run ----

   Software package:
      R. Sundararaman, K. Letchworth-Weaver, K.A. Schwarz, D. Gunceler, Y. Ozhabes and T.A. Arias, 'JDFTx: software for joint density-functional theory', SoftwareX 6, 278 (2017)

   gga-PBE exchange-correlation functional:
      J.P. Perdew, K. Burke and M. Ernzerhof, Phys. Rev. Lett. 77, 3865 (1996)

   Pseudopotentials:
      KF Garrity, JW Bennett, KM Rabe and D Vanderbilt, Comput. Mater. Sci. 81, 446 (2014)

   Truncated Coulomb potentials:
      R. Sundararaman and T.A. Arias, Phys. Rev. B 87, 165122 (2013)

   DFT-D3 dispersion correction:
      S. Grimme, J. Antony, S. Ehrlich and H. Krieg, J. Chem. Phys. 132, 154104 (2010)

   DFT-D2 dispersion correction:
      S. Grimme, J. Comput. Chem. 27, 1787 (2006)

   Charge-asymmetric nonlocally-determined local-electric (CANDLE) solvation model:
      R. Sundararaman and W.A. Goddard III, J. Chem. Phys. 142, 064107 (2015)

   Total energy minimization with Auxiliary Hamiltonian:
      C. Freysoldt, S. Boeck, and J. Neugebauer, Phys. Rev. B 79, 241103(R) (2009)

   Linear-tetrahedron sampling for density of states:
      G. Lehmann and M. Taut, Phys. status solidi (b) 54, 469 (1972)

   Smooth electrostatic potentials by atom-potential subtraction:
      R. Sundararaman and Y. Ping, J. Chem. Phys. 146, 104109 (2017)

This list may not be complete. Please suggest additional citations or
report any other bugs at https://github.com/shankar1729/jdftx/issues

Initialization completed successfully at t[s]:     68.26


Computing DFT-D3 correction:
# coordination-number Cr 8.539 11.841 11.841 8.539 8.539 11.841 11.841 8.539 8.539 11.841 11.841 8.539 8.539 11.841 11.841 8.539 8.539 11.841 11.841 8.539 8.539 11.841 11.841 8.539 8.539 11.841 11.841 8.539 8.539 11.841 11.841 8.539 8.539 11.841 11.841 8.539
# diagonal-C6 Cr 153.34 153.34 153.34 153.34 153.34 153.34 153.34 153.34 153.34 153.34 153.34 153.34 153.34 153.34 153.34 153.34 153.34 153.34 153.34 153.34 153.34 153.34 153.34 153.34 153.34 153.34 153.34 153.34 153.34 153.34 153.34 153.34 153.34 153.34 153.34 153.34
EvdW_6 =   -0.140119
EvdW_8 =   -0.244263
Fluid solver invoked on fresh (random / LCAO) wavefunctions
Running a vacuum solve first:

-------- Initial electronic minimization -----------
	FillingsUpdate:  mu: +0.180747073  nElectrons: 504.000000  magneticMoment: [ Abs: 0.09479  Tot: -0.00228 ]
ElecMinimize: Iter:   0  F: -3122.564681480136187  |grad|_K:  2.306e-04  alpha:  1.000e+00
	FillingsUpdate:  mu: -0.006411412  nElectrons: 504.000000  magneticMoment: [ Abs: 0.09618  Tot: -0.00363 ]
	SubspaceRotationAdjust: set factor to 1
ElecMinimize: Iter:   1  F: -3126.298813268439972  |grad|_K:  1.258e-04  alpha:  1.963e-01  linmin:  5.975e-04  t[s]:     72.20
	FillingsUpdate:  mu: +0.111295880  nElectrons: 504.000000  magneticMoment: [ Abs: 0.07699  Tot: -0.00478 ]
	SubspaceRotationAdjust: set factor to 0.793
ElecMinimize: Iter:   2  F: -3129.043056669503130  |grad|_K:  1.230e-04  alpha:  4.893e-01  linmin:  3.939e-05  t[s]:     74.25
	FillingsUpdate:  mu: -0.019616947  nElectrons: 504.000000  magneticMoment: [ Abs: 0.07574  Tot: -0.00322 ]
	SubspaceRotationAdjust: set factor to 0.461
ElecMinimize: Iter:   3  F: -3129.275851650302684  |grad|_K:  9.321e-05  alpha:  4.760e-02  linmin:  2.496e-04  t[s]:     76.35
	FillingsUpdate:  mu: -0.025341435  nElectrons: 504.000000  magneticMoment: [ Abs: 0.07428  Tot: -0.00239 ]
	SubspaceRotationAdjust: set factor to 0.284
ElecMinimize: Iter:   4  F: -3129.438633665268753  |grad|_K:  1.504e-04  alpha:  5.410e-02  linmin: -5.530e-06  t[s]:     78.40
	FillingsUpdate:  mu: -0.012863211  nElectrons: 504.000000  magneticMoment: [ Abs: 0.07073  Tot: -0.00064 ]
	SubspaceRotationAdjust: set factor to 0.134
	SubspaceRotationAdjust: resetting CG because factor has changed by 0.133644
ElecMinimize: 	State modified externally: resetting search direction.
ElecMinimize: Iter:   5  F: -3130.017440771025122  |grad|_K:  6.075e-05  alpha:  6.237e-02
	FillingsUpdate:  mu: -0.009573623  nElectrons: 504.000000  magneticMoment: [ Abs: 0.06983  Tot: -0.00038 ]
	SubspaceRotationAdjust: set factor to 0.121
ElecMinimize: Iter:   6  F: -3130.200184657884165  |grad|_K:  5.011e-05  alpha:  1.209e-01  linmin: -1.114e-04  t[s]:     83.88
	FillingsUpdate:  mu: -0.005746099  nElectrons: 504.000000  magneticMoment: [ Abs: 0.06916  Tot: -0.00037 ]
	SubspaceRotationAdjust: set factor to 0.0835
ElecMinimize: Iter:   7  F: -3130.289883762160116  |grad|_K:  3.922e-05  alpha:  8.731e-02  linmin: -1.660e-05  t[s]:     85.98
ElecMinimize: 	Predicted alpha/alphaT>3.000000, increasing alphaT to 2.619399e-01.
	FillingsUpdate:  mu: +0.013430374  nElectrons: 504.000000  magneticMoment: [ Abs: 0.06653  Tot: +0.00124 ]
	SubspaceRotationAdjust: set factor to 0.09
ElecMinimize: Iter:   8  F: -3130.523794306519903  |grad|_K:  3.422e-05  alpha:  3.712e-01  linmin:  5.966e-06  t[s]:     88.61
	FillingsUpdate:  mu: -0.015838712  nElectrons: 504.000000  magneticMoment: [ Abs: 0.06501  Tot: +0.00273 ]
	SubspaceRotationAdjust: set factor to 0.0839
ElecMinimize: Iter:   9  F: -3130.625577326699840  |grad|_K:  3.098e-05  alpha:  2.138e-01  linmin:  7.686e-05  t[s]:     90.69
	FillingsUpdate:  mu: -0.037669810  nElectrons: 504.000000  magneticMoment: [ Abs: 0.06375  Tot: +0.00337 ]
	SubspaceRotationAdjust: set factor to 0.0646
ElecMinimize: Iter:  10  F: -3130.694674401153861  |grad|_K:  3.314e-05  alpha:  1.773e-01  linmin: -1.593e-04  t[s]:     92.83
	FillingsUpdate:  mu: -0.042883720  nElectrons: 504.000000  magneticMoment: [ Abs: 0.06212  Tot: +0.00651 ]
	SubspaceRotationAdjust: set factor to 0.0748
ElecMinimize: Iter:  11  F: -3130.794073043149183  |grad|_K:  1.747e-05  alpha:  2.191e-01  linmin: -4.816e-05  t[s]:     94.97
	FillingsUpdate:  mu: -0.042446634  nElectrons: 504.000000  magneticMoment: [ Abs: 0.06130  Tot: +0.00719 ]
	SubspaceRotationAdjust: set factor to 0.0745
ElecMinimize: Iter:  12  F: -3130.823393087842760  |grad|_K:  1.575e-05  alpha:  2.340e-01  linmin: -2.809e-05  t[s]:     97.09
	FillingsUpdate:  mu: -0.041791157  nElectrons: 504.000000  magneticMoment: [ Abs: 0.06036  Tot: +0.00654 ]
	SubspaceRotationAdjust: set factor to 0.0607
ElecMinimize: Iter:  13  F: -3130.843287629797032  |grad|_K:  1.400e-05  alpha:  1.959e-01  linmin: -3.353e-05  t[s]:     99.17
	FillingsUpdate:  mu: -0.039277361  nElectrons: 504.000000  magneticMoment: [ Abs: 0.05897  Tot: +0.00532 ]
	SubspaceRotationAdjust: set factor to 0.0616
ElecMinimize: Iter:  14  F: -3130.864040724744427  |grad|_K:  1.325e-05  alpha:  2.574e-01  linmin: -2.062e-05  t[s]:    101.23
	FillingsUpdate:  mu: -0.041963290  nElectrons: 504.000000  magneticMoment: [ Abs: 0.05727  Tot: +0.00354 ]
	SubspaceRotationAdjust: set factor to 0.0672
ElecMinimize: Iter:  15  F: -3130.885664314208498  |grad|_K:  1.188e-05  alpha:  2.991e-01  linmin: -8.184e-05  t[s]:    103.31
	FillingsUpdate:  mu: -0.044866386  nElectrons: 504.000000  magneticMoment: [ Abs: 0.05603  Tot: +0.00179 ]
	SubspaceRotationAdjust: set factor to 0.0625
ElecMinimize: Iter:  16  F: -3130.901357347286194  |grad|_K:  1.256e-05  alpha:  2.686e-01  linmin: -2.343e-06  t[s]:    105.41
	FillingsUpdate:  mu: -0.046418671  nElectrons: 504.000000  magneticMoment: [ Abs: 0.05485  Tot: +0.00166 ]
	SubspaceRotationAdjust: set factor to 0.0583
ElecMinimize: Iter:  17  F: -3130.918359329430132  |grad|_K:  1.104e-05  alpha:  2.631e-01  linmin:  8.429e-05  t[s]:    107.47
	FillingsUpdate:  mu: -0.045964985  nElectrons: 504.000000  magneticMoment: [ Abs: 0.05416  Tot: +0.00237 ]
	SubspaceRotationAdjust: set factor to 0.0694
ElecMinimize: Iter:  18  F: -3130.928848004830797  |grad|_K:  7.752e-06  alpha:  2.138e-01  linmin:  1.283e-05  t[s]:    109.57
	FillingsUpdate:  mu: -0.050148758  nElectrons: 504.000000  magneticMoment: [ Abs: 0.05348  Tot: +0.00251 ]
	SubspaceRotationAdjust: set factor to 0.0695
ElecMinimize: Iter:  19  F: -3130.935172064346716  |grad|_K:  8.131e-06  alpha:  2.576e-01  linmin:  1.503e-05  t[s]:    111.62
	FillingsUpdate:  mu: -0.054170730  nElectrons: 504.000000  magneticMoment: [ Abs: 0.05209  Tot: +0.00240 ]
	SubspaceRotationAdjust: set factor to 0.0672
ElecMinimize: Iter:  20  F: -3130.942834232533187  |grad|_K:  7.854e-06  alpha:  2.840e-01  linmin:  1.694e-05  t[s]:    113.70
	FillingsUpdate:  mu: -0.053444544  nElectrons: 504.000000  magneticMoment: [ Abs: 0.05094  Tot: +0.00236 ]
	SubspaceRotationAdjust: set factor to 0.0722
ElecMinimize: Iter:  21  F: -3130.948394046893100  |grad|_K:  6.166e-06  alpha:  2.230e-01  linmin: -2.520e-05  t[s]:    115.80
	FillingsUpdate:  mu: -0.052437757  nElectrons: 504.000000  magneticMoment: [ Abs: 0.05005  Tot: +0.00282 ]
	SubspaceRotationAdjust: set factor to 0.0718
ElecMinimize: Iter:  22  F: -3130.952856765064098  |grad|_K:  6.238e-06  alpha:  2.833e-01  linmin: -6.787e-05  t[s]:    117.88
	FillingsUpdate:  mu: -0.054355412  nElectrons: 504.000000  magneticMoment: [ Abs: 0.04947  Tot: +0.00473 ]
	SubspaceRotationAdjust: set factor to 0.0617
ElecMinimize: Iter:  23  F: -3130.956796069512620  |grad|_K:  5.589e-06  alpha:  2.436e-01  linmin: -2.588e-05  t[s]:    119.98
	FillingsUpdate:  mu: -0.057278124  nElectrons: 504.000000  magneticMoment: [ Abs: 0.04926  Tot: +0.00715 ]
	SubspaceRotationAdjust: set factor to 0.0637
ElecMinimize: Iter:  24  F: -3130.960222448226887  |grad|_K:  4.954e-06  alpha:  2.670e-01  linmin:  8.794e-05  t[s]:    122.16
	FillingsUpdate:  mu: -0.055950285  nElectrons: 504.000000  magneticMoment: [ Abs: 0.04859  Tot: +0.00754 ]
	SubspaceRotationAdjust: set factor to 0.0683
ElecMinimize: Iter:  25  F: -3130.963322854285252  |grad|_K:  5.206e-06  alpha:  3.205e-01  linmin:  9.698e-05  t[s]:    124.24
	FillingsUpdate:  mu: -0.051440074  nElectrons: 504.000000  magneticMoment: [ Abs: 0.04879  Tot: +0.00920 ]
	SubspaceRotationAdjust: set factor to 0.0638
ElecMinimize: Iter:  26  F: -3130.965892873153280  |grad|_K:  4.069e-06  alpha:  2.427e-01  linmin: -1.135e-05  t[s]:    126.32
	FillingsUpdate:  mu: -0.050256315  nElectrons: 504.000000  magneticMoment: [ Abs: 0.04872  Tot: +0.00973 ]
	SubspaceRotationAdjust: set factor to 0.0619
ElecMinimize: Iter:  27  F: -3130.967418920123237  |grad|_K:  3.799e-06  alpha:  2.245e-01  linmin: -1.202e-05  t[s]:    128.41
	FillingsUpdate:  mu: -0.052569342  nElectrons: 504.000000  magneticMoment: [ Abs: 0.04627  Tot: +0.00620 ]
	SubspaceRotationAdjust: set factor to 0.0664
ElecMinimize: Iter:  28  F: -3130.969574202189506  |grad|_K:  3.651e-06  alpha:  3.604e-01  linmin: -3.911e-05  t[s]:    130.51
	FillingsUpdate:  mu: -0.054337974  nElectrons: 504.000000  magneticMoment: [ Abs: 0.04493  Tot: +0.00431 ]
	SubspaceRotationAdjust: set factor to 0.0641
ElecMinimize: Iter:  29  F: -3130.970920884190946  |grad|_K:  3.261e-06  alpha:  2.383e-01  linmin: -2.185e-06  t[s]:    132.59
	FillingsUpdate:  mu: -0.054223995  nElectrons: 504.000000  magneticMoment: [ Abs: 0.04412  Tot: +0.00379 ]
	SubspaceRotationAdjust: set factor to 0.059
ElecMinimize: Iter:  30  F: -3130.972026713190644  |grad|_K:  2.939e-06  alpha:  2.542e-01  linmin:  3.325e-05  t[s]:    134.72
	FillingsUpdate:  mu: -0.053041994  nElectrons: 504.000000  magneticMoment: [ Abs: 0.04355  Tot: +0.00377 ]
	SubspaceRotationAdjust: set factor to 0.063
ElecMinimize: Iter:  31  F: -3130.972848352725578  |grad|_K:  2.445e-06  alpha:  2.350e-01  linmin: -1.551e-05  t[s]:    136.80
	FillingsUpdate:  mu: -0.052207540  nElectrons: 504.000000  magneticMoment: [ Abs: 0.04302  Tot: +0.00385 ]
	SubspaceRotationAdjust: set factor to 0.0602
ElecMinimize: Iter:  32  F: -3130.973525597024036  |grad|_K:  2.286e-06  alpha:  2.751e-01  linmin: -1.761e-05  t[s]:    138.88
	FillingsUpdate:  mu: -0.052127682  nElectrons: 504.000000  magneticMoment: [ Abs: 0.04261  Tot: +0.00391 ]
	SubspaceRotationAdjust: set factor to 0.0554
ElecMinimize: Iter:  33  F: -3130.973990735853477  |grad|_K:  1.839e-06  alpha:  2.164e-01  linmin: -9.412e-07  t[s]:    140.95
	FillingsUpdate:  mu: -0.052321008  nElectrons: 504.000000  magneticMoment: [ Abs: 0.04217  Tot: +0.00394 ]
	SubspaceRotationAdjust: set factor to 0.0558
ElecMinimize: Iter:  34  F: -3130.974395200864365  |grad|_K:  1.833e-06  alpha:  2.919e-01  linmin: -3.476e-06  t[s]:    143.04
	FillingsUpdate:  mu: -0.052464738  nElectrons: 504.000000  magneticMoment: [ Abs: 0.04173  Tot: +0.00393 ]
	SubspaceRotationAdjust: set factor to 0.0561
ElecMinimize: Iter:  35  F: -3130.974753822542425  |grad|_K:  1.511e-06  alpha:  2.605e-01  linmin: -3.000e-06  t[s]:    145.12
	FillingsUpdate:  mu: -0.052529862  nElectrons: 504.000000  magneticMoment: [ Abs: 0.04141  Tot: +0.00388 ]
	SubspaceRotationAdjust: set factor to 0.0512
ElecMinimize: Iter:  36  F: -3130.974969466437415  |grad|_K:  1.342e-06  alpha:  2.307e-01  linmin: -3.274e-06  t[s]:    147.16
	FillingsUpdate:  mu: -0.052511516  nElectrons: 504.000000  magneticMoment: [ Abs: 0.04099  Tot: +0.00369 ]
	SubspaceRotationAdjust: set factor to 0.054
ElecMinimize: Iter:  37  F: -3130.975199128029089  |grad|_K:  1.239e-06  alpha:  3.106e-01  linmin: -5.779e-05  t[s]:    149.26
	FillingsUpdate:  mu: -0.052563661  nElectrons: 504.000000  magneticMoment: [ Abs: 0.04065  Tot: +0.00339 ]
	SubspaceRotationAdjust: set factor to 0.0549
ElecMinimize: Iter:  38  F: -3130.975348401087558  |grad|_K:  1.047e-06  alpha:  2.367e-01  linmin: -2.660e-05  t[s]:    151.33
	FillingsUpdate:  mu: -0.052802901  nElectrons: 504.000000  magneticMoment: [ Abs: 0.04018  Tot: +0.00257 ]
	SubspaceRotationAdjust: set factor to 0.0556
ElecMinimize: Iter:  39  F: -3130.975516225519641  |grad|_K:  1.214e-06  alpha:  3.644e-01  linmin: -4.721e-04  t[s]:    153.42
	FillingsUpdate:  mu: -0.053801669  nElectrons: 504.000000  magneticMoment: [ Abs: 0.03934  Tot: -0.00043 ]
	SubspaceRotationAdjust: set factor to 0.0552
ElecMinimize: Iter:  40  F: -3130.975857093627837  |grad|_K:  2.464e-06  alpha:  5.743e-01  linmin:  1.405e-03  t[s]:    155.50
	FillingsUpdate:  mu: -0.054483451  nElectrons: 504.000000  magneticMoment: [ Abs: 0.03884  Tot: +0.00071 ]
	SubspaceRotationAdjust: set factor to 0.0612
ElecMinimize: Iter:  41  F: -3130.975927657607826  |grad|_K:  2.657e-06  alpha:  5.782e-02  linmin:  1.072e-03  t[s]:    157.60
	FillingsUpdate:  mu: -0.054684821  nElectrons: 504.000000  magneticMoment: [ Abs: 0.03854  Tot: +0.00168 ]
	SubspaceRotationAdjust: set factor to 0.0676
ElecMinimize: Iter:  42  F: -3130.975992193341426  |grad|_K:  2.309e-06  alpha:  3.146e-02  linmin:  7.963e-05  t[s]:    159.72
	FillingsUpdate:  mu: -0.054701829  nElectrons: 504.000000  magneticMoment: [ Abs: 0.03830  Tot: +0.00227 ]
	SubspaceRotationAdjust: set factor to 0.0711
ElecMinimize: Iter:  43  F: -3130.976068849995954  |grad|_K:  1.777e-06  alpha:  3.554e-02  linmin: -1.428e-04  t[s]:    161.83
	FillingsUpdate:  mu: -0.054607626  nElectrons: 504.000000  magneticMoment: [ Abs: 0.03812  Tot: +0.00252 ]
	SubspaceRotationAdjust: set factor to 0.0711
ElecMinimize: Iter:  44  F: -3130.976125227845841  |grad|_K:  1.563e-06  alpha:  4.261e-02  linmin: -7.957e-05  t[s]:    163.91
	FillingsUpdate:  mu: -0.054474520  nElectrons: 504.000000  magneticMoment: [ Abs: 0.03794  Tot: +0.00266 ]
	SubspaceRotationAdjust: set factor to 0.0746
ElecMinimize: Iter:  45  F: -3130.976178373762195  |grad|_K:  1.597e-06  alpha:  5.254e-02  linmin: -5.837e-05  t[s]:    165.99
	FillingsUpdate:  mu: -0.054362339  nElectrons: 504.000000  magneticMoment: [ Abs: 0.03773  Tot: +0.00272 ]
	SubspaceRotationAdjust: set factor to 0.0809
ElecMinimize: Iter:  46  F: -3130.976235427152915  |grad|_K:  1.576e-06  alpha:  5.427e-02  linmin: -3.515e-05  t[s]:    168.10
	FillingsUpdate:  mu: -0.054299461  nElectrons: 504.000000  magneticMoment: [ Abs: 0.03753  Tot: +0.00273 ]
	SubspaceRotationAdjust: set factor to 0.0842
ElecMinimize: Iter:  47  F: -3130.976285802103575  |grad|_K:  1.418e-06  alpha:  4.938e-02  linmin: -1.301e-05  t[s]:    170.15
	FillingsUpdate:  mu: -0.054249070  nElectrons: 504.000000  magneticMoment: [ Abs: 0.03735  Tot: +0.00270 ]
	SubspaceRotationAdjust: set factor to 0.0847
ElecMinimize: Iter:  48  F: -3130.976326631271149  |grad|_K:  1.321e-06  alpha:  4.952e-02  linmin: -7.334e-06  t[s]:    172.36
	FillingsUpdate:  mu: -0.054180781  nElectrons: 504.000000  magneticMoment: [ Abs: 0.03717  Tot: +0.00266 ]
	SubspaceRotationAdjust: set factor to 0.089
ElecMinimize: Iter:  49  F: -3130.976365343259204  |grad|_K:  1.327e-06  alpha:  5.415e-02  linmin: -4.910e-06  t[s]:    174.43
	FillingsUpdate:  mu: -0.054065660  nElectrons: 504.000000  magneticMoment: [ Abs: 0.03698  Tot: +0.00261 ]
	SubspaceRotationAdjust: set factor to 0.0932
ElecMinimize: Iter:  50  F: -3130.976405195350253  |grad|_K:  1.338e-06  alpha:  5.529e-02  linmin: -1.547e-06  t[s]:    176.53
	FillingsUpdate:  mu: -0.053875094  nElectrons: 504.000000  magneticMoment: [ Abs: 0.03677  Tot: +0.00254 ]
	SubspaceRotationAdjust: set factor to 0.0937
ElecMinimize: Iter:  51  F: -3130.976445025597513  |grad|_K:  1.340e-06  alpha:  5.435e-02  linmin:  2.249e-07  t[s]:    178.59
	FillingsUpdate:  mu: -0.053610679  nElectrons: 504.000000  magneticMoment: [ Abs: 0.03655  Tot: +0.00247 ]
	SubspaceRotationAdjust: set factor to 0.098
ElecMinimize: Iter:  52  F: -3130.976485746426533  |grad|_K:  1.359e-06  alpha:  5.535e-02  linmin:  2.061e-07  t[s]:    180.68
	FillingsUpdate:  mu: -0.053335602  nElectrons: 504.000000  magneticMoment: [ Abs: 0.03631  Tot: +0.00239 ]
	SubspaceRotationAdjust: set factor to 0.106
ElecMinimize: Iter:  53  F: -3130.976526659230331  |grad|_K:  1.335e-06  alpha:  5.407e-02  linmin:  9.246e-07  t[s]:    182.79
	FillingsUpdate:  mu: -0.053117814  nElectrons: 504.000000  magneticMoment: [ Abs: 0.03609  Tot: +0.00230 ]
	SubspaceRotationAdjust: set factor to 0.108
ElecMinimize: Iter:  54  F: -3130.976564605962722  |grad|_K:  1.291e-06  alpha:  5.203e-02  linmin:  2.066e-06  t[s]:    184.87
	FillingsUpdate:  mu: -0.052963746  nElectrons: 504.000000  magneticMoment: [ Abs: 0.03586  Tot: +0.00222 ]
	SubspaceRotationAdjust: set factor to 0.111
ElecMinimize: Iter:  55  F: -3130.976601789613142  |grad|_K:  1.317e-06  alpha:  5.447e-02  linmin:  2.986e-06  t[s]:    187.01
	FillingsUpdate:  mu: -0.052897533  nElectrons: 504.000000  magneticMoment: [ Abs: 0.03560  Tot: +0.00213 ]
	SubspaceRotationAdjust: set factor to 0.125
ElecMinimize: Iter:  56  F: -3130.976640690589193  |grad|_K:  1.314e-06  alpha:  5.483e-02  linmin:  5.126e-06  t[s]:    189.11
	FillingsUpdate:  mu: -0.052909901  nElectrons: 504.000000  magneticMoment: [ Abs: 0.03537  Tot: +0.00204 ]
	SubspaceRotationAdjust: set factor to 0.136
ElecMinimize: Iter:  57  F: -3130.976675784252620  |grad|_K:  1.217e-06  alpha:  4.969e-02  linmin:  6.796e-06  t[s]:    191.20
	FillingsUpdate:  mu: -0.052936733  nElectrons: 504.000000  magneticMoment: [ Abs: 0.03516  Tot: +0.00196 ]
	SubspaceRotationAdjust: set factor to 0.134
ElecMinimize: Iter:  58  F: -3130.976705303391100  |grad|_K:  1.169e-06  alpha:  4.873e-02  linmin:  1.028e-05  t[s]:    193.25
	FillingsUpdate:  mu: -0.052951611  nElectrons: 504.000000  magneticMoment: [ Abs: 0.03494  Tot: +0.00188 ]
	SubspaceRotationAdjust: set factor to 0.147
ElecMinimize: Iter:  59  F: -3130.976733846171555  |grad|_K:  1.151e-06  alpha:  5.118e-02  linmin:  1.726e-05  t[s]:    195.35
	FillingsUpdate:  mu: -0.052952708  nElectrons: 504.000000  magneticMoment: [ Abs: 0.03474  Tot: +0.00181 ]
	SubspaceRotationAdjust: set factor to 0.164
ElecMinimize: Iter:  60  F: -3130.976758864247131  |grad|_K:  1.060e-06  alpha:  4.630e-02  linmin:  1.381e-05  t[s]:    197.41
	FillingsUpdate:  mu: -0.052937427  nElectrons: 504.000000  magneticMoment: [ Abs: 0.03456  Tot: +0.00175 ]
	SubspaceRotationAdjust: set factor to 0.164
ElecMinimize: Iter:  61  F: -3130.976779600153350  |grad|_K:  1.034e-06  alpha:  4.522e-02  linmin:  1.354e-05  t[s]:    199.50
	FillingsUpdate:  mu: -0.052924481  nElectrons: 504.000000  magneticMoment: [ Abs: 0.03436  Tot: +0.00168 ]
	SubspaceRotationAdjust: set factor to 0.176
ElecMinimize: Iter:  62  F: -3130.976801093351696  |grad|_K:  1.078e-06  alpha:  4.937e-02  linmin:  1.899e-05  t[s]:    201.55
	FillingsUpdate:  mu: -0.052959049  nElectrons: 504.000000  magneticMoment: [ Abs: 0.03415  Tot: +0.00162 ]
	SubspaceRotationAdjust: set factor to 0.197
ElecMinimize: Iter:  63  F: -3130.976821607303464  |grad|_K:  1.014e-06  alpha:  4.334e-02  linmin:  1.154e-05  t[s]:    203.67
	FillingsUpdate:  mu: -0.053041333  nElectrons: 504.000000  magneticMoment: [ Abs: 0.03397  Tot: +0.00156 ]
	SubspaceRotationAdjust: set factor to 0.204
ElecMinimize: Iter:  64  F: -3130.976838459381725  |grad|_K:  9.662e-07  alpha:  4.021e-02  linmin:  8.635e-06  t[s]:    205.77
	FillingsUpdate:  mu: -0.053179551  nElectrons: 504.000000  magneticMoment: [ Abs: 0.03377  Tot: +0.00150 ]
	SubspaceRotationAdjust: set factor to 0.234
ElecMinimize: Iter:  65  F: -3130.976854980494863  |grad|_K:  9.732e-07  alpha:  4.340e-02  linmin:  9.104e-06  t[s]:    207.81
	FillingsUpdate:  mu: -0.053346015  nElectrons: 504.000000  magneticMoment: [ Abs: 0.03358  Tot: +0.00144 ]
	SubspaceRotationAdjust: set factor to 0.278
ElecMinimize: Iter:  66  F: -3130.976869984611312  |grad|_K:  8.963e-07  alpha:  3.883e-02  linmin:  3.832e-06  t[s]:    209.92
	FillingsUpdate:  mu: -0.053486563  nElectrons: 504.000000  magneticMoment: [ Abs: 0.03340  Tot: +0.00139 ]
	SubspaceRotationAdjust: set factor to 0.303
ElecMinimize: Iter:  67  F: -3130.976882656448652  |grad|_K:  9.144e-07  alpha:  3.860e-02  linmin:  1.981e-06  t[s]:    212.11
	FillingsUpdate:  mu: -0.053621232  nElectrons: 504.000000  magneticMoment: [ Abs: 0.03317  Tot: +0.00132 ]
	SubspaceRotationAdjust: set factor to 0.384
ElecMinimize: Iter:  68  F: -3130.976897971771905  |grad|_K:  9.985e-07  alpha:  4.479e-02  linmin:  1.567e-06  t[s]:    214.22
	FillingsUpdate:  mu: -0.053701831  nElectrons: 504.000000  magneticMoment: [ Abs: 0.03292  Tot: +0.00125 ]
	SubspaceRotationAdjust: set factor to 0.458
ElecMinimize: Iter:  69  F: -3130.976912872181401  |grad|_K:  9.834e-07  alpha:  3.653e-02  linmin:  5.338e-07  t[s]:    216.29
	FillingsUpdate:  mu: -0.053705661  nElectrons: 504.000000  magneticMoment: [ Abs: 0.03262  Tot: +0.00116 ]
	SubspaceRotationAdjust: set factor to 0.537
ElecMinimize: Iter:  70  F: -3130.976929192178886  |grad|_K:  1.152e-06  alpha:  4.123e-02  linmin:  4.033e-07  t[s]:    218.39
	FillingsUpdate:  mu: -0.053666991  nElectrons: 504.000000  magneticMoment: [ Abs: 0.03228  Tot: +0.00107 ]
	SubspaceRotationAdjust: set factor to 0.693
ElecMinimize: Iter:  71  F: -3130.976946598963877  |grad|_K:  1.052e-06  alpha:  3.202e-02  linmin:  5.146e-07  t[s]:    220.51
	FillingsUpdate:  mu: -0.053611982  nElectrons: 504.000000  magneticMoment: [ Abs: 0.03197  Tot: +0.00097 ]
	SubspaceRotationAdjust: set factor to 0.743
ElecMinimize: Iter:  72  F: -3130.976961410989588  |grad|_K:  1.204e-06  alpha:  3.271e-02  linmin: -4.755e-07  t[s]:    222.60
	FillingsUpdate:  mu: -0.053567886  nElectrons: 504.000000  magneticMoment: [ Abs: 0.03163  Tot: +0.00088 ]
	SubspaceRotationAdjust: set factor to 0.987
ElecMinimize: Iter:  73  F: -3130.976976326096974  |grad|_K:  1.014e-06  alpha:  2.514e-02  linmin: -7.590e-07  t[s]:    224.71
	FillingsUpdate:  mu: -0.053534230  nElectrons: 504.000000  magneticMoment: [ Abs: 0.03132  Tot: +0.00079 ]
	SubspaceRotationAdjust: set factor to 1.03
	SubspaceRotationAdjust: resetting CG because factor has changed by 7.70004
ElecMinimize: 	State modified externally: resetting search direction.
ElecMinimize: Iter:  74  F: -3130.976988878118391  |grad|_K:  1.216e-06  alpha:  2.976e-02
	FillingsUpdate:  mu: -0.053502021  nElectrons: 504.000000  magneticMoment: [ Abs: 0.03129  Tot: +0.00078 ]
	SubspaceRotationAdjust: set factor to 0.681
ElecMinimize: Iter:  75  F: -3130.977003598791725  |grad|_K:  1.657e-06  alpha:  2.433e-02  linmin: -1.447e-06  t[s]:    230.08
ElecMinimize: 	Predicted alpha/alphaT>3.000000, increasing alphaT to 7.300164e-02.
	FillingsUpdate:  mu: -0.053285183  nElectrons: 504.000000  magneticMoment: [ Abs: 0.03095  Tot: +0.00070 ]
	SubspaceRotationAdjust: set factor to 0.771
ElecMinimize: Iter:  76  F: -3130.977116502228455  |grad|_K:  7.402e-07  alpha:  9.906e-02  linmin: -1.059e-03  t[s]:    232.72
	FillingsUpdate:  mu: -0.053371280  nElectrons: 504.000000  magneticMoment: [ Abs: 0.03059  Tot: +0.00064 ]
	SubspaceRotationAdjust: set factor to 0.806
ElecMinimize: Iter:  77  F: -3130.977175015648754  |grad|_K:  5.826e-07  alpha:  2.468e-01  linmin: -1.324e-03  t[s]:    234.83
	FillingsUpdate:  mu: -0.053345350  nElectrons: 504.000000  magneticMoment: [ Abs: 0.03052  Tot: +0.00062 ]
	SubspaceRotationAdjust: set factor to 0.533
ElecMinimize: Iter:  78  F: -3130.977180793160187  |grad|_K:  9.270e-07  alpha:  4.031e-02  linmin:  4.599e-05  t[s]:    236.95
	FillingsUpdate:  mu: -0.053220576  nElectrons: 504.000000  magneticMoment: [ Abs: 0.03011  Tot: +0.00055 ]
	SubspaceRotationAdjust: set factor to 0.538
ElecMinimize: Iter:  79  F: -3130.977209527323794  |grad|_K:  5.267e-07  alpha:  8.124e-02  linmin: -3.550e-04  t[s]:    239.05
	FillingsUpdate:  mu: -0.053465457  nElectrons: 504.000000  magneticMoment: [ Abs: 0.02980  Tot: +0.00049 ]
	SubspaceRotationAdjust: set factor to 0.389
ElecMinimize: Iter:  80  F: -3130.977226078347940  |grad|_K:  6.678e-07  alpha:  1.434e-01  linmin: -6.440e-05  t[s]:    241.14
	FillingsUpdate:  mu: -0.053478837  nElectrons: 504.000000  magneticMoment: [ Abs: 0.02969  Tot: +0.00047 ]
	SubspaceRotationAdjust: set factor to 0.258
ElecMinimize: Iter:  81  F: -3130.977231432475946  |grad|_K:  4.984e-07  alpha:  2.926e-02  linmin:  1.542e-05  t[s]:    243.20
ElecMinimize: 	Predicted alpha/alphaT>3.000000, increasing alphaT to 8.776845e-02.
	FillingsUpdate:  mu: -0.053233855  nElectrons: 504.000000  magneticMoment: [ Abs: 0.02932  Tot: +0.00041 ]
	SubspaceRotationAdjust: set factor to 0.295
ElecMinimize: Iter:  82  F: -3130.977245675408994  |grad|_K:  4.281e-07  alpha:  1.401e-01  linmin: -1.745e-05  t[s]:    245.81
	FillingsUpdate:  mu: -0.053236694  nElectrons: 504.000000  magneticMoment: [ Abs: 0.02918  Tot: +0.00039 ]
	SubspaceRotationAdjust: set factor to 0.223
ElecMinimize: Iter:  83  F: -3130.977250422914040  |grad|_K:  4.408e-07  alpha:  6.323e-02  linmin:  2.670e-07  t[s]:    247.92
	FillingsUpdate:  mu: -0.053442848  nElectrons: 504.000000  magneticMoment: [ Abs: 0.02882  Tot: +0.00034 ]
	SubspaceRotationAdjust: set factor to 0.269
ElecMinimize: Iter:  84  F: -3130.977260919293258  |grad|_K:  3.007e-07  alpha:  1.319e-01  linmin: -3.936e-06  t[s]:    250.00
	FillingsUpdate:  mu: -0.053477627  nElectrons: 504.000000  magneticMoment: [ Abs: 0.02860  Tot: +0.00031 ]
	SubspaceRotationAdjust: set factor to 0.19
ElecMinimize: Iter:  85  F: -3130.977266396426330  |grad|_K:  4.305e-07  alpha:  1.479e-01  linmin: -1.795e-07  t[s]:    252.19
	FillingsUpdate:  mu: -0.053475398  nElectrons: 504.000000  magneticMoment: [ Abs: 0.02838  Tot: +0.00028 ]
	SubspaceRotationAdjust: set factor to 0.141
ElecMinimize: Iter:  86  F: -3130.977271266249318  |grad|_K:  2.590e-07  alpha:  6.415e-02  linmin: -4.657e-06  t[s]:    254.27
ElecMinimize: 	Predicted alpha/alphaT>3.000000, increasing alphaT to 1.924577e-01.
	FillingsUpdate:  mu: -0.053424416  nElectrons: 504.000000  magneticMoment: [ Abs: 0.02802  Tot: +0.00024 ]
	SubspaceRotationAdjust: set factor to 0.156
ElecMinimize: Iter:  87  F: -3130.977277855848115  |grad|_K:  2.926e-07  alpha:  2.399e-01  linmin: -4.883e-06  t[s]:    256.90
	FillingsUpdate:  mu: -0.053434748  nElectrons: 504.000000  magneticMoment: [ Abs: 0.02781  Tot: +0.00022 ]
	SubspaceRotationAdjust: set factor to 0.115
	SubspaceRotationAdjust: resetting CG because factor has changed by 0.111748
ElecMinimize: 	State modified externally: resetting search direction.
ElecMinimize: Iter:  88  F: -3130.977281409737316  |grad|_K:  2.385e-07  alpha:  1.014e-01
	FillingsUpdate:  mu: -0.053470504  nElectrons: 504.000000  magneticMoment: [ Abs: 0.02779  Tot: +0.00022 ]
	SubspaceRotationAdjust: set factor to 0.131
ElecMinimize: Iter:  89  F: -3130.977284056614735  |grad|_K:  1.514e-07  alpha:  1.136e-01  linmin:  7.630e-06  t[s]:    262.25
	FillingsUpdate:  mu: -0.053504063  nElectrons: 504.000000  magneticMoment: [ Abs: 0.02775  Tot: +0.00022 ]
	SubspaceRotationAdjust: set factor to 0.102
ElecMinimize: Iter:  90  F: -3130.977285552889498  |grad|_K:  1.331e-07  alpha:  1.593e-01  linmin:  2.724e-06  t[s]:    264.31
	FillingsUpdate:  mu: -0.053518690  nElectrons: 504.000000  magneticMoment: [ Abs: 0.02761  Tot: +0.00021 ]
	SubspaceRotationAdjust: set factor to 0.0922
ElecMinimize: Iter:  91  F: -3130.977287846487343  |grad|_K:  1.297e-07  alpha:  3.161e-01  linmin: -7.867e-06  t[s]:    266.40
	FillingsUpdate:  mu: -0.053483588  nElectrons: 504.000000  magneticMoment: [ Abs: 0.02734  Tot: +0.00021 ]
	SubspaceRotationAdjust: set factor to 0.0839
ElecMinimize: Iter:  92  F: -3130.977291097845409  |grad|_K:  1.614e-07  alpha:  4.722e-01  linmin: -5.860e-06  t[s]:    268.47
	FillingsUpdate:  mu: -0.053485016  nElectrons: 504.000000  magneticMoment: [ Abs: 0.02712  Tot: +0.00020 ]
	SubspaceRotationAdjust: set factor to 0.0621
ElecMinimize: Iter:  93  F: -3130.977293358863790  |grad|_K:  1.569e-07  alpha:  2.118e-01  linmin: -7.331e-06  t[s]:    270.57
	FillingsUpdate:  mu: -0.053522254  nElectrons: 504.000000  magneticMoment: [ Abs: 0.02683  Tot: +0.00019 ]
	SubspaceRotationAdjust: set factor to 0.0555
ElecMinimize: Iter:  94  F: -3130.977296020435460  |grad|_K:  1.346e-07  alpha:  2.640e-01  linmin: -2.889e-07  t[s]:    272.63
	FillingsUpdate:  mu: -0.053540626  nElectrons: 504.000000  magneticMoment: [ Abs: 0.02652  Tot: +0.00018 ]
	SubspaceRotationAdjust: set factor to 0.0572
ElecMinimize: Iter:  95  F: -3130.977298440646791  |grad|_K:  1.137e-07  alpha:  3.263e-01  linmin:  1.923e-06  t[s]:    274.72
	FillingsUpdate:  mu: -0.053498825  nElectrons: 504.000000  magneticMoment: [ Abs: 0.02625  Tot: +0.00017 ]
	SubspaceRotationAdjust: set factor to 0.0551
ElecMinimize: Iter:  96  F: -3130.977300318496873  |grad|_K:  1.241e-07  alpha:  3.548e-01  linmin:  1.618e-06  t[s]:    276.77
	FillingsUpdate:  mu: -0.053468954  nElectrons: 504.000000  magneticMoment: [ Abs: 0.02600  Tot: +0.00017 ]
	SubspaceRotationAdjust: set factor to 0.0476
ElecMinimize: Iter:  97  F: -3130.977301895221444  |grad|_K:  8.707e-08  alpha:  2.501e-01  linmin:  2.835e-06  t[s]:    278.87
	FillingsUpdate:  mu: -0.053476379  nElectrons: 504.000000  magneticMoment: [ Abs: 0.02584  Tot: +0.00016 ]
	SubspaceRotationAdjust: set factor to 0.044
ElecMinimize: Iter:  98  F: -3130.977302811691061  |grad|_K:  8.204e-08  alpha:  2.953e-01  linmin:  8.776e-06  t[s]:    280.92
	FillingsUpdate:  mu: -0.053473695  nElectrons: 504.000000  magneticMoment: [ Abs: 0.02571  Tot: +0.00016 ]
	SubspaceRotationAdjust: set factor to 0.0478
ElecMinimize: Iter:  99  F: -3130.977303477921851  |grad|_K:  4.318e-08  alpha:  2.418e-01  linmin:  7.693e-06  t[s]:    283.01
	FillingsUpdate:  mu: -0.053468483  nElectrons: 504.000000  magneticMoment: [ Abs: 0.02567  Tot: +0.00016 ]
	SubspaceRotationAdjust: set factor to 0.0458
ElecMinimize: Iter: 100  F: -3130.977303636928809  |grad|_K:  3.165e-08  alpha:  2.083e-01  linmin: -9.145e-06  t[s]:    285.14
ElecMinimize: None of the convergence criteria satisfied after 100 iterations.
Setting wave functions to eigenvectors of Hamiltonian
Converging empty states (this may take a while): |deigs|: 3.420e-04
Vacuum energy after initial minimize, F = -3130.977303636928809


-------- Electronic minimization -----------
	Linear fluid (dielectric constant: 78.4, screening length: 8.12261 Bohr) occupying 0.778928 of unit cell:	Completed after 19 iterations at t[s]:    310.31
	FillingsUpdate:  mu: -0.173369782  nElectrons: 504.000000  magneticMoment: [ Abs: 0.02468  Tot: +0.00011 ]
ElecMinimize: Iter:   0  F: -3130.975078083297831  |grad|_K:  6.345e-07  alpha:  1.000e+00
	Linear fluid (dielectric constant: 78.4, screening length: 8.12261 Bohr) occupying 0.779235 of unit cell:	Completed after 17 iterations at t[s]:    311.99
	Linear fluid (dielectric constant: 78.4, screening length: 8.12261 Bohr) occupying 0.779000 of unit cell:	Completed after 16 iterations at t[s]:    312.57
	FillingsUpdate:  mu: -0.172883073  nElectrons: 504.000000  magneticMoment: [ Abs: 0.02465  Tot: +0.00011 ]
	SubspaceRotationAdjust: set factor to 0.0446
ElecMinimize: Iter:   1  F: -3130.975116044098286  |grad|_K:  4.511e-07  alpha:  2.333e-01  linmin:  5.828e-06  t[s]:    313.61
	Linear fluid (dielectric constant: 78.4, screening length: 8.12261 Bohr) occupying 0.779098 of unit cell:	Completed after 7 iterations at t[s]:    314.17
	Linear fluid (dielectric constant: 78.4, screening length: 8.12261 Bohr) occupying 0.779184 of unit cell:	Completed after 9 iterations at t[s]:    314.74
	FillingsUpdate:  mu: -0.172244901  nElectrons: 504.000000  magneticMoment: [ Abs: 0.02457  Tot: +0.00010 ]
	SubspaceRotationAdjust: set factor to 0.0456
ElecMinimize: Iter:   2  F: -3130.975151971811556  |grad|_K:  4.355e-07  alpha:  4.367e-01  linmin:  4.933e-06  t[s]:    315.76
	Linear fluid (dielectric constant: 78.4, screening length: 8.12261 Bohr) occupying 0.779437 of unit cell:	Completed after 10 iterations at t[s]:    316.32
	Linear fluid (dielectric constant: 78.4, screening length: 8.12261 Bohr) occupying 0.779439 of unit cell:	Completed after 0 iterations at t[s]:    316.87
	FillingsUpdate:  mu: -0.171437278  nElectrons: 504.000000  magneticMoment: [ Abs: 0.02446  Tot: +0.00010 ]
	SubspaceRotationAdjust: set factor to 0.0498
ElecMinimize: Iter:   3  F: -3130.975185859615976  |grad|_K:  3.837e-07  alpha:  4.412e-01  linmin: -2.594e-06  t[s]:    317.92
	Linear fluid (dielectric constant: 78.4, screening length: 8.12261 Bohr) occupying 0.779674 of unit cell:	Completed after 11 iterations at t[s]:    318.47
	Linear fluid (dielectric constant: 78.4, screening length: 8.12261 Bohr) occupying 0.779601 of unit cell:	Completed after 8 iterations at t[s]:    319.08
	FillingsUpdate:  mu: -0.170962429  nElectrons: 504.000000  magneticMoment: [ Abs: 0.02438  Tot: +0.00010 ]
	SubspaceRotationAdjust: set factor to 0.0514
ElecMinimize: Iter:   4  F: -3130.975204349305386  |grad|_K:  2.876e-07  alpha:  3.037e-01  linmin:  5.599e-07  t[s]:    320.12
	Linear fluid (dielectric constant: 78.4, screening length: 8.12261 Bohr) occupying 0.779700 of unit cell:	Completed after 8 iterations at t[s]:    320.67
	Linear fluid (dielectric constant: 78.4, screening length: 8.12261 Bohr) occupying 0.779676 of unit cell:	Completed after 3 iterations at t[s]:    321.22
	FillingsUpdate:  mu: -0.170799214  nElectrons: 504.000000  magneticMoment: [ Abs: 0.02433  Tot: +0.00010 ]
	SubspaceRotationAdjust: set factor to 0.0515
ElecMinimize: Iter:   5  F: -3130.975212101056059  |grad|_K:  1.633e-07  alpha:  2.290e-01  linmin:  1.839e-06  t[s]:    322.30
	Linear fluid (dielectric constant: 78.4, screening length: 8.12261 Bohr) occupying 0.779701 of unit cell:	Completed after 2 iterations at t[s]:    322.85
	Linear fluid (dielectric constant: 78.4, screening length: 8.12261 Bohr) occupying 0.779718 of unit cell:	Completed after 2 iterations at t[s]:    323.40
	FillingsUpdate:  mu: -0.170780845  nElectrons: 504.000000  magneticMoment: [ Abs: 0.02427  Tot: +0.00010 ]
	SubspaceRotationAdjust: set factor to 0.0526
ElecMinimize: Iter:   6  F: -3130.975216189850016  |grad|_K:  1.612e-07  alpha:  3.775e-01  linmin: -1.720e-07  t[s]:    324.45
	Linear fluid (dielectric constant: 78.4, screening length: 8.12261 Bohr) occupying 0.779759 of unit cell:	Completed after 3 iterations at t[s]:    324.99
	Linear fluid (dielectric constant: 78.4, screening length: 8.12261 Bohr) occupying 0.779744 of unit cell:	Completed after 3 iterations at t[s]:    325.55
	FillingsUpdate:  mu: -0.170749290  nElectrons: 504.000000  magneticMoment: [ Abs: 0.02422  Tot: +0.00010 ]
	SubspaceRotationAdjust: set factor to 0.0544
ElecMinimize: Iter:   7  F: -3130.975218732892245  |grad|_K:  1.021e-07  alpha:  2.406e-01  linmin: -1.525e-07  t[s]:    326.56
	Linear fluid (dielectric constant: 78.4, screening length: 8.12261 Bohr) occupying 0.779754 of unit cell:	Completed after 0 iterations at t[s]:    327.10
	Linear fluid (dielectric constant: 78.4, screening length: 8.12261 Bohr) occupying 0.779761 of unit cell:	Completed after 2 iterations at t[s]:    327.65
	FillingsUpdate:  mu: -0.170718991  nElectrons: 504.000000  magneticMoment: [ Abs: 0.02415  Tot: +0.00010 ]
	SubspaceRotationAdjust: set factor to 0.0562
ElecMinimize: Iter:   8  F: -3130.975220431183516  |grad|_K:  1.060e-07  alpha:  4.117e-01  linmin:  1.957e-06  t[s]:    328.69
	Linear fluid (dielectric constant: 78.4, screening length: 8.12261 Bohr) occupying 0.779779 of unit cell:	Completed after 3 iterations at t[s]:    329.23
	Linear fluid (dielectric constant: 78.4, screening length: 8.12261 Bohr) occupying 0.779773 of unit cell:	Completed after 0 iterations at t[s]:    329.82
	FillingsUpdate:  mu: -0.170691361  nElectrons: 504.000000  magneticMoment: [ Abs: 0.02408  Tot: +0.00010 ]
	SubspaceRotationAdjust: set factor to 0.0588
ElecMinimize: Iter:   9  F: -3130.975221752965808  |grad|_K:  7.663e-08  alpha:  2.944e-01  linmin:  1.407e-06  t[s]:    330.86
	Linear fluid (dielectric constant: 78.4, screening length: 8.12261 Bohr) occupying 0.779781 of unit cell:	Completed after 2 iterations at t[s]:    331.41
	Linear fluid (dielectric constant: 78.4, screening length: 8.12261 Bohr) occupying 0.779780 of unit cell:	Completed after 0 iterations at t[s]:    331.99
	FillingsUpdate:  mu: -0.170673120  nElectrons: 504.000000  magneticMoment: [ Abs: 0.02403  Tot: +0.00009 ]
	SubspaceRotationAdjust: set factor to 0.062
ElecMinimize: Iter:  10  F: -3130.975222406696957  |grad|_K:  6.751e-08  alpha:  2.792e-01  linmin: -1.981e-06  t[s]:    333.04
	Linear fluid (dielectric constant: 78.4, screening length: 8.12261 Bohr) occupying 0.779785 of unit cell:	Completed after 2 iterations at t[s]:    333.58
	Linear fluid (dielectric constant: 78.4, screening length: 8.12261 Bohr) occupying 0.779786 of unit cell:	Completed after 0 iterations at t[s]:    334.14
	FillingsUpdate:  mu: -0.170665362  nElectrons: 504.000000  magneticMoment: [ Abs: 0.02395  Tot: +0.00009 ]
	SubspaceRotationAdjust: set factor to 0.0678
ElecMinimize: Iter:  11  F: -3130.975223021614511  |grad|_K:  5.201e-08  alpha:  3.147e-01  linmin: -1.322e-06  t[s]:    335.18
	Linear fluid (dielectric constant: 78.4, screening length: 8.12261 Bohr) occupying 0.779789 of unit cell:	Completed after 0 iterations at t[s]:    335.72
	Linear fluid (dielectric constant: 78.4, screening length: 8.12261 Bohr) occupying 0.779790 of unit cell:	Completed after 0 iterations at t[s]:    336.27
	FillingsUpdate:  mu: -0.170665473  nElectrons: 504.000000  magneticMoment: [ Abs: 0.02386  Tot: +0.00009 ]
	SubspaceRotationAdjust: set factor to 0.0741
ElecMinimize: Iter:  12  F: -3130.975223495765931  |grad|_K:  5.210e-08  alpha:  4.149e-01  linmin: -3.563e-09  t[s]:    337.31
	Linear fluid (dielectric constant: 78.4, screening length: 8.12261 Bohr) occupying 0.779793 of unit cell:	Completed after 3 iterations at t[s]:    337.85
	Linear fluid (dielectric constant: 78.4, screening length: 8.12261 Bohr) occupying 0.779791 of unit cell:	Completed after 0 iterations at t[s]:    338.40
	FillingsUpdate:  mu: -0.170674599  nElectrons: 504.000000  magneticMoment: [ Abs: 0.02380  Tot: +0.00009 ]
	SubspaceRotationAdjust: set factor to 0.078
ElecMinimize: Iter:  13  F: -3130.975223703983374  |grad|_K:  5.800e-08  alpha:  2.036e-01  linmin:  1.520e-06  t[s]:    339.43
	Linear fluid (dielectric constant: 78.4, screening length: 8.12261 Bohr) occupying 0.779793 of unit cell:	Completed after 2 iterations at t[s]:    339.97
	Linear fluid (dielectric constant: 78.4, screening length: 8.12261 Bohr) occupying 0.779793 of unit cell:	Completed after 0 iterations at t[s]:    340.52
	FillingsUpdate:  mu: -0.170661673  nElectrons: 504.000000  magneticMoment: [ Abs: 0.02374  Tot: +0.00009 ]
	SubspaceRotationAdjust: set factor to 0.0829
ElecMinimize: Iter:  14  F: -3130.975223859032212  |grad|_K:  5.305e-08  alpha:  1.396e-01  linmin: -5.892e-07  t[s]:    341.57
	Linear fluid (dielectric constant: 78.4, screening length: 8.12261 Bohr) occupying 0.779794 of unit cell:	Completed after 0 iterations at t[s]:    342.11
	Linear fluid (dielectric constant: 78.4, screening length: 8.12261 Bohr) occupying 0.779795 of unit cell:	Completed after 1 iterations at t[s]:    342.67
	FillingsUpdate:  mu: -0.170657156  nElectrons: 504.000000  magneticMoment: [ Abs: 0.02362  Tot: +0.00009 ]
	SubspaceRotationAdjust: set factor to 0.0928
ElecMinimize: Iter:  15  F: -3130.975224162741142  |grad|_K:  4.260e-08  alpha:  2.657e-01  linmin:  5.053e-07  t[s]:    343.70
	Linear fluid (dielectric constant: 78.4, screening length: 8.12261 Bohr) occupying 0.779796 of unit cell:	Completed after 2 iterations at t[s]:    344.24
	Linear fluid (dielectric constant: 78.4, screening length: 8.12261 Bohr) occupying 0.779796 of unit cell:	Completed after 0 iterations at t[s]:    344.79
	FillingsUpdate:  mu: -0.170643587  nElectrons: 504.000000  magneticMoment: [ Abs: 0.02353  Tot: +0.00008 ]
	SubspaceRotationAdjust: set factor to 0.102
ElecMinimize: Iter:  16  F: -3130.975224328960849  |grad|_K:  3.942e-08  alpha:  2.352e-01  linmin: -9.043e-07  t[s]:    345.84
	Linear fluid (dielectric constant: 78.4, screening length: 8.12261 Bohr) occupying 0.779797 of unit cell:	Completed after 0 iterations at t[s]:    346.38
	Linear fluid (dielectric constant: 78.4, screening length: 8.12261 Bohr) occupying 0.779797 of unit cell:	Completed after 2 iterations at t[s]:    346.94
	FillingsUpdate:  mu: -0.170638156  nElectrons: 504.000000  magneticMoment: [ Abs: 0.02338  Tot: +0.00008 ]
	SubspaceRotationAdjust: set factor to 0.108
ElecMinimize: Iter:  17  F: -3130.975224553461430  |grad|_K:  4.633e-08  alpha:  3.728e-01  linmin:  8.526e-07  t[s]:    348.01
	Linear fluid (dielectric constant: 78.4, screening length: 8.12261 Bohr) occupying 0.779798 of unit cell:	Completed after 3 iterations at t[s]:    348.56
	Linear fluid (dielectric constant: 78.4, screening length: 8.12261 Bohr) occupying 0.779797 of unit cell:	Completed after 0 iterations at t[s]:    349.11
	FillingsUpdate:  mu: -0.170627414  nElectrons: 504.000000  magneticMoment: [ Abs: 0.02325  Tot: +0.00008 ]
	SubspaceRotationAdjust: set factor to 0.114
ElecMinimize: Iter:  18  F: -3130.975224715484728  |grad|_K:  3.931e-08  alpha:  1.917e-01  linmin:  7.877e-07  t[s]:    350.16
	Linear fluid (dielectric constant: 78.4, screening length: 8.12261 Bohr) occupying 0.779798 of unit cell:	Completed after 1 iterations at t[s]:    350.70
	Linear fluid (dielectric constant: 78.4, screening length: 8.12261 Bohr) occupying 0.779798 of unit cell:	Completed after 0 iterations at t[s]:    351.29
	FillingsUpdate:  mu: -0.170617024  nElectrons: 504.000000  magneticMoment: [ Abs: 0.02315  Tot: +0.00007 ]
	SubspaceRotationAdjust: set factor to 0.117
ElecMinimize: Iter:  19  F: -3130.975224804670688  |grad|_K:  3.514e-08  alpha:  1.610e-01  linmin: -1.090e-06  t[s]:    352.43
	Linear fluid (dielectric constant: 78.4, screening length: 8.12261 Bohr) occupying 0.779798 of unit cell:	Completed after 0 iterations at t[s]:    352.97
	Linear fluid (dielectric constant: 78.4, screening length: 8.12261 Bohr) occupying 0.779798 of unit cell:	Completed after 0 iterations at t[s]:    353.53
	FillingsUpdate:  mu: -0.170614623  nElectrons: 504.000000  magneticMoment: [ Abs: 0.02299  Tot: +0.00007 ]
	SubspaceRotationAdjust: set factor to 0.127
ElecMinimize: Iter:  20  F: -3130.975224949503627  |grad|_K:  3.127e-08  alpha:  2.718e-01  linmin:  1.453e-07  t[s]:    354.59
	Linear fluid (dielectric constant: 78.4, screening length: 8.12261 Bohr) occupying 0.779798 of unit cell:	Completed after 3 iterations at t[s]:    355.13
	Linear fluid (dielectric constant: 78.4, screening length: 8.12261 Bohr) occupying 0.779798 of unit cell:	Completed after 0 iterations at t[s]:    355.68
	FillingsUpdate:  mu: -0.170581802  nElectrons: 504.000000  magneticMoment: [ Abs: 0.02290  Tot: +0.00007 ]
	SubspaceRotationAdjust: set factor to 0.121
ElecMinimize: Iter:  21  F: -3130.975225011406565  |grad|_K:  3.338e-08  alpha:  1.699e-01  linmin:  5.495e-07  t[s]:    356.74
	Linear fluid (dielectric constant: 78.4, screening length: 8.12261 Bohr) occupying 0.779798 of unit cell:	Completed after 0 iterations at t[s]:    357.27
	Linear fluid (dielectric constant: 78.4, screening length: 8.12261 Bohr) occupying 0.779798 of unit cell:	Completed after 0 iterations at t[s]:    357.82
	FillingsUpdate:  mu: -0.170581868  nElectrons: 504.000000  magneticMoment: [ Abs: 0.02275  Tot: +0.00006 ]
	SubspaceRotationAdjust: set factor to 0.149
ElecMinimize: Iter:  22  F: -3130.975225098276496  |grad|_K:  3.853e-08  alpha:  2.017e-01  linmin:  1.805e-08  t[s]:    358.87
ElecMinimize: Converged (|Delta F|<1.000000e-07 for 2 iters).
Setting wave functions to eigenvectors of Hamiltonian
Converging empty states (this may take a while): |deigs|: 3.139e-06
Single-point solvation energy estimate, DeltaF = +0.002078538652313

Computing DFT-D3 correction:
# coordination-number Cr 8.539 11.841 11.841 8.539 8.539 11.841 11.841 8.539 8.539 11.841 11.841 8.539 8.539 11.841 11.841 8.539 8.539 11.841 11.841 8.539 8.539 11.841 11.841 8.539 8.539 11.841 11.841 8.539 8.539 11.841 11.841 8.539 8.539 11.841 11.841 8.539
# diagonal-C6 Cr 153.34 153.34 153.34 153.34 153.34 153.34 153.34 153.34 153.34 153.34 153.34 153.34 153.34 153.34 153.34 153.34 153.34 153.34 153.34 153.34 153.34 153.34 153.34 153.34 153.34 153.34 153.34 153.34 153.34 153.34 153.34 153.34 153.34 153.34 153.34 153.34
EvdW_6 =   -0.140119
EvdW_8 =   -0.244263

# Ionic positions in cartesian coordinates:
ion Cr   0.647365000000000   0.916147000000000  21.623134000000004 0
ion Cr   2.265779000000001   3.206515000000000  25.291792999999998 1
ion Cr   0.809207000000000   1.145184000000000  29.158758000000002 1
ion Cr   2.427620999999999   3.435551000000000  32.827417000000004 1
ion Cr  -0.894387000000000   5.267845000000001  21.523981000000003 0
ion Cr   0.724027000000000   7.558213000000001  25.192640000000004 1
ion Cr  -0.732545000000000   5.496882000000001  29.059605000000001 1
ion Cr   0.885869000000000   7.787250000000000  32.728264000000003 1
ion Cr  -2.436139000000000   9.619543000000000  21.424828000000005 0
ion Cr  -0.817725000000000  11.909910999999999  25.093487000000003 1
ion Cr  -2.274298000000000   9.848580000000002  28.960452000000007 1
ion Cr  -0.655884000000000  12.138948000000001  32.629111000000009 1
ion Cr   5.264104000000001   0.916147000000000  21.523981000000003 0
ion Cr   6.882518000000000   3.206515000000000  25.192640000000004 1
ion Cr   5.425946000000001   1.145184000000000  29.059605000000001 1
ion Cr   7.044360000000001   3.435551000000000  32.728264000000003 1
ion Cr   3.722352000000001   5.267845000000001  21.424828000000005 0
ion Cr   5.340766000000001   7.558213000000001  25.093487000000003 1
ion Cr   3.884193000000001   5.496882000000001  28.960452000000007 1
ion Cr   5.502607000000000   7.787250000000000  32.629111000000009 1
ion Cr   2.180600000000001   9.619543000000000  21.325675000000000 0
ion Cr   3.799014000000001  11.909910999999999  24.994334000000002 1
ion Cr   2.342441000000000   9.848580000000002  28.861299000000002 1
ion Cr   3.960855000000001  12.138948000000001  32.529958000000001 1
ion Cr   9.880843000000002   0.916147000000000  21.424828000000005 0
ion Cr  11.499257000000002   3.206515000000000  25.093487000000003 1
ion Cr  10.042684000000000   1.145184000000000  28.960452000000007 1
ion Cr  11.661098000000003   3.435551000000000  32.629111000000009 1
ion Cr   8.339091000000002   5.267845000000001  21.325675000000000 0
ion Cr   9.957505000000001   7.558213000000001  24.994334000000002 1
ion Cr   8.500932000000001   5.496882000000001  28.861299000000002 1
ion Cr  10.119346000000000   7.787250000000000  32.529958000000001 1
ion Cr   6.797338000000001   9.619543000000000  21.226522000000003 0
ion Cr   8.415751999999999  11.909910999999999  24.895181000000004 1
ion Cr   6.959180000000001   9.848580000000002  28.762146000000001 1
ion Cr   8.577593999999999  12.138948000000001  32.430805999999997 1

# Forces in Cartesian coordinates:
force Cr   0.000099656683497   0.000179303133154   0.006615669304067 0
force Cr   0.000236646345053   0.000323805534536  -0.008480367352831 1
force Cr   0.000472270937154   0.000680411670023   0.008465933002115 1
force Cr   0.000252632890771   0.000378056166035  -0.006382810320067 1
force Cr   0.000027303701934   0.000725653411317   0.006570267204741 0
force Cr   0.000099241949758  -0.000149345249382  -0.008569380720028 1
force Cr   0.000354603617503   0.000563583542160   0.008563924222701 1
force Cr   0.000142169868358  -0.000454624661704  -0.006348700985933 1
force Cr   0.000210454730056  -0.000319968284388   0.006599570303270 0
force Cr   0.000328894948088  -0.000451413959607  -0.008494678274472 1
force Cr   0.000530520532478  -0.000159401765703   0.008490863294369 1
force Cr   0.000368554880016  -0.000092377501032  -0.006427994384031 1
force Cr   0.000694065379469   0.000259010270600   0.006587282798348 0
force Cr  -0.000177393756861   0.000048595960239  -0.008559159921642 1
force Cr   0.000415752749272   0.000521990594713   0.008550430045187 1
force Cr  -0.000455051163805  -0.000004881375715  -0.006345201993236 1
force Cr   0.000586402407881   0.000863823500022   0.006525408583076 0
force Cr  -0.000285374022270  -0.000420324931059  -0.008624186554544 1
force Cr   0.000291379807762   0.000417663141957   0.008619275389079 1
force Cr  -0.000594286766466  -0.000839309709272  -0.006350871655542 1
force Cr   0.000486738327853   0.000009857191192   0.006514414492561 0
force Cr  -0.000418269284267  -0.000516439050303  -0.008566155820622 1
force Cr   0.000187094578192  -0.000052921424614   0.008566357381384 1
force Cr  -0.000668561468659  -0.000253155273891  -0.006403974810068 1
force Cr  -0.000355747537072   0.000080220562072   0.006580489735560 0
force Cr  -0.000543806296351   0.000164209284654  -0.008502401456121 1
force Cr  -0.000323992703919   0.000446510604547   0.008501571809016 1
force Cr  -0.000206076419001   0.000320569556104  -0.006405849458065 1
force Cr  -0.000136604892317   0.000448291883059   0.006527675821976 0
force Cr  -0.000353287870844  -0.000564460624980  -0.008554128171172 1
force Cr  -0.000107120405424   0.000153994878386   0.008559245061221 1
force Cr  -0.000015540546713  -0.000735583626869  -0.006391365054308 1
force Cr  -0.000274463835378  -0.000352417078747   0.006543118834103 0
force Cr  -0.000475575925648  -0.000683473549886  -0.008471023937683 1
force Cr  -0.000232314528579  -0.000323652835925   0.008474054013465 1
force Cr  -0.000128586979113  -0.000164716446313  -0.006438764561926 1

# Energy components:
   A_diel =        0.0019549044941069
   Eewald =    57838.2581098381560878
       EH =    60496.6614973909090622
     Eloc =  -122133.7074100033059949
      Enl =      340.2177775497234506
     EvdW =       -0.3843823640354392
      Exc =     -403.3777173294712384
 Exc_core =       27.5250232605683820
       KE =      703.8333273105812395
-------------------------------------
     Etot =    -3130.9718194423785462
       TS =        0.0034056558980928
-------------------------------------
        F =    -3130.9752250982764963

IonicMinimize: Iter:   0  F: -3130.975225098276496  grad_max:  8.624e-03  t[s]:    362.70

#--- Lowdin population analysis ---
# oxidation-state Cr +0.271 +0.276 +0.278 +0.274 +0.271 +0.276 +0.278 +0.274 +0.270 +0.276 +0.277 +0.274 +0.270 +0.276 +0.277 +0.274 +0.271 +0.276 +0.278 +0.274 +0.271 +0.276 +0.278 +0.274 +0.271 +0.276 +0.278 +0.273 +0.270 +0.276 +0.277 +0.273 +0.271 +0.276 +0.278 +0.273
# magnetic-moments Cr +0.001 -0.000 +0.000 -0.001 -0.001 +0.001 -0.001 +0.001 +0.000 -0.000 +0.000 -0.001 +0.000 -0.000 +0.000 +0.000 +0.001 -0.001 +0.001 -0.001 -0.002 +0.001 -0.000 +0.001 -0.002 +0.001 -0.001 +0.001 +0.000 -0.000 -0.000 -0.000 +0.002 -0.001 +0.000 -0.000


Computing DFT-D3 correction:
# coordination-number Cr 8.550 11.829 11.836 8.559 8.550 11.831 11.838 8.560 8.550 11.829 11.837 8.558 8.550 11.831 11.838 8.560 8.551 11.831 11.840 8.560 8.551 11.830 11.839 8.558 8.550 11.829 11.837 8.558 8.551 11.830 11.839 8.558 8.550 11.828 11.837 8.557
# diagonal-C6 Cr 153.34 153.34 153.34 153.34 153.34 153.34 153.34 153.34 153.34 153.34 153.34 153.34 153.34 153.34 153.34 153.34 153.34 153.34 153.34 153.34 153.34 153.34 153.34 153.34 153.34 153.34 153.34 153.34 153.34 153.34 153.34 153.34 153.34 153.34 153.34 153.34
EvdW_6 =   -0.140116
EvdW_8 =   -0.244178

-------- Electronic minimization -----------
	Linear fluid (dielectric constant: 78.4, screening length: 8.12261 Bohr) occupying 0.779820 of unit cell:	Completed after 10 iterations at t[s]:    363.78
	FillingsUpdate:  mu: -0.170218098  nElectrons: 504.000000  magneticMoment: [ Abs: 0.02204  Tot: +0.00004 ]
ElecMinimize: Iter:   0  F: -3130.976200432058249  |grad|_K:  1.817e-06  alpha:  1.000e+00
	Linear fluid (dielectric constant: 78.4, screening length: 8.12261 Bohr) occupying 0.779834 of unit cell:	Completed after 20 iterations at t[s]:    365.48
	Linear fluid (dielectric constant: 78.4, screening length: 8.12261 Bohr) occupying 0.779822 of unit cell:	Completed after 19 iterations at t[s]:    366.06
	FillingsUpdate:  mu: -0.171234703  nElectrons: 504.000000  magneticMoment: [ Abs: 0.02201  Tot: +0.00004 ]
	SubspaceRotationAdjust: set factor to 0.106
ElecMinimize: Iter:   1  F: -3130.976413855645660  |grad|_K:  1.170e-06  alpha:  1.584e-01  linmin:  7.089e-05  t[s]:    367.11
	Linear fluid (dielectric constant: 78.4, screening length: 8.12261 Bohr) occupying 0.779827 of unit cell:	Completed after 8 iterations at t[s]:    367.67
	Linear fluid (dielectric constant: 78.4, screening length: 8.12261 Bohr) occupying 0.779831 of unit cell:	Completed after 7 iterations at t[s]:    368.23
	FillingsUpdate:  mu: -0.171205122  nElectrons: 504.000000  magneticMoment: [ Abs: 0.02195  Tot: +0.00004 ]
	SubspaceRotationAdjust: set factor to 0.114
ElecMinimize: Iter:   2  F: -3130.976573351088064  |grad|_K:  6.607e-07  alpha:  2.851e-01  linmin: -1.303e-05  t[s]:    369.27
	Linear fluid (dielectric constant: 78.4, screening length: 8.12261 Bohr) occupying 0.779839 of unit cell:	Completed after 11 iterations at t[s]:    369.83
	Linear fluid (dielectric constant: 78.4, screening length: 8.12261 Bohr) occupying 0.779838 of unit cell:	Completed after 2 iterations at t[s]:    370.39
	FillingsUpdate:  mu: -0.170471879  nElectrons: 504.000000  magneticMoment: [ Abs: 0.02190  Tot: +0.00004 ]
	SubspaceRotationAdjust: set factor to 0.127
ElecMinimize: Iter:   3  F: -3130.976616476111758  |grad|_K:  3.992e-07  alpha:  2.414e-01  linmin:  1.972e-06  t[s]:    371.42
	Linear fluid (dielectric constant: 78.4, screening length: 8.12261 Bohr) occupying 0.779841 of unit cell:	Completed after 3 iterations at t[s]:    371.96
	Linear fluid (dielectric constant: 78.4, screening length: 8.12261 Bohr) occupying 0.779842 of unit cell:	Completed after 3 iterations at t[s]:    372.52
	FillingsUpdate:  mu: -0.170447985  nElectrons: 504.000000  magneticMoment: [ Abs: 0.02184  Tot: +0.00004 ]
	SubspaceRotationAdjust: set factor to 0.141
ElecMinimize: Iter:   4  F: -3130.976638455936154  |grad|_K:  4.009e-07  alpha:  3.375e-01  linmin:  1.542e-04  t[s]:    373.57
	Linear fluid (dielectric constant: 78.4, screening length: 8.12261 Bohr) occupying 0.779847 of unit cell:	Completed after 3 iterations at t[s]:    374.11
	Linear fluid (dielectric constant: 78.4, screening length: 8.12261 Bohr) occupying 0.779848 of unit cell:	Completed after 3 iterations at t[s]:    374.67
	FillingsUpdate:  mu: -0.170302248  nElectrons: 504.000000  magneticMoment: [ Abs: 0.02170  Tot: +0.00004 ]
	SubspaceRotationAdjust: set factor to 0.154
ElecMinimize: Iter:   5  F: -3130.976664789590814  |grad|_K:  4.202e-07  alpha:  4.020e-01  linmin:  5.288e-05  t[s]:    375.73
[...]
	FillingsUpdate:  mu: -0.169779986  nElectrons: 504.000000  magneticMoment: [ Abs: 0.01339  Tot: -0.00015 ]
	SubspaceRotationAdjust: set factor to 0.278
ElecMinimize: Iter:   3  F: -3130.981684081923959  |grad|_K:  4.731e-07  alpha:  5.459e-01  linmin: -2.223e-06  t[s]:    313.83
	Linear fluid (dielectric constant: 78.4, screening length: 8.12261 Bohr) occupying 0.781407 of unit cell:	Completed after 15 iterations at t[s]:    314.39
	Linear fluid (dielectric constant: 78.4, screening length: 8.12261 Bohr) occupying 0.781174 of unit cell:	Completed after 10 iterations at t[s]:    314.96
	FillingsUpdate:  mu: -0.169264993  nElectrons: 504.000000  magneticMoment: [ Abs: 0.01328  Tot: -0.00015 ]
	SubspaceRotationAdjust: set factor to 0.211
ElecMinimize: Iter:   4  F: -3130.981705154704287  |grad|_K:  4.326e-07  alpha:  2.233e-01  linmin:  1.543e-07  t[s]:    315.97
	Linear fluid (dielectric constant: 78.4, screening length: 8.12261 Bohr) occupying 0.781321 of unit cell:	Completed after 11 iterations at t[s]:    316.52
	Linear fluid (dielectric constant: 78.4, screening length: 8.12261 Bohr) occupying 0.781263 of unit cell:	Completed after 8 iterations at t[s]:    317.08
	FillingsUpdate:  mu: -0.169125845  nElectrons: 504.000000  magneticMoment: [ Abs: 0.01320  Tot: -0.00014 ]
	SubspaceRotationAdjust: set factor to 0.14
ElecMinimize: Iter:   5  F: -3130.981715540228834  |grad|_K:  2.619e-07  alpha:  1.347e-01  linmin:  2.656e-07  t[s]:    318.11
	Linear fluid (dielectric constant: 78.4, screening length: 8.12261 Bohr) occupying 0.781299 of unit cell:	Completed after 3 iterations at t[s]:    318.65
	Linear fluid (dielectric constant: 78.4, screening length: 8.12261 Bohr) occupying 0.781322 of unit cell:	Completed after 3 iterations at t[s]:    319.20
	FillingsUpdate:  mu: -0.169112636  nElectrons: 504.000000  magneticMoment: [ Abs: 0.01312  Tot: -0.00014 ]
	SubspaceRotationAdjust: set factor to 0.146
ElecMinimize: Iter:   6  F: -3130.981721720948826  |grad|_K:  2.032e-07  alpha:  2.206e-01  linmin: -1.533e-07  t[s]:    320.23
	Linear fluid (dielectric constant: 78.4, screening length: 8.12261 Bohr) occupying 0.781361 of unit cell:	Completed after 6 iterations at t[s]:    320.78
	Linear fluid (dielectric constant: 78.4, screening length: 8.12261 Bohr) occupying 0.781372 of unit cell:	Completed after 2 iterations at t[s]:    321.33
	FillingsUpdate:  mu: -0.169067834  nElectrons: 504.000000  magneticMoment: [ Abs: 0.01303  Tot: -0.00014 ]
	SubspaceRotationAdjust: set factor to 0.144
ElecMinimize: Iter:   7  F: -3130.981726563699794  |grad|_K:  1.673e-07  alpha:  2.819e-01  linmin: -3.268e-06  t[s]:    322.35
	Linear fluid (dielectric constant: 78.4, screening length: 8.12261 Bohr) occupying 0.781407 of unit cell:	Completed after 8 iterations at t[s]:    322.90
	Linear fluid (dielectric constant: 78.4, screening length: 8.12261 Bohr) occupying 0.781396 of unit cell:	Completed after 2 iterations at t[s]:    323.45
	FillingsUpdate:  mu: -0.169057194  nElectrons: 504.000000  magneticMoment: [ Abs: 0.01297  Tot: -0.00013 ]
	SubspaceRotationAdjust: set factor to 0.115
ElecMinimize: Iter:   8  F: -3130.981728939000277  |grad|_K:  1.227e-07  alpha:  1.958e-01  linmin:  1.648e-06  t[s]:    324.51
	Linear fluid (dielectric constant: 78.4, screening length: 8.12261 Bohr) occupying 0.781410 of unit cell:	Completed after 2 iterations at t[s]:    325.06
	Linear fluid (dielectric constant: 78.4, screening length: 8.12261 Bohr) occupying 0.781418 of unit cell:	Completed after 3 iterations at t[s]:    325.61
	FillingsUpdate:  mu: -0.169089773  nElectrons: 504.000000  magneticMoment: [ Abs: 0.01288  Tot: -0.00013 ]
	SubspaceRotationAdjust: set factor to 0.12
ElecMinimize: Iter:   9  F: -3130.981730878759208  |grad|_K:  1.113e-07  alpha:  3.225e-01  linmin: -2.697e-07  t[s]:    326.64
	Linear fluid (dielectric constant: 78.4, screening length: 8.12261 Bohr) occupying 0.781437 of unit cell:	Completed after 2 iterations at t[s]:    327.18
	Linear fluid (dielectric constant: 78.4, screening length: 8.12261 Bohr) occupying 0.781433 of unit cell:	Completed after 2 iterations at t[s]:    327.74
	FillingsUpdate:  mu: -0.169084531  nElectrons: 504.000000  magneticMoment: [ Abs: 0.01280  Tot: -0.00013 ]
	SubspaceRotationAdjust: set factor to 0.117
ElecMinimize: Iter:  10  F: -3130.981732168465442  |grad|_K:  8.868e-08  alpha:  2.541e-01  linmin:  5.293e-07  t[s]:    328.79
	Linear fluid (dielectric constant: 78.4, screening length: 8.12261 Bohr) occupying 0.781442 of unit cell:	Completed after 3 iterations at t[s]:    329.33
	Linear fluid (dielectric constant: 78.4, screening length: 8.12261 Bohr) occupying 0.781443 of unit cell:	Completed after 0 iterations at t[s]:    329.87
	FillingsUpdate:  mu: -0.169054634  nElectrons: 504.000000  magneticMoment: [ Abs: 0.01272  Tot: -0.00012 ]
	SubspaceRotationAdjust: set factor to 0.115
ElecMinimize: Iter:  11  F: -3130.981732986212592  |grad|_K:  6.839e-08  alpha:  2.562e-01  linmin: -9.680e-07  t[s]:    330.90
	Linear fluid (dielectric constant: 78.4, screening length: 8.12261 Bohr) occupying 0.781448 of unit cell:	Completed after 1 iterations at t[s]:    331.44
	Linear fluid (dielectric constant: 78.4, screening length: 8.12261 Bohr) occupying 0.781450 of unit cell:	Completed after 0 iterations at t[s]:    332.03
	FillingsUpdate:  mu: -0.169041928  nElectrons: 504.000000  magneticMoment: [ Abs: 0.01263  Tot: -0.00012 ]
	SubspaceRotationAdjust: set factor to 0.118
ElecMinimize: Iter:  12  F: -3130.981733619501483  |grad|_K:  5.417e-08  alpha:  3.242e-01  linmin: -2.209e-06  t[s]:    333.09
	Linear fluid (dielectric constant: 78.4, screening length: 8.12261 Bohr) occupying 0.781454 of unit cell:	Completed after 2 iterations at t[s]:    333.63
	Linear fluid (dielectric constant: 78.4, screening length: 8.12261 Bohr) occupying 0.781453 of unit cell:	Completed after 0 iterations at t[s]:    334.18
	FillingsUpdate:  mu: -0.169057932  nElectrons: 504.000000  magneticMoment: [ Abs: 0.01257  Tot: -0.00012 ]
	SubspaceRotationAdjust: set factor to 0.119
ElecMinimize: Iter:  13  F: -3130.981733919564704  |grad|_K:  5.056e-08  alpha:  2.404e-01  linmin:  2.049e-06  t[s]:    335.20
	Linear fluid (dielectric constant: 78.4, screening length: 8.12261 Bohr) occupying 0.781455 of unit cell:	Completed after 3 iterations at t[s]:    335.74
	Linear fluid (dielectric constant: 78.4, screening length: 8.12261 Bohr) occupying 0.781455 of unit cell:	Completed after 0 iterations at t[s]:    336.29
	FillingsUpdate:  mu: -0.169057805  nElectrons: 504.000000  magneticMoment: [ Abs: 0.01251  Tot: -0.00011 ]
	SubspaceRotationAdjust: set factor to 0.111
ElecMinimize: Iter:  14  F: -3130.981734109294393  |grad|_K:  4.002e-08  alpha:  1.902e-01  linmin:  1.999e-06  t[s]:    337.32
	Linear fluid (dielectric constant: 78.4, screening length: 8.12261 Bohr) occupying 0.781456 of unit cell:	Completed after 0 iterations at t[s]:    337.85
	Linear fluid (dielectric constant: 78.4, screening length: 8.12261 Bohr) occupying 0.781457 of unit cell:	Completed after 0 iterations at t[s]:    338.44
	FillingsUpdate:  mu: -0.169057844  nElectrons: 504.000000  magneticMoment: [ Abs: 0.01242  Tot: -0.00011 ]
	SubspaceRotationAdjust: set factor to 0.12
ElecMinimize: Iter:  15  F: -3130.981734291347038  |grad|_K:  4.256e-08  alpha:  2.878e-01  linmin:  3.231e-08  t[s]:    339.48
	Linear fluid (dielectric constant: 78.4, screening length: 8.12261 Bohr) occupying 0.781458 of unit cell:	Completed after 2 iterations at t[s]:    340.02
	Linear fluid (dielectric constant: 78.4, screening length: 8.12261 Bohr) occupying 0.781457 of unit cell:	Completed after 3 iterations at t[s]:    340.58
	FillingsUpdate:  mu: -0.169035784  nElectrons: 504.000000  magneticMoment: [ Abs: 0.01238  Tot: -0.00011 ]
	SubspaceRotationAdjust: set factor to 0.112
ElecMinimize: Iter:  16  F: -3130.981734305687951  |grad|_K:  4.211e-08  alpha:  1.062e-01  linmin:  2.467e-06  t[s]:    341.58
	Linear fluid (dielectric constant: 78.4, screening length: 8.12261 Bohr) occupying 0.781458 of unit cell:	Completed after 0 iterations at t[s]:    342.11
	Linear fluid (dielectric constant: 78.4, screening length: 8.12261 Bohr) occupying 0.781458 of unit cell:	Completed after 0 iterations at t[s]:    342.66
	FillingsUpdate:  mu: -0.169035875  nElectrons: 504.000000  magneticMoment: [ Abs: 0.01232  Tot: -0.00011 ]
	SubspaceRotationAdjust: set factor to 0.135
ElecMinimize: Iter:  17  F: -3130.981734388657515  |grad|_K:  4.026e-08  alpha:  1.220e-01  linmin: -2.350e-08  t[s]:    343.69
ElecMinimize: Converged (|Delta F|<1.000000e-07 for 2 iters).
Setting wave functions to eigenvectors of Hamiltonian
Converging empty states (this may take a while): |deigs|: 3.021e-07
Single-point solvation energy estimate, DeltaF = +0.001954741227564

Computing DFT-D3 correction:
# coordination-number Cr 8.667 11.934 11.919 8.671 8.670 11.941 11.937 8.676 8.670 11.931 11.931 8.664 8.671 11.940 11.937 8.675 8.672 11.946 11.944 8.679 8.671 11.938 11.942 8.669 8.669 11.931 11.930 8.665 8.672 11.937 11.943 8.667 8.670 11.926 11.932 8.656
# diagonal-C6 Cr 153.34 153.34 153.34 153.34 153.34 153.34 153.34 153.34 153.34 153.34 153.34 153.34 153.34 153.34 153.34 153.34 153.34 153.34 153.34 153.34 153.34 153.34 153.34 153.34 153.34 153.34 153.34 153.34 153.34 153.34 153.34 153.34 153.34 153.34 153.34 153.34
EvdW_6 =   -0.140555
EvdW_8 =   -0.247426

# Ionic positions in cartesian coordinates:
ion Cr   0.647365000000000   0.916147000000000  21.623134000000004 0
ion Cr   2.266141000000000   3.206056000000000  25.188317999999999 1
ion Cr   0.807892000000000   1.144379000000000  29.084281000000004 1
ion Cr   2.427051000000000   3.435060000000000  32.649788000000001 1
ion Cr  -0.894387000000000   5.267845000000001  21.523981000000003 0
ion Cr   0.722874000000000   7.556652000000001  25.089131000000002 1
ion Cr  -0.732979000000000   5.495519000000001  28.983507000000003 1
ion Cr   0.885309000000000   7.779266000000001  32.552271000000005 1
ion Cr  -2.436139000000000   9.619543000000000  21.424828000000005 0
ion Cr  -0.818042000000000  11.905371000000002  24.990461000000003 1
ion Cr  -2.271910999999999   9.842364000000000  28.884917999999999 1
ion Cr  -0.653623000000000  12.131318000000002  32.451278000000009 1
ion Cr   5.264104000000001   0.916147000000000  21.523981000000003 0
ion Cr   6.880670000000001   3.205168000000000  25.088719999999999 1
ion Cr   5.425354000000000   1.143961000000000  28.982948000000004 1
ion Cr   7.037188000000000   3.432265000000001  32.552586000000005 1
ion Cr   3.722352000000001   5.267845000000001  21.424828000000005 0
ion Cr   5.338805000000001   7.554447000000001  24.990784000000005 1
ion Cr   3.883558000000000   5.497061000000001  28.883945000000004 1
ion Cr   5.494911000000002   7.776541000000001  32.452007000000009 1
ion Cr   2.180600000000001   9.619543000000000  21.325675000000000 0
ion Cr   3.795564000000001  11.905610000000001  24.892198000000004 1
ion Cr   2.342817000000000   9.842824000000000  28.785203000000006 1
ion Cr   3.951533000000002  12.131948000000001  32.352367999999998 1
ion Cr   9.880843000000002   0.916147000000000  21.424828000000005 0
ion Cr  11.494814999999999   3.204930000000001  24.990917000000003 1
ion Cr  10.036487000000001   1.145012000000000  28.885442000000005 1
ion Cr  11.653246000000001   3.435058000000001  32.451160000000009 1
ion Cr   8.339091000000002   5.267845000000001  21.325675000000000 0
ion Cr   9.954177000000001   7.554127000000001  24.891779000000003 1
ion Cr   8.495938000000001   5.494810000000001  28.784766000000008 1
ion Cr  10.116033000000002   7.776056000000001  32.352777000000003 1
ion Cr   6.797338000000001   9.619543000000000  21.226522000000003 0
ion Cr   8.412328000000000  11.904207000000001  24.793933000000003 1
ion Cr   6.954605000000000   9.843057000000002  28.687961000000005 1
ion Cr   8.572267000000002  12.131766000000002  32.249424000000005 1

# Forces in Cartesian coordinates:
force Cr  -0.000037755608739  -0.000032070678195  -0.000505845204906 0
force Cr   0.000008999764270   0.000236019507046   0.000200738357334 1
force Cr   0.000177747883802   0.000023227381118   0.000058456947577 1
force Cr   0.000041761827136  -0.000008155665406   0.000022295055241 1
force Cr  -0.000150754995406   0.000500842909695  -0.000723026496632 0
force Cr   0.000243189667345  -0.000209054473803   0.000179806929068 1
force Cr  -0.000086256861821   0.000042501078840  -0.000024896723297 1
force Cr   0.000019367206336  -0.000055494294383   0.000101325759622 1
force Cr   0.000014885609212  -0.000501360731864  -0.000705109107547 0
force Cr   0.000221189177973  -0.000012952151495   0.000317038267383 1
force Cr  -0.000175049543005   0.000026712993479   0.000107944366069 1
force Cr   0.000017380395265   0.000024960482441   0.000029823816599 1
force Cr   0.000526811581728   0.000023405894246  -0.000779005112650 0
force Cr  -0.000107324917037   0.000105454560305   0.000275812306829 1
force Cr  -0.000060201872356   0.000012923324790   0.000114792020281 1
force Cr  -0.000093366371328   0.000016553833199   0.000014478666623 1
force Cr   0.000424427755374   0.000621314316719  -0.000867196939857 0
force Cr  -0.000129197676540   0.000033616806447   0.000092943137494 1
force Cr  -0.000047274002451  -0.000320535718262  -0.000038493594704 1
force Cr   0.000006572450086  -0.000050214861203   0.000164295449799 1
force Cr   0.000333399947299  -0.000228670450269  -0.000859207023716 0
force Cr   0.000029503444309  -0.000153922078673   0.000162897425871 1
force Cr  -0.000221651563381   0.000210764781845  -0.000073197843589 1
force Cr  -0.000053465193855   0.000039327121475   0.000165416538663 1
force Cr  -0.000463651296436  -0.000147310856490  -0.000646843170459 0
force Cr  -0.000023708133452   0.000156039143849   0.000209293743231 1
force Cr  -0.000027030809517  -0.000082426507923  -0.000021790230584 1
force Cr  -0.000005827830453   0.000044452541128   0.000105441945458 1
force Cr  -0.000314428761398   0.000236539259054  -0.000906258692381 0
force Cr  -0.000051144603190  -0.000158396910436   0.000256678543078 1
force Cr   0.000152273003563  -0.000028001212155   0.000044106687264 1
force Cr   0.000024640006811  -0.000019890525337   0.000071652340990 1
force Cr  -0.000415439188093  -0.000575196579677  -0.000710275195850 0
force Cr  -0.000177238221364  -0.000059047848128   0.000218755506354 1
force Cr   0.000140384685455  -0.000027051275862  -0.000055997174808 1
force Cr   0.000049430842674   0.000008483450988   0.000191154334383 1

# Energy components:
   A_diel =        0.0018332864351442
   Eewald =    58077.6750459700342617
       EH =    60736.5256862095775432
     Eloc =  -122613.3655821491847746
      Enl =      340.0957833077179657
     EvdW =       -0.3879809637321764
      Exc =     -403.6062801774057220
 Exc_core =       27.5246245842952604
       KE =      704.5584476318238103
-------------------------------------
     Etot =    -3130.9784223004317028
       TS =        0.0033120882257464
-------------------------------------
        F =    -3130.9817343886575145

IonicMinimize: Iter:   0  F: -3130.981734388657515  grad_max:  3.205e-04  t[s]:    348.27
IonicMinimize: Converged (grad_max<3.889381e-04).

#--- Lowdin population analysis ---
# oxidation-state Cr +0.268 +0.275 +0.274 +0.272 +0.267 +0.274 +0.274 +0.271 +0.268 +0.274 +0.274 +0.271 +0.268 +0.274 +0.274 +0.271 +0.267 +0.274 +0.273 +0.271 +0.267 +0.274 +0.274 +0.271 +0.268 +0.275 +0.274 +0.271 +0.268 +0.274 +0.274 +0.271 +0.267 +0.275 +0.274 +0.272
# magnetic-moments Cr +0.001 -0.000 +0.000 -0.001 -0.001 +0.000 -0.000 +0.001 +0.000 -0.000 +0.000 -0.000 -0.000 -0.000 +0.000 -0.000 +0.001 -0.000 +0.000 -0.001 -0.001 +0.000 -0.000 +0.001 -0.000 +0.000 -0.000 +0.001 +0.000 -0.000 +0.000 -0.000 +0.001 -0.000 +0.000 -0.000


Dumping 'fillings' ... done
Dumping 'wfns' ... done
Dumping 'fluidState' ... done
Dumping 'force' ... done
Dumping 'n_up' ... done
Dumping 'n_dn' ... done
Dumping 'tau_up' ... done
Dumping 'tau_dn' ... done
Dumping 'd_tot' ... done
Dumping 'V_fluidTot' ... done
Dumping 'eigenvals' ... done
Dumping 'eigStats' ... 
	eMin: -2.813245 at state 0 ( [ +0.000000 +0.000000 +0.000000 ] spin 1 )
	HOMO: -0.169379 at state 10 ( [ +0.500000 +0.500000 +0.000000 ] spin 1 )
	mu  : -0.169036
	LUMO: -0.168663 at state 15 ( [ -0.250000 -0.250000 +0.000000 ] spin 1 )
	eMax: -0.115493 at state 24 ( [ +0.500000 +0.000000 +0.000000 ] spin -1 )
	HOMO-LUMO gap: +0.000716
	Optical gap  : +0.000976 at state 10 ( [ +0.500000 +0.500000 +0.000000 ] spin 1 )
Dumping 'Ecomponents' ... done
Dumping 'nbound' ... done
Dumping 'dosUp' ... done.
Dumping 'dosDn' ... done.
End date and time: Wed Feb 14 02:29:20 2024  (Duration: 0-0:05:54.67)
Done!

PROFILER:             augmentDensityGrid     0.010487 +/-     0.002165 s,  310 calls,      3.250958 s total
PROFILER:         augmentDensityGridGrad     0.285730 +/-     0.022514 s,  155 calls,     44.288141 s total
PROFILER:        augmentDensitySpherical     0.003313 +/-     0.000138 s, 2480 calls,      8.215674 s total
PROFILER:    augmentDensitySphericalGrad     0.003357 +/-     0.000113 s, 1538 calls,      5.162505 s total
PROFILER:                 augmentOverlap     0.008176 +/-     0.001583 s, 4412 calls,     36.071025 s total
PROFILER:                     changeGrid     0.000027 +/-     0.000001 s, 5564 calls,      0.150128 s total
PROFILER:        ColumnBundle::randomize     0.011322 +/-     0.000113 s,    8 calls,      0.090573 s total
PROFILER:                     diagouterI     0.018333 +/-     0.001434 s, 2504 calls,     45.906357 s total
PROFILER:              EdensityAndVscloc     0.038103 +/-     0.015409 s,  311 calls,     11.850020 s total
PROFILER:                     EnlAndGrad     0.006263 +/-     0.000105 s, 2242 calls,     14.042399 s total
PROFILER:            ExCorrCommunication     0.005549 +/-     0.008319 s, 1879 calls,     10.427331 s total
PROFILER:               ExCorrFunctional     0.000153 +/-     0.000072 s,  315 calls,      0.048282 s total
PROFILER:                    ExCorrTotal     0.033712 +/-     0.012009 s,  315 calls,     10.619313 s total
PROFILER:                   Idag_DiagV_I     0.030426 +/-     0.011828 s, 1530 calls,     46.551139 s total
PROFILER:                    initWeights     0.100141 +/-     0.000000 s,    1 calls,      0.100141 s total
PROFILER:                    inv(matrix)     0.001425 +/-     0.000028 s, 1904 calls,      2.714062 s total
PROFILER:            matrix::diagonalize     0.005610 +/-     0.000679 s, 3978 calls,     22.317694 s total
PROFILER:                    matrix::set     0.000010 +/-     0.000011 s, 138360 calls,      1.353602 s total
PROFILER:            orthoMatrix(matrix)     0.001042 +/-     0.000256 s, 2202 calls,      2.294973 s total
PROFILER:     RadialFunctionR::transform     0.005315 +/-     0.003503 s,   58 calls,      0.308256 s total
PROFILER:                    reduceKmesh     0.000003 +/-     0.000000 s,    1 calls,      0.000003 s total
PROFILER:   VanDerWaalsD3::energyAndGrad     0.353120 +/-     0.003909 s,    3 calls,      1.059360 s total
PROFILER:               WavefunctionDrag     0.215897 +/-     0.000000 s,    1 calls,      0.215897 s total
PROFILER:                            Y*M     0.002464 +/-     0.001030 s, 15308 calls,     37.716096 s total
PROFILER:                          Y1^Y2     0.003448 +/-     0.001261 s, 9716 calls,     33.497719 s total

MEMUSAGE:                   ColumnBundle     6.675179 GB
MEMUSAGE:        complexScalarFieldTilde     0.010468 GB
MEMUSAGE:                    IndexArrays     0.023946 GB
MEMUSAGE:                         matrix     0.175167 GB
MEMUSAGE:                           misc     0.012447 GB
MEMUSAGE:                     RealKernel     0.003845 GB
MEMUSAGE:                    ScalarField     0.389099 GB
MEMUSAGE:               ScalarFieldTilde     0.276123 GB
MEMUSAGE:                          Total     7.076187 GB
