
.Version 7.11.5 of ABINIT 
.(MPI version, prepared for a x86_64_darwin10.8.0_gnu4.7 computer) 

.Copyright (C) 1998-2015 ABINIT group . 
 ABINIT comes with ABSOLUTELY NO WARRANTY.
 It is free software, and you are welcome to redistribute it
 under certain conditions (GNU General Public License,
 see ~abinit/COPYING or http://www.gnu.org/copyleft/gpl.txt).

 ABINIT is a project of the Universite Catholique de Louvain,
 Corning Inc. and other collaborators, see ~abinit/doc/developers/contributors.txt .
 Please read ~abinit/doc/users/acknowledgments.html for suggested
 acknowledgments of the ABINIT effort.
 For more information, see http://www.abinit.org .

.Starting date : Fri 13 Mar 2015.
- ( at 20h08 )
  
- input  file    -> /Users/gmatteo/Coding/git_branches/abipy/abipy/data/runs/flow_mgb2_edoses/w0/t0/run.abi
- output file    -> /Users/gmatteo/Coding/git_branches/abipy/abipy/data/runs/flow_mgb2_edoses/w0/t0/run.abo
- root for input  files -> /Users/gmatteo/Coding/git_branches/abipy/abipy/data/runs/flow_mgb2_edoses/w0/t0/indata/in
- root for output files -> /Users/gmatteo/Coding/git_branches/abipy/abipy/data/runs/flow_mgb2_edoses/w0/t0/outdata/out


 Symmetries : space group P6/m m m (#191); Bravais hP (primitive hexag.)
================================================================================
 Values of the parameters that define the memory need of the present run
   intxc =         0  ionmov =         0    iscf =         7 xclevel =         1
  lmnmax =         2   lnmax =         2   mband =        11  mffmem =         1
P  mgfft =        20   mkmem =        20 mpssoang=         3     mpw =       308
  mqgrid =      3001   natom =         3    nfft =      6480    nkpt =        40
  nloalg =         4  nspden =         1 nspinor =         1  nsppol =         1
    nsym =        24  n1xccc =      2501  ntypat =         2  occopt =         4
================================================================================
P This job should need less than                       4.818 Mbytes of memory.
  Rough estimation (10% accuracy) of disk space for files :
_ WF disk file :      2.070 Mbytes ; DEN or POT disk file :      0.051 Mbytes.
================================================================================

--------------------------------------------------------------------------------
------------- Echo of variables that govern the present computation ------------
--------------------------------------------------------------------------------
-
- outvars: echo of selected default values                                      
-   accesswff0 =  0 , fftalg0 =312 , wfoptalg0 =  0
-
- outvars: echo of global parameters not present in the input file              
-  max_nthreads =    0
-
 -outvars: echo values of preprocessed input variables --------
        accesswff           1
            acell      1.0000000000E+00  1.0000000000E+00  1.0000000000E+00 Bohr
              amu      2.43050000E+01  1.08110000E+01
             ecut      1.00000000E+01 Hartree
-          fftalg         312
      fft_opt_lob           2
           iprcch           6
              kpt      0.00000000E+00  0.00000000E+00  6.25000000E-02
                       1.25000000E-01  0.00000000E+00  6.25000000E-02
                       2.50000000E-01  0.00000000E+00  6.25000000E-02
                       3.75000000E-01  0.00000000E+00  6.25000000E-02
                       5.00000000E-01  0.00000000E+00  6.25000000E-02
                       1.25000000E-01  1.25000000E-01  6.25000000E-02
                       2.50000000E-01  1.25000000E-01  6.25000000E-02
                       3.75000000E-01  1.25000000E-01  6.25000000E-02
                       2.50000000E-01  2.50000000E-01  6.25000000E-02
                       3.75000000E-01  2.50000000E-01  6.25000000E-02
                       0.00000000E+00  0.00000000E+00  1.87500000E-01
                       1.25000000E-01  0.00000000E+00  1.87500000E-01
                       2.50000000E-01  0.00000000E+00  1.87500000E-01
                       3.75000000E-01  0.00000000E+00  1.87500000E-01
                       5.00000000E-01  0.00000000E+00  1.87500000E-01
                       1.25000000E-01  1.25000000E-01  1.87500000E-01
                       2.50000000E-01  1.25000000E-01  1.87500000E-01
                       3.75000000E-01  1.25000000E-01  1.87500000E-01
                       2.50000000E-01  2.50000000E-01  1.87500000E-01
                       3.75000000E-01  2.50000000E-01  1.87500000E-01
                       0.00000000E+00  0.00000000E+00  3.12500000E-01
                       1.25000000E-01  0.00000000E+00  3.12500000E-01
                       2.50000000E-01  0.00000000E+00  3.12500000E-01
                       3.75000000E-01  0.00000000E+00  3.12500000E-01
                       5.00000000E-01  0.00000000E+00  3.12500000E-01
                       1.25000000E-01  1.25000000E-01  3.12500000E-01
                       2.50000000E-01  1.25000000E-01  3.12500000E-01
                       3.75000000E-01  1.25000000E-01  3.12500000E-01
                       2.50000000E-01  2.50000000E-01  3.12500000E-01
                       3.75000000E-01  2.50000000E-01  3.12500000E-01
                       0.00000000E+00  0.00000000E+00  4.37500000E-01
                       1.25000000E-01  0.00000000E+00  4.37500000E-01
                       2.50000000E-01  0.00000000E+00  4.37500000E-01
                       3.75000000E-01  0.00000000E+00  4.37500000E-01
                       5.00000000E-01  0.00000000E+00  4.37500000E-01
                       1.25000000E-01  1.25000000E-01  4.37500000E-01
                       2.50000000E-01  1.25000000E-01  4.37500000E-01
                       3.75000000E-01  1.25000000E-01  4.37500000E-01
                       2.50000000E-01  2.50000000E-01  4.37500000E-01
                       3.75000000E-01  2.50000000E-01  4.37500000E-01
         kptrlatt        8    0    0      0    8    0      0    0    8
          kptrlen      4.66535588E+01
P           mkmem          20
            natom           3
            nband          11
            ngfft          18      18      20
             nkpt          40
-           npkpt           2
             nsym          24
           ntypat           2
              occ      2.000000  2.000000  2.000000  2.000000  0.000000  0.000000
                       0.000000  0.000000  0.000000  0.000000  0.000000
                       2.000000  2.000000  2.000000  2.000000  0.000000  0.000000
                       0.000000  0.000000  0.000000  0.000000  0.000000
                       2.000000  2.000000  2.000000  2.000000  0.000000  0.000000
                       0.000000  0.000000  0.000000  0.000000  0.000000
                       2.000000  2.000000  2.000000  2.000000  0.000000  0.000000
                       0.000000  0.000000  0.000000  0.000000  0.000000
                       2.000000  2.000000  2.000000  2.000000  0.000000  0.000000
                       0.000000  0.000000  0.000000  0.000000  0.000000
                       2.000000  2.000000  2.000000  2.000000  0.000000  0.000000
                       0.000000  0.000000  0.000000  0.000000  0.000000
                       2.000000  2.000000  2.000000  2.000000  0.000000  0.000000
                       0.000000  0.000000  0.000000  0.000000  0.000000
                       2.000000  2.000000  2.000000  2.000000  0.000000  0.000000
                       0.000000  0.000000  0.000000  0.000000  0.000000
                       2.000000  2.000000  2.000000  2.000000  0.000000  0.000000
                       0.000000  0.000000  0.000000  0.000000  0.000000
                       2.000000  2.000000  2.000000  2.000000  0.000000  0.000000
                       0.000000  0.000000  0.000000  0.000000  0.000000
                       2.000000  2.000000  2.000000  2.000000  0.000000  0.000000
                       0.000000  0.000000  0.000000  0.000000  0.000000
                       2.000000  2.000000  2.000000  2.000000  0.000000  0.000000
                       0.000000  0.000000  0.000000  0.000000  0.000000
                       2.000000  2.000000  2.000000  2.000000  0.000000  0.000000
                       0.000000  0.000000  0.000000  0.000000  0.000000
                       2.000000  2.000000  2.000000  2.000000  0.000000  0.000000
                       0.000000  0.000000  0.000000  0.000000  0.000000
                       2.000000  2.000000  2.000000  2.000000  0.000000  0.000000
                       0.000000  0.000000  0.000000  0.000000  0.000000
                       2.000000  2.000000  2.000000  2.000000  0.000000  0.000000
                       0.000000  0.000000  0.000000  0.000000  0.000000
                       2.000000  2.000000  2.000000  2.000000  0.000000  0.000000
                       0.000000  0.000000  0.000000  0.000000  0.000000
                       2.000000  2.000000  2.000000  2.000000  0.000000  0.000000
                       0.000000  0.000000  0.000000  0.000000  0.000000
                       2.000000  2.000000  2.000000  2.000000  0.000000  0.000000
                       0.000000  0.000000  0.000000  0.000000  0.000000
                       2.000000  2.000000  2.000000  2.000000  0.000000  0.000000
                       0.000000  0.000000  0.000000  0.000000  0.000000
                       2.000000  2.000000  2.000000  2.000000  0.000000  0.000000
                       0.000000  0.000000  0.000000  0.000000  0.000000
                       2.000000  2.000000  2.000000  2.000000  0.000000  0.000000
                       0.000000  0.000000  0.000000  0.000000  0.000000
                       2.000000  2.000000  2.000000  2.000000  0.000000  0.000000
                       0.000000  0.000000  0.000000  0.000000  0.000000
                       2.000000  2.000000  2.000000  2.000000  0.000000  0.000000
                       0.000000  0.000000  0.000000  0.000000  0.000000
                       2.000000  2.000000  2.000000  2.000000  0.000000  0.000000
                       0.000000  0.000000  0.000000  0.000000  0.000000
                       2.000000  2.000000  2.000000  2.000000  0.000000  0.000000
                       0.000000  0.000000  0.000000  0.000000  0.000000
                       2.000000  2.000000  2.000000  2.000000  0.000000  0.000000
                       0.000000  0.000000  0.000000  0.000000  0.000000
                       2.000000  2.000000  2.000000  2.000000  0.000000  0.000000
                       0.000000  0.000000  0.000000  0.000000  0.000000
                       2.000000  2.000000  2.000000  2.000000  0.000000  0.000000
                       0.000000  0.000000  0.000000  0.000000  0.000000
                       2.000000  2.000000  2.000000  2.000000  0.000000  0.000000
                       0.000000  0.000000  0.000000  0.000000  0.000000
                       2.000000  2.000000  2.000000  2.000000  0.000000  0.000000
                       0.000000  0.000000  0.000000  0.000000  0.000000
                       2.000000  2.000000  2.000000  2.000000  0.000000  0.000000
                       0.000000  0.000000  0.000000  0.000000  0.000000
                       2.000000  2.000000  2.000000  2.000000  0.000000  0.000000
                       0.000000  0.000000  0.000000  0.000000  0.000000
                       2.000000  2.000000  2.000000  2.000000  0.000000  0.000000
                       0.000000  0.000000  0.000000  0.000000  0.000000
                       2.000000  2.000000  2.000000  2.000000  0.000000  0.000000
                       0.000000  0.000000  0.000000  0.000000  0.000000
                       2.000000  2.000000  2.000000  2.000000  0.000000  0.000000
                       0.000000  0.000000  0.000000  0.000000  0.000000
                       2.000000  2.000000  2.000000  2.000000  0.000000  0.000000
                       0.000000  0.000000  0.000000  0.000000  0.000000
                       2.000000  2.000000  2.000000  2.000000  0.000000  0.000000
                       0.000000  0.000000  0.000000  0.000000  0.000000
                       2.000000  2.000000  2.000000  2.000000  0.000000  0.000000
                       0.000000  0.000000  0.000000  0.000000  0.000000
                       2.000000  2.000000  2.000000  2.000000  0.000000  0.000000
                       0.000000  0.000000  0.000000  0.000000  0.000000
           occopt           4
           ortalg          -2
        paral_kgb           1
            rprim      5.0503958866E+00  2.9158474246E+00  0.0000000000E+00
                      -5.0503958866E+00  2.9158474246E+00  0.0000000000E+00
                       0.0000000000E+00  0.0000000000E+00  6.6575051698E+00
           shiftk      0.00000000E+00  0.00000000E+00  5.00000000E-01
          spgroup         191
           symrel      1  0  0   0  1  0   0  0  1      -1  0  0   0 -1  0   0  0 -1
                       0  1  0   1  0  0   0  0  1       0 -1  0  -1  0  0   0  0 -1
                       1  1  0  -1  0  0   0  0  1      -1 -1  0   1  0  0   0  0 -1
                      -1  0  0   1  1  0   0  0  1       1  0  0  -1 -1  0   0  0 -1
                       0  1  0  -1 -1  0   0  0  1       0 -1  0   1  1  0   0  0 -1
                      -1 -1  0   0  1  0   0  0  1       1  1  0   0 -1  0   0  0 -1
                      -1  0  0   0 -1  0   0  0  1       1  0  0   0  1  0   0  0 -1
                       0 -1  0  -1  0  0   0  0  1       0  1  0   1  0  0   0  0 -1
                      -1 -1  0   1  0  0   0  0  1       1  1  0  -1  0  0   0  0 -1
                       1  0  0  -1 -1  0   0  0  1      -1  0  0   1  1  0   0  0 -1
                       0 -1  0   1  1  0   0  0  1       0  1  0  -1 -1  0   0  0 -1
                       1  1  0   0 -1  0   0  0  1      -1 -1  0   0  1  0   0  0 -1
           timopt          -1
           tolvrs      1.00000000E-06
           tsmear      3.00000000E-02 Hartree
            typat      1  2  2
         wfoptalg          14
              wtk        0.00391    0.02344    0.02344    0.02344    0.01172    0.02344
                         0.04688    0.04688    0.02344    0.02344    0.00391    0.02344
                         0.02344    0.02344    0.01172    0.02344    0.04688    0.04688
                         0.02344    0.02344    0.00391    0.02344    0.02344    0.02344
                         0.01172    0.02344    0.04688    0.04688    0.02344    0.02344
                         0.00391    0.02344    0.02344    0.02344    0.01172    0.02344
                         0.04688    0.04688    0.02344    0.02344
           xangst      0.0000000000E+00  0.0000000000E+00  0.0000000000E+00
                      -8.9085146603E-01  1.5430000008E+00  1.7615000010E+00
                       8.9085146603E-01  1.5430000008E+00  1.7615000010E+00
            xcart      0.0000000000E+00  0.0000000000E+00  0.0000000000E+00
                      -1.6834652959E+00  2.9158474246E+00  3.3287525849E+00
                       1.6834652959E+00  2.9158474246E+00  3.3287525849E+00
             xred      0.0000000000E+00  0.0000000000E+00  0.0000000000E+00
                       3.3333333330E-01  6.6666666670E-01  5.0000000000E-01
                       6.6666666670E-01  3.3333333330E-01  5.0000000000E-01
            znucl       12.00000    5.00000

================================================================================

 chkinp: Checking input parameters for consistency.

================================================================================
== DATASET  1 ==================================================================
-   nproc =    2

 Exchange-correlation functional for the present dataset will be:
  LDA: new Teter (4/93) with spin-polarized option - ixc=1
 Citation for XC functional:
  S. Goedecker, M. Teter, J. Huetter, PRB 54, 1703 (1996)

 Real(R)+Recip(G) space primitive vectors, cartesian coordinates (Bohr,Bohr^-1):
 R(1)=  5.0503959  2.9158474  0.0000000  G(1)=  0.0990021  0.1714767  0.0000000
 R(2)= -5.0503959  2.9158474  0.0000000  G(2)= -0.0990021  0.1714767  0.0000000
 R(3)=  0.0000000  0.0000000  6.6575052  G(3)=  0.0000000  0.0000000  0.1502064
 Unit cell volume ucvol=  1.9607929E+02 bohr^3
 Angles (23,13,12)=  9.00000000E+01  9.00000000E+01  1.20000000E+02 degrees

 getcut: wavevector=  0.0000  0.0000  0.0000  ngfft=  18  18  20
         ecut(hartree)=     10.000   => boxcut(ratio)=   2.11034

--- Pseudopotential description ------------------------------------------------
- pspini: atom type   1  psp file is /Users/gmatteo/Coding/git_branches/abipy/abipy/data/pseudos/12mg.pspnc
- pspatm: opening atomic psp file    /Users/gmatteo/Coding/git_branches/abipy/abipy/data/pseudos/12mg.pspnc
-  Troullier-Martins psp for element  Mg        Thu Oct 27 17:30:49 EDT 1994
- 12.00000   2.00000    940714                znucl, zion, pspdat
    1    1    2    2      2001   0.00000      pspcod,pspxc,lmax,lloc,mmax,r2well
    0   3.352   8.820    1   2.5922174        l,e99.0,e99.9,nproj,rcpsp
   0.00000000   0.00000000   0.00000000   0.00000000     rms, ekb1, ekb2, epsatm
    1   1.127   1.670    1   2.5922174        l,e99.0,e99.9,nproj,rcpsp
   0.00000000   0.00000000   0.00000000   0.00000000     rms, ekb1, ekb2, epsatm
    2   0.000   0.000    0   2.5922174        l,e99.0,e99.9,nproj,rcpsp
   0.00000000   0.00000000   0.00000000   0.00000000     rms, ekb1, ekb2, epsatm
    2.54196289048337    0.05499530377757    0.78827945413088   rchrg,fchrg,qchrg
 pspatm: epsatm=   -1.54393848
         --- l  ekb(1:nproj) -->
             0    1.755924
             1    0.853613
 pspatm: atomic psp has been read  and splines computed

- pspini: atom type   2  psp file is /Users/gmatteo/Coding/git_branches/abipy/abipy/data/pseudos/5b.pspnc
- pspatm: opening atomic psp file    /Users/gmatteo/Coding/git_branches/abipy/abipy/data/pseudos/5b.pspnc
-  Troullier-Martins psp for element  B         Thu Oct 27 17:29:24 EDT 1994
-  5.00000   3.00000    940714                znucl, zion, pspdat
    1    1    1    1      2001   0.00000      pspcod,pspxc,lmax,lloc,mmax,r2well
    0   8.313  21.401    1   1.5924135        l,e99.0,e99.9,nproj,rcpsp
   0.00000000   0.00000000   0.00000000   0.00000000     rms, ekb1, ekb2, epsatm
    1  11.531  17.234    0   1.5924135        l,e99.0,e99.9,nproj,rcpsp
   0.00000000   0.00000000   0.00000000   0.00000000     rms, ekb1, ekb2, epsatm
    1.10004537463277    0.35216853368804    0.40909985967175   rchrg,fchrg,qchrg
 pspatm: epsatm=    0.59609267
         --- l  ekb(1:nproj) -->
             0    3.906219
 pspatm: atomic psp has been read  and splines computed

  -2.81402505E+00                                ecore*ucvol(ha*bohr**3)
--------------------------------------------------------------------------------

P newkpt: treating     11 bands with npw=     291 for ikpt=   1 by node    0
P newkpt: treating     11 bands with npw=     300 for ikpt=   2 by node    0
P newkpt: treating     11 bands with npw=     295 for ikpt=   3 by node    0
P newkpt: treating     11 bands with npw=     301 for ikpt=   4 by node    0
P newkpt: treating     11 bands with npw=     308 for ikpt=   5 by node    0
P newkpt: treating     11 bands with npw=     298 for ikpt=   6 by node    0
P newkpt: treating     11 bands with npw=     293 for ikpt=   7 by node    0
P newkpt: treating     11 bands with npw=     298 for ikpt=   8 by node    0
P newkpt: treating     11 bands with npw=     294 for ikpt=   9 by node    0
P newkpt: treating     11 bands with npw=     297 for ikpt=  10 by node    0
P newkpt: treating     11 bands with npw=     291 for ikpt=  11 by node    0
P newkpt: treating     11 bands with npw=     294 for ikpt=  12 by node    0
P newkpt: treating     11 bands with npw=     296 for ikpt=  13 by node    0
P newkpt: treating     11 bands with npw=     295 for ikpt=  14 by node    0
P newkpt: treating     11 bands with npw=     298 for ikpt=  15 by node    0
P newkpt: treating     11 bands with npw=     294 for ikpt=  16 by node    0
P newkpt: treating     11 bands with npw=     295 for ikpt=  17 by node    0
P newkpt: treating     11 bands with npw=     294 for ikpt=  18 by node    0
P newkpt: treating     11 bands with npw=     298 for ikpt=  19 by node    0
P newkpt: treating     11 bands with npw=     303 for ikpt=  20 by node    0
P newkpt: treating     11 bands with npw=     274 for ikpt=  21 by node    1
P newkpt: treating     11 bands with npw=     293 for ikpt=  22 by node    1
P newkpt: treating     11 bands with npw=     296 for ikpt=  23 by node    1
P newkpt: treating     11 bands with npw=     296 for ikpt=  24 by node    1
P newkpt: treating     11 bands with npw=     300 for ikpt=  25 by node    1
P newkpt: treating     11 bands with npw=     292 for ikpt=  26 by node    1
P newkpt: treating     11 bands with npw=     295 for ikpt=  27 by node    1
P newkpt: treating     11 bands with npw=     297 for ikpt=  28 by node    1
P newkpt: treating     11 bands with npw=     298 for ikpt=  29 by node    1
P newkpt: treating     11 bands with npw=     297 for ikpt=  30 by node    1
P newkpt: treating     11 bands with npw=     280 for ikpt=  31 by node    1
P newkpt: treating     11 bands with npw=     291 for ikpt=  32 by node    1
P newkpt: treating     11 bands with npw=     297 for ikpt=  33 by node    1
P newkpt: treating     11 bands with npw=     301 for ikpt=  34 by node    1
P newkpt: treating     11 bands with npw=     296 for ikpt=  35 by node    1
P newkpt: treating     11 bands with npw=     296 for ikpt=  36 by node    1
P newkpt: treating     11 bands with npw=     296 for ikpt=  37 by node    1
P newkpt: treating     11 bands with npw=     295 for ikpt=  38 by node    1
P newkpt: treating     11 bands with npw=     297 for ikpt=  39 by node    1
P newkpt: treating     11 bands with npw=     296 for ikpt=  40 by node    1

_setup2: Arith. and geom. avg. npw (full set) are     296.047     296.029

================================================================================

     iter   Etot(hartree)      deltaE(h)  residm     vres2
 ETOT  1  -7.0250417290754    -7.025E+00 2.430E-03 1.769E+02
 ETOT  2  -7.1467059890187    -1.217E-01 2.672E-04 7.920E-01
 ETOT  3  -7.1475123730445    -8.064E-04 1.155E-04 1.570E-01
 ETOT  4  -7.1476179372442    -1.056E-04 6.147E-05 4.259E-03
 ETOT  5  -7.1476240932598    -6.156E-06 1.241E-04 4.150E-05
 ETOT  6  -7.1476241568657    -6.361E-08 2.681E-05 3.879E-08

 At SCF step    6       vres2   =  3.88E-08 < tolvrs=  1.00E-06 =>converged.

 Cartesian components of stress tensor (hartree/bohr^3)
  sigma(1 1)=  6.19525691E-04  sigma(3 2)=  0.00000000E+00
  sigma(2 2)=  6.19525691E-04  sigma(3 1)=  0.00000000E+00
  sigma(3 3)=  5.35534283E-04  sigma(2 1)=  0.00000000E+00

================================================================================

 ----iterations are completed or convergence reached----

 Mean square residual over all n,k,spin=   7.1021E-08; max=  2.6812E-05
   0.0000  0.0000  0.0625    1  5.96369E-12 kpt; spin; max resid(k); each band:
  2.37E-14 5.15E-14 1.58E-17 1.19E-17 2.00E-15 1.02E-16 1.33E-16 3.37E-14
  3.94E-15 9.41E-14 5.96E-12
   0.1250  0.0000  0.0625    1  3.63751E-10 kpt; spin; max resid(k); each band:
  2.72E-14 6.10E-14 3.29E-13 1.65E-14 7.16E-13 5.45E-13 1.81E-14 3.20E-13
  1.52E-13 1.11E-11 3.64E-10
   0.2500  0.0000  0.0625    1  1.45769E-07 kpt; spin; max resid(k); each band:
  5.50E-14 5.41E-13 5.24E-13 1.88E-14 5.10E-12 1.39E-12 1.69E-12 2.19E-12
  7.67E-13 3.61E-11 1.46E-07
   0.3750  0.0000  0.0625    1  9.70839E-11 kpt; spin; max resid(k); each band:
  1.64E-13 1.56E-13 3.85E-15 1.37E-13 3.43E-11 3.85E-11 3.75E-11 9.44E-13
  2.20E-12 8.82E-11 9.71E-11
   0.5000  0.0000  0.0625    1  1.29381E-06 kpt; spin; max resid(k); each band:
  1.58E-14 5.28E-14 1.82E-17 7.79E-14 6.33E-13 5.90E-13 3.86E-14 3.85E-13
  4.07E-12 1.15E-11 1.29E-06
   0.1250  0.1250  0.0625    1  4.31287E-09 kpt; spin; max resid(k); each band:
  4.12E-14 3.15E-13 1.14E-14 4.22E-13 1.13E-12 2.42E-13 1.97E-12 2.77E-13
  1.69E-12 4.71E-12 4.31E-09
   0.2500  0.1250  0.0625    1  3.25092E-11 kpt; spin; max resid(k); each band:
  4.52E-14 7.47E-14 7.94E-13 6.52E-13 5.49E-12 2.30E-12 1.69E-12 5.03E-12
  3.79E-12 6.58E-12 3.25E-11
   0.3750  0.1250  0.0625    1  7.02345E-11 kpt; spin; max resid(k); each band:
  2.67E-13 2.60E-13 2.04E-13 1.58E-13 1.41E-12 7.02E-11 4.48E-11 2.42E-12
  1.77E-12 2.36E-11 3.05E-11
   0.2500  0.2500  0.0625    1  3.03021E-11 kpt; spin; max resid(k); each band:
  2.05E-13 9.75E-15 1.79E-13 1.46E-13 5.34E-13 1.99E-12 7.12E-13 3.03E-11
  7.73E-12 5.11E-13 1.49E-11
   0.3750  0.2500  0.0625    1  5.16143E-11 kpt; spin; max resid(k); each band:
  1.59E-14 4.01E-13 2.74E-13 1.22E-13 3.34E-13 6.41E-14 1.63E-11 1.23E-11
  9.07E-12 7.68E-12 5.16E-11
   0.0000  0.0000  0.1875    1  1.69186E-12 kpt; spin; max resid(k); each band:
  1.17E-13 1.12E-14 4.07E-17 4.64E-17 4.57E-15 3.51E-16 3.50E-16 2.35E-13
  6.22E-15 1.69E-12 9.31E-13
   0.1250  0.0000  0.1875    1  5.99964E-09 kpt; spin; max resid(k); each band:
  1.17E-13 2.90E-14 8.92E-14 1.48E-15 6.78E-12 2.96E-12 6.58E-14 1.24E-12
  2.58E-13 6.00E-09 2.07E-09
   0.2500  0.0000  0.1875    1  6.97104E-11 kpt; spin; max resid(k); each band:
  1.38E-13 2.54E-11 1.17E-11 1.91E-14 6.97E-11 2.13E-11 3.03E-11 1.58E-11
  2.20E-11 1.27E-12 1.42E-11
   0.3750  0.0000  0.1875    1  2.11303E-11 kpt; spin; max resid(k); each band:
  1.80E-13 1.60E-13 1.71E-13 2.46E-15 6.69E-13 1.17E-12 9.34E-13 1.63E-12
  2.55E-12 1.01E-12 2.11E-11
   0.5000  0.0000  0.1875    1  2.14727E-10 kpt; spin; max resid(k); each band:
  1.76E-13 1.42E-13 4.90E-17 9.67E-14 3.35E-13 1.38E-12 6.95E-14 7.80E-13
  1.08E-14 2.87E-13 2.15E-10
   0.1250  0.1250  0.1875    1  1.44107E-11 kpt; spin; max resid(k); each band:
  1.18E-13 1.06E-13 9.59E-14 1.05E-13 1.44E-11 4.32E-13 2.88E-12 3.07E-13
  8.45E-13 5.54E-12 1.42E-11
   0.2500  0.1250  0.1875    1  1.03191E-10 kpt; spin; max resid(k); each band:
  1.54E-13 1.30E-12 6.22E-11 2.35E-11 1.10E-12 1.03E-10 5.35E-11 6.06E-11
  5.15E-11 1.09E-11 9.76E-11
   0.3750  0.1250  0.1875    1  4.95018E-11 kpt; spin; max resid(k); each band:
  2.85E-13 2.85E-13 1.21E-12 7.06E-13 4.19E-13 6.54E-12 7.76E-12 7.11E-12
  4.28E-12 4.95E-11 3.41E-11
   0.2500  0.2500  0.1875    1  1.90193E-11 kpt; spin; max resid(k); each band:
  1.62E-13 1.75E-13 3.07E-13 2.83E-13 1.94E-13 1.82E-11 1.90E-11 1.51E-12
  2.34E-12 8.21E-13 9.36E-12
   0.3750  0.2500  0.1875    1  1.65242E-11 kpt; spin; max resid(k); each band:
  2.42E-13 4.54E-13 3.86E-13 1.37E-13 2.95E-13 1.04E-12 2.20E-13 1.65E-11
  4.87E-12 1.11E-11 4.22E-12
   0.0000  0.0000  0.3125    1  2.96226E-06 kpt; spin; max resid(k); each band:
  1.14E-12 2.01E-14 5.89E-17 5.15E-17 2.44E-15 2.44E-15 6.14E-14 1.26E-13
  2.47E-14 1.65E-13 2.96E-06
   0.1250  0.0000  0.3125    1  3.59044E-11 kpt; spin; max resid(k); each band:
  7.31E-13 1.45E-14 1.05E-13 2.94E-14 3.59E-11 1.13E-11 2.10E-11 1.58E-13
  1.76E-12 1.09E-13 1.07E-11
   0.2500  0.0000  0.3125    1  3.70228E-10 kpt; spin; max resid(k); each band:
  6.26E-13 1.86E-13 2.84E-13 8.08E-15 1.81E-12 1.55E-12 6.01E-13 3.70E-10
  2.19E-10 3.35E-11 3.83E-11
   0.3750  0.0000  0.3125    1  4.02586E-12 kpt; spin; max resid(k); each band:
  7.95E-13 2.43E-12 1.08E-12 4.69E-15 4.98E-13 1.83E-12 3.25E-12 9.61E-14
  1.54E-12 4.03E-12 2.66E-12
   0.5000  0.0000  0.3125    1  3.62805E-09 kpt; spin; max resid(k); each band:
  6.65E-13 1.37E-13 9.71E-14 1.63E-16 9.02E-14 2.01E-12 1.44E-12 8.15E-16
  2.60E-13 1.15E-12 3.63E-09
   0.1250  0.1250  0.3125    1  2.87842E-11 kpt; spin; max resid(k); each band:
  1.91E-13 2.63E-14 1.75E-13 6.38E-14 1.61E-13 2.88E-11 1.91E-11 1.85E-13
  2.49E-12 1.80E-11 2.97E-12
   0.2500  0.1250  0.3125    1  2.31871E-10 kpt; spin; max resid(k); each band:
  7.57E-13 2.32E-10 7.29E-11 1.50E-13 4.88E-12 1.59E-10 1.73E-10 4.88E-11
  3.69E-11 2.71E-11 6.92E-11
   0.3750  0.1250  0.3125    1  2.44245E-10 kpt; spin; max resid(k); each band:
  8.13E-13 5.74E-13 2.44E-10 1.57E-10 3.08E-12 1.65E-10 8.84E-11 2.64E-11
  3.64E-11 4.49E-11 4.85E-11
   0.2500  0.2500  0.3125    1  1.73465E-10 kpt; spin; max resid(k); each band:
  6.62E-13 4.33E-13 8.54E-12 3.96E-12 1.20E-13 4.58E-13 4.87E-11 8.18E-13
  1.49E-11 9.57E-13 1.73E-10
   0.3750  0.2500  0.3125    1  2.17977E-11 kpt; spin; max resid(k); each band:
  5.63E-13 6.87E-13 7.41E-13 1.10E-13 4.20E-13 2.09E-13 1.22E-12 4.34E-12
  2.18E-11 1.18E-11 2.23E-12
   0.0000  0.0000  0.4375    1  5.15496E-13 kpt; spin; max resid(k); each band:
  5.15E-13 4.59E-14 4.35E-17 4.34E-17 2.09E-15 2.08E-15 1.98E-14 2.91E-13
  6.34E-15 4.88E-14 1.65E-13
   0.1250  0.0000  0.4375    1  1.69940E-11 kpt; spin; max resid(k); each band:
  6.95E-13 5.14E-14 6.59E-14 3.92E-14 1.70E-11 9.96E-12 6.07E-14 2.37E-12
  1.50E-12 2.41E-14 1.71E-12
   0.2500  0.0000  0.4375    1  9.16417E-12 kpt; spin; max resid(k); each band:
  8.00E-13 9.27E-14 9.06E-14 3.06E-15 3.59E-13 6.15E-13 8.01E-12 8.41E-12
  9.16E-12 7.86E-12 6.81E-12
   0.3750  0.0000  0.4375    1  2.24546E-11 kpt; spin; max resid(k); each band:
  5.95E-13 6.86E-12 4.75E-12 1.81E-15 3.47E-13 1.47E-12 1.12E-12 2.37E-15
  3.24E-12 2.25E-11 7.08E-12
   0.5000  0.0000  0.4375    1  2.68120E-05 kpt; spin; max resid(k); each band:
  5.77E-13 1.53E-13 1.53E-13 1.44E-16 6.92E-14 1.76E-12 6.09E-13 5.47E-16
  2.29E-12 1.17E-08 2.68E-05
   0.1250  0.1250  0.4375    1  8.68701E-12 kpt; spin; max resid(k); each band:
  7.64E-13 6.71E-14 5.19E-14 6.44E-14 3.70E-14 8.59E-12 8.69E-12 1.03E-13
  3.46E-12 7.35E-12 4.98E-12
   0.2500  0.1250  0.4375    1  1.00247E-09 kpt; spin; max resid(k); each band:
  6.36E-13 2.74E-13 3.34E-13 6.95E-14 2.39E-13 4.20E-10 1.53E-10 1.06E-11
  1.10E-11 3.96E-11 1.00E-09
   0.3750  0.1250  0.4375    1  1.82133E-10 kpt; spin; max resid(k); each band:
  5.29E-13 3.92E-13 8.18E-13 6.43E-13 3.80E-13 3.52E-11 1.28E-11 1.19E-11
  4.35E-11 3.04E-11 1.82E-10
   0.2500  0.2500  0.4375    1  2.08713E-10 kpt; spin; max resid(k); each band:
  4.52E-13 2.44E-13 1.00E-10 8.05E-11 5.81E-14 7.56E-13 5.79E-12 1.21E-13
  3.58E-11 4.26E-12 2.09E-10
   0.3750  0.2500  0.4375    1  4.80286E-11 kpt; spin; max resid(k); each band:
  5.06E-13 3.69E-13 3.19E-13 1.21E-13 3.81E-13 9.93E-14 1.13E-12 4.80E-11
  3.63E-11 2.28E-11 1.60E-11
 reduced coordinates (array xred) for    3 atoms
       0.000000000000      0.000000000000      0.000000000000
       0.333333333333      0.666666666667      0.500000000000
       0.666666666667      0.333333333333      0.500000000000
 rms dE/dt=  1.2307E-27; max dE/dt=  1.6156E-27; dE/dt below (all hartree)
    1       0.000000000000      0.000000000000      0.000000000000
    2       0.000000000000     -0.000000000000      0.000000000000
    3       0.000000000000      0.000000000000      0.000000000000

 cartesian coordinates (angstrom) at end:
    1      0.00000000000000     0.00000000000000     0.00000000000000
    2     -0.89085146584847     1.54300000082417     1.76150000096413
    3      0.89085146584847     1.54300000082417     1.76150000096413

 cartesian forces (hartree/bohr) at end:
    1      0.00000000000000     0.00000000000000    -0.00000000000000
    2     -0.00000000000000     0.00000000000000    -0.00000000000000
    3      0.00000000000000    -0.00000000000000    -0.00000000000000
 frms,max,avg= 2.0001549E-28 3.6938081E-28   0.000E+00  0.000E+00  0.000E+00 h/b

 cartesian forces (eV/Angstrom) at end:
    1      0.00000000000000     0.00000000000000    -0.00000000000000
    2     -0.00000000000000     0.00000000000000    -0.00000000000000
    3      0.00000000000000    -0.00000000000000    -0.00000000000000
 frms,max,avg= 1.0285209E-26 1.8994323E-26   0.000E+00  0.000E+00  0.000E+00 e/A
 length scales=  1.000000000000  1.000000000000  1.000000000000 bohr
              =  0.529177208590  0.529177208590  0.529177208590 angstroms
 prteigrs : about to open file /Users/gmatteo/Coding/git_branches/abipy/abipy/data/runs/flow_mgb2_edoses/w0/t0/outdata/out_EIG
 Fermi (or HOMO) energy (hartree) =   0.27984   Average Vxc (hartree)=  -0.39656
 Eigenvalues (hartree) for nkpt=  40  k points:
 kpt#   1, nband= 11, wtk=  0.00391, kpt=  0.0000  0.0000  0.0625 (reduced coord)
  -0.17877   0.16055   0.29852   0.29852   0.35010   0.51038   0.51038   0.57387
   0.65026   0.73021   0.85689
      occupation numbers for kpt#   1
   2.00000   2.00000   0.11585   0.11585   0.00202   0.00000   0.00000   0.00000
   0.00000   0.00000   0.00000
 kpt#   2, nband= 11, wtk=  0.02344, kpt=  0.1250  0.0000  0.0625 (reduced coord)
  -0.16878   0.17037   0.24841   0.27514   0.35901   0.50014   0.55211   0.58865
   0.62146   0.77968   0.81109
      occupation numbers for kpt#   2
   2.00000   2.00001   2.12218   1.11397   0.00072   0.00000   0.00000   0.00000
   0.00000   0.00000   0.00000
 kpt#   3, nband= 11, wtk=  0.02344, kpt=  0.2500  0.0000  0.0625 (reduced coord)
  -0.13905   0.15612   0.20003   0.23820   0.38506   0.47220   0.52363   0.62856
   0.64698   0.76656   0.78383
      occupation numbers for kpt#   3
   2.00000   2.00000   2.00286   2.13047   0.00001   0.00000   0.00000   0.00000
   0.00000   0.00000   0.00000
 kpt#   4, nband= 11, wtk=  0.02344, kpt=  0.3750  0.0000  0.0625 (reduced coord)
  -0.09058   0.06196   0.21097   0.24488   0.41142   0.43735   0.46243   0.58449
   0.73737   0.73767   0.77765
      occupation numbers for kpt#   4
   2.00000   2.00000   2.01330   2.13988   0.00000   0.00000   0.00000   0.00000
   0.00000   0.00000   0.00000
 kpt#   5, nband= 11, wtk=  0.01172, kpt=  0.5000  0.0000  0.0625 (reduced coord)
  -0.03554  -0.00947   0.20126   0.27999   0.37676   0.42764   0.48290   0.54094
   0.72611   0.73974   0.82552
      occupation numbers for kpt#   5
   2.00000   2.00000   2.00346   0.83230   0.00004   0.00000   0.00000   0.00000
   0.00000   0.00000   0.00000
 kpt#   6, nband= 11, wtk=  0.02344, kpt=  0.1250  0.1250  0.0625 (reduced coord)
  -0.14896   0.18992   0.19416   0.22783   0.37866   0.51958   0.53922   0.56634
   0.65779   0.74054   0.80200
      occupation numbers for kpt#   6
   2.00000   2.00053   2.00111   2.07364   0.00003   0.00000   0.00000   0.00000
   0.00000   0.00000   0.00000
 kpt#   7, nband= 11, wtk=  0.04688, kpt=  0.2500  0.1250  0.0625 (reduced coord)
  -0.10983   0.11140   0.18374   0.22854   0.41520   0.46740   0.50763   0.59141
   0.68011   0.68686   0.77681
      occupation numbers for kpt#   7
   2.00000   2.00000   2.00017   2.07760   0.00000   0.00000   0.00000   0.00000
   0.00000   0.00000   0.00000
 kpt#   8, nband= 11, wtk=  0.04688, kpt=  0.3750  0.1250  0.0625 (reduced coord)
  -0.05348   0.02573   0.16336   0.27618   0.39206   0.46059   0.49020   0.55933
   0.65229   0.74168   0.78595
      occupation numbers for kpt#   8
   2.00000   2.00000   2.00000   1.05261   0.00000   0.00000   0.00000   0.00000
   0.00000   0.00000   0.00000
 kpt#   9, nband= 11, wtk=  0.02344, kpt=  0.2500  0.2500  0.0625 (reduced coord)
  -0.06234   0.06969   0.11220   0.27253   0.40802   0.46069   0.54842   0.57174
   0.62338   0.68865   0.73018
      occupation numbers for kpt#   9
   2.00000   2.00000   2.00000   1.26730   0.00000   0.00000   0.00000   0.00000
   0.00000   0.00000   0.00000
 kpt#  10, nband= 11, wtk=  0.02344, kpt=  0.3750  0.2500  0.0625 (reduced coord)
  -0.00897   0.01401   0.08983   0.31327   0.36163   0.50209   0.51967   0.56484
   0.61897   0.70563   0.76335
      occupation numbers for kpt#  10
   2.00000   2.00000   2.00000   0.00154   0.00051   0.00000   0.00000   0.00000
   0.00000   0.00000   0.00000
 kpt#  11, nband= 11, wtk=  0.00391, kpt=  0.0000  0.0000  0.1875 (reduced coord)
  -0.16911   0.10587   0.30179   0.30179   0.42903   0.51402   0.51402   0.57364
   0.64406   0.73964   0.79936
      occupation numbers for kpt#  11
   2.00000   2.00000   0.06567   0.06567   0.00000   0.00000   0.00000   0.00000
   0.00000   0.00000   0.00000
 kpt#  12, nband= 11, wtk=  0.02344, kpt=  0.1250  0.0000  0.1875 (reduced coord)
  -0.15927   0.11594   0.25341   0.27884   0.43601   0.50648   0.55659   0.55924
   0.63936   0.75974   0.76398
      occupation numbers for kpt#  12
   2.00000   2.00000   2.05622   0.89765   0.00000   0.00000   0.00000   0.00000
   0.00000   0.00000   0.00000
 kpt#  13, nband= 11, wtk=  0.02344, kpt=  0.2500  0.0000  0.1875 (reduced coord)
  -0.13000   0.14563   0.16237   0.24134   0.44569   0.47665   0.49574   0.65063
   0.66918   0.71691   0.72608
      occupation numbers for kpt#  13
   2.00000   2.00000   2.00000   2.14017   0.00000   0.00000   0.00000   0.00000
   0.00000   0.00000   0.00000
 kpt#  14, nband= 11, wtk=  0.02344, kpt=  0.3750  0.0000  0.1875 (reduced coord)
  -0.08211   0.06888   0.19409   0.21434   0.37401   0.45357   0.51737   0.64047
   0.68353   0.71178   0.77251
      occupation numbers for kpt#  14
   2.00000   2.00000   2.00109   2.02000   0.00007   0.00000   0.00000   0.00000
   0.00000   0.00000   0.00000
 kpt#  15, nband= 11, wtk=  0.01172, kpt=  0.5000  0.0000  0.1875 (reduced coord)
  -0.02769  -0.00160   0.20471   0.23402   0.31869   0.44633   0.55291   0.60150
   0.67505   0.70017   0.84897
      occupation numbers for kpt#  15
   2.00000   2.00000   2.00574   2.10939   0.00040   0.00000   0.00000   0.00000
   0.00000   0.00000   0.00000
 kpt#  16, nband= 11, wtk=  0.02344, kpt=  0.1250  0.1250  0.1875 (reduced coord)
  -0.13971   0.13613   0.19922   0.23234   0.45369   0.49779   0.52719   0.57714
   0.67670   0.68511   0.79003
      occupation numbers for kpt#  16
   2.00000   2.00000   2.00252   2.09967   0.00000   0.00000   0.00000   0.00000
   0.00000   0.00000   0.00000
 kpt#  17, nband= 11, wtk=  0.04688, kpt=  0.2500  0.1250  0.1875 (reduced coord)
  -0.10103   0.11727   0.17463   0.18963   0.41561   0.48636   0.52078   0.60911
   0.64220   0.71058   0.81109
      occupation numbers for kpt#  17
   2.00000   2.00000   2.00003   2.00050   0.00000   0.00000   0.00000   0.00000
   0.00000   0.00000   0.00000
 kpt#  18, nband= 11, wtk=  0.04688, kpt=  0.3750  0.1250  0.1875 (reduced coord)
  -0.04526   0.03297   0.16805   0.22747   0.33790   0.49371   0.54156   0.57985
   0.64150   0.76149   0.80147
      occupation numbers for kpt#  18
   2.00000   2.00000   2.00001   2.07168   0.00478   0.00000   0.00000   0.00000
   0.00000   0.00000   0.00000
 kpt#  19, nband= 11, wtk=  0.02344, kpt=  0.2500  0.2500  0.1875 (reduced coord)
  -0.05416   0.07641   0.11709   0.22231   0.35760   0.51951   0.53567   0.60242
   0.62143   0.70777   0.80050
      occupation numbers for kpt#  19
   2.00000   2.00000   2.00000   2.04621   0.00087   0.00000   0.00000   0.00000
   0.00000   0.00000   0.00000
 kpt#  20, nband= 11, wtk=  0.02344, kpt=  0.3750  0.2500  0.1875 (reduced coord)
  -0.00151   0.02131   0.09557   0.26467   0.31029   0.50175   0.57118   0.57882
   0.64724   0.74796   0.76760
      occupation numbers for kpt#  20
   2.00000   2.00000   2.00000   1.68616   0.00693   0.00000   0.00000   0.00000
   0.00000   0.00000   0.00000
 kpt#  21, nband= 11, wtk=  0.00391, kpt=  0.0000  0.0000  0.3125 (reduced coord)
  -0.15200   0.04870   0.30870   0.30870   0.52086   0.52086   0.53144   0.57536
   0.64163   0.74934   0.74940
      occupation numbers for kpt#  21
   2.00000   2.00000   0.01214   0.01214   0.00000   0.00000   0.00000   0.00000
   0.00000   0.00000   0.00000
 kpt#  22, nband= 11, wtk=  0.02344, kpt=  0.1250  0.0000  0.3125 (reduced coord)
  -0.14269   0.05926   0.26026   0.28445   0.50641   0.53051   0.54532   0.56254
   0.65284   0.71008   0.72771
      occupation numbers for kpt#  22
   2.00000   2.00000   1.86905   0.59532   0.00000   0.00000   0.00000   0.00000
   0.00000   0.00000   0.00000
 kpt#  23, nband= 11, wtk=  0.02344, kpt=  0.2500  0.0000  0.3125 (reduced coord)
  -0.11410   0.09111   0.17062   0.24611   0.42500   0.49097   0.56965   0.65376
   0.67077   0.67739   0.71153
      occupation numbers for kpt#  23
   2.00000   2.00000   2.00001   2.13596   0.00000   0.00000   0.00000   0.00000
   0.00000   0.00000   0.00000
 kpt#  24, nband= 11, wtk=  0.02344, kpt=  0.3750  0.0000  0.3125 (reduced coord)
  -0.06730   0.07964   0.14144   0.21888   0.32630   0.47215   0.60392   0.63679
   0.64807   0.74468   0.77705
      occupation numbers for kpt#  24
   2.00000   2.00000   2.00000   2.03296   0.00395   0.00000   0.00000   0.00000
   0.00000   0.00000   0.00000
 kpt#  25, nband= 11, wtk=  0.01172, kpt=  0.5000  0.0000  0.3125 (reduced coord)
  -0.01437   0.01101   0.18378   0.20951   0.26617   0.46516   0.62051   0.62768
   0.64664   0.72989   0.85510
      occupation numbers for kpt#  25
   2.00000   2.00000   2.00017   2.01103   1.61406   0.00000   0.00000   0.00000
   0.00000   0.00000   0.00000
 kpt#  26, nband= 11, wtk=  0.02344, kpt=  0.1250  0.1250  0.3125 (reduced coord)
  -0.12353   0.08069   0.20728   0.23833   0.45877   0.52627   0.56277   0.58586
   0.62891   0.70956   0.76836
      occupation numbers for kpt#  26
   2.00000   2.00000   2.00820   2.13099   0.00000   0.00000   0.00000   0.00000
   0.00000   0.00000   0.00000
 kpt#  27, nband= 11, wtk=  0.04688, kpt=  0.2500  0.1250  0.3125 (reduced coord)
  -0.08589   0.12082   0.12852   0.19519   0.36974   0.52129   0.55600   0.60620
   0.65773   0.74119   0.80028
      occupation numbers for kpt#  27
   2.00000   2.00000   2.00000   2.00132   0.00015   0.00000   0.00000   0.00000
   0.00000   0.00000   0.00000
 kpt#  28, nband= 11, wtk=  0.04688, kpt=  0.3750  0.1250  0.3125 (reduced coord)
  -0.03149   0.04468   0.17305   0.17799   0.28691   0.50205   0.54105   0.64096
   0.70528   0.75403   0.80664
      occupation numbers for kpt#  28
   2.00000   2.00000   2.00002   2.00005   0.47952   0.00000   0.00000   0.00000
   0.00000   0.00000   0.00000
 kpt#  29, nband= 11, wtk=  0.02344, kpt=  0.2500  0.2500  0.3125 (reduced coord)
  -0.04011   0.08750   0.12536   0.17103   0.30948   0.47519   0.60578   0.64373
   0.64923   0.75207   0.84901
      occupation numbers for kpt#  29
   2.00000   2.00000   2.00000   2.00001   0.00935   0.00000   0.00000   0.00000
   0.00000   0.00000   0.00000
 kpt#  30, nband= 11, wtk=  0.02344, kpt=  0.3750  0.2500  0.3125 (reduced coord)
   0.01131   0.03344   0.10488   0.21604   0.26114   0.44972   0.62022   0.66024
   0.70007   0.77027   0.77538
      occupation numbers for kpt#  30
   2.00000   2.00000   2.00000   2.02429   1.83644   0.00000   0.00000   0.00000
   0.00000   0.00000   0.00000
 kpt#  31, nband= 11, wtk=  0.00391, kpt=  0.0000  0.0000  0.4375 (reduced coord)
  -0.13568   0.01050   0.31276   0.31276   0.52402   0.52402   0.57669   0.62526
   0.63722   0.72184   0.72184
      occupation numbers for kpt#  31
   2.00000   2.00000   0.00212   0.00212   0.00000   0.00000   0.00000   0.00000
   0.00000   0.00000   0.00000
 kpt#  32, nband= 11, wtk=  0.02344, kpt=  0.1250  0.0000  0.4375 (reduced coord)
  -0.12661   0.02189   0.26609   0.28847   0.50906   0.52093   0.56693   0.63321
   0.66151   0.68340   0.70740
      occupation numbers for kpt#  32
   2.00000   2.00000   1.61802   0.41257   0.00000   0.00000   0.00000   0.00000
   0.00000   0.00000   0.00000
 kpt#  33, nband= 11, wtk=  0.02344, kpt=  0.2500  0.0000  0.4375 (reduced coord)
  -0.09916   0.05516   0.17806   0.24969   0.39980   0.50339   0.63582   0.63903
   0.66491   0.67827   0.72474
      occupation numbers for kpt#  33
   2.00000   2.00000   2.00005   2.11035   0.00000   0.00000   0.00000   0.00000
   0.00000   0.00000   0.00000
 kpt#  34, nband= 11, wtk=  0.02344, kpt=  0.3750  0.0000  0.4375 (reduced coord)
  -0.05388   0.08894   0.10752   0.22198   0.29657   0.48771   0.60714   0.61177
   0.71027   0.78166   0.79168
      occupation numbers for kpt#  34
   2.00000   2.00000   2.00000   2.04481   0.15568   0.00000   0.00000   0.00000
   0.00000   0.00000   0.00000
 kpt#  35, nband= 11, wtk=  0.01172, kpt=  0.5000  0.0000  0.4375 (reduced coord)
  -0.00188   0.02207   0.15278   0.21228   0.23412   0.48226   0.59561   0.60255
   0.73856   0.81208   0.86360
      occupation numbers for kpt#  35
   2.00000   2.00000   2.00000   2.01564   2.10997   0.00000   0.00000   0.00000
   0.00000   0.00000   0.00000
 kpt#  36, nband= 11, wtk=  0.02344, kpt=  0.1250  0.1250  0.4375 (reduced coord)
  -0.10832   0.04416   0.21399   0.24254   0.43497   0.54114   0.59111   0.59145
   0.65813   0.72320   0.75185
      occupation numbers for kpt#  36
   2.00000   2.00000   2.01920   2.14166   0.00000   0.00000   0.00000   0.00000
   0.00000   0.00000   0.00000
 kpt#  37, nband= 11, wtk=  0.04688, kpt=  0.2500  0.1250  0.4375 (reduced coord)
  -0.07191   0.08733   0.13550   0.20033   0.34186   0.52407   0.54399   0.66511
   0.69072   0.73985   0.81457
      occupation numbers for kpt#  37
   2.00000   2.00000   2.00000   2.00300   0.00392   0.00000   0.00000   0.00000
   0.00000   0.00000   0.00000
 kpt#  38, nband= 11, wtk=  0.04688, kpt=  0.3750  0.1250  0.4375 (reduced coord)
  -0.01897   0.05494   0.14419   0.18009   0.25611   0.49450   0.53410   0.71439
   0.73541   0.76680   0.83425
      occupation numbers for kpt#  38
   2.00000   2.00000   2.00000   2.00008   1.99684   0.00000   0.00000   0.00000
   0.00000   0.00000   0.00000
 kpt#  39, nband= 11, wtk=  0.02344, kpt=  0.2500  0.2500  0.4375 (reduced coord)
  -0.02747   0.09722   0.13194   0.13838   0.28050   0.44744   0.62294   0.66067
   0.72842   0.78987   0.84238
      occupation numbers for kpt#  39
   2.00000   2.00000   2.00000   2.00000   0.80404   0.00000   0.00000   0.00000
   0.00000   0.00000   0.00000
 kpt#  40, nband= 11, wtk=  0.02344, kpt=  0.3750  0.2500  0.4375 (reduced coord)
   0.02292   0.04404   0.11246   0.18470   0.23012   0.42026   0.63374   0.73764
   0.74935   0.77785   0.78430
      occupation numbers for kpt#  40
   2.00000   2.00000   2.00000   2.00020   2.08668   0.00000   0.00000   0.00000
   0.00000   0.00000   0.00000
 Total charge density [el/Bohr^3]
,     Maximum=    1.3269E-01  at reduced coord.    0.4444    0.8889    0.5000
,Next maximum=    1.3269E-01  at reduced coord.    0.4444    0.5556    0.5000
,     Minimum=    1.0465E-03  at reduced coord.    0.0000    0.0000    0.0000
,Next minimum=    1.4272E-03  at reduced coord.    0.0556    0.0000    0.0000
,  Integrated=    8.0000E+00

--------------------------------------------------------------------------------
 Components of total free energy (in Hartree) :

    Kinetic energy  =  4.24275448587195E+00
    Hartree energy  =  9.34456181620709E-01
    XC energy       = -3.36592933277798E+00
    Ewald energy    = -7.19741165777062E+00
    PspCore energy  = -1.43514648985679E-02
    Loc. psp. energy= -2.64679664282801E+00
    NL   psp  energy=  8.98859156747168E-01
    >>>>> Internal E= -7.14841927403536E+00

    -kT*entropy     =  7.95117169628319E-04
    >>>>>>>>> Etotal= -7.14762415686573E+00

 Other information on the energy :
    Total energy(eV)= -1.94496744619482E+02 ; Band energy (Ha)=   7.8511189885E-01
--------------------------------------------------------------------------------

 Cartesian components of stress tensor (hartree/bohr^3)
  sigma(1 1)=  6.19525691E-04  sigma(3 2)=  0.00000000E+00
  sigma(2 2)=  6.19525691E-04  sigma(3 1)=  0.00000000E+00
  sigma(3 3)=  5.35534283E-04  sigma(2 1)=  0.00000000E+00

-Cartesian components of stress tensor (GPa)         [Pressure= -1.7403E+01 GPa]
- sigma(1 1)=  1.82270721E+01  sigma(3 2)=  0.00000000E+00
- sigma(2 2)=  1.82270721E+01  sigma(3 1)=  0.00000000E+00
- sigma(3 3)=  1.57559599E+01  sigma(2 1)=  0.00000000E+00

== END DATASET(S) ==============================================================
================================================================================
  
 -outvars: echo values of variables after computation  --------
        accesswff           1
            acell      1.0000000000E+00  1.0000000000E+00  1.0000000000E+00 Bohr
              amu      2.43050000E+01  1.08110000E+01
             ecut      1.00000000E+01 Hartree
           etotal     -7.1476241569E+00
            fcart      1.2440289821E-28  9.2345202991E-29 -0.0000000000E+00
                      -3.0212132423E-28  2.7703560897E-28 -0.0000000000E+00
                       1.7771842601E-28 -3.6938081196E-28 -0.0000000000E+00
-          fftalg         312
      fft_opt_lob           2
           iprcch           6
              kpt      0.00000000E+00  0.00000000E+00  6.25000000E-02
                       1.25000000E-01  0.00000000E+00  6.25000000E-02
                       2.50000000E-01  0.00000000E+00  6.25000000E-02
                       3.75000000E-01  0.00000000E+00  6.25000000E-02
                       5.00000000E-01  0.00000000E+00  6.25000000E-02
                       1.25000000E-01  1.25000000E-01  6.25000000E-02
                       2.50000000E-01  1.25000000E-01  6.25000000E-02
                       3.75000000E-01  1.25000000E-01  6.25000000E-02
                       2.50000000E-01  2.50000000E-01  6.25000000E-02
                       3.75000000E-01  2.50000000E-01  6.25000000E-02
                       0.00000000E+00  0.00000000E+00  1.87500000E-01
                       1.25000000E-01  0.00000000E+00  1.87500000E-01
                       2.50000000E-01  0.00000000E+00  1.87500000E-01
                       3.75000000E-01  0.00000000E+00  1.87500000E-01
                       5.00000000E-01  0.00000000E+00  1.87500000E-01
                       1.25000000E-01  1.25000000E-01  1.87500000E-01
                       2.50000000E-01  1.25000000E-01  1.87500000E-01
                       3.75000000E-01  1.25000000E-01  1.87500000E-01
                       2.50000000E-01  2.50000000E-01  1.87500000E-01
                       3.75000000E-01  2.50000000E-01  1.87500000E-01
                       0.00000000E+00  0.00000000E+00  3.12500000E-01
                       1.25000000E-01  0.00000000E+00  3.12500000E-01
                       2.50000000E-01  0.00000000E+00  3.12500000E-01
                       3.75000000E-01  0.00000000E+00  3.12500000E-01
                       5.00000000E-01  0.00000000E+00  3.12500000E-01
                       1.25000000E-01  1.25000000E-01  3.12500000E-01
                       2.50000000E-01  1.25000000E-01  3.12500000E-01
                       3.75000000E-01  1.25000000E-01  3.12500000E-01
                       2.50000000E-01  2.50000000E-01  3.12500000E-01
                       3.75000000E-01  2.50000000E-01  3.12500000E-01
                       0.00000000E+00  0.00000000E+00  4.37500000E-01
                       1.25000000E-01  0.00000000E+00  4.37500000E-01
                       2.50000000E-01  0.00000000E+00  4.37500000E-01
                       3.75000000E-01  0.00000000E+00  4.37500000E-01
                       5.00000000E-01  0.00000000E+00  4.37500000E-01
                       1.25000000E-01  1.25000000E-01  4.37500000E-01
                       2.50000000E-01  1.25000000E-01  4.37500000E-01
                       3.75000000E-01  1.25000000E-01  4.37500000E-01
                       2.50000000E-01  2.50000000E-01  4.37500000E-01
                       3.75000000E-01  2.50000000E-01  4.37500000E-01
         kptrlatt        8    0    0      0    8    0      0    0    8
          kptrlen      4.66535588E+01
P           mkmem          20
            natom           3
            nband          11
            ngfft          18      18      20
             nkpt          40
-           npkpt           2
             nsym          24
           ntypat           2
              occ      2.000000  2.000001  0.115849  0.115849  0.002018  0.000000
                       0.000000  0.000000  0.000000  0.000000  0.000000
                       2.000000  2.000010  2.122178  1.113972  0.000724  0.000000
                       0.000000  0.000000  0.000000  0.000000  0.000000
                       2.000000  2.000000  2.002863  2.130470  0.000009  0.000000
                       0.000000  0.000000  0.000000  0.000000  0.000000
                       2.000000  2.000000  2.013297  2.139881  0.000000  0.000000
                       0.000000  0.000000  0.000000  0.000000  0.000000
                       2.000000  2.000000  2.003459  0.832301  0.000044  0.000000
                       0.000000  0.000000  0.000000  0.000000  0.000000
                       2.000000  2.000528  2.001107  2.073641  0.000031  0.000000
                       0.000000  0.000000  0.000000  0.000000  0.000000
                       2.000000  2.000000  2.000166  2.077600  0.000000  0.000000
                       0.000000  0.000000  0.000000  0.000000  0.000000
                       2.000000  2.000000  2.000002  1.052608  0.000002  0.000000
                       0.000000  0.000000  0.000000  0.000000  0.000000
                       2.000000  2.000000  2.000000  1.267300  0.000000  0.000000
                       0.000000  0.000000  0.000000  0.000000  0.000000
                       2.000000  2.000000  2.000000  0.001542  0.000509  0.000000
                       0.000000  0.000000  0.000000  0.000000  0.000000
                       2.000000  2.000000  0.065673  0.065673  0.000000  0.000000
                       0.000000  0.000000  0.000000  0.000000  0.000000
                       2.000000  2.000000  2.056217  0.897651  0.000000  0.000000
                       0.000000  0.000000  0.000000  0.000000  0.000000
                       2.000000  2.000000  2.000001  2.140175  0.000000  0.000000
                       0.000000  0.000000  0.000000  0.000000  0.000000
                       2.000000  2.000000  2.001094  2.019999  0.000072  0.000000
                       0.000000  0.000000  0.000000  0.000000  0.000000
                       2.000000  2.000000  2.005740  2.109392  0.000401  0.000000
                       0.000000  0.000000  0.000000  0.000000  0.000000
                       2.000000  2.000000  2.002523  2.099674  0.000000  0.000000
                       0.000000  0.000000  0.000000  0.000000  0.000000
                       2.000000  2.000000  2.000025  2.000502  0.000000  0.000000
                       0.000000  0.000000  0.000000  0.000000  0.000000
                       2.000000  2.000000  2.000006  2.071679  0.004777  0.000000
                       0.000000  0.000000  0.000000  0.000000  0.000000
                       2.000000  2.000000  2.000000  2.046212  0.000868  0.000000
                       0.000000  0.000000  0.000000  0.000000  0.000000
                       2.000000  2.000000  2.000000  1.686160  0.006933  0.000000
                       0.000000  0.000000  0.000000  0.000000  0.000000
                       2.000000  2.000000  0.012141  0.012141  0.000000  0.000000
                       0.000000  0.000000  0.000000  0.000000  0.000000
                       2.000000  2.000000  1.869050  0.595320  0.000000  0.000000
                       0.000000  0.000000  0.000000  0.000000  0.000000
                       2.000000  2.000000  2.000010  2.135959  0.000000  0.000000
                       0.000000  0.000000  0.000000  0.000000  0.000000
                       2.000000  2.000000  2.000000  2.032965  0.003951  0.000000
                       0.000000  0.000000  0.000000  0.000000  0.000000
                       2.000000  2.000000  2.000167  2.011027  1.614064  0.000000
                       0.000000  0.000000  0.000000  0.000000  0.000000
                       2.000000  2.000000  2.008201  2.130994  0.000000  0.000000
                       0.000000  0.000000  0.000000  0.000000  0.000000
                       2.000000  2.000000  2.000000  2.001317  0.000149  0.000000
                       0.000000  0.000000  0.000000  0.000000  0.000000
                       2.000000  2.000000  2.000018  2.000052  0.479518  0.000000
                       0.000000  0.000000  0.000000  0.000000  0.000000
                       2.000000  2.000000  2.000000  2.000011  0.009351  0.000000
                       0.000000  0.000000  0.000000  0.000000  0.000000
                       2.000000  2.000000  2.000000  2.024287  1.836439  0.000000
                       0.000000  0.000000  0.000000  0.000000  0.000000
                       2.000000  2.000000  0.002121  0.002121  0.000000  0.000000
                       0.000000  0.000000  0.000000  0.000000  0.000000
                       2.000000  2.000000  1.618024  0.412567  0.000000  0.000000
                       0.000000  0.000000  0.000000  0.000000  0.000000
                       2.000000  2.000000  2.000053  2.110351  0.000000  0.000000
                       0.000000  0.000000  0.000000  0.000000  0.000000
                       2.000000  2.000000  2.000000  2.044807  0.155682  0.000000
                       0.000000  0.000000  0.000000  0.000000  0.000000
                       2.000000  2.000000  2.000000  2.015639  2.109965  0.000000
                       0.000000  0.000000  0.000000  0.000000  0.000000
                       2.000000  2.000000  2.019203  2.141665  0.000000  0.000000
                       0.000000  0.000000  0.000000  0.000000  0.000000
                       2.000000  2.000000  2.000000  2.002998  0.003921  0.000000
                       0.000000  0.000000  0.000000  0.000000  0.000000
                       2.000000  2.000000  2.000000  2.000080  1.996841  0.000000
                       0.000000  0.000000  0.000000  0.000000  0.000000
                       2.000000  2.000000  2.000000  2.000000  0.804041  0.000000
                       0.000000  0.000000  0.000000  0.000000  0.000000
                       2.000000  2.000000  2.000000  2.000200  2.086681  0.000000
                       0.000000  0.000000  0.000000  0.000000  0.000000
           occopt           4
           ortalg          -2
        paral_kgb           1
            rprim      5.0503958866E+00  2.9158474246E+00  0.0000000000E+00
                      -5.0503958866E+00  2.9158474246E+00  0.0000000000E+00
                       0.0000000000E+00  0.0000000000E+00  6.6575051698E+00
           shiftk      0.00000000E+00  0.00000000E+00  5.00000000E-01
          spgroup         191
           strten      6.1952569136E-04  6.1952569137E-04  5.3553428305E-04
                       0.0000000000E+00  0.0000000000E+00  0.0000000000E+00
           symrel      1  0  0   0  1  0   0  0  1      -1  0  0   0 -1  0   0  0 -1
                       0  1  0   1  0  0   0  0  1       0 -1  0  -1  0  0   0  0 -1
                       1  1  0  -1  0  0   0  0  1      -1 -1  0   1  0  0   0  0 -1
                      -1  0  0   1  1  0   0  0  1       1  0  0  -1 -1  0   0  0 -1
                       0  1  0  -1 -1  0   0  0  1       0 -1  0   1  1  0   0  0 -1
                      -1 -1  0   0  1  0   0  0  1       1  1  0   0 -1  0   0  0 -1
                      -1  0  0   0 -1  0   0  0  1       1  0  0   0  1  0   0  0 -1
                       0 -1  0  -1  0  0   0  0  1       0  1  0   1  0  0   0  0 -1
                      -1 -1  0   1  0  0   0  0  1       1  1  0  -1  0  0   0  0 -1
                       1  0  0  -1 -1  0   0  0  1      -1  0  0   1  1  0   0  0 -1
                       0 -1  0   1  1  0   0  0  1       0  1  0  -1 -1  0   0  0 -1
                       1  1  0   0 -1  0   0  0  1      -1 -1  0   0  1  0   0  0 -1
           timopt          -1
           tolvrs      1.00000000E-06
           tsmear      3.00000000E-02 Hartree
            typat      1  2  2
         wfoptalg          14
              wtk        0.00391    0.02344    0.02344    0.02344    0.01172    0.02344
                         0.04688    0.04688    0.02344    0.02344    0.00391    0.02344
                         0.02344    0.02344    0.01172    0.02344    0.04688    0.04688
                         0.02344    0.02344    0.00391    0.02344    0.02344    0.02344
                         0.01172    0.02344    0.04688    0.04688    0.02344    0.02344
                         0.00391    0.02344    0.02344    0.02344    0.01172    0.02344
                         0.04688    0.04688    0.02344    0.02344
           xangst      0.0000000000E+00  0.0000000000E+00  0.0000000000E+00
                      -8.9085146585E-01  1.5430000008E+00  1.7615000010E+00
                       8.9085146585E-01  1.5430000008E+00  1.7615000010E+00
            xcart      0.0000000000E+00  0.0000000000E+00  0.0000000000E+00
                      -1.6834652955E+00  2.9158474246E+00  3.3287525849E+00
                       1.6834652955E+00  2.9158474246E+00  3.3287525849E+00
             xred      0.0000000000E+00  0.0000000000E+00  0.0000000000E+00
                       3.3333333333E-01  6.6666666667E-01  5.0000000000E-01
                       6.6666666667E-01  3.3333333333E-01  5.0000000000E-01
            znucl       12.00000    5.00000

================================================================================

 Test the timer : 
  a combined call timab(*,1,tsec) + timab(*,2,tsec) is 
- CPU time =    1.4721E-06 sec,    Wall time =    1.4733E-06 sec

- Total cpu        time (s,m,h):         10.2        0.17      0.003
- Total wall clock time (s,m,h):         10.3        0.17      0.003
-
- For major independent code sections, cpu and wall times (sec),
-  as well as % of the time and number of calls for node 0-
-<BEGIN_TIMER mpi_nprocs = 2, omp_nthreads = 1, mpi_rank = 0>
- cpu_time =            5.1, wall_time =            5.2
-
- routine                        cpu     %       wall     %      number of calls  Gflops 
-                                                                  (-1=no count)
- fourwf%(pot)                   2.204  21.6      2.212  21.5           8689      -1.00    
- nonlop(apply)                  0.279   2.7      0.282   2.7           8689      -1.00    
- pspini                         0.250   2.5      0.251   2.4              1      -1.00    
- invars2                        0.150   1.5      0.150   1.5              1      -1.00    
- timing timab                   0.127   1.2      0.127   1.2             12      -1.00    
- mkrho/=                        0.097   1.0      0.097   0.9             12      -1.00    
- getghc-other                   0.056   0.5      0.046   0.4             -1      -1.00    
- abinit(2)                      0.048   0.5      0.048   0.5              1      -1.00    
- vtowfk(ssdiag)                 0.024   0.2      0.024   0.2             -1      -1.00    
- ewald                          0.010   0.1      0.010   0.1              1      -1.00    
- stress                         0.009   0.1      0.009   0.1              1      -1.00    
- fourdp                         0.008   0.1      0.008   0.1             32      -1.00    
- mkcore                         0.008   0.1      0.008   0.1              3      -1.00    
- ewald2 (+vdw_dftd2)            0.005   0.0      0.005   0.0              1      -1.00    
- forces                         0.004   0.0      0.004   0.0              1      -1.00    
- xc:pot/=fourdp                 0.004   0.0      0.004   0.0              7      -1.00    
- newkpt(excl. rwwf   )          0.003   0.0      0.003   0.0             -1      -1.00    
- prep_bandfft_tabs              0.003   0.0      0.003   0.0            114      -1.00    
- vtorho(MPI)                    0.003   0.0      0.003   0.0              6      -1.00    
- vtowfk(contrib)                0.003   0.0      0.003   0.0            120      -1.00    
- symrhg(no FFT)                 0.002   0.0      0.002   0.0              6      -1.00    
- setsym                         0.001   0.0      0.001   0.0              1      -1.00    
- kpgsph                         0.001   0.0      0.001   0.0             60      -1.00    
- vtowfk  (1)                    0.000   0.0      0.000   0.0            120      -1.00    
- scfcv-scprqt                   0.000   0.0      0.000   0.0              6      -1.00    
- status                         0.000   0.0      0.000   0.0             27      -1.00    
- inwffil(excl. calls)           0.000   0.0      0.000   0.0              1      -1.00    
- vtowfk3(contrib)               0.000   0.0      0.000   0.0             -1      -1.00    
- cgwf3-O(npw)                   0.000   0.0      0.000   0.0             -1      -1.00    
- others (83)                    0.000   0.0      0.000   0.0             -1      -1.00    
-<END_TIMER>
-
- subtotal                       3.299  32.3      3.302  32.1

- For major independent code sections, cpu and wall times (sec),
- as well as % of the total time and number of calls 

-<BEGIN_TIMER mpi_nprocs = 2, omp_nthreads = 1, mpi_rank = world>
- cpu_time =          10.2, wall_time =          10.3
-
- routine                         cpu     %       wall     %      number of calls Gflops 
-                                                                  (-1=no count)
- fourwf%(pot)                   4.395  43.0      4.411  42.8          17393      -1.00    
- nonlop(apply)                  0.553   5.4      0.559   5.4          17393      -1.00    
- pspini                         0.500   4.9      0.500   4.9              2      -1.00    
- invars2                        0.302   3.0      0.302   2.9              2      -1.00    
- timing timab                   0.253   2.5      0.253   2.5             24      -1.00    
- mkrho/=                        0.197   1.9      0.197   1.9             24      -1.00    
- getghc-other                   0.111   1.1      0.092   0.9             -2      -1.00    
- abinit(2)                      0.091   0.9      0.091   0.9              2      -1.00    
- vtowfk(ssdiag)                 0.047   0.5      0.047   0.5             -2      -1.00    
- vtorho(MPI)                    0.031   0.3      0.031   0.3             12      -1.00    
- ewald                          0.020   0.2      0.020   0.2              2      -1.00    
- stress                         0.018   0.2      0.018   0.2              2      -1.00    
- fourdp                         0.017   0.2      0.017   0.2             64      -1.00    
- mkcore                         0.016   0.2      0.016   0.2              6      -1.00    
- ewald2 (+vdw_dftd2)            0.010   0.1      0.010   0.1              2      -1.00    
- newkpt(excl. rwwf   )          0.008   0.1      0.008   0.1             -2      -1.00    
- forces                         0.007   0.1      0.007   0.1              2      -1.00    
- xc:pot/=fourdp                 0.007   0.1      0.007   0.1             14      -1.00    
- prep_bandfft_tabs              0.006   0.1      0.006   0.1            227      -1.00    
- vtowfk(contrib)                0.005   0.1      0.005   0.1            240      -1.00    
- symrhg(no FFT)                 0.004   0.0      0.004   0.0             12      -1.00    
- setsym                         0.002   0.0      0.002   0.0              2      -1.00    
- kpgsph                         0.001   0.0      0.001   0.0            120      -1.00    
- scfcv-scprqt                   0.001   0.0      0.001   0.0             12      -1.00    
- vtowfk  (1)                    0.001   0.0      0.001   0.0            240      -1.00    
- status                         0.001   0.0      0.001   0.0             54      -1.00    
- inwffil(excl. calls)           0.000   0.0      0.000   0.0              2      -1.00    
- vtowfk3(contrib)               0.000   0.0      0.000   0.0             -2      -1.00    
- cgwf3-O(npw)                   0.000   0.0      0.000   0.0             -2      -1.00    
- others (83)                    0.000   0.0      0.000   0.0             -1      -1.00    
-<END_TIMER>

- subtotal                       6.604  64.7      6.608  64.2

 Partitioning of abinit
- abinit                        10.212 100.0     10.296 100.0              2
 
- abinit(1)                      0.035   0.3      0.035   0.3              2
- abinit(2)                      0.091   0.9      0.091   0.9              2
- indefo+macroin+invars2m        0.303   3.0      0.303   2.9              2
- abinit(4)                      0.035   0.3      0.036   0.3              2
- abinit(5)                      0.032   0.3      0.032   0.3              2
- driver                         9.456  92.6      9.522  92.5              2
- abinit(6)                      0.007   0.1      0.023   0.2              2
- timing timab                   0.253   2.5      0.253   2.5             24

- subtotal                      10.212 100.0     10.296 100.0

 Partitioning of driver
- driver                         9.456  92.6      9.522  92.5              2
 
- gstateimg                      9.452  92.6      9.519  92.5              2
- driver(aft. select case)       0.003   0.0      0.003   0.0              2

- subtotal                       9.456  92.6      9.522  92.5

 Partitioning of gstateimg+gstate
- gstateimg                      9.452  92.6      9.519  92.5              2
 
- gstate->kpgsph                 0.013   0.1      0.013   0.1              4
- gstate(pspini)                 0.500   4.9      0.500   4.9              2
- gstate  (2)                    0.004   0.0      0.004   0.0              2
- gstate(...scfcv)               8.760  85.8      8.764  85.1              2
- gstate  (3)                    0.176   1.7      0.238   2.3              2

- subtotal                       9.452  92.6      9.519  92.5

 Partitioning of scfcv
- scfcv                          8.760  85.8      8.764  85.1              2
 
- scfcv(iniloop, setvtr  )       0.028   0.3      0.028   0.3             12
- scfcv(vtorho(f))               8.654  84.7      8.657  84.1             12
- scfcv(rhotov)                  0.010   0.1      0.010   0.1             12
- scfcv(mix pot)                 0.009   0.1      0.009   0.1             10
- scfcv(afterscfloop)            0.051   0.5      0.051   0.5              2
- scfcv(outscfcv)                0.006   0.1      0.006   0.1              2

- subtotal                       8.760  85.8      8.764  85.1

 Partitioning of rhotov
- rhotov                         0.010   0.1      0.010   0.1             12
 
- rhotov(rhohxc)                 0.009   0.1      0.009   0.1             12

- subtotal                       0.010   0.1      0.010   0.1

 Partitioning of vtorho
- vtorho                         8.654  84.7      8.657  84.1             12
 
- vtorho(bef. vtowfk)            0.006   0.1      0.006   0.1            240
- vtowfk                         7.819  76.6      7.822  76.0            240
- vtorho(MPI)                    0.031   0.3      0.031   0.3             12
- vtorho(newocc)                 0.586   5.7      0.586   5.7             12
- vtorho(mkrho 1)                0.207   2.0      0.207   2.0             12

- subtotal                       8.654  84.7      8.657  84.1

 Partitioning of vtowfk
- vtowfk                         7.819  76.6      7.822  76.0            240
 
- lobpcgwf                       7.766  76.0      7.769  75.5            320
- vtowfk(subdiago)               0.044   0.4      0.044   0.4            320
- vtowfk(2)                      0.003   0.0      0.003   0.0             -2
- vtowfk(3)                      0.003   0.0      0.003   0.0             -2

- subtotal                       7.819  76.6      7.822  76.0

 Partitioning of getghc
- getghc                         5.059  49.5      5.062  49.2          17393
 
- fourwf%getghc                  4.395  43.0      4.411  42.8          17393
- nonlop%getghc                  0.553   5.4      0.559   5.4          17393
- getghc-other                   0.111   1.1      0.092   0.9             -2

- subtotal                       5.059  49.5      5.062  49.2

 Partitioning of fourwf (upwards partitioning)
- fourwf                         4.558  44.6      4.575  44.4          18509
 
- fourwf%getghc                  4.395  43.0      4.411  42.8          17393
- fourwf%prep_four               0.163   1.6      0.164   1.6           1116

- subtotal                       4.558  44.6      4.575  44.4

 Partitioning of prep_getghc
- prep_getghc                    5.479  53.7      5.482  53.2          17393
 
- prep_getghc(before if)         0.207   2.0      0.207   2.0          17393
- prep_getghc(alltoall)          0.142   1.4      0.145   1.4          34786
- prep_getghc(getghc - 1 )       5.101  49.9      5.100  49.5          17393
- (other)                        0.030   0.3      0.029   0.3             -1

- subtotal                       5.479  53.7      5.482  53.2

 Partitioning of prep_fourwf
- prep_fourwf                    0.179   1.8      0.179   1.7           2640
 
- fourwf%prep_four               0.163   1.6      0.164   1.6           1116
- alltoall%prep_fo               0.007   0.1      0.007   0.1           2640

- subtotal                       0.170   1.7      0.171   1.7

 Partitioning of prep_nonlop
- prep_nonlop                    0.014   0.1      0.014   0.1            187
 
- nonlop%prep_nonl%forstrn       0.012   0.1      0.013   0.1            187

- subtotal                       0.014   0.1      0.014   0.1

 Partitioning of mkrho (upwards partitioning)
- mkrho                          0.207   2.0      0.207   2.0             12
 
- mkrho%vtorho                   0.207   2.0      0.207   2.0             12

- subtotal                       0.207   2.0      0.207   2.0

 Partitioning of inwffil
- inwffil                        0.009   0.1      0.009   0.1              2
 
- inwffil(call newkpt)           0.009   0.1      0.009   0.1              2

- subtotal                       0.009   0.1      0.009   0.1

 Partitioning of newkpt
- newkpt                         0.009   0.1      0.009   0.1              2
 
- newkpt(call wfconv)            0.006   0.1      0.006   0.1             40

- subtotal                       0.008   0.1      0.008   0.1

 Partitioning of newvtr
- newvtr                         0.009   0.1      0.009   0.1             10
 
- newvtr(call prcref_PMA)        0.005   0.0      0.005   0.0             10
- newvtr(aft. prcref_PMA)        0.003   0.0      0.003   0.0             10

- subtotal                       0.009   0.1      0.009   0.1

 Partitioning of  fourdp (upwards partitioning)
- fourdp                         0.017   0.2      0.017   0.2             64
 
- fourdp%(other)                 0.017   0.2      0.017   0.2             64

- subtotal                       0.017   0.2      0.017   0.2

 Partitioning of afterscfloop
- afterscfloop                   0.051   0.5      0.051   0.5              2
 
- afterscfloop(forstr)           0.050   0.5      0.050   0.5              2

- subtotal                       0.051   0.5      0.051   0.5

 Partitioning of forstr
- forstr                         0.050   0.5      0.050   0.5              2
 
- forstr(forstrnps)              0.025   0.2      0.025   0.2              2
- forstr(forces)                 0.007   0.1      0.007   0.1              2
- forstr(stress)                 0.018   0.2      0.018   0.2              2

- subtotal                       0.050   0.5      0.050   0.5

 Partitioning of forstrnps
- forstrnps                      0.025   0.2      0.025   0.2              2
 
- forstrnps(bef.loop band)       0.003   0.0      0.003   0.0             40
- forstrnps(nonlop+prep_ba       0.020   0.2      0.020   0.2            187

- subtotal                       0.025   0.2      0.025   0.2

 Partitioning of outscfcv
- outscfcv                       0.005   0.1      0.006   0.1              2
 

- subtotal                       0.001   0.0      0.002   0.0
-
-Synchronisation (=leave_test) and MPI calls 
- communic.MPI                   0.042   0.4      0.042   0.4             66
-
- forstrnps:synchr               0.000   0.0      0.000   0.0              4
- mkrho :MPIrhor                 0.008   0.1      0.008   0.1             12
-
- subtotal                       0.008   0.1      0.008   0.1

 Additional information
- timana(1)                      0.000   0.0      0.000   0.0              2
- total timab                    1.733  17.0      1.734  16.8        1184946
- fourwf                         4.558  44.6      4.575  44.4          18509
- mklocl(2)                      0.001   0.0      0.001   0.0              2
- status                         0.001   0.0      0.001   0.0             54
- newocc                         0.586   5.7      0.586   5.7             12
- nonlop(total)                  0.565   5.5      0.571   5.6          17580


 Detailed analysis of some time consuming routines 
                                  tcpu    ncalls  tcpu/ncalls    ndata tcpu/ncalls/ndata
                                 (sec)                (msec)              (microsec)
- fourwf%(pot)                   4.395     17393       0.253     12960       0.019
- fourwf%(den)                   0.000         0
- fourdp                         0.017        64       0.262      6480       0.041
- nonlop(apply)                  0.553     17393       0.032       885       0.036
- nonlop(forces)                 0.000         0
- nonlop(forstr)                 0.000         0
- projbd                         0.000         0
- xc:pot/=fourdp                 0.007        14       0.512      6480       0.079

================================================================================

 Suggested references for the acknowledgment of ABINIT usage.

 The users of ABINIT have little formal obligations with respect to the ABINIT group
 (those specified in the GNU General Public License, http://www.gnu.org/copyleft/gpl.txt).
 However, it is common practice in the scientific literature,
 to acknowledge the efforts of people that have made the research possible.
 In this spirit, please find below suggested citations of work written by ABINIT developers,
 corresponding to implementations inside of ABINIT that you have used in the present run.
 Note also that it will be of great value to readers of publications presenting these results,
 to read papers enabling them to understand the theoretical formalism and details
 of the ABINIT implementation.
 For information on why they are suggested, see also http://www.abinit.org/about/?text=acknowledgments.

 [1] Large scale ab initio calculations based on three levels of parallelization
 F. Bottin, S. Leroux, A. Knyazev, G. Zerah, Comput. Mat. Science 42, 329, (2008).
 Comment : in case paral_kgb is non-zero. Strong suggestion to cite this paper in your publications.
 This paper is also available at http://www.arxiv.org/abs/0707.3405

 [2] ABINIT : First-principles approach of materials and nanosystem properties.
 X. Gonze, B. Amadon, P.-M. Anglade, J.-M. Beuken, F. Bottin, P. Boulanger, F. Bruneval,
 D. Caliste, R. Caracas, M. Cote, T. Deutsch, L. Genovese, Ph. Ghosez, M. Giantomassi
 S. Goedecker, D.R. Hamann, P. Hermet, F. Jollet, G. Jomard, S. Leroux, M. Mancini, S. Mazevet,
 M.J.T. Oliveira, G. Onida, Y. Pouillon, T. Rangel, G.-M. Rignanese, D. Sangalli, R. Shaltaf,
 M. Torrent, M.J. Verstraete, G. Zerah, J.W. Zwanziger
 Computer Phys. Comm. 180, 2582-2615 (2009).
 Comment : the third generic paper describing the ABINIT project.
 Note that a version of this paper, that is not formatted for Computer Phys. Comm. 
 is available at http://www.abinit.org/about/ABINIT_CPC_v10.pdf .
 The licence allows the authors to put it on the Web.

 [3] A brief introduction to the ABINIT software package.
 X. Gonze, G.-M. Rignanese, M. Verstraete, J.-M. Beuken, Y. Pouillon, R. Caracas, F. Jollet,
 M. Torrent, G. Zerah, M. Mikami, Ph. Ghosez, M. Veithen, J.-Y. Raty, V. Olevano, F. Bruneval,
 L. Reining, R. Godby, G. Onida, D.R. Hamann, and D.C. Allan.
 Z. Kristallogr. 220, 558-562 (2005).
 Comment : the second generic paper describing the ABINIT project. Note that this paper
 should be cited especially if you are using the GW part of ABINIT, as several authors
 of this part are not in the list of authors of the first or third paper.
 The .pdf of the latter paper is available at http://www.abinit.org/about/zfk_0505-06_558-562.pdf.
 Note that it should not redistributed (Copyright by Oldenburg Wissenshaftverlag,
 the licence allows the authors to put it on the Web).


 And optionally :

 [4] First-principles computation of material properties : the ABINIT software project. 
 X. Gonze, J.-M. Beuken, R. Caracas, F. Detraux, M. Fuchs, G.-M. Rignanese, L. Sindic,
 M. Verstraete, G. Zerah, F. Jollet, M. Torrent, A. Roy, M. Mikami, Ph. Ghosez, J.-Y. Raty, D.C. Allan.
 Computational Materials Science 25, 478-492 (2002). https://doi.org/10.1016/S0927-0256(02)00325-7
 Comment : the original paper describing the ABINIT project.

 [5] Fast radix 2, 3, 4 and 5 kernels for Fast Fourier Transformations
 on computers with overlapping multiply-add instructions.
 S. Goedecker, SIAM J. on Scientific Computing 18, 1605 (1997).
-
- Proc.   0 individual time (sec): cpu=          5.1  wall=          5.2

================================================================================

 Calculation completed.
.Delivered    0 WARNINGs and   0 COMMENTs to log file.
+Overall time at end (sec) : cpu=         10.2  wall=         10.3
