<?xml version="1.0" encoding="ISO-8859-1"?>
<modeling>
 <generator>
  <i name="program" type="string">vasp </i>
  <i name="version" type="string">5.2.12  </i>
  <i name="subversion" type="string">11Nov11 complex                                                      parallel </i>
  <i name="platform" type="string">LinuxIFC </i>
  <i name="date" type="string">2014 07 14 </i>
  <i name="time" type="string">16:46:01 </i>
 </generator>
 <incar>
  <i type="string" name="PREC">accurate</i>
  <i type="string" name="ALGO"> Fast</i>
  <i type="int" name="ISPIN">     2</i>
  <i type="int" name="ICHARG">     0</i>
  <i type="int" name="NELM">   100</i>
  <i type="int" name="IBRION">    -1</i>
  <i name="EDIFF">      0.00000200</i>
  <i type="int" name="NSW">     0</i>
  <i type="int" name="ISIF">     3</i>
  <i name="ENCUT">    100.00000000</i>
  <v name="MAGMOM">      0.60000000      0.60000000</v>
  <i type="string" name="LREAL"> Auto</i>
  <i type="int" name="ISMEAR">    -5</i>
  <i name="SIGMA">      0.20000000</i>
  <i type="logical" name="LWAVE"> F  </i>
  <i type="logical" name="LCHARG"> T  </i>
  <i type="logical" name="LVHAR"> T  </i>
  <i type="logical" name="LORBIT"> F  </i>
  <i type="logical" name="LAECHG"> T  </i>
  <i type="int" name="NELM">   100</i>
 </incar>
 <kpoints>
  <generation param="Monkhorst-Pack">
   <v type="int" name="divisions">       4        4        4 </v>
   <v name="usershift">      0.00000000       0.00000000       0.00000000 </v>
   <v name="genvec1">      0.25000000       0.00000000       0.00000000 </v>
   <v name="genvec2">      0.00000000       0.25000000       0.00000000 </v>
   <v name="genvec3">      0.00000000       0.00000000       0.25000000 </v>
   <v name="shift">      0.50000000       0.50000000       0.50000000 </v>
  </generation>
  <varray name="kpointlist" >
   <v>       0.12500000       0.12500000       0.12500000 </v>
   <v>       0.37500000       0.12500000       0.12500000 </v>
   <v>      -0.37500000       0.12500000       0.12500000 </v>
   <v>      -0.12500000       0.12500000       0.12500000 </v>
   <v>       0.37500000       0.37500000       0.12500000 </v>
   <v>      -0.37500000       0.37500000       0.12500000 </v>
   <v>      -0.12500000       0.37500000       0.12500000 </v>
   <v>      -0.37500000      -0.37500000       0.12500000 </v>
   <v>       0.37500000       0.37500000       0.37500000 </v>
   <v>      -0.37500000       0.37500000       0.37500000 </v>
  </varray>
  <varray name="weights" >
   <v>       0.03125000 </v>
   <v>       0.09375000 </v>
   <v>       0.09375000 </v>
   <v>       0.09375000 </v>
   <v>       0.09375000 </v>
   <v>       0.18750000 </v>
   <v>       0.18750000 </v>
   <v>       0.09375000 </v>
   <v>       0.03125000 </v>
   <v>       0.09375000 </v>
  </varray>
  <varray name="tetrahedronlist"  type="int" >
   <v type="int" >       24        1        2        4        9 </v>
   <v type="int" >       24        2        3        4        7 </v>
   <v type="int" >       24        3        4        5        7 </v>
   <v type="int" >       24        2        3        4        9 </v>
   <v type="int" >       24        5        6        7       10 </v>
   <v type="int" >       24        5        6        8       10 </v>
   <v type="int" >       24        3        5        7       10 </v>
   <v type="int" >       24        6        6        8       10 </v>
   <v type="int" >       24        6        8        8       10 </v>
   <v type="int" >       24        6        8       10       10 </v>
   <v type="int" >       24        3        6        7        8 </v>
   <v type="int" >       24        3        5        7        8 </v>
   <v type="int" >       24        3        6        8       10 </v>
   <v type="int" >       24        2        5        7        9 </v>
   <v type="int" >       24        2        4        5        9 </v>
   <v type="int" >       24        3        5        7        9 </v>
   <v type="int" >       36        2        2        4        4 </v>
   <v type="int" >       48        1        2        4        4 </v>
   <v type="int" >       24        2        2        4        9 </v>
   <v type="int" >       24        1        1        2        4 </v>
   <v type="int" >       24        1        2        2        4 </v>
   <v type="int" >       24        2        3        7       10 </v>
   <v type="int" >       24        2        3        3        7 </v>
   <v type="int" >       24        2        3        3        9 </v>
   <v type="int" >       72        6        7        7       10 </v>
   <v type="int" >       36        6        6        7        7 </v>
   <v type="int" >       48        3        7        7       10 </v>
   <v type="int" >       12        3        3        7        7 </v>
   <v type="int" >       48        6        6        6        7 </v>
   <v type="int" >       72        6        6        7       10 </v>
   <v type="int" >       72        6        7       10       10 </v>
   <v type="int" >       24        3        6        6       10 </v>
   <v type="int" >       72        3        6        7       10 </v>
   <v type="int" >       24        3        3        6        7 </v>
   <v type="int" >       24        3        6        6        7 </v>
   <v type="int" >       24        3        3        6       10 </v>
   <v type="int" >       48        2        3        7        7 </v>
   <v type="int" >       48        2        3        7        9 </v>
   <v type="int" >       24        3        3        7       10 </v>
   <v type="int" >       24        3        3        3        7 </v>
   <v type="int" >       24        3        3        7        9 </v>
   <v type="int" >       48        2        5        7        7 </v>
   <v type="int" >       24        2        4        5        7 </v>
   <v type="int" >       48        2        2        4        7 </v>
   <v type="int" >       24        2        2        7        9 </v>
   <v type="int" >       24        4        5        5        7 </v>
   <v type="int" >       24        4        4        5        7 </v>
   <v type="int" >       24        2        4        4        7 </v>
   <v type="int" >       24        4        5        7        7 </v>
   <v type="int" >       24        2        4        7        7 </v>
   <v type="int" >       24        5        6        8        8 </v>
   <v type="int" >       24        5        6        6        8 </v>
   <v type="int" >       24        5        6        6        7 </v>
   <v type="int" >       24        5        5        6        8 </v>
   <v type="int" >       24        5        5        6        7 </v>
   <v type="int" >       48        5        6        7        7 </v>
   <v type="int" >       48        6        6        7        8 </v>
   <v type="int" >       24        5        6        7        8 </v>
   <v type="int" >       24        3        6        7        7 </v>
   <v type="int" >       48        6        6       10       10 </v>
   <v type="int" >       24        3        7       10       10 </v>
   <v type="int" >       12        3        3       10       10 </v>
   <v type="int" >       24        5        8        8        8 </v>
   <v type="int" >       24        5        5        8        8 </v>
   <v type="int" >       24        5        5        5        8 </v>
   <v type="int" >       24        6        7        8        8 </v>
   <v type="int" >       24        6        7        7        8 </v>
   <v type="int" >       24        5        7        8        8 </v>
   <v type="int" >       24        5        5        7        8 </v>
   <v type="int" >       24        5        7        7        8 </v>
   <v type="int" >       72        6        6        6       10 </v>
   <v type="int" >       72        6        6        6        8 </v>
   <v type="int" >       60        6        6        8        8 </v>
   <v type="int" >       48        6        8        8        8 </v>
   <v type="int" >       24        2        7        9       10 </v>
   <v type="int" >       24        3        7        9       10 </v>
   <v type="int" >       24        3        3        9       10 </v>
   <v type="int" >       24        2        4        4        5 </v>
   <v type="int" >       24        2        4        5        5 </v>
   <v type="int" >       24        2        5        5        7 </v>
   <v type="int" >       24        2        2        4        5 </v>
   <v type="int" >       24        2        2        5        7 </v>
   <v type="int" >       36        1        1        4        4 </v>
   <v type="int" >       48        1        4        4        4 </v>
   <v type="int" >       24        2        4        4        4 </v>
   <v type="int" >       24        1        1        1        4 </v>
   <v type="int" >       12        3        3        9        9 </v>
   <v type="int" >       24        2        7        7       10 </v>
   <v type="int" >       24        2        7       10       10 </v>
   <v type="int" >       24        2        2        7       10 </v>
   <v type="int" >       12        3        3        3        3 </v>
   <v type="int" >       24        3        3        3        9 </v>
   <v type="int" >       24        4        5        5        5 </v>
   <v type="int" >       24        4        4        5        5 </v>
   <v type="int" >       24        4        4        4        5 </v>
   <v type="int" >       24        7        7        7       10 </v>
   <v type="int" >       12        7        7       10       10 </v>
   <v type="int" >       24        2        7        7        7 </v>
   <v type="int" >       12        2        2        7        7 </v>
   <v type="int" >       72        6        6        6        6 </v>
   <v type="int" >       12        1        1        1        1 </v>
   <v type="int" >       36        8        8        8        8 </v>
  </varray>
  <i name="volumeweight">      0.00032552 </i>
 </kpoints>
 <parameters>
  <separator name="general" >
   <i type="string" name="SYSTEM">unknown system</i>
   <i type="logical" name="LCOMPAT"> F  </i>
  </separator>
  <separator name="electronic" >
   <i type="string" name="PREC">accura</i>
   <i name="ENMAX">    100.00000000</i>
   <i name="ENAUG">    322.06900000</i>
   <i name="EDIFF">      0.00000200</i>
   <i type="int" name="IALGO">    68</i>
   <i type="int" name="IWAVPR">    10</i>
   <i type="int" name="NBANDS">     9</i>
   <i name="NELECT">      8.00000000</i>
   <i type="int" name="TURBO">     0</i>
   <i type="int" name="IRESTART">     0</i>
   <i type="int" name="NREBOOT">     0</i>
   <i type="int" name="NMIN">     0</i>
   <i name="EREF">      0.00000000</i>
   <separator name="electronic smearing" >
    <i type="int" name="ISMEAR">    -5</i>
    <i name="SIGMA">      0.20000000</i>
    <i name="KSPACING">      0.50000000</i>
    <i type="logical" name="KGAMMA"> T  </i>
   </separator>
   <separator name="electronic projectors" >
    <i type="logical" name="LREAL"> T  </i>
    <v name="ROPT">     -0.00025000</v>
    <i type="int" name="LMAXPAW">  -100</i>
    <i type="int" name="LMAXMIX">     2</i>
    <i type="logical" name="NLSPLINE"> F  </i>
   </separator>
   <separator name="electronic startup" >
    <i type="int" name="ISTART">     0</i>
    <i type="int" name="ICHARG">     2</i>
    <i type="int" name="INIWAV">     1</i>
   </separator>
   <separator name="electronic spin" >
    <i type="int" name="ISPIN">     2</i>
    <i type="logical" name="LNONCOLLINEAR"> F  </i>
    <v name="MAGMOM">      0.60000000      0.60000000</v>
    <i name="NUPDOWN">     -1.00000000</i>
    <i type="logical" name="LSORBIT"> F  </i>
    <v name="SAXIS">      0.00000000      0.00000000      1.00000000</v>
    <i type="logical" name="LSPIRAL"> F  </i>
    <v name="QSPIRAL">      0.00000000      0.00000000      0.00000000</v>
    <i type="logical" name="LZEROZ"> F  </i>
   </separator>
   <separator name="electronic exchange-correlation" >
    <i type="logical" name="LASPH"> F  </i>
    <i type="logical" name="LMETAGGA"> F  </i>
   </separator>
   <separator name="electronic convergence" >
    <i type="int" name="NELM">   100</i>
    <i type="int" name="NELMDL">     0</i>
    <i type="int" name="NELMIN">     2</i>
    <i name="ENINI">    100.00000000</i>
    <separator name="electronic convergence detail" >
     <i type="logical" name="LDIAG"> T  </i>
     <i type="logical" name="LSUBROT"> T  </i>
     <i name="WEIMIN">      0.00000000</i>
     <i name="EBREAK">      0.00000006</i>
     <i name="DEPER">      0.30000000</i>
     <i type="int" name="NRMM">     4</i>
     <i name="TIME">      0.40000000</i>
    </separator>
   </separator>
   <separator name="electronic mixer" >
    <i name="AMIX">      0.40000000</i>
    <i name="BMIX">      1.00000000</i>
    <i name="AMIN">      0.10000000</i>
    <i name="AMIX_MAG">      1.60000000</i>
    <i name="BMIX_MAG">      1.00000000</i>
    <separator name="electronic mixer details" >
     <i type="int" name="IMIX">     4</i>
     <i type="int" name="MAXMIX">   -45</i>
     <i name="WC">    100.00000000</i>
     <i type="int" name="INIMIX">     1</i>
     <i type="int" name="MIXPRE">     1</i>
     <i type="int" name="MREMOVE">     5</i>
    </separator>
   </separator>
   <separator name="electronic dipolcorrection" >
    <i type="logical" name="LDIPOL"> F  </i>
    <i type="logical" name="LMONO"> F  </i>
    <i type="int" name="IDIPOL">     0</i>
    <i name="EPSILON">      1.00000000</i>
    <v name="DIPOL">   -100.00000000   -100.00000000   -100.00000000</v>
    <i name="EFIELD">      0.00000000</i>
   </separator>
  </separator>
  <separator name="grids" >
   <i type="int" name="NGX">    14</i>
   <i type="int" name="NGY">    14</i>
   <i type="int" name="NGZ">    14</i>
   <i type="int" name="NGXF">    28</i>
   <i type="int" name="NGYF">    28</i>
   <i type="int" name="NGZF">    28</i>
   <i type="logical" name="ADDGRID"> F  </i>
  </separator>
  <separator name="ionic" >
   <i type="int" name="NSW">     0</i>
   <i type="int" name="IBRION">    -1</i>
   <i type="int" name="ISIF">     3</i>
   <i name="PSTRESS">      0.00000000</i>
   <i name="EDIFFG">      0.00002000</i>
   <i type="int" name="NFREE">     0</i>
   <i name="POTIM">      0.50000000</i>
   <i name="SMASS">     -3.00000000</i>
   <i name="SCALEE">      1.00000000</i>
  </separator>
  <separator name="ionic md" >
   <i name="TEBEG">      0.00010000</i>
   <i name="TEEND">      0.00010000</i>
   <i type="int" name="NBLOCK">     1</i>
   <i type="int" name="KBLOCK">     1</i>
   <i type="int" name="NPACO">   256</i>
   <i name="APACO">     16.00000000</i>
  </separator>
  <separator name="symmetry" >
   <i type="int" name="ISYM">     2</i>
   <i name="SYMPREC">      0.00001000</i>
  </separator>
  <separator name="dos" >
   <i type="logical" name="LORBIT"> F  </i>
   <v name="RWIGS">     -1.00000000</v>
   <i type="int" name="NEDOS">   301</i>
   <i name="EMIN">     10.00000000</i>
   <i name="EMAX">    -10.00000000</i>
   <i name="EFERMI">      0.00000000</i>
  </separator>
  <separator name="writing" >
   <i type="int" name="NWRITE">     2</i>
   <i type="logical" name="LWAVE"> F  </i>
   <i type="logical" name="LCHARG"> T  </i>
   <i type="logical" name="LPARD"> F  </i>
   <i type="logical" name="LVTOT"> F  </i>
   <i type="logical" name="LVHAR"> T  </i>
   <i type="logical" name="LELF"> F  </i>
   <i type="logical" name="LOPTICS"> F  </i>
   <v name="STM">      0.00000000      0.00000000      0.00000000      0.00000000      0.00000000      0.00000000      0.00000000</v>
  </separator>
  <separator name="performance" >
   <i type="int" name="NPAR">     1</i>
   <i type="int" name="NSIM">     4</i>
   <i type="int" name="NBLK">    -1</i>
   <i type="logical" name="LPLANE"> T  </i>
   <i type="logical" name="LSCALAPACK"> F  </i>
   <i type="logical" name="LSCAAWARE"> F  </i>
   <i type="logical" name="LSCALU"> F  </i>
   <i type="logical" name="LASYNC"> F  </i>
   <i type="logical" name="LORBITALREAL"> F  </i>
  </separator>
  <separator name="miscellaneous" >
   <i type="int" name="IDIOT">     3</i>
   <i type="logical" name="LMUSIC"> F  </i>
   <v name="POMASS">     28.08500000</v>
   <v name="DARWINR">      0.00000000</v>
   <v name="DARWINV">      1.00000000</v>
   <i type="logical" name="LCORR"> T  </i>
  </separator>
  <i type="logical" name="GGA_COMPAT"> T  </i>
  <i type="logical" name="LBERRY"> F  </i>
  <i type="int" name="ICORELEVEL">     0</i>
  <i type="logical" name="LDAU"> F  </i>
  <i type="int" name="I_CONSTRAINED_M">     0</i>
  <separator name="electronic exchange-correlation" >
   <i type="string" name="GGA">--</i>
   <i type="int" name="VOSKOWN">     0</i>
   <i type="logical" name="LHFCALC"> F  </i>
   <i type="string" name="PRECFOCK"></i>
   <i type="logical" name="LHFONE"> F  </i>
   <i type="logical" name="LRHFCALC"> F  </i>
   <i type="logical" name="LTHOMAS"> F  </i>
   <i type="logical" name="LMODELHF"> F  </i>
   <i name="ENCUT4O">     -1.00000000</i>
   <i type="int" name="EXXOEP">     0</i>
   <i type="int" name="FOURORBIT">     0</i>
   <i name="AEXX">      0.00000000</i>
   <i name="HFALPHA">      0.00000000</i>
   <i name="ALDAX">      1.00000000</i>
   <i name="AGGAX">      1.00000000</i>
   <i name="ALDAC">      1.00000000</i>
   <i name="AGGAC">      1.00000000</i>
   <i type="int" name="NKREDX">     1</i>
   <i type="int" name="NKREDY">     1</i>
   <i type="int" name="NKREDZ">     1</i>
   <i type="logical" name="SHIFTRED"> F  </i>
   <i type="logical" name="ODDONLY"> F  </i>
   <i type="logical" name="EVENONLY"> F  </i>
   <i type="int" name="LMAXFOCK">     0</i>
   <i type="int" name="NMAXFOCKAE">     0</i>
   <i type="logical" name="LFOCKAEDFT"> F  </i>
   <i name="HFSCREEN">      0.00000000</i>
   <i name="HFSCREENC">      0.00000000</i>
  </separator>
  <separator name="vdW DFT" >
   <i type="logical" name="LUSE_VDW"> F  </i>
   <i name="Zab_VDW">     -0.84910000</i>
   <i name="PARAM1">      0.12340000</i>
   <i name="PARAM2">      1.00000000</i>
   <i name="PARAM3">      0.00000000</i>
  </separator>
  <separator name="model GW" >
   <i type="int" name="MODEL_GW">     0</i>
   <i name="MODEL_EPS0">     12.26648785</i>
   <i name="MODEL_ALPHA">      1.00000000</i>
  </separator>
  <separator name="linear response parameters" >
   <i type="logical" name="LEPSILON"> F  </i>
   <i type="logical" name="LRPA"> F  </i>
   <i type="logical" name="LNABLA"> F  </i>
   <i type="logical" name="LVEL"> F  </i>
   <i type="int" name="KINTER">     0</i>
   <i name="CSHIFT">      0.10000000</i>
   <i name="OMEGAMAX">     -1.00000000</i>
  </separator>
  <separator name="orbital magnetization" >
   <i type="logical" name="NUCIND"> F  </i>
   <v name="MAGPOS">      0.00000000      0.00000000      0.00000000</v>
   <i type="logical" name="LNICSALL"> T  </i>
   <i type="logical" name="ORBITALMAG"> F  </i>
   <i type="logical" name="LMAGBLOCH"> F  </i>
   <i type="logical" name="LCHIMAG"> F  </i>
   <i type="logical" name="LGAUGE"> T  </i>
   <i type="int" name="MAGATOM">     0</i>
   <v name="MAGDIPOL">      0.00000000      0.00000000      0.00000000</v>
   <v name="AVECCONST">      0.00000000      0.00000000      0.00000000</v>
  </separator>
  <separator name="response functions" >
   <i type="logical" name="LADDER"> F  </i>
   <i type="logical" name="LHARTREE"> T  </i>
   <i type="int" name="IBSE">     0</i>
   <i type="logical" name="LTCTE"> F  </i>
   <i type="logical" name="LTETE"> F  </i>
   <i type="logical" name="LFXCEPS"> F  </i>
   <i type="logical" name="L2ORDER"> F  </i>
   <i type="logical" name="LUSEW"> F  </i>
   <i name="ENCUTGW">     -2.00000000</i>
   <i name="ENCUTGWSOFT">     -2.00000000</i>
   <i name="ENCUTLF">     -1.00000000</i>
   <i type="int" name="LMAXMP2">    -1</i>
   <i name="SCISSOR">      0.00000000</i>
   <i type="int" name="NOMEGA">     0</i>
   <i type="int" name="NOMEGAR">     0</i>
   <i type="int" name="NBANDSGW">    -1</i>
   <i type="int" name="NBANDSO">    -1</i>
   <i type="int" name="NBANDSV">    -1</i>
   <i name="OPTEMAX">      0.00000000</i>
   <i type="int" name="NELM">   100</i>
   <i type="int" name="DIM">     3</i>
   <i type="int" name="ANTIRES">     0</i>
   <i name="OMEGAMAX">    -30.00000000</i>
   <i name="OMEGATL">   -200.00000000</i>
   <i type="int" name="OMEGAGRID">     0</i>
   <i name="CSHIFT">     -0.10000000</i>
   <i type="logical" name="SELFENERGY"> F  </i>
   <i type="logical" name="LSPECTRAL"> F  </i>
   <i type="logical" name="ODDONLYGW"> F  </i>
   <i type="logical" name="EVENONLYGW"> F  </i>
   <i type="int" name="NKREDLFX">     1</i>
   <i type="int" name="NKREDLFY">     1</i>
   <i type="int" name="NKREDLFZ">     1</i>
   <i type="int" name="MAXMEM">  1800</i>
   <i type="int" name="TELESCOPE">     0</i>
  </separator>
 </parameters>
 <atominfo>
  <atoms>       2 </atoms>
  <types>       1 </types>
  <array name="atoms" >
   <dimension dim="1">ion</dimension>
   <field type="string">element</field>
   <field type="int">atomtype</field>
   <set>
    <rc><c>Si</c><c>   1</c></rc>
    <rc><c>Si</c><c>   1</c></rc>
   </set>
  </array>
  <array name="atomtypes" >
   <dimension dim="1">type</dimension>
   <field type="int">atomspertype</field>
   <field type="string">element</field>
   <field>mass</field>
   <field>valence</field>
   <field type="string">pseudopotential</field>
   <set>
    <rc><c>   2</c><c>Si</c><c>     28.08500000</c><c>      4.00000000</c><c> PAW_PBE Si 05Jan2001                   </c></rc>
   </set>
  </array>
 </atominfo>
 <structure name="initialpos" >
  <crystal>
   <varray name="basis" >
    <v>       0.00000000       2.73436400       2.73436400 </v>
    <v>       2.73436400       0.00000000       2.73436400 </v>
    <v>       2.73436400       2.73436400       0.00000000 </v>
   </varray>
   <i name="volume">     40.88829285 </i>
   <varray name="rec_basis" >
    <v>      -0.18285788       0.18285788       0.18285788 </v>
    <v>       0.18285788      -0.18285788       0.18285788 </v>
    <v>       0.18285788       0.18285788      -0.18285788 </v>
   </varray>
  </crystal>
  <varray name="positions" >
   <v>       0.37500000       0.37500000       0.37500000 </v>
   <v>       0.62500000       0.62500000       0.62500000 </v>
  </varray>
 </structure>
 <calculation>
  <scstep>
   <time name="dav">    0.34    0.34</time>
   <time name="total">    0.40    0.40</time>
   <energy>
    <i name="alphaZ">      3.29317524 </i>
    <i name="ewald">   -226.94490206 </i>
    <i name="hartreedc">    -11.32338909 </i>
    <i name="XCdc">    -18.60560879 </i>
    <i name="pawpsdc">     65.91709927 </i>
    <i name="pawaedc">    -30.72587073 </i>
    <i name="eentropy">      0.00000000 </i>
    <i name="bandstr">      5.64503734 </i>
    <i name="atom">    205.89114989 </i>
    <i name="e_fr_energy">     -6.85330892 </i>
    <i name="e_wo_entrp">     -6.85330892 </i>
    <i name="e_0_energy">     -6.85330892 </i>
   </energy>
  </scstep>
  <scstep>
   <time name="dav">    0.37    0.37</time>
   <time name="total">    0.37    0.37</time>
   <energy>
    <i name="e_fr_energy">    -10.57102383 </i>
    <i name="e_wo_entrp">    -10.57102383 </i>
    <i name="e_0_energy">    -10.57102383 </i>
   </energy>
  </scstep>
  <scstep>
   <time name="dav">    0.32    0.32</time>
   <time name="total">    0.32    0.32</time>
   <energy>
    <i name="e_fr_energy">    -10.60564613 </i>
    <i name="e_wo_entrp">    -10.60564613 </i>
    <i name="e_0_energy">    -10.60564613 </i>
   </energy>
  </scstep>
  <scstep>
   <time name="dav">    0.35    0.35</time>
   <time name="total">    0.35    0.35</time>
   <energy>
    <i name="e_fr_energy">    -10.60567935 </i>
    <i name="e_wo_entrp">    -10.60567935 </i>
    <i name="e_0_energy">    -10.60567935 </i>
   </energy>
  </scstep>
  <scstep>
   <time name="dav">    0.32    0.32</time>
   <time name="total">    0.32    0.32</time>
   <energy>
    <i name="e_fr_energy">    -10.60567938 </i>
    <i name="e_wo_entrp">    -10.60567938 </i>
    <i name="e_0_energy">    -10.60567938 </i>
   </energy>
  </scstep>
  <scstep>
   <time name="diag">    0.01    0.02</time>
   <time name="diis">    0.24    0.24</time>
   <time name="orth">    0.00    0.00</time>
   <time name="total">    0.30    0.30</time>
   <energy>
    <i name="e_fr_energy">    -10.68199083 </i>
    <i name="e_wo_entrp">    -10.68199083 </i>
    <i name="e_0_energy">    -10.68199083 </i>
   </energy>
  </scstep>
  <scstep>
   <time name="diag">    0.01    0.02</time>
   <time name="diis">    0.24    0.24</time>
   <time name="orth">    0.00    0.00</time>
   <time name="total">    0.30    0.31</time>
   <energy>
    <i name="e_fr_energy">    -10.62665764 </i>
    <i name="e_wo_entrp">    -10.62665764 </i>
    <i name="e_0_energy">    -10.62665764 </i>
   </energy>
  </scstep>
  <scstep>
   <time name="diag">    0.01    0.02</time>
   <time name="diis">    0.25    0.25</time>
   <time name="orth">    0.00    0.00</time>
   <time name="total">    0.31    0.31</time>
   <energy>
    <i name="e_fr_energy">    -10.64558057 </i>
    <i name="e_wo_entrp">    -10.64558057 </i>
    <i name="e_0_energy">    -10.64558057 </i>
   </energy>
  </scstep>
  <scstep>
   <time name="diag">    0.01    0.02</time>
   <time name="diis">    0.27    0.27</time>
   <time name="orth">    0.00    0.00</time>
   <time name="total">    0.33    0.33</time>
   <energy>
    <i name="e_fr_energy">    -10.64514321 </i>
    <i name="e_wo_entrp">    -10.64514321 </i>
    <i name="e_0_energy">    -10.64514321 </i>
   </energy>
  </scstep>
  <scstep>
   <time name="diag">    0.01    0.02</time>
   <time name="diis">    0.26    0.26</time>
   <time name="orth">    0.00    0.00</time>
   <time name="total">    0.32    0.32</time>
   <energy>
    <i name="e_fr_energy">    -10.64527541 </i>
    <i name="e_wo_entrp">    -10.64527541 </i>
    <i name="e_0_energy">    -10.64527541 </i>
   </energy>
  </scstep>
  <scstep>
   <time name="diag">    0.01    0.01</time>
   <time name="diis">    0.27    0.27</time>
   <time name="orth">    0.00    0.00</time>
   <time name="total">    0.33    0.33</time>
   <energy>
    <i name="e_fr_energy">    -10.64527903 </i>
    <i name="e_wo_entrp">    -10.64527903 </i>
    <i name="e_0_energy">    -10.64527903 </i>
   </energy>
  </scstep>
  <scstep>
   <time name="diag">    0.01    0.01</time>
   <time name="diis">    0.24    0.24</time>
   <time name="orth">    0.00    0.00</time>
   <time name="total">    0.30    0.30</time>
   <energy>
    <i name="e_fr_energy">    -10.64527583 </i>
    <i name="e_wo_entrp">    -10.64527583 </i>
    <i name="e_0_energy">    -10.64527583 </i>
   </energy>
  </scstep>
  <scstep>
   <time name="diag">    0.01    0.01</time>
   <time name="diis">    0.20    0.20</time>
   <time name="orth">    0.00    0.00</time>
   <time name="total">    0.25    0.25</time>
   <energy>
    <i name="alphaZ">      3.29317524 </i>
    <i name="ewald">   -226.94490206 </i>
    <i name="hartreedc">    -14.98908548 </i>
    <i name="XCdc">    -18.03126256 </i>
    <i name="pawpsdc">     75.11949708 </i>
    <i name="pawaedc">    -40.11225680 </i>
    <i name="eentropy">      0.00000000 </i>
    <i name="bandstr">      5.12840694 </i>
    <i name="atom">    205.89114989 </i>
    <i name="e_fr_energy">    -10.64527774 </i>
    <i name="e_wo_entrp">    -10.64527774 </i>
    <i name="e_0_energy">    -10.64527774 </i>
   </energy>
  </scstep>
  <parameters_embedded>
   <separator name="dft+d2" >
    <i type="logical" name="LVDW"> F  </i>
   </separator>
  </parameters_embedded>
  <structure>
   <crystal>
    <varray name="basis" >
     <v>       0.00000000       2.73436400       2.73436400 </v>
     <v>       2.73436400       0.00000000       2.73436400 </v>
     <v>       2.73436400       2.73436400       0.00000000 </v>
    </varray>
    <i name="volume">     40.88829285 </i>
    <varray name="rec_basis" >
     <v>      -0.18285788       0.18285788       0.18285788 </v>
     <v>       0.18285788      -0.18285788       0.18285788 </v>
     <v>       0.18285788       0.18285788      -0.18285788 </v>
    </varray>
   </crystal>
   <varray name="positions" >
    <v>       0.37500000       0.37500000       0.37500000 </v>
    <v>       0.62500000       0.62500000       0.62500000 </v>
   </varray>
  </structure>
  <varray name="forces" >
   <v>      -0.00000000       0.00000000      -0.00000000 </v>
   <v>       0.00000000      -0.00000000       0.00000000 </v>
  </varray>
  <varray name="stress" >
   <v>     -15.22611937      -0.00000000       0.00000000 </v>
   <v>      -0.00000000     -15.22611937      -0.00000000 </v>
   <v>       0.00000000      -0.00000000     -15.22611937 </v>
  </varray>
  <energy>
   <i name="e_fr_energy">    -10.64527774 </i>
   <i name="e_wo_entrp">    -10.64527774 </i>
   <i name="e_0_energy">      0.00000000 </i>
  </energy>
  <time name="totalsc">    5.06    5.07</time>
  <eigenvalues>
   <array>
    <dimension dim="1">band</dimension>
    <dimension dim="2">kpoint</dimension>
    <dimension dim="3">spin</dimension>
    <field>eigene</field>
    <field>occ</field>
    <set>
     <set comment="spin 1">
      <set comment="kpoint 1">
       <r>   -6.0189    1.0000 </r>
       <r>    4.1169    1.0000 </r>
       <r>    5.4316    1.0000 </r>
       <r>    5.4316    1.0000 </r>
       <r>    8.1996    0.0000 </r>
       <r>    8.7435    0.0000 </r>
       <r>    8.7435    0.0000 </r>
       <r>   10.2174    0.0000 </r>
       <r>   13.4405    0.0000 </r>
      </set>
      <set comment="kpoint 2">
       <r>   -4.9871    1.0000 </r>
       <r>    1.0646    1.0000 </r>
       <r>    3.4026    1.0000 </r>
       <r>    4.9291    1.0000 </r>
       <r>    8.4057    0.0000 </r>
       <r>    9.4800    0.0000 </r>
       <r>    9.7177    0.0000 </r>
       <r>   12.0221    0.0000 </r>
       <r>   12.6275    0.0000 </r>
      </set>
      <set comment="kpoint 3">
       <r>   -3.8419    1.0000 </r>
       <r>   -1.0402    1.0000 </r>
       <r>    3.4259    1.0000 </r>
       <r>    4.1376    1.0000 </r>
       <r>    7.9229    0.0000 </r>
       <r>    9.3395    0.0000 </r>
       <r>   10.0175    0.0000 </r>
       <r>   13.2111    0.0000 </r>
       <r>   14.8719    0.0000 </r>
      </set>
      <set comment="kpoint 4">
       <r>   -5.4870    1.0000 </r>
       <r>    2.4773    1.0000 </r>
       <r>    4.3972    1.0000 </r>
       <r>    4.4732    1.0000 </r>
       <r>    7.9308    0.0000 </r>
       <r>    9.3974    0.0000 </r>
       <r>   10.3558    0.0000 </r>
       <r>   10.6652    0.0000 </r>
       <r>   13.2787    0.0000 </r>
      </set>
      <set comment="kpoint 5">
       <r>   -4.4515    1.0000 </r>
       <r>    0.7362    1.0000 </r>
       <r>    3.0417    1.0000 </r>
       <r>    3.5014    1.0000 </r>
       <r>    7.1526    0.0000 </r>
       <r>    8.7341    0.0000 </r>
       <r>   11.8134    0.0000 </r>
       <r>   12.2070    0.0000 </r>
       <r>   15.8359    0.0000 </r>
      </set>
      <set comment="kpoint 6">
       <r>   -2.8049    1.0000 </r>
       <r>   -1.2605    1.0000 </r>
       <r>    1.6708    1.0000 </r>
       <r>    2.7589    1.0000 </r>
       <r>    8.1799    0.0000 </r>
       <r>   10.1670    0.0000 </r>
       <r>   11.0649    0.0000 </r>
       <r>   13.2400    0.0000 </r>
       <r>   14.3955    0.0000 </r>
      </set>
      <set comment="kpoint 7">
       <r>   -4.0350    1.0000 </r>
       <r>   -0.1601    1.0000 </r>
       <r>    2.3933    1.0000 </r>
       <r>    3.7847    1.0000 </r>
       <r>    8.6688    0.0000 </r>
       <r>    9.3766    0.0000 </r>
       <r>   10.8516    0.0000 </r>
       <r>   11.8600    0.0000 </r>
       <r>   15.0217    0.0000 </r>
      </set>
      <set comment="kpoint 8">
       <r>   -2.9756    1.0000 </r>
       <r>   -1.1551    1.0000 </r>
       <r>    2.2747    1.0000 </r>
       <r>    3.0236    1.0000 </r>
       <r>    6.7056    0.0000 </r>
       <r>    7.7699    0.0000 </r>
       <r>   14.1673    0.0000 </r>
       <r>   14.1834    0.0000 </r>
       <r>   16.6875    0.0000 </r>
      </set>
      <set comment="kpoint 9">
       <r>   -4.5502    1.0000 </r>
       <r>   -0.2393    1.0000 </r>
       <r>    4.6160    1.0000 </r>
       <r>    4.6160    1.0000 </r>
       <r>    7.3224    0.0000 </r>
       <r>    9.2993    0.0000 </r>
       <r>    9.2993    0.0000 </r>
       <r>   13.5354    0.0000 </r>
       <r>   14.8011    0.0000 </r>
      </set>
      <set comment="kpoint 10">
       <r>   -3.3439    1.0000 </r>
       <r>   -0.9566    1.0000 </r>
       <r>    1.7324    1.0000 </r>
       <r>    3.8187    1.0000 </r>
       <r>    7.6209    0.0000 </r>
       <r>   11.2990    0.0000 </r>
       <r>   11.3592    0.0000 </r>
       <r>   12.8022    0.0000 </r>
       <r>   13.7441    0.0000 </r>
      </set>
     </set>
     <set comment="spin 2">
      <set comment="kpoint 1">
       <r>   -6.0192    1.0000 </r>
       <r>    4.1164    1.0000 </r>
       <r>    5.4311    1.0000 </r>
       <r>    5.4311    1.0000 </r>
       <r>    8.1993    0.0000 </r>
       <r>    8.7431    0.0000 </r>
       <r>    8.7431    0.0000 </r>
       <r>   10.2169    0.0000 </r>
       <r>   13.4404    0.0000 </r>
      </set>
      <set comment="kpoint 2">
       <r>   -4.9875    1.0000 </r>
       <r>    1.0641    1.0000 </r>
       <r>    3.4023    1.0000 </r>
       <r>    4.9286    1.0000 </r>
       <r>    8.4054    0.0000 </r>
       <r>    9.4798    0.0000 </r>
       <r>    9.7176    0.0000 </r>
       <r>   12.0220    0.0000 </r>
       <r>   12.6275    0.0000 </r>
      </set>
      <set comment="kpoint 3">
       <r>   -3.8423    1.0000 </r>
       <r>   -1.0405    1.0000 </r>
       <r>    3.4255    1.0000 </r>
       <r>    4.1371    1.0000 </r>
       <r>    7.9227    0.0000 </r>
       <r>    9.3393    0.0000 </r>
       <r>   10.0173    0.0000 </r>
       <r>   13.2111    0.0000 </r>
       <r>   14.8722    0.0000 </r>
      </set>
      <set comment="kpoint 4">
       <r>   -5.4874    1.0000 </r>
       <r>    2.4769    1.0000 </r>
       <r>    4.3968    1.0000 </r>
       <r>    4.4728    1.0000 </r>
       <r>    7.9307    0.0000 </r>
       <r>    9.3970    0.0000 </r>
       <r>   10.3554    0.0000 </r>
       <r>   10.6652    0.0000 </r>
       <r>   13.2784    0.0000 </r>
      </set>
      <set comment="kpoint 5">
       <r>   -4.4519    1.0000 </r>
       <r>    0.7357    1.0000 </r>
       <r>    3.0414    1.0000 </r>
       <r>    3.5010    1.0000 </r>
       <r>    7.1526    0.0000 </r>
       <r>    8.7342    0.0000 </r>
       <r>   11.8131    0.0000 </r>
       <r>   12.2067    0.0000 </r>
       <r>   15.8354    0.0000 </r>
      </set>
      <set comment="kpoint 6">
       <r>   -2.8053    1.0000 </r>
       <r>   -1.2609    1.0000 </r>
       <r>    1.6706    1.0000 </r>
       <r>    2.7585    1.0000 </r>
       <r>    8.1798    0.0000 </r>
       <r>   10.1670    0.0000 </r>
       <r>   11.0647    0.0000 </r>
       <r>   13.2398    0.0000 </r>
       <r>   14.3953    0.0000 </r>
      </set>
      <set comment="kpoint 7">
       <r>   -4.0354    1.0000 </r>
       <r>   -0.1605    1.0000 </r>
       <r>    2.3930    1.0000 </r>
       <r>    3.7844    1.0000 </r>
       <r>    8.6686    0.0000 </r>
       <r>    9.3765    0.0000 </r>
       <r>   10.8515    0.0000 </r>
       <r>   11.8597    0.0000 </r>
       <r>   15.0215    0.0000 </r>
      </set>
      <set comment="kpoint 8">
       <r>   -2.9760    1.0000 </r>
       <r>   -1.1556    1.0000 </r>
       <r>    2.2744    1.0000 </r>
       <r>    3.0232    1.0000 </r>
       <r>    6.7057    0.0000 </r>
       <r>    7.7699    0.0000 </r>
       <r>   14.1669    0.0000 </r>
       <r>   14.1830    0.0000 </r>
       <r>   16.6839    0.0000 </r>
      </set>
      <set comment="kpoint 9">
       <r>   -4.5506    1.0000 </r>
       <r>   -0.2397    1.0000 </r>
       <r>    4.6155    1.0000 </r>
       <r>    4.6155    1.0000 </r>
       <r>    7.3221    0.0000 </r>
       <r>    9.2991    0.0000 </r>
       <r>    9.2991    0.0000 </r>
       <r>   13.5359    0.0000 </r>
       <r>   14.8009    0.0000 </r>
      </set>
      <set comment="kpoint 10">
       <r>   -3.3443    1.0000 </r>
       <r>   -0.9570    1.0000 </r>
       <r>    1.7322    1.0000 </r>
       <r>    3.8183    1.0000 </r>
       <r>    7.6209    0.0000 </r>
       <r>   11.2989    0.0000 </r>
       <r>   11.3589    0.0000 </r>
       <r>   12.8020    0.0000 </r>
       <r>   13.7439    0.0000 </r>
      </set>
     </set>
    </set>
   </array>
  </eigenvalues>
  <separator name="orbital magnetization" >
   <v name="MAGDIPOLOUT">      0.00000000      0.00000000      0.00000000</v>
  </separator>
  <dos>
   <i name="efermi">      5.46766285 </i>
   <total>
    <array>
     <dimension dim="1">gridpoints</dimension>
     <dimension dim="2">spin</dimension>
     <field>energy</field>
     <field>total</field>
     <field>integrated</field>
     <set>
      <set comment="spin 1">
       <r>    -8.0192     0.0000     0.0000 </r>
       <r>    -7.9302     0.0000     0.0000 </r>
       <r>    -7.8412     0.0000     0.0000 </r>
       <r>    -7.7522     0.0000     0.0000 </r>
       <r>    -7.6631     0.0000     0.0000 </r>
       <r>    -7.5741     0.0000     0.0000 </r>
       <r>    -7.4851     0.0000     0.0000 </r>
       <r>    -7.3961     0.0000     0.0000 </r>
       <r>    -7.3070     0.0000     0.0000 </r>
       <r>    -7.2180     0.0000     0.0000 </r>
       <r>    -7.1290     0.0000     0.0000 </r>
       <r>    -7.0400     0.0000     0.0000 </r>
       <r>    -6.9510     0.0000     0.0000 </r>
       <r>    -6.8619     0.0000     0.0000 </r>
       <r>    -6.7729     0.0000     0.0000 </r>
       <r>    -6.6839     0.0000     0.0000 </r>
       <r>    -6.5949     0.0000     0.0000 </r>
       <r>    -6.5058     0.0000     0.0000 </r>
       <r>    -6.4168     0.0000     0.0000 </r>
       <r>    -6.3278     0.0000     0.0000 </r>
       <r>    -6.2388     0.0000     0.0000 </r>
       <r>    -6.1498     0.0000     0.0000 </r>
       <r>    -6.0607     0.0000     0.0000 </r>
       <r>    -5.9717     0.0523     0.0062 </r>
       <r>    -5.8827     0.0690     0.0116 </r>
       <r>    -5.7937     0.0875     0.0185 </r>
       <r>    -5.7046     0.1078     0.0272 </r>
       <r>    -5.6156     0.1297     0.0378 </r>
       <r>    -5.5266     0.1534     0.0503 </r>
       <r>    -5.4376     0.1522     0.0640 </r>
       <r>    -5.3485     0.1629     0.0780 </r>
       <r>    -5.2595     0.1729     0.0930 </r>
       <r>    -5.1705     0.1822     0.1088 </r>
       <r>    -5.0815     0.1908     0.1254 </r>
       <r>    -4.9925     0.1987     0.1428 </r>
       <r>    -4.9034     0.2108     0.1610 </r>
       <r>    -4.8144     0.2249     0.1803 </r>
       <r>    -4.7254     0.2408     0.2010 </r>
       <r>    -4.6364     0.2586     0.2233 </r>
       <r>    -4.5473     0.2783     0.2471 </r>
       <r>    -4.4583     0.3040     0.2730 </r>
       <r>    -4.3693     0.3176     0.3005 </r>
       <r>    -4.2803     0.3356     0.3296 </r>
       <r>    -4.1913     0.3519     0.3602 </r>
       <r>    -4.1022     0.3664     0.3922 </r>
       <r>    -4.0132     0.4133     0.4258 </r>
       <r>    -3.9242     0.5117     0.4672 </r>
       <r>    -3.8352     0.4257     0.5191 </r>
       <r>    -3.7461     0.4212     0.5568 </r>
       <r>    -3.6571     0.4133     0.5940 </r>
       <r>    -3.5681     0.4021     0.6303 </r>
       <r>    -3.4791     0.3875     0.6654 </r>
       <r>    -3.3901     0.3695     0.6992 </r>
       <r>    -3.3010     0.3694     0.7316 </r>
       <r>    -3.2120     0.3862     0.7653 </r>
       <r>    -3.1230     0.3964     0.8001 </r>
       <r>    -3.0340     0.3999     0.8356 </r>
       <r>    -2.9449     0.6447     0.8906 </r>
       <r>    -2.8559     0.6052     0.9463 </r>
       <r>    -2.7669     0.0000     1.0000 </r>
       <r>    -2.6779     0.0000     1.0000 </r>
       <r>    -2.5889     0.0000     1.0000 </r>
       <r>    -2.4998     0.0000     1.0000 </r>
       <r>    -2.4108     0.0000     1.0000 </r>
       <r>    -2.3218     0.0000     1.0000 </r>
       <r>    -2.2328     0.0000     1.0000 </r>
       <r>    -2.1437     0.0000     1.0000 </r>
       <r>    -2.0547     0.0000     1.0000 </r>
       <r>    -1.9657     0.0000     1.0000 </r>
       <r>    -1.8767     0.0000     1.0000 </r>
       <r>    -1.7877     0.0000     1.0000 </r>
       <r>    -1.6986     0.0000     1.0000 </r>
       <r>    -1.6096     0.0000     1.0000 </r>
       <r>    -1.5206     0.0000     1.0000 </r>
       <r>    -1.4316     0.0000     1.0000 </r>
       <r>    -1.3425     0.0000     1.0000 </r>
       <r>    -1.2535     0.9496     1.0300 </r>
       <r>    -1.1645     1.0705     1.1197 </r>
       <r>    -1.0755     0.6570     1.1944 </r>
       <r>    -0.9865     0.6346     1.2571 </r>
       <r>    -0.8974     0.5203     1.3059 </r>
       <r>    -0.8084     0.4953     1.3512 </r>
       <r>    -0.7194     0.4685     1.3941 </r>
       <r>    -0.6304     0.4398     1.4345 </r>
       <r>    -0.5413     0.4093     1.4723 </r>
       <r>    -0.4523     0.3770     1.5073 </r>
       <r>    -0.3633     0.3428     1.5394 </r>
       <r>    -0.2743     0.3067     1.5683 </r>
       <r>    -0.1853     0.2711     1.5940 </r>
       <r>    -0.0962     0.2428     1.6165 </r>
       <r>    -0.0072     0.2317     1.6376 </r>
       <r>     0.0818     0.2209     1.6577 </r>
       <r>     0.1708     0.2104     1.6769 </r>
       <r>     0.2599     0.2004     1.6952 </r>
       <r>     0.3489     0.1907     1.7126 </r>
       <r>     0.4379     0.1814     1.7292 </r>
       <r>     0.5269     0.1724     1.7449 </r>
       <r>     0.6159     0.1639     1.7599 </r>
       <r>     0.7050     0.1557     1.7741 </r>
       <r>     0.7940     0.1466     1.7876 </r>
       <r>     0.8830     0.1360     1.8002 </r>
       <r>     0.9720     0.1262     1.8118 </r>
       <r>     1.0611     0.1172     1.8227 </r>
       <r>     1.1501     0.1125     1.8329 </r>
       <r>     1.2391     0.1081     1.8427 </r>
       <r>     1.3281     0.1038     1.8521 </r>
       <r>     1.4171     0.0996     1.8612 </r>
       <r>     1.5062     0.0955     1.8699 </r>
       <r>     1.5952     0.0914     1.8782 </r>
       <r>     1.6842     1.2939     1.9266 </r>
       <r>     1.7732     0.5807     1.9971 </r>
       <r>     1.8623     0.5892     2.0493 </r>
       <r>     1.9513     0.5920     2.1019 </r>
       <r>     2.0403     0.5891     2.1545 </r>
       <r>     2.1293     0.5806     2.2066 </r>
       <r>     2.2183     0.5665     2.2577 </r>
       <r>     2.3074     0.4988     2.3175 </r>
       <r>     2.3964     0.4615     2.3607 </r>
       <r>     2.4854     0.4454     2.4011 </r>
       <r>     2.5744     0.4309     2.4401 </r>
       <r>     2.6635     0.4163     2.4778 </r>
       <r>     2.7525     0.4015     2.5142 </r>
       <r>     2.8415     0.8145     2.6060 </r>
       <r>     2.9305     0.8534     2.6803 </r>
       <r>     3.0195     0.8920     2.7580 </r>
       <r>     3.1086     0.7591     2.8378 </r>
       <r>     3.1976     0.7637     2.9056 </r>
       <r>     3.2866     0.7650     2.9736 </r>
       <r>     3.3756     0.7631     3.0417 </r>
       <r>     3.4647     0.7520     3.1131 </r>
       <r>     3.5537     0.7123     3.1782 </r>
       <r>     3.6427     0.6960     3.2408 </r>
       <r>     3.7317     0.6831     3.3022 </r>
       <r>     3.8207     0.7993     3.3775 </r>
       <r>     3.9098     0.7477     3.4463 </r>
       <r>     3.9988     0.6976     3.5107 </r>
       <r>     4.0878     0.6490     3.5706 </r>
       <r>     4.1768     0.5686     3.6325 </r>
       <r>     4.2659     0.5187     3.6809 </r>
       <r>     4.3549     0.4705     3.7249 </r>
       <r>     4.4439     0.4283     3.7649 </r>
       <r>     4.5329     0.4656     3.8058 </r>
       <r>     4.6220     0.4219     3.8453 </r>
       <r>     4.7110     0.3725     3.8809 </r>
       <r>     4.8000     0.3026     3.9111 </r>
       <r>     4.8890     0.2124     3.9341 </r>
       <r>     4.9780     0.1507     3.9494 </r>
       <r>     5.0671     0.1260     3.9617 </r>
       <r>     5.1561     0.1034     3.9719 </r>
       <r>     5.2451     0.0830     3.9802 </r>
       <r>     5.3341     0.0647     3.9868 </r>
       <r>     5.4232     0.0485     3.9918 </r>
       <r>     5.5122     0.0000     4.0000 </r>
       <r>     5.6012     0.0000     4.0000 </r>
       <r>     5.6902     0.0000     4.0000 </r>
       <r>     5.7792     0.0000     4.0000 </r>
       <r>     5.8683     0.0000     4.0000 </r>
       <r>     5.9573     0.0000     4.0000 </r>
       <r>     6.0463     0.0000     4.0000 </r>
       <r>     6.1353     0.0000     4.0000 </r>
       <r>     6.2244     0.0000     4.0000 </r>
       <r>     6.3134     0.0000     4.0000 </r>
       <r>     6.4024     0.0000     4.0000 </r>
       <r>     6.4914     0.0000     4.0000 </r>
       <r>     6.5804     0.0000     4.0000 </r>
       <r>     6.6695     0.0000     4.0000 </r>
       <r>     6.7585     0.0944     4.0164 </r>
       <r>     6.8475     0.1128     4.0256 </r>
       <r>     6.9365     0.1329     4.0366 </r>
       <r>     7.0256     0.1546     4.0493 </r>
       <r>     7.1146     0.1780     4.0641 </r>
       <r>     7.2036     0.1801     4.0799 </r>
       <r>     7.2926     0.2090     4.0972 </r>
       <r>     7.3816     0.2486     4.1175 </r>
       <r>     7.4707     0.2993     4.1418 </r>
       <r>     7.5597     0.3594     4.1710 </r>
       <r>     7.6487     0.4537     4.2064 </r>
       <r>     7.7377     0.5996     4.2533 </r>
       <r>     7.8268     0.7837     4.3272 </r>
       <r>     7.9158     0.9166     4.4029 </r>
       <r>     8.0048     1.2094     4.5072 </r>
       <r>     8.0938     1.2664     4.6178 </r>
       <r>     8.1828     1.1894     4.7543 </r>
       <r>     8.2719     0.9508     4.8513 </r>
       <r>     8.3609     0.7894     4.9288 </r>
       <r>     8.4499     0.6283     4.9919 </r>
       <r>     8.5389     0.4697     5.0407 </r>
       <r>     8.6280     0.3132     5.0756 </r>
       <r>     8.7170     0.1366     5.0933 </r>
       <r>     8.8060     0.2420     5.1188 </r>
       <r>     8.8950     0.3064     5.1432 </r>
       <r>     8.9840     0.3822     5.1737 </r>
       <r>     9.0731     0.4694     5.2115 </r>
       <r>     9.1621     0.5680     5.2576 </r>
       <r>     9.2511     0.6781     5.3130 </r>
       <r>     9.3401     2.0559     5.4037 </r>
       <r>     9.4292     1.7935     5.5874 </r>
       <r>     9.5182     0.4423     5.6622 </r>
       <r>     9.6072     0.4783     5.7031 </r>
       <r>     9.6962     0.5214     5.7476 </r>
       <r>     9.7852     0.5696     5.7962 </r>
       <r>     9.8743     0.6076     5.8487 </r>
       <r>     9.9633     0.6338     5.9040 </r>
       <r>    10.0523     0.6429     5.9649 </r>
       <r>    10.1413     0.6479     6.0224 </r>
       <r>    10.2304     0.6679     6.1062 </r>
       <r>    10.3194     0.6695     6.1657 </r>
       <r>    10.4084     0.6204     6.2227 </r>
       <r>    10.4974     0.6229     6.2781 </r>
       <r>    10.5864     0.6275     6.3337 </r>
       <r>    10.6755     0.5602     6.3891 </r>
       <r>    10.7645     0.5524     6.4386 </r>
       <r>    10.8535     0.5767     6.4875 </r>
       <r>    10.9425     0.7877     6.5487 </r>
       <r>    11.0316     0.9474     6.6263 </r>
       <r>    11.1206     0.9059     6.7362 </r>
       <r>    11.2096     0.6928     6.8074 </r>
       <r>    11.2986     0.4735     6.8593 </r>
       <r>    11.3876     0.3275     6.8931 </r>
       <r>    11.4767     0.3149     6.9217 </r>
       <r>    11.5657     0.3048     6.9493 </r>
       <r>    11.6547     0.2972     6.9760 </r>
       <r>    11.7437     0.2921     7.0022 </r>
       <r>    11.8328     0.2851     7.0280 </r>
       <r>    11.9218     0.5432     7.0669 </r>
       <r>    12.0108     0.5979     7.1183 </r>
       <r>    12.0998     0.5320     7.1689 </r>
       <r>    12.1888     0.4684     7.2134 </r>
       <r>    12.2779     0.4671     7.2544 </r>
       <r>    12.3669     0.4815     7.2967 </r>
       <r>    12.4559     0.4933     7.3401 </r>
       <r>    12.5449     0.5023     7.3844 </r>
       <r>    12.6340     0.5113     7.4294 </r>
       <r>    12.7230     0.5503     7.4767 </r>
       <r>    12.8120     0.5883     7.5273 </r>
       <r>    12.9010     0.6494     7.5824 </r>
       <r>    12.9900     0.7079     7.6428 </r>
       <r>    13.0791     0.7637     7.7083 </r>
       <r>    13.1681     0.8168     7.7787 </r>
       <r>    13.2571     0.6140     7.8761 </r>
       <r>    13.3461     0.7098     7.9421 </r>
       <r>    13.4352     0.5324     7.9972 </r>
       <r>    13.5242     0.3372     8.0338 </r>
       <r>    13.6132     0.3199     8.0629 </r>
       <r>    13.7022     0.3063     8.0907 </r>
       <r>    13.7913     0.3152     8.1180 </r>
       <r>    13.8803     0.3456     8.1474 </r>
       <r>    13.9693     0.3788     8.1796 </r>
       <r>    14.0583     0.4149     8.2149 </r>
       <r>    14.1473     0.4538     8.2535 </r>
       <r>    14.2364     0.4169     8.3144 </r>
       <r>    14.3254     0.4732     8.3540 </r>
       <r>    14.4144     0.5211     8.4221 </r>
       <r>    14.5034     0.5384     8.4693 </r>
       <r>    14.5925     0.5494     8.5177 </r>
       <r>    14.6815     0.5541     8.5669 </r>
       <r>    14.7705     0.5523     8.6162 </r>
       <r>    14.8595     0.8630     8.6739 </r>
       <r>    14.9485     0.4986     8.7372 </r>
       <r>    15.0376     0.2544     8.7697 </r>
       <r>    15.1266     0.2345     8.7914 </r>
       <r>    15.2156     0.2159     8.8115 </r>
       <r>    15.3046     0.1984     8.8299 </r>
       <r>    15.3937     0.1821     8.8468 </r>
       <r>    15.4827     0.1670     8.8624 </r>
       <r>    15.5717     0.1531     8.8766 </r>
       <r>    15.6607     0.1404     8.8897 </r>
       <r>    15.7497     0.1289     8.9016 </r>
       <r>    15.8388     0.1369     8.9127 </r>
       <r>    15.9278     0.1257     8.9244 </r>
       <r>    16.0168     0.1149     8.9351 </r>
       <r>    16.1058     0.1045     8.9449 </r>
       <r>    16.1949     0.0946     8.9537 </r>
       <r>    16.2839     0.0852     8.9617 </r>
       <r>    16.3729     0.0762     8.9689 </r>
       <r>    16.4619     0.0676     8.9753 </r>
       <r>    16.5509     0.0595     8.9810 </r>
       <r>    16.6400     0.0519     8.9859 </r>
       <r>    16.7290     0.0000     9.0000 </r>
       <r>    16.8180     0.0000     9.0000 </r>
       <r>    16.9070     0.0000     9.0000 </r>
       <r>    16.9961     0.0000     9.0000 </r>
       <r>    17.0851     0.0000     9.0000 </r>
       <r>    17.1741     0.0000     9.0000 </r>
       <r>    17.2631     0.0000     9.0000 </r>
       <r>    17.3521     0.0000     9.0000 </r>
       <r>    17.4412     0.0000     9.0000 </r>
       <r>    17.5302     0.0000     9.0000 </r>
       <r>    17.6192     0.0000     9.0000 </r>
       <r>    17.7082     0.0000     9.0000 </r>
       <r>    17.7973     0.0000     9.0000 </r>
       <r>    17.8863     0.0000     9.0000 </r>
       <r>    17.9753     0.0000     9.0000 </r>
       <r>    18.0643     0.0000     9.0000 </r>
       <r>    18.1533     0.0000     9.0000 </r>
       <r>    18.2424     0.0000     9.0000 </r>
       <r>    18.3314     0.0000     9.0000 </r>
       <r>    18.4204     0.0000     9.0000 </r>
       <r>    18.5094     0.0000     9.0000 </r>
       <r>    18.5985     0.0000     9.0000 </r>
       <r>    18.6875     0.0000     9.0000 </r>
      </set>
      <set comment="spin 2">
       <r>    -8.0192     0.0000     0.0000 </r>
       <r>    -7.9302     0.0000     0.0000 </r>
       <r>    -7.8412     0.0000     0.0000 </r>
       <r>    -7.7522     0.0000     0.0000 </r>
       <r>    -7.6631     0.0000     0.0000 </r>
       <r>    -7.5741     0.0000     0.0000 </r>
       <r>    -7.4851     0.0000     0.0000 </r>
       <r>    -7.3961     0.0000     0.0000 </r>
       <r>    -7.3070     0.0000     0.0000 </r>
       <r>    -7.2180     0.0000     0.0000 </r>
       <r>    -7.1290     0.0000     0.0000 </r>
       <r>    -7.0400     0.0000     0.0000 </r>
       <r>    -6.9510     0.0000     0.0000 </r>
       <r>    -6.8619     0.0000     0.0000 </r>
       <r>    -6.7729     0.0000     0.0000 </r>
       <r>    -6.6839     0.0000     0.0000 </r>
       <r>    -6.5949     0.0000     0.0000 </r>
       <r>    -6.5058     0.0000     0.0000 </r>
       <r>    -6.4168     0.0000     0.0000 </r>
       <r>    -6.3278     0.0000     0.0000 </r>
       <r>    -6.2388     0.0000     0.0000 </r>
       <r>    -6.1498     0.0000     0.0000 </r>
       <r>    -6.0607     0.0000     0.0000 </r>
       <r>    -5.9717     0.0523     0.0062 </r>
       <r>    -5.8827     0.0691     0.0116 </r>
       <r>    -5.7937     0.0876     0.0185 </r>
       <r>    -5.7046     0.1078     0.0272 </r>
       <r>    -5.6156     0.1298     0.0378 </r>
       <r>    -5.5266     0.1535     0.0504 </r>
       <r>    -5.4376     0.1522     0.0641 </r>
       <r>    -5.3485     0.1630     0.0781 </r>
       <r>    -5.2595     0.1730     0.0931 </r>
       <r>    -5.1705     0.1823     0.1089 </r>
       <r>    -5.0815     0.1908     0.1255 </r>
       <r>    -4.9925     0.1987     0.1428 </r>
       <r>    -4.9034     0.2108     0.1610 </r>
       <r>    -4.8144     0.2250     0.1804 </r>
       <r>    -4.7254     0.2409     0.2011 </r>
       <r>    -4.6364     0.2587     0.2234 </r>
       <r>    -4.5473     0.2784     0.2472 </r>
       <r>    -4.4583     0.3041     0.2732 </r>
       <r>    -4.3693     0.3177     0.3006 </r>
       <r>    -4.2803     0.3357     0.3297 </r>
       <r>    -4.1913     0.3520     0.3603 </r>
       <r>    -4.1022     0.3665     0.3923 </r>
       <r>    -4.0132     0.4138     0.4260 </r>
       <r>    -3.9242     0.5122     0.4674 </r>
       <r>    -3.8352     0.4257     0.5192 </r>
       <r>    -3.7461     0.4212     0.5570 </r>
       <r>    -3.6571     0.4133     0.5941 </r>
       <r>    -3.5681     0.4020     0.6304 </r>
       <r>    -3.4791     0.3874     0.6656 </r>
       <r>    -3.3901     0.3694     0.6993 </r>
       <r>    -3.3010     0.3695     0.7317 </r>
       <r>    -3.2120     0.3863     0.7654 </r>
       <r>    -3.1230     0.3964     0.8003 </r>
       <r>    -3.0340     0.3999     0.8358 </r>
       <r>    -2.9449     0.6446     0.8909 </r>
       <r>    -2.8559     0.6050     0.9466 </r>
       <r>    -2.7669     0.0000     1.0000 </r>
       <r>    -2.6779     0.0000     1.0000 </r>
       <r>    -2.5889     0.0000     1.0000 </r>
       <r>    -2.4998     0.0000     1.0000 </r>
       <r>    -2.4108     0.0000     1.0000 </r>
       <r>    -2.3218     0.0000     1.0000 </r>
       <r>    -2.2328     0.0000     1.0000 </r>
       <r>    -2.1437     0.0000     1.0000 </r>
       <r>    -2.0547     0.0000     1.0000 </r>
       <r>    -1.9657     0.0000     1.0000 </r>
       <r>    -1.8767     0.0000     1.0000 </r>
       <r>    -1.7877     0.0000     1.0000 </r>
       <r>    -1.6986     0.0000     1.0000 </r>
       <r>    -1.6096     0.0000     1.0000 </r>
       <r>    -1.5206     0.0000     1.0000 </r>
       <r>    -1.4316     0.0000     1.0000 </r>
       <r>    -1.3425     0.0000     1.0000 </r>
       <r>    -1.2535     0.9502     1.0304 </r>
       <r>    -1.1645     1.0711     1.1202 </r>
       <r>    -1.0755     0.6566     1.1947 </r>
       <r>    -0.9865     0.6337     1.2573 </r>
       <r>    -0.8974     0.5202     1.3061 </r>
       <r>    -0.8084     0.4952     1.3514 </r>
       <r>    -0.7194     0.4684     1.3943 </r>
       <r>    -0.6304     0.4397     1.4347 </r>
       <r>    -0.5413     0.4092     1.4725 </r>
       <r>    -0.4523     0.3768     1.5075 </r>
       <r>    -0.3633     0.3426     1.5395 </r>
       <r>    -0.2743     0.3066     1.5684 </r>
       <r>    -0.1853     0.2710     1.5941 </r>
       <r>    -0.0962     0.2428     1.6166 </r>
       <r>    -0.0072     0.2316     1.6377 </r>
       <r>     0.0818     0.2208     1.6578 </r>
       <r>     0.1708     0.2104     1.6770 </r>
       <r>     0.2599     0.2003     1.6953 </r>
       <r>     0.3489     0.1907     1.7127 </r>
       <r>     0.4379     0.1813     1.7292 </r>
       <r>     0.5269     0.1724     1.7450 </r>
       <r>     0.6159     0.1638     1.7599 </r>
       <r>     0.7050     0.1556     1.7742 </r>
       <r>     0.7940     0.1466     1.7877 </r>
       <r>     0.8830     0.1360     1.8002 </r>
       <r>     0.9720     0.1261     1.8119 </r>
       <r>     1.0611     0.1171     1.8227 </r>
       <r>     1.1501     0.1125     1.8329 </r>
       <r>     1.2391     0.1081     1.8427 </r>
       <r>     1.3281     0.1038     1.8522 </r>
       <r>     1.4171     0.0996     1.8612 </r>
       <r>     1.5062     0.0954     1.8699 </r>
       <r>     1.5952     0.0914     1.8782 </r>
       <r>     1.6842     1.2923     1.9269 </r>
       <r>     1.7732     0.5808     1.9973 </r>
       <r>     1.8623     0.5892     2.0494 </r>
       <r>     1.9513     0.5920     2.1020 </r>
       <r>     2.0403     0.5891     2.1547 </r>
       <r>     2.1293     0.5806     2.2068 </r>
       <r>     2.2183     0.5665     2.2579 </r>
       <r>     2.3074     0.4987     2.3176 </r>
       <r>     2.3964     0.4615     2.3608 </r>
       <r>     2.4854     0.4453     2.4013 </r>
       <r>     2.5744     0.4309     2.4403 </r>
       <r>     2.6635     0.4163     2.4780 </r>
       <r>     2.7525     0.4015     2.5144 </r>
       <r>     2.8415     0.8148     2.6063 </r>
       <r>     2.9305     0.8537     2.6806 </r>
       <r>     3.0195     0.8923     2.7583 </r>
       <r>     3.1086     0.7592     2.8380 </r>
       <r>     3.1976     0.7637     2.9059 </r>
       <r>     3.2866     0.7651     2.9739 </r>
       <r>     3.3756     0.7632     3.0420 </r>
       <r>     3.4647     0.7521     3.1134 </r>
       <r>     3.5537     0.7123     3.1785 </r>
       <r>     3.6427     0.6960     3.2411 </r>
       <r>     3.7317     0.6831     3.3025 </r>
       <r>     3.8207     0.7991     3.3778 </r>
       <r>     3.9098     0.7475     3.4467 </r>
       <r>     3.9988     0.6974     3.5110 </r>
       <r>     4.0878     0.6488     3.5709 </r>
       <r>     4.1768     0.5684     3.6328 </r>
       <r>     4.2659     0.5185     3.6811 </r>
       <r>     4.3549     0.4703     3.7251 </r>
       <r>     4.4439     0.4281     3.7651 </r>
       <r>     4.5329     0.4654     3.8060 </r>
       <r>     4.6220     0.4217     3.8455 </r>
       <r>     4.7110     0.3722     3.8810 </r>
       <r>     4.8000     0.3022     3.9112 </r>
       <r>     4.8890     0.2119     3.9342 </r>
       <r>     4.9780     0.1505     3.9495 </r>
       <r>     5.0671     0.1258     3.9618 </r>
       <r>     5.1561     0.1033     3.9720 </r>
       <r>     5.2451     0.0829     3.9802 </r>
       <r>     5.3341     0.0646     3.9868 </r>
       <r>     5.4232     0.0484     3.9918 </r>
       <r>     5.5122     0.0000     4.0000 </r>
       <r>     5.6012     0.0000     4.0000 </r>
       <r>     5.6902     0.0000     4.0000 </r>
       <r>     5.7792     0.0000     4.0000 </r>
       <r>     5.8683     0.0000     4.0000 </r>
       <r>     5.9573     0.0000     4.0000 </r>
       <r>     6.0463     0.0000     4.0000 </r>
       <r>     6.1353     0.0000     4.0000 </r>
       <r>     6.2244     0.0000     4.0000 </r>
       <r>     6.3134     0.0000     4.0000 </r>
       <r>     6.4024     0.0000     4.0000 </r>
       <r>     6.4914     0.0000     4.0000 </r>
       <r>     6.5804     0.0000     4.0000 </r>
       <r>     6.6695     0.0000     4.0000 </r>
       <r>     6.7585     0.0944     4.0164 </r>
       <r>     6.8475     0.1128     4.0256 </r>
       <r>     6.9365     0.1329     4.0366 </r>
       <r>     7.0256     0.1546     4.0493 </r>
       <r>     7.1146     0.1780     4.0641 </r>
       <r>     7.2036     0.1801     4.0799 </r>
       <r>     7.2926     0.2090     4.0972 </r>
       <r>     7.3816     0.2487     4.1175 </r>
       <r>     7.4707     0.2994     4.1418 </r>
       <r>     7.5597     0.3595     4.1710 </r>
       <r>     7.6487     0.4538     4.2064 </r>
       <r>     7.7377     0.5998     4.2534 </r>
       <r>     7.8268     0.7839     4.3272 </r>
       <r>     7.9158     0.9168     4.4030 </r>
       <r>     8.0048     1.2097     4.5073 </r>
       <r>     8.0938     1.2666     4.6179 </r>
       <r>     8.1828     1.1894     4.7544 </r>
       <r>     8.2719     0.9506     4.8515 </r>
       <r>     8.3609     0.7891     4.9289 </r>
       <r>     8.4499     0.6281     4.9920 </r>
       <r>     8.5389     0.4694     5.0408 </r>
       <r>     8.6280     0.3129     5.0756 </r>
       <r>     8.7170     0.1366     5.0933 </r>
       <r>     8.8060     0.2421     5.1189 </r>
       <r>     8.8950     0.3065     5.1432 </r>
       <r>     8.9840     0.3824     5.1738 </r>
       <r>     9.0731     0.4697     5.2116 </r>
       <r>     9.1621     0.5684     5.2577 </r>
       <r>     9.2511     0.6785     5.3131 </r>
       <r>     9.3401     2.0543     5.4041 </r>
       <r>     9.4292     1.7873     5.5878 </r>
       <r>     9.5182     0.4423     5.6623 </r>
       <r>     9.6072     0.4784     5.7032 </r>
       <r>     9.6962     0.5215     5.7477 </r>
       <r>     9.7852     0.5697     5.7963 </r>
       <r>     9.8743     0.6077     5.8488 </r>
       <r>     9.9633     0.6339     5.9041 </r>
       <r>    10.0523     0.6430     5.9650 </r>
       <r>    10.1413     0.6479     6.0225 </r>
       <r>    10.2304     0.6680     6.1063 </r>
       <r>    10.3194     0.6695     6.1659 </r>
       <r>    10.4084     0.6203     6.2229 </r>
       <r>    10.4974     0.6229     6.2782 </r>
       <r>    10.5864     0.6275     6.3338 </r>
       <r>    10.6755     0.5602     6.3892 </r>
       <r>    10.7645     0.5524     6.4387 </r>
       <r>    10.8535     0.5770     6.4876 </r>
       <r>    10.9425     0.7882     6.5488 </r>
       <r>    11.0316     0.9480     6.6265 </r>
       <r>    11.1206     0.9055     6.7364 </r>
       <r>    11.2096     0.6923     6.8075 </r>
       <r>    11.2986     0.4729     6.8594 </r>
       <r>    11.3876     0.3274     6.8932 </r>
       <r>    11.4767     0.3148     6.9218 </r>
       <r>    11.5657     0.3047     6.9493 </r>
       <r>    11.6547     0.2972     6.9761 </r>
       <r>    11.7437     0.2921     7.0023 </r>
       <r>    11.8328     0.2852     7.0281 </r>
       <r>    11.9218     0.5434     7.0670 </r>
       <r>    12.0108     0.5980     7.1184 </r>
       <r>    12.0998     0.5319     7.1691 </r>
       <r>    12.1888     0.4681     7.2135 </r>
       <r>    12.2779     0.4671     7.2545 </r>
       <r>    12.3669     0.4815     7.2968 </r>
       <r>    12.4559     0.4932     7.3402 </r>
       <r>    12.5449     0.5023     7.3845 </r>
       <r>    12.6340     0.5113     7.4295 </r>
       <r>    12.7230     0.5503     7.4768 </r>
       <r>    12.8120     0.5883     7.5274 </r>
       <r>    12.9010     0.6495     7.5825 </r>
       <r>    12.9900     0.7080     7.6429 </r>
       <r>    13.0791     0.7638     7.7085 </r>
       <r>    13.1681     0.8170     7.7789 </r>
       <r>    13.2571     0.6140     7.8762 </r>
       <r>    13.3461     0.7092     7.9422 </r>
       <r>    13.4352     0.5322     7.9973 </r>
       <r>    13.5242     0.3373     8.0338 </r>
       <r>    13.6132     0.3198     8.0630 </r>
       <r>    13.7022     0.3063     8.0908 </r>
       <r>    13.7913     0.3153     8.1180 </r>
       <r>    13.8803     0.3457     8.1474 </r>
       <r>    13.9693     0.3789     8.1797 </r>
       <r>    14.0583     0.4150     8.2150 </r>
       <r>    14.1473     0.4539     8.2536 </r>
       <r>    14.2364     0.4170     8.3145 </r>
       <r>    14.3254     0.4734     8.3541 </r>
       <r>    14.4144     0.5211     8.4222 </r>
       <r>    14.5034     0.5385     8.4694 </r>
       <r>    14.5925     0.5495     8.5179 </r>
       <r>    14.6815     0.5541     8.5670 </r>
       <r>    14.7705     0.5523     8.6163 </r>
       <r>    14.8595     0.8600     8.6740 </r>
       <r>    14.9485     0.4990     8.7373 </r>
       <r>    15.0376     0.2545     8.7698 </r>
       <r>    15.1266     0.2346     8.7916 </r>
       <r>    15.2156     0.2160     8.8116 </r>
       <r>    15.3046     0.1985     8.8301 </r>
       <r>    15.3937     0.1822     8.8470 </r>
       <r>    15.4827     0.1671     8.8625 </r>
       <r>    15.5717     0.1532     8.8768 </r>
       <r>    15.6607     0.1405     8.8898 </r>
       <r>    15.7497     0.1290     8.9018 </r>
       <r>    15.8388     0.1371     8.9129 </r>
       <r>    15.9278     0.1258     8.9246 </r>
       <r>    16.0168     0.1149     8.9353 </r>
       <r>    16.1058     0.1045     8.9451 </r>
       <r>    16.1949     0.0946     8.9539 </r>
       <r>    16.2839     0.0851     8.9619 </r>
       <r>    16.3729     0.0761     8.9691 </r>
       <r>    16.4619     0.0675     8.9755 </r>
       <r>    16.5509     0.0594     8.9811 </r>
       <r>    16.6400     0.0517     8.9861 </r>
       <r>    16.7290     0.0000     9.0000 </r>
       <r>    16.8180     0.0000     9.0000 </r>
       <r>    16.9070     0.0000     9.0000 </r>
       <r>    16.9961     0.0000     9.0000 </r>
       <r>    17.0851     0.0000     9.0000 </r>
       <r>    17.1741     0.0000     9.0000 </r>
       <r>    17.2631     0.0000     9.0000 </r>
       <r>    17.3521     0.0000     9.0000 </r>
       <r>    17.4412     0.0000     9.0000 </r>
       <r>    17.5302     0.0000     9.0000 </r>
       <r>    17.6192     0.0000     9.0000 </r>
       <r>    17.7082     0.0000     9.0000 </r>
       <r>    17.7973     0.0000     9.0000 </r>
       <r>    17.8863     0.0000     9.0000 </r>
       <r>    17.9753     0.0000     9.0000 </r>
       <r>    18.0643     0.0000     9.0000 </r>
       <r>    18.1533     0.0000     9.0000 </r>
       <r>    18.2424     0.0000     9.0000 </r>
       <r>    18.3314     0.0000     9.0000 </r>
       <r>    18.4204     0.0000     9.0000 </r>
       <r>    18.5094     0.0000     9.0000 </r>
       <r>    18.5985     0.0000     9.0000 </r>
       <r>    18.6875     0.0000     9.0000 </r>
      </set>
     </set>
    </array>
   </total>
   <partial>
    <array>
     <dimension dim="1">gridpoints</dimension>
     <dimension dim="2">spin</dimension>
     <dimension dim="3">ion</dimension>
     <field>energy</field>
     <field>  s</field>
     <field> py</field>
     <field> pz</field>
     <field> px</field>
     <field>dxy</field>
     <field>dyz</field>
     <field>dz2</field>
     <field>dxz</field>
     <field>dx2</field>
     <set>
      <set comment="ion 1">
       <set comment="spin 1">
        <r>    -8.0192     0.0000     0.0000     0.0000     0.0000     0.0000     0.0000     0.0000     0.0000     0.0000 </r>
        <r>    -7.9302     0.0000     0.0000     0.0000     0.0000     0.0000     0.0000     0.0000     0.0000     0.0000 </r>
        <r>    -7.8412     0.0000     0.0000     0.0000     0.0000     0.0000     0.0000     0.0000     0.0000     0.0000 </r>
        <r>    -7.7522     0.0000     0.0000     0.0000     0.0000     0.0000     0.0000     0.0000     0.0000     0.0000 </r>
        <r>    -7.6631     0.0000     0.0000     0.0000     0.0000     0.0000     0.0000     0.0000     0.0000     0.0000 </r>
        <r>    -7.5741     0.0000     0.0000     0.0000     0.0000     0.0000     0.0000     0.0000     0.0000     0.0000 </r>
        <r>    -7.4851     0.0000     0.0000     0.0000     0.0000     0.0000     0.0000     0.0000     0.0000     0.0000 </r>
        <r>    -7.3961     0.0000     0.0000     0.0000     0.0000     0.0000     0.0000     0.0000     0.0000     0.0000 </r>
        <r>    -7.3070     0.0000     0.0000     0.0000     0.0000     0.0000     0.0000     0.0000     0.0000     0.0000 </r>
        <r>    -7.2180     0.0000     0.0000     0.0000     0.0000     0.0000     0.0000     0.0000     0.0000     0.0000 </r>
        <r>    -7.1290     0.0000     0.0000     0.0000     0.0000     0.0000     0.0000     0.0000     0.0000     0.0000 </r>
        <r>    -7.0400     0.0000     0.0000     0.0000     0.0000     0.0000     0.0000     0.0000     0.0000     0.0000 </r>
        <r>    -6.9510     0.0000     0.0000     0.0000     0.0000     0.0000     0.0000     0.0000     0.0000     0.0000 </r>
        <r>    -6.8619     0.0000     0.0000     0.0000     0.0000     0.0000     0.0000     0.0000     0.0000     0.0000 </r>
        <r>    -6.7729     0.0000     0.0000     0.0000     0.0000     0.0000     0.0000     0.0000     0.0000     0.0000 </r>
        <r>    -6.6839     0.0000     0.0000     0.0000     0.0000     0.0000     0.0000     0.0000     0.0000     0.0000 </r>
        <r>    -6.5949     0.0000     0.0000     0.0000     0.0000     0.0000     0.0000     0.0000     0.0000     0.0000 </r>
        <r>    -6.5058     0.0000     0.0000     0.0000     0.0000     0.0000     0.0000     0.0000     0.0000     0.0000 </r>
        <r>    -6.4168     0.0000     0.0000     0.0000     0.0000     0.0000     0.0000     0.0000     0.0000     0.0000 </r>
        <r>    -6.3278     0.0000     0.0000     0.0000     0.0000     0.0000     0.0000     0.0000     0.0000     0.0000 </r>
        <r>    -6.2388     0.0000     0.0000     0.0000     0.0000     0.0000     0.0000     0.0000     0.0000     0.0000 </r>
        <r>    -6.1498     0.0000     0.0000     0.0000     0.0000     0.0000     0.0000     0.0000     0.0000     0.0000 </r>
        <r>    -6.0607     0.0000     0.0000     0.0000     0.0000     0.0000     0.0000     0.0000     0.0000     0.0000 </r>
        <r>    -5.9717     0.0109     0.0000     0.0000     0.0001     0.0000     0.0000     0.0000     0.0000     0.0000 </r>
        <r>    -5.8827     0.0143     0.0001     0.0001     0.0002     0.0000     0.0000     0.0000     0.0000     0.0000 </r>
        <r>    -5.7937     0.0181     0.0001     0.0001     0.0003     0.0000     0.0000     0.0000     0.0000     0.0000 </r>
        <r>    -5.7046     0.0223     0.0001     0.0001     0.0004     0.0000     0.0000     0.0000     0.0000     0.0000 </r>
        <r>    -5.6156     0.0268     0.0002     0.0002     0.0005     0.0000     0.0000     0.0000     0.0000     0.0000 </r>
        <r>    -5.5266     0.0317     0.0002     0.0002     0.0007     0.0000     0.0000     0.0000     0.0000     0.0000 </r>
        <r>    -5.4376     0.0313     0.0003     0.0005     0.0006     0.0000     0.0000     0.0000     0.0000     0.0000 </r>
        <r>    -5.3485     0.0335     0.0004     0.0006     0.0007     0.0000     0.0000     0.0000     0.0000     0.0000 </r>
        <r>    -5.2595     0.0355     0.0004     0.0007     0.0007     0.0000     0.0000     0.0000     0.0000     0.0000 </r>
        <r>    -5.1705     0.0374     0.0005     0.0009     0.0008     0.0000     0.0000     0.0000     0.0000     0.0000 </r>
        <r>    -5.0815     0.0391     0.0005     0.0010     0.0009     0.0000     0.0000     0.0000     0.0000     0.0000 </r>
        <r>    -4.9925     0.0407     0.0006     0.0012     0.0009     0.0000     0.0000     0.0000     0.0000     0.0000 </r>
        <r>    -4.9034     0.0432     0.0006     0.0013     0.0010     0.0000     0.0000     0.0000     0.0000     0.0000 </r>
        <r>    -4.8144     0.0461     0.0007     0.0014     0.0012     0.0000     0.0000     0.0000     0.0000     0.0000 </r>
        <r>    -4.7254     0.0494     0.0008     0.0016     0.0014     0.0000     0.0000     0.0000     0.0000     0.0000 </r>
        <r>    -4.6364     0.0530     0.0009     0.0017     0.0016     0.0000     0.0000     0.0000     0.0000     0.0000 </r>
        <r>    -4.5473     0.0571     0.0010     0.0019     0.0018     0.0000     0.0000     0.0000     0.0000     0.0000 </r>
        <r>    -4.4583     0.0625     0.0011     0.0020     0.0020     0.0000     0.0000     0.0000     0.0000     0.0000 </r>
        <r>    -4.3693     0.0653     0.0012     0.0023     0.0023     0.0000     0.0000     0.0000     0.0000     0.0000 </r>
        <r>    -4.2803     0.0691     0.0012     0.0025     0.0025     0.0000     0.0000     0.0000     0.0000     0.0000 </r>
        <r>    -4.1913     0.0726     0.0013     0.0027     0.0027     0.0000     0.0000     0.0000     0.0000     0.0000 </r>
        <r>    -4.1022     0.0756     0.0014     0.0030     0.0029     0.0000     0.0000     0.0000     0.0000     0.0000 </r>
        <r>    -4.0132     0.0854     0.0016     0.0034     0.0035     0.0000     0.0000     0.0000     0.0000     0.0000 </r>
        <r>    -3.9242     0.1062     0.0020     0.0041     0.0047     0.0000     0.0000     0.0000     0.0000     0.0000 </r>
        <r>    -3.8352     0.0879     0.0016     0.0042     0.0039     0.0000     0.0000     0.0000     0.0000     0.0000 </r>
        <r>    -3.7461     0.0869     0.0016     0.0045     0.0038     0.0000     0.0000     0.0000     0.0000     0.0000 </r>
        <r>    -3.6571     0.0853     0.0015     0.0048     0.0037     0.0000     0.0000     0.0000     0.0000     0.0000 </r>
        <r>    -3.5681     0.0829     0.0014     0.0050     0.0035     0.0000     0.0000     0.0000     0.0000     0.0000 </r>
        <r>    -3.4791     0.0797     0.0013     0.0052     0.0033     0.0000     0.0000     0.0000     0.0000     0.0000 </r>
        <r>    -3.3901     0.0759     0.0012     0.0054     0.0031     0.0000     0.0000     0.0000     0.0000     0.0000 </r>
        <r>    -3.3010     0.0758     0.0012     0.0058     0.0030     0.0000     0.0000     0.0000     0.0000     0.0000 </r>
        <r>    -3.2120     0.0792     0.0012     0.0065     0.0030     0.0000     0.0000     0.0000     0.0000     0.0000 </r>
        <r>    -3.1230     0.0812     0.0012     0.0071     0.0030     0.0000     0.0000     0.0000     0.0000     0.0000 </r>
        <r>    -3.0340     0.0818     0.0011     0.0076     0.0029     0.0000     0.0000     0.0000     0.0000     0.0000 </r>
        <r>    -2.9449     0.1304     0.0013     0.0158     0.0035     0.0000     0.0000     0.0000     0.0000     0.0000 </r>
        <r>    -2.8559     0.1228     0.0011     0.0148     0.0036     0.0000     0.0000     0.0000     0.0000     0.0000 </r>
        <r>    -2.7669     0.0000     0.0000     0.0000     0.0000     0.0000     0.0000     0.0000     0.0000     0.0000 </r>
        <r>    -2.6779     0.0000     0.0000     0.0000     0.0000     0.0000     0.0000     0.0000     0.0000     0.0000 </r>
        <r>    -2.5889     0.0000     0.0000     0.0000     0.0000     0.0000     0.0000     0.0000     0.0000     0.0000 </r>
        <r>    -2.4998     0.0000     0.0000     0.0000     0.0000     0.0000     0.0000     0.0000     0.0000     0.0000 </r>
        <r>    -2.4108     0.0000     0.0000     0.0000     0.0000     0.0000     0.0000     0.0000     0.0000     0.0000 </r>
        <r>    -2.3218     0.0000     0.0000     0.0000     0.0000     0.0000     0.0000     0.0000     0.0000     0.0000 </r>
        <r>    -2.2328     0.0000     0.0000     0.0000     0.0000     0.0000     0.0000     0.0000     0.0000     0.0000 </r>
        <r>    -2.1437     0.0000     0.0000     0.0000     0.0000     0.0000     0.0000     0.0000     0.0000     0.0000 </r>
        <r>    -2.0547     0.0000     0.0000     0.0000     0.0000     0.0000     0.0000     0.0000     0.0000     0.0000 </r>
        <r>    -1.9657     0.0000     0.0000     0.0000     0.0000     0.0000     0.0000     0.0000     0.0000     0.0000 </r>
        <r>    -1.8767     0.0000     0.0000     0.0000     0.0000     0.0000     0.0000     0.0000     0.0000     0.0000 </r>
        <r>    -1.7877     0.0000     0.0000     0.0000     0.0000     0.0000     0.0000     0.0000     0.0000     0.0000 </r>
        <r>    -1.6986     0.0000     0.0000     0.0000     0.0000     0.0000     0.0000     0.0000     0.0000     0.0000 </r>
        <r>    -1.6096     0.0000     0.0000     0.0000     0.0000     0.0000     0.0000     0.0000     0.0000     0.0000 </r>
        <r>    -1.5206     0.0000     0.0000     0.0000     0.0000     0.0000     0.0000     0.0000     0.0000     0.0000 </r>
        <r>    -1.4316     0.0000     0.0000     0.0000     0.0000     0.0000     0.0000     0.0000     0.0000     0.0000 </r>
        <r>    -1.3425     0.0000     0.0000     0.0000     0.0000     0.0000     0.0000     0.0000     0.0000     0.0000 </r>
        <r>    -1.2535     0.1694     0.0052     0.0361     0.0163     0.0000     0.0000     0.0000     0.0000     0.0000 </r>
        <r>    -1.1645     0.1857     0.0078     0.0429     0.0173     0.0000     0.0000     0.0000     0.0000     0.0000 </r>
        <r>    -1.0755     0.1055     0.0082     0.0224     0.0159     0.0000     0.0000     0.0000     0.0000     0.0000 </r>
        <r>    -0.9865     0.0942     0.0108     0.0208     0.0175     0.0000     0.0000     0.0000     0.0000     0.0000 </r>
        <r>    -0.8974     0.0769     0.0090     0.0177     0.0142     0.0000     0.0000     0.0000     0.0000     0.0000 </r>
        <r>    -0.8084     0.0728     0.0087     0.0170     0.0136     0.0000     0.0000     0.0000     0.0000     0.0000 </r>
        <r>    -0.7194     0.0685     0.0083     0.0163     0.0129     0.0000     0.0000     0.0000     0.0000     0.0000 </r>
        <r>    -0.6304     0.0640     0.0080     0.0154     0.0122     0.0000     0.0000     0.0000     0.0000     0.0000 </r>
        <r>    -0.5413     0.0592     0.0075     0.0146     0.0114     0.0000     0.0000     0.0000     0.0000     0.0000 </r>
        <r>    -0.4523     0.0543     0.0070     0.0136     0.0105     0.0000     0.0000     0.0000     0.0000     0.0000 </r>
        <r>    -0.3633     0.0492     0.0065     0.0126     0.0095     0.0000     0.0000     0.0000     0.0000     0.0000 </r>
        <r>    -0.2743     0.0438     0.0059     0.0115     0.0085     0.0000     0.0000     0.0000     0.0000     0.0000 </r>
        <r>    -0.1853     0.0385     0.0053     0.0104     0.0075     0.0000     0.0000     0.0000     0.0000     0.0000 </r>
        <r>    -0.0962     0.0341     0.0049     0.0096     0.0067     0.0000     0.0000     0.0000     0.0000     0.0000 </r>
        <r>    -0.0072     0.0324     0.0048     0.0092     0.0065     0.0000     0.0000     0.0000     0.0000     0.0000 </r>
        <r>     0.0818     0.0307     0.0046     0.0089     0.0063     0.0000     0.0000     0.0000     0.0000     0.0000 </r>
        <r>     0.1708     0.0290     0.0045     0.0085     0.0061     0.0000     0.0000     0.0000     0.0000     0.0000 </r>
        <r>     0.2599     0.0274     0.0043     0.0081     0.0059     0.0000     0.0000     0.0000     0.0000     0.0000 </r>
        <r>     0.3489     0.0259     0.0042     0.0078     0.0057     0.0000     0.0000     0.0000     0.0000     0.0000 </r>
        <r>     0.4379     0.0245     0.0041     0.0074     0.0055     0.0000     0.0000     0.0000     0.0000     0.0000 </r>
        <r>     0.5269     0.0231     0.0040     0.0071     0.0053     0.0000     0.0000     0.0000     0.0000     0.0000 </r>
        <r>     0.6159     0.0217     0.0038     0.0068     0.0052     0.0000     0.0000     0.0000     0.0000     0.0000 </r>
        <r>     0.7050     0.0205     0.0037     0.0065     0.0050     0.0000     0.0000     0.0000     0.0000     0.0000 </r>
        <r>     0.7940     0.0188     0.0037     0.0061     0.0050     0.0000     0.0000     0.0000     0.0000     0.0000 </r>
        <r>     0.8830     0.0173     0.0035     0.0056     0.0048     0.0000     0.0000     0.0000     0.0000     0.0000 </r>
[...]
       </set>
      </set>
      <set comment="kpoint 8">
       <set comment="band 1">
        <r>  0.1962  0.0008  0.0340  0.0008  0.0000 </r>
        <r>  0.1962  0.0008  0.0340  0.0008  0.0000 </r>
       </set>
       <set comment="band 2">
        <r>  0.1840  0.0025  0.0528  0.0025  0.0000 </r>
        <r>  0.1840  0.0025  0.0528  0.0025  0.0000 </r>
       </set>
       <set comment="band 3">
        <r>  0.0030  0.0804  0.0189  0.0804  0.0000 </r>
        <r>  0.0030  0.0804  0.0189  0.0804  0.0000 </r>
       </set>
       <set comment="band 4">
        <r>  0.0000  0.1033  0.0000  0.1033  0.0000 </r>
        <r>  0.0000  0.1033  0.0000  0.1033  0.0000 </r>
       </set>
       <set comment="band 5">
        <r>  0.0500  0.0015  0.0430  0.0015  0.0000 </r>
        <r>  0.0500  0.0015  0.0430  0.0015  0.0000 </r>
       </set>
       <set comment="band 6">
        <r>  0.0393  0.0194  0.0285  0.0194  0.0000 </r>
        <r>  0.0393  0.0194  0.0285  0.0194  0.0000 </r>
       </set>
       <set comment="band 7">
        <r>  0.0296  0.0702  0.0374  0.0701  0.0000 </r>
        <r>  0.0296  0.0701  0.0374  0.0702  0.0000 </r>
       </set>
       <set comment="band 8">
        <r>  0.0000  0.0838  0.0000  0.0838  0.0000 </r>
        <r>  0.0000  0.0838  0.0000  0.0838  0.0000 </r>
       </set>
       <set comment="band 9">
        <r>  0.0168  0.0413  0.0879  0.0281  0.0000 </r>
        <r>  0.0168  0.0316  0.0879  0.0377  0.0000 </r>
       </set>
      </set>
      <set comment="kpoint 9">
       <set comment="band 1">
        <r>  0.2075  0.0049  0.0049  0.0049  0.0000 </r>
        <r>  0.2075  0.0049  0.0049  0.0049  0.0000 </r>
       </set>
       <set comment="band 2">
        <r>  0.1035  0.0339  0.0339  0.0339  0.0000 </r>
        <r>  0.1035  0.0339  0.0339  0.0339  0.0000 </r>
       </set>
       <set comment="band 3">
        <r>  0.0000  0.1048  0.1008  0.0212  0.0000 </r>
        <r>  0.0000  0.1048  0.1008  0.0212  0.0000 </r>
       </set>
       <set comment="band 4">
        <r>  0.0000  0.0464  0.0504  0.1300  0.0000 </r>
        <r>  0.0000  0.0464  0.0504  0.1300  0.0000 </r>
       </set>
       <set comment="band 5">
        <r>  0.1733  0.0100  0.0100  0.0100  0.0000 </r>
        <r>  0.1733  0.0100  0.0100  0.0100  0.0000 </r>
       </set>
       <set comment="band 6">
        <r>  0.0000  0.0534  0.0513  0.0108  0.0000 </r>
        <r>  0.0000  0.0534  0.0513  0.0108  0.0000 </r>
       </set>
       <set comment="band 7">
        <r>  0.0000  0.0236  0.0257  0.0662  0.0000 </r>
        <r>  0.0000  0.0236  0.0257  0.0662  0.0000 </r>
       </set>
       <set comment="band 8">
        <r>  0.0038  0.0305  0.0305  0.0305  0.0000 </r>
        <r>  0.0038  0.0305  0.0305  0.0305  0.0000 </r>
       </set>
       <set comment="band 9">
        <r>  0.0000  0.0217  0.0211  0.0047  0.0000 </r>
        <r>  0.0000  0.0223  0.0206  0.0046  0.0000 </r>
       </set>
      </set>
      <set comment="kpoint 10">
       <set comment="band 1">
        <r>  0.2102  0.0077  0.0077  0.0090  0.0000 </r>
        <r>  0.2102  0.0077  0.0077  0.0090  0.0000 </r>
       </set>
       <set comment="band 2">
        <r>  0.1481  0.0186  0.0186  0.0398  0.0000 </r>
        <r>  0.1481  0.0186  0.0186  0.0398  0.0000 </r>
       </set>
       <set comment="band 3">
        <r>  0.0214  0.0408  0.0408  0.0742  0.0000 </r>
        <r>  0.0214  0.0408  0.0408  0.0742  0.0000 </r>
       </set>
       <set comment="band 4">
        <r>  0.0000  0.1073  0.1073  0.0000  0.0000 </r>
        <r>  0.0000  0.1073  0.1073  0.0000  0.0000 </r>
       </set>
       <set comment="band 5">
        <r>  0.0570  0.0013  0.0013  0.0538  0.0000 </r>
        <r>  0.0570  0.0013  0.0013  0.0538  0.0000 </r>
       </set>
       <set comment="band 6">
        <r>  0.0508  0.0284  0.0284  0.0607  0.0000 </r>
        <r>  0.0508  0.0284  0.0284  0.0607  0.0000 </r>
       </set>
       <set comment="band 7">
        <r>  0.0000  0.0687  0.0687  0.0000  0.0000 </r>
        <r>  0.0000  0.0687  0.0687  0.0000  0.0000 </r>
       </set>
       <set comment="band 8">
        <r>  0.0192  0.0493  0.0493  0.0233  0.0000 </r>
        <r>  0.0192  0.0493  0.0493  0.0233  0.0000 </r>
       </set>
       <set comment="band 9">
        <r>  0.0360  0.0320  0.0323  0.0932  0.0000 </r>
        <r>  0.0360  0.0321  0.0321  0.0932  0.0000 </r>
       </set>
      </set>
     </set>
     <set comment="spin2">
      <set comment="kpoint 1">
       <set comment="band 1">
        <r>  0.2089  0.0008  0.0008  0.0008  0.0000 </r>
        <r>  0.2089  0.0008  0.0008  0.0008  0.0000 </r>
       </set>
       <set comment="band 2">
        <r>  0.0601  0.0546  0.0546  0.0546  0.0000 </r>
        <r>  0.0601  0.0546  0.0546  0.0546  0.0000 </r>
       </set>
       <set comment="band 3">
        <r>  0.0000  0.0859  0.0141  0.1242  0.0000 </r>
        <r>  0.0000  0.0859  0.0141  0.1242  0.0000 </r>
       </set>
       <set comment="band 4">
        <r>  0.0000  0.0636  0.1353  0.0253  0.0000 </r>
        <r>  0.0000  0.0636  0.1353  0.0253  0.0000 </r>
       </set>
       <set comment="band 5">
        <r>  0.1179  0.0293  0.0293  0.0293  0.0000 </r>
        <r>  0.1179  0.0293  0.0293  0.0293  0.0000 </r>
       </set>
       <set comment="band 6">
        <r>  0.0000  0.0629  0.0108  0.0919  0.0000 </r>
        <r>  0.0000  0.0629  0.0108  0.0919  0.0000 </r>
       </set>
       <set comment="band 7">
        <r>  0.0000  0.0475  0.0996  0.0185  0.0000 </r>
        <r>  0.0000  0.0475  0.0996  0.0185  0.0000 </r>
       </set>
       <set comment="band 8">
        <r>  0.1765  0.0377  0.0377  0.0377  0.0000 </r>
        <r>  0.1765  0.0377  0.0377  0.0377  0.0000 </r>
       </set>
       <set comment="band 9">
        <r>  0.0000  0.0009  0.0001  0.0013  0.0000 </r>
        <r>  0.0000  0.0009  0.0001  0.0013  0.0000 </r>
       </set>
      </set>
      <set comment="kpoint 2">
       <set comment="band 1">
        <r>  0.2052  0.0058  0.0058  0.0011  0.0000 </r>
        <r>  0.2052  0.0058  0.0058  0.0011  0.0000 </r>
       </set>
       <set comment="band 2">
        <r>  0.1127  0.0350  0.0350  0.0398  0.0000 </r>
        <r>  0.1127  0.0350  0.0350  0.0398  0.0000 </r>
       </set>
       <set comment="band 3">
        <r>  0.0232  0.0361  0.0361  0.1040  0.0000 </r>
        <r>  0.0232  0.0361  0.0361  0.1040  0.0000 </r>
       </set>
       <set comment="band 4">
        <r>  0.0000  0.1145  0.1145  0.0000  0.0000 </r>
        <r>  0.0000  0.1145  0.1145  0.0000  0.0000 </r>
       </set>
       <set comment="band 5">
        <r>  0.1155  0.0011  0.0011  0.0802  0.0000 </r>
        <r>  0.1155  0.0011  0.0011  0.0802  0.0000 </r>
       </set>
       <set comment="band 6">
        <r>  0.0000  0.0735  0.0735  0.0000  0.0000 </r>
        <r>  0.0000  0.0735  0.0735  0.0000  0.0000 </r>
       </set>
       <set comment="band 7">
        <r>  0.0166  0.0186  0.0186  0.0858  0.0000 </r>
        <r>  0.0166  0.0186  0.0186  0.0858  0.0000 </r>
       </set>
       <set comment="band 8">
        <r>  0.0544  0.0406  0.0406  0.0410  0.0000 </r>
        <r>  0.0544  0.0406  0.0406  0.0410  0.0000 </r>
       </set>
       <set comment="band 9">
        <r>  0.0000  0.0079  0.0079  0.0000  0.0000 </r>
        <r>  0.0000  0.0079  0.0079  0.0000  0.0000 </r>
       </set>
      </set>
      <set comment="kpoint 3">
       <set comment="band 1">
        <r>  0.2145  0.0040  0.0040  0.0095  0.0000 </r>
        <r>  0.2145  0.0040  0.0040  0.0095  0.0000 </r>
       </set>
       <set comment="band 2">
        <r>  0.1095  0.0313  0.0313  0.0310  0.0000 </r>
        <r>  0.1095  0.0313  0.0313  0.0310  0.0000 </r>
       </set>
       <set comment="band 3">
        <r>  0.0369  0.0336  0.0336  0.1062  0.0000 </r>
        <r>  0.0369  0.0336  0.0336  0.1062  0.0000 </r>
       </set>
       <set comment="band 4">
        <r>  0.0000  0.1096  0.1096  0.0000  0.0000 </r>
        <r>  0.0000  0.1096  0.1096  0.0000  0.0000 </r>
       </set>
       <set comment="band 5">
        <r>  0.0971  0.0033  0.0033  0.0608  0.0000 </r>
        <r>  0.0971  0.0033  0.0033  0.0608  0.0000 </r>
       </set>
       <set comment="band 6">
        <r>  0.0393  0.0314  0.0314  0.0394  0.0000 </r>
        <r>  0.0393  0.0314  0.0314  0.0394  0.0000 </r>
       </set>
       <set comment="band 7">
        <r>  0.0000  0.0577  0.0577  0.0000  0.0000 </r>
        <r>  0.0000  0.0577  0.0577  0.0000  0.0000 </r>
       </set>
       <set comment="band 8">
        <r>  0.0086  0.0453  0.0453  0.0315  0.0000 </r>
        <r>  0.0086  0.0453  0.0453  0.0315  0.0000 </r>
       </set>
       <set comment="band 9">
        <r>  0.0098  0.0122  0.0122  0.0283  0.0000 </r>
        <r>  0.0098  0.0122  0.0122  0.0283  0.0000 </r>
       </set>
      </set>
      <set comment="kpoint 4">
       <set comment="band 1">
        <r>  0.2054  0.0007  0.0007  0.0067  0.0000 </r>
        <r>  0.2054  0.0007  0.0007  0.0067  0.0000 </r>
       </set>
       <set comment="band 2">
        <r>  0.1043  0.0327  0.0327  0.0612  0.0000 </r>
        <r>  0.1043  0.0327  0.0327  0.0612  0.0000 </r>
       </set>
       <set comment="band 3">
        <r>  0.0000  0.1060  0.1060  0.0000  0.0000 </r>
        <r>  0.0000  0.1060  0.1060  0.0000  0.0000 </r>
       </set>
       <set comment="band 4">
        <r>  0.0262  0.0525  0.0525  0.0858  0.0000 </r>
        <r>  0.0262  0.0525  0.0525  0.0858  0.0000 </r>
       </set>
       <set comment="band 5">
        <r>  0.0306  0.0128  0.0128  0.0902  0.0000 </r>
        <r>  0.0306  0.0128  0.0128  0.0902  0.0000 </r>
       </set>
       <set comment="band 6">
        <r>  0.1002  0.0444  0.0444  0.0357  0.0000 </r>
        <r>  0.1002  0.0444  0.0444  0.0357  0.0000 </r>
       </set>
       <set comment="band 7">
        <r>  0.0000  0.0852  0.0852  0.0000  0.0000 </r>
        <r>  0.0000  0.0852  0.0852  0.0000  0.0000 </r>
       </set>
       <set comment="band 8">
        <r>  0.0216  0.0287  0.0287  0.0243  0.0000 </r>
        <r>  0.0216  0.0287  0.0287  0.0243  0.0000 </r>
       </set>
       <set comment="band 9">
        <r>  0.0883  0.0181  0.0181  0.0536  0.0000 </r>
        <r>  0.0883  0.0181  0.0181  0.0536  0.0000 </r>
       </set>
      </set>
      <set comment="kpoint 5">
       <set comment="band 1">
        <r>  0.2012  0.0006  0.0181  0.0006  0.0000 </r>
        <r>  0.2012  0.0006  0.0181  0.0006  0.0000 </r>
       </set>
       <set comment="band 2">
        <r>  0.1573  0.0116  0.0643  0.0116  0.0000 </r>
        <r>  0.1573  0.0116  0.0643  0.0116  0.0000 </r>
       </set>
       <set comment="band 3">
        <r>  0.0133  0.0721  0.0370  0.0721  0.0000 </r>
        <r>  0.0133  0.0721  0.0370  0.0721  0.0000 </r>
       </set>
       <set comment="band 4">
        <r>  0.0000  0.1038  0.0000  0.1038  0.0000 </r>
        <r>  0.0000  0.1038  0.0000  0.1038  0.0000 </r>
       </set>
       <set comment="band 5">
        <r>  0.0410  0.0083  0.0608  0.0083  0.0000 </r>
        <r>  0.0410  0.0083  0.0608  0.0083  0.0000 </r>
       </set>
       <set comment="band 6">
        <r>  0.0430  0.0120  0.0326  0.0120  0.0000 </r>
        <r>  0.0430  0.0120  0.0326  0.0120  0.0000 </r>
       </set>
       <set comment="band 7">
        <r>  0.0381  0.0640  0.0245  0.0640  0.0000 </r>
        <r>  0.0381  0.0640  0.0245  0.0640  0.0000 </r>
       </set>
       <set comment="band 8">
        <r>  0.0000  0.0799  0.0000  0.0799  0.0000 </r>
        <r>  0.0000  0.0799  0.0000  0.0799  0.0000 </r>
       </set>
       <set comment="band 9">
        <r>  0.0849  0.0260  0.1123  0.0260  0.0000 </r>
        <r>  0.0849  0.0261  0.1123  0.0259  0.0000 </r>
       </set>
      </set>
      <set comment="kpoint 6">
       <set comment="band 1">
        <r>  0.2048  0.0014  0.0237  0.0074  0.0000 </r>
        <r>  0.2048  0.0014  0.0237  0.0074  0.0000 </r>
       </set>
       <set comment="band 2">
        <r>  0.1805  0.0048  0.0358  0.0188  0.0000 </r>
        <r>  0.1805  0.0048  0.0358  0.0188  0.0000 </r>
       </set>
       <set comment="band 3">
        <r>  0.0067  0.0598  0.0458  0.0574  0.0000 </r>
        <r>  0.0067  0.0598  0.0458  0.0574  0.0000 </r>
       </set>
       <set comment="band 4">
        <r>  0.0016  0.0907  0.0233  0.0721  0.0000 </r>
        <r>  0.0016  0.0907  0.0233  0.0721  0.0000 </r>
       </set>
       <set comment="band 5">
        <r>  0.0393  0.0306  0.0338  0.0134  0.0000 </r>
        <r>  0.0393  0.0306  0.0338  0.0134  0.0000 </r>
       </set>
       <set comment="band 6">
        <r>  0.0192  0.0585  0.0148  0.0218  0.0000 </r>
        <r>  0.0192  0.0585  0.0148  0.0218  0.0000 </r>
       </set>
       <set comment="band 7">
        <r>  0.0429  0.0379  0.0352  0.0471  0.0000 </r>
        <r>  0.0429  0.0379  0.0352  0.0471  0.0000 </r>
       </set>
       <set comment="band 8">
        <r>  0.0243  0.0658  0.0335  0.0485  0.0000 </r>
        <r>  0.0243  0.0658  0.0335  0.0485  0.0000 </r>
       </set>
       <set comment="band 9">
        <r>  0.0096  0.0214  0.0570  0.0440  0.0000 </r>
        <r>  0.0096  0.0214  0.0570  0.0440  0.0000 </r>
       </set>
      </set>
      <set comment="kpoint 7">
       <set comment="band 1">
        <r>  0.2049  0.0039  0.0025  0.0149  0.0000 </r>
        <r>  0.2049  0.0039  0.0025  0.0149  0.0000 </r>
       </set>
       <set comment="band 2">
        <r>  0.1415  0.0195  0.0344  0.0328  0.0000 </r>
        <r>  0.1415  0.0195  0.0344  0.0328  0.0000 </r>
       </set>
       <set comment="band 3">
        <r>  0.0264  0.0402  0.0832  0.0390  0.0000 </r>
        <r>  0.0264  0.0402  0.0832  0.0390  0.0000 </r>
       </set>
       <set comment="band 4">
        <r>  0.0038  0.1089  0.0301  0.0632  0.0000 </r>
        <r>  0.0038  0.1089  0.0301  0.0632  0.0000 </r>
       </set>
       <set comment="band 5">
        <r>  0.0454  0.0212  0.0253  0.0488  0.0000 </r>
        <r>  0.0454  0.0212  0.0253  0.0488  0.0000 </r>
       </set>
       <set comment="band 6">
        <r>  0.0416  0.0389  0.0495  0.0122  0.0000 </r>
        <r>  0.0416  0.0389  0.0495  0.0122  0.0000 </r>
       </set>
       <set comment="band 7">
        <r>  0.0349  0.0496  0.0201  0.0322  0.0000 </r>
        <r>  0.0349  0.0496  0.0201  0.0322  0.0000 </r>
       </set>
       <set comment="band 8">
        <r>  0.0124  0.0414  0.0772  0.0144  0.0000 </r>
        <r>  0.0124  0.0414  0.0772  0.0144  0.0000 </r>
       </set>
       <set comment="band 9">
        <r>  0.0207  0.0185  0.0295  0.0434  0.0000 </r>
        <r>  0.0205  0.0190  0.0298  0.0452  0.0000 </r>
       </set>
      </set>
      <set comment="kpoint 8">
       <set comment="band 1">
        <r>  0.1962  0.0008  0.0340  0.0008  0.0000 </r>
        <r>  0.1962  0.0008  0.0340  0.0008  0.0000 </r>
       </set>
       <set comment="band 2">
        <r>  0.1841  0.0025  0.0528  0.0025  0.0000 </r>
        <r>  0.1841  0.0025  0.0528  0.0025  0.0000 </r>
       </set>
       <set comment="band 3">
        <r>  0.0030  0.0804  0.0189  0.0804  0.0000 </r>
        <r>  0.0030  0.0804  0.0189  0.0804  0.0000 </r>
       </set>
       <set comment="band 4">
        <r>  0.0000  0.1033  0.0000  0.1033  0.0000 </r>
        <r>  0.0000  0.1033  0.0000  0.1033  0.0000 </r>
       </set>
       <set comment="band 5">
        <r>  0.0500  0.0015  0.0430  0.0015  0.0000 </r>
        <r>  0.0500  0.0015  0.0430  0.0015  0.0000 </r>
       </set>
       <set comment="band 6">
        <r>  0.0393  0.0194  0.0285  0.0194  0.0000 </r>
        <r>  0.0393  0.0194  0.0285  0.0194  0.0000 </r>
       </set>
       <set comment="band 7">
        <r>  0.0296  0.0702  0.0374  0.0702  0.0000 </r>
        <r>  0.0296  0.0702  0.0374  0.0702  0.0000 </r>
       </set>
       <set comment="band 8">
        <r>  0.0000  0.0838  0.0000  0.0838  0.0000 </r>
        <r>  0.0000  0.0838  0.0000  0.0838  0.0000 </r>
       </set>
       <set comment="band 9">
        <r>  0.0170  0.0357  0.0888  0.0338  0.0000 </r>
        <r>  0.0170  0.0321  0.0888  0.0374  0.0000 </r>
       </set>
      </set>
      <set comment="kpoint 9">
       <set comment="band 1">
        <r>  0.2075  0.0049  0.0049  0.0049  0.0000 </r>
        <r>  0.2075  0.0049  0.0049  0.0049  0.0000 </r>
       </set>
       <set comment="band 2">
        <r>  0.1035  0.0339  0.0339  0.0339  0.0000 </r>
        <r>  0.1035  0.0339  0.0339  0.0339  0.0000 </r>
       </set>
       <set comment="band 3">
        <r>  0.0000  0.0928  0.1229  0.0111  0.0000 </r>
        <r>  0.0000  0.0928  0.1229  0.0111  0.0000 </r>
       </set>
       <set comment="band 4">
        <r>  0.0000  0.0584  0.0283  0.1401  0.0000 </r>
        <r>  0.0000  0.0584  0.0283  0.1401  0.0000 </r>
       </set>
       <set comment="band 5">
        <r>  0.1733  0.0100  0.0100  0.0100  0.0000 </r>
        <r>  0.1733  0.0100  0.0100  0.0100  0.0000 </r>
       </set>
       <set comment="band 6">
        <r>  0.0000  0.0473  0.0626  0.0057  0.0000 </r>
        <r>  0.0000  0.0473  0.0626  0.0057  0.0000 </r>
       </set>
       <set comment="band 7">
        <r>  0.0000  0.0297  0.0144  0.0713  0.0000 </r>
        <r>  0.0000  0.0297  0.0144  0.0713  0.0000 </r>
       </set>
       <set comment="band 8">
        <r>  0.0038  0.0306  0.0306  0.0306  0.0000 </r>
        <r>  0.0038  0.0306  0.0306  0.0306  0.0000 </r>
       </set>
       <set comment="band 9">
        <r>  0.0000  0.0191  0.0263  0.0021  0.0000 </r>
        <r>  0.0000  0.0189  0.0263  0.0023  0.0000 </r>
       </set>
      </set>
      <set comment="kpoint 10">
       <set comment="band 1">
        <r>  0.2102  0.0077  0.0077  0.0091  0.0000 </r>
        <r>  0.2102  0.0077  0.0077  0.0091  0.0000 </r>
       </set>
       <set comment="band 2">
        <r>  0.1481  0.0186  0.0186  0.0398  0.0000 </r>
        <r>  0.1481  0.0186  0.0186  0.0398  0.0000 </r>
       </set>
       <set comment="band 3">
        <r>  0.0214  0.0408  0.0408  0.0742  0.0000 </r>
        <r>  0.0214  0.0408  0.0408  0.0742  0.0000 </r>
       </set>
       <set comment="band 4">
        <r>  0.0000  0.1073  0.1073  0.0000  0.0000 </r>
        <r>  0.0000  0.1073  0.1073  0.0000  0.0000 </r>
       </set>
       <set comment="band 5">
        <r>  0.0570  0.0013  0.0013  0.0538  0.0000 </r>
        <r>  0.0570  0.0013  0.0013  0.0538  0.0000 </r>
       </set>
       <set comment="band 6">
        <r>  0.0508  0.0284  0.0284  0.0607  0.0000 </r>
        <r>  0.0508  0.0284  0.0284  0.0607  0.0000 </r>
       </set>
       <set comment="band 7">
        <r>  0.0000  0.0687  0.0687  0.0000  0.0000 </r>
        <r>  0.0000  0.0687  0.0687  0.0000  0.0000 </r>
       </set>
       <set comment="band 8">
        <r>  0.0192  0.0493  0.0493  0.0233  0.0000 </r>
        <r>  0.0192  0.0493  0.0493  0.0233  0.0000 </r>
       </set>
       <set comment="band 9">
        <r>  0.0360  0.0323  0.0319  0.0932  0.0000 </r>
        <r>  0.0360  0.0320  0.0322  0.0932  0.0000 </r>
       </set>
      </set>
     </set>
    </set>
   </array>
  </projected>
 </calculation>
 <structure name="finalpos" >
  <crystal>
   <varray name="basis" >
    <v>       0.00000000       2.73436400       2.73436400 </v>
    <v>       2.73436400       0.00000000       2.73436400 </v>
    <v>       2.73436400       2.73436400       0.00000000 </v>
   </varray>
   <i name="volume">     40.88829285 </i>
   <varray name="rec_basis" >
    <v>      -0.18285788       0.18285788       0.18285788 </v>
    <v>       0.18285788      -0.18285788       0.18285788 </v>
    <v>       0.18285788       0.18285788      -0.18285788 </v>
   </varray>
  </crystal>
  <varray name="positions" >
   <v>       0.37500000       0.37500000       0.37500000 </v>
   <v>       0.62500000       0.62500000       0.62500000 </v>
  </varray>
 </structure>
</modeling>
