<?xml version="1.0" encoding="ISO-8859-1"?>
<modeling>
 <generator>
  <i name="program" type="string">vasp </i>
  <i name="version" type="string">6.2.1  </i>
  <i name="subversion" type="string">16May21 (build Jul 28 2021 23:24:15) complex                          parallel </i>
  <i name="platform" type="string">IFC19_CrayMPICH </i>
  <i name="date" type="string">2021 12 07 </i>
  <i name="time" type="string">16:54:00 </i>
 </generator>
 <incar>
  <i type="string" name="PREC">Accurate</i>
  <i type="string" name="ALGO">Normal</i>
  <i type="int" name="ISPIN">     2</i>
  <i type="int" name="NELM">   200</i>
  <i type="int" name="IBRION">    -1</i>
  <i name="EDIFF">      0.00001000</i>
  <i name="EDIFFG">     -0.05000000</i>
  <i type="int" name="NSW">     0</i>
  <i type="int" name="ISIF">     3</i>
  <i name="ENCUT">    680.00000000</i>
  <i name="ENAUG">   1360.00000000</i>
  <v name="MAGMOM">      0.00000000      0.00000000</v>
  <i type="string" name="LREAL">Auto</i>
  <i type="int" name="ISMEAR">    -5</i>
  <i name="SIGMA">      0.20000000</i>
  <i name="KSPACING">      0.22000000</i>
  <i type="logical" name="LWAVE"> T  </i>
  <i type="logical" name="LCHARG"> T  </i>
  <i type="logical" name="LVTOT"> T  </i>
  <i type="logical" name="LVHAR"> T  </i>
  <i type="int" name="LORBIT">    11</i>
  <i type="logical" name="LELF"> T  </i>
  <i type="logical" name="LASPH"> T  </i>
  <i type="logical" name="LAECHG"> T  </i>
  <i type="string" name="GGA">Ps</i>
  <i type="string" name="METAGGA">None</i>
  <i type="logical" name="LMIXTAU"> T  </i>
 </incar>
 <primitive_cell>
  <structure name="primitive_cell" >
   <crystal>
    <varray name="basis" >
     <v>       0.00000000       2.71790200       2.71790200 </v>
     <v>       2.71790200       0.00000000       2.71790200 </v>
     <v>       2.71790200       2.71790200       0.00000000 </v>
    </varray>
    <i name="volume">     40.15423676 </i>
    <varray name="rec_basis" >
     <v>      -0.18396543       0.18396543       0.18396543 </v>
     <v>       0.18396543      -0.18396543       0.18396543 </v>
     <v>       0.18396543       0.18396543      -0.18396543 </v>
    </varray>
   </crystal>
   <varray name="positions" >
    <v>       0.25000000       0.25000000       0.25000000 </v>
    <v>       0.00000000       0.00000000       0.00000000 </v>
   </varray>
  </structure>
  <varray name="primitive_index" >
   <v type="int" >        1 </v>
   <v type="int" >        2 </v>
  </varray>
 </primitive_cell>
 <kpoints>
  <generation param="Gamma">
   <v type="int" name="divisions">       8        8        8 </v>
   <v name="usershift">      0.00000000       0.00000000       0.00000000 </v>
   <v name="genvec1">      0.12500000       0.00000000      -0.00000000 </v>
   <v name="genvec2">      0.00000000       0.12500000       0.00000000 </v>
   <v name="genvec3">     -0.00000000      -0.00000000       0.12500000 </v>
   <v name="shift">      0.00000000       0.00000000       0.00000000 </v>
  </generation>
  <varray name="kpointlist" >
   <v>       0.00000000       0.00000000       0.00000000 </v>
   <v>       0.12500000       0.00000000      -0.00000000 </v>
   <v>       0.25000000       0.00000000      -0.00000000 </v>
   <v>       0.37500000      -0.00000000      -0.00000000 </v>
   <v>       0.50000000       0.00000000      -0.00000000 </v>
   <v>       0.12500000       0.12500000      -0.00000000 </v>
   <v>       0.25000000       0.12500000      -0.00000000 </v>
   <v>       0.37500000       0.12500000      -0.00000000 </v>
   <v>       0.50000000       0.12500000      -0.00000000 </v>
   <v>      -0.37500000       0.12500000       0.00000000 </v>
   <v>      -0.25000000       0.12500000       0.00000000 </v>
   <v>      -0.12500000       0.12500000       0.00000000 </v>
   <v>       0.25000000       0.25000000      -0.00000000 </v>
   <v>       0.37500000       0.25000000      -0.00000000 </v>
   <v>       0.50000000       0.25000000      -0.00000000 </v>
   <v>      -0.37500000       0.25000000      -0.00000000 </v>
   <v>      -0.25000000       0.25000000       0.00000000 </v>
   <v>       0.37500000       0.37500000      -0.00000000 </v>
   <v>       0.50000000       0.37500000      -0.00000000 </v>
   <v>      -0.37500000       0.37500000      -0.00000000 </v>
   <v>       0.50000000       0.50000000      -0.00000000 </v>
   <v>       0.37500000       0.25000000       0.12500000 </v>
   <v>       0.50000000       0.25000000       0.12500000 </v>
   <v>      -0.37500000       0.25000000       0.12500000 </v>
   <v>       0.50000000       0.37500000       0.12500000 </v>
   <v>      -0.37500000       0.37500000       0.12500000 </v>
   <v>      -0.25000000       0.37500000       0.12500000 </v>
   <v>      -0.37500000       0.50000000       0.12500000 </v>
   <v>      -0.25000000       0.50000000       0.25000000 </v>
  </varray>
  <varray name="weights" >
   <v>       0.00195312 </v>
   <v>       0.01562500 </v>
   <v>       0.01562500 </v>
   <v>       0.01562500 </v>
   <v>       0.00781250 </v>
   <v>       0.01171875 </v>
   <v>       0.04687500 </v>
   <v>       0.04687500 </v>
   <v>       0.04687500 </v>
   <v>       0.04687500 </v>
   <v>       0.04687500 </v>
   <v>       0.02343750 </v>
   <v>       0.01171875 </v>
   <v>       0.04687500 </v>
   <v>       0.04687500 </v>
   <v>       0.04687500 </v>
   <v>       0.02343750 </v>
   <v>       0.01171875 </v>
   <v>       0.04687500 </v>
   <v>       0.02343750 </v>
   <v>       0.00585938 </v>
   <v>       0.04687500 </v>
   <v>       0.09375000 </v>
   <v>       0.04687500 </v>
   <v>       0.04687500 </v>
   <v>       0.09375000 </v>
   <v>       0.04687500 </v>
   <v>       0.02343750 </v>
   <v>       0.01171875 </v>
  </varray>
  <varray name="tetrahedronlist"  type="int" >
   <v type="int" >       24        1        2        2        6 </v>
   <v type="int" >       48        2        6        7       12 </v>
   <v type="int" >       48        2        3        7       12 </v>
   <v type="int" >       24        2        2        6       12 </v>
   <v type="int" >       48        3        7        8       11 </v>
   <v type="int" >       48        3        4        8       11 </v>
   <v type="int" >       48        3        7       11       12 </v>
   <v type="int" >       48        4        8        9       10 </v>
   <v type="int" >       48        4        5        9       10 </v>
   <v type="int" >       48        4        8       10       11 </v>
   <v type="int" >       48        5        9        9       10 </v>
   <v type="int" >       24        6        7        7       13 </v>
   <v type="int" >       24        6        7        7       12 </v>
   <v type="int" >       48        7       13       14       22 </v>
   <v type="int" >       48        7        8       14       22 </v>
   <v type="int" >       48        7        8       11       22 </v>
   <v type="int" >       24        7        7       13       22 </v>
   <v type="int" >       24        7        7       12       22 </v>
   <v type="int" >       48        7       11       12       22 </v>
   <v type="int" >       48        8       14       15       23 </v>
   <v type="int" >       48        8        9       15       23 </v>
   <v type="int" >       48        8        9       10       23 </v>
   <v type="int" >       48        8       14       22       23 </v>
   <v type="int" >       48        8       11       22       23 </v>
   <v type="int" >       48        8       10       11       23 </v>
   <v type="int" >       48        9       15       16       24 </v>
   <v type="int" >       48        9       10       16       24 </v>
   <v type="int" >       48        9        9       10       24 </v>
   <v type="int" >       48        9       15       23       24 </v>
   <v type="int" >       48        9       10       23       24 </v>
   <v type="int" >       48       10       16       17       23 </v>
   <v type="int" >       48       10       11       17       23 </v>
   <v type="int" >       48       10       16       23       24 </v>
   <v type="int" >       24       11       11       17       22 </v>
   <v type="int" >       24       11       11       12       22 </v>
   <v type="int" >       48       11       17       22       23 </v>
   <v type="int" >       24       13       14       14       18 </v>
   <v type="int" >       24       13       14       14       22 </v>
   <v type="int" >       48       14       18       19       25 </v>
   <v type="int" >       48       14       15       19       25 </v>
   <v type="int" >       48       14       15       23       25 </v>
   <v type="int" >       24       14       14       18       25 </v>
   <v type="int" >       24       14       14       22       25 </v>
   <v type="int" >       48       14       22       23       25 </v>
   <v type="int" >       48       15       19       20       26 </v>
   <v type="int" >       48       15       16       20       26 </v>
   <v type="int" >       48       15       16       24       26 </v>
   <v type="int" >       48       15       19       25       26 </v>
   <v type="int" >       48       15       23       25       26 </v>
   <v type="int" >       48       15       23       24       26 </v>
   <v type="int" >       24       16       16       20       27 </v>
   <v type="int" >       24       16       16       17       27 </v>
   <v type="int" >       48       16       17       23       27 </v>
   <v type="int" >       48       16       20       26       27 </v>
   <v type="int" >       48       16       24       26       27 </v>
   <v type="int" >       48       16       23       24       27 </v>
   <v type="int" >       24       17       23       23       27 </v>
   <v type="int" >       24       17       22       23       23 </v>
   <v type="int" >       24       18       19       19       21 </v>
   <v type="int" >       24       18       19       19       25 </v>
   <v type="int" >       48       19       19       21       28 </v>
   <v type="int" >       24       19       19       20       28 </v>
   <v type="int" >       48       19       20       26       28 </v>
   <v type="int" >       24       19       19       25       28 </v>
   <v type="int" >       48       19       25       26       28 </v>
   <v type="int" >       24       20       26       26       28 </v>
   <v type="int" >       24       20       26       26       27 </v>
   <v type="int" >       24       22       23       23       25 </v>
   <v type="int" >       48       23       25       26       27 </v>
   <v type="int" >       48       23       24       26       27 </v>
   <v type="int" >       24       23       23       25       27 </v>
   <v type="int" >       48       24       26       26       27 </v>
   <v type="int" >       24       25       26       26       28 </v>
   <v type="int" >       24       25       26       26       27 </v>
   <v type="int" >       48       26       26       28       29 </v>
   <v type="int" >       96       26       26       27       29 </v>
  </varray>
  <i name="volumeweight">      0.00032552 </i>
 </kpoints>
 <parameters>
  <separator name="general" >
   <i type="string" name="SYSTEM">unknown system</i>
   <i type="logical" name="LCOMPAT"> F  </i>
  </separator>
  <separator name="electronic" >
   <i type="string" name="PREC">accura</i>
   <i name="ENMAX">    680.00000000</i>
   <i name="ENAUG">   1360.00000000</i>
   <i name="EDIFF">      0.00001000</i>
   <i type="int" name="IALGO">    38</i>
   <i type="int" name="IWAVPR">    10</i>
   <i type="int" name="NBANDS">    16</i>
   <i type="int" name="NBANDSLOW">    -1</i>
   <i type="int" name="NBANDSHIGH">    -1</i>
   <i name="NELECT">      8.00000000</i>
   <i type="int" name="TURBO">     0</i>
   <i type="int" name="IRESTART">     0</i>
   <i type="int" name="NREBOOT">     0</i>
   <i type="int" name="NMIN">     0</i>
   <i name="EREF">      0.00000000</i>
   <separator name="electronic smearing" >
    <i type="int" name="ISMEAR">    -5</i>
    <i name="SIGMA">      0.20000000</i>
    <i name="KSPACING">      0.22000000</i>
    <i type="logical" name="KGAMMA"> T  </i>
    <i type="logical" name="KBLOWUP"> T  </i>
   </separator>
   <separator name="electronic projectors" >
    <i type="logical" name="LREAL"> T  </i>
    <v name="ROPT">     -0.00025000</v>
    <i type="int" name="LMAXPAW">  -100</i>
    <i type="int" name="LMAXMIX">     2</i>
    <i type="logical" name="NLSPLINE"> F  </i>
   </separator>
   <separator name="electronic startup" >
    <i type="int" name="ISTART">     0</i>
    <i type="int" name="ICHARG">     2</i>
    <i type="int" name="INIWAV">     1</i>
   </separator>
   <separator name="electronic spin" >
    <i type="int" name="ISPIN">     2</i>
    <i type="logical" name="LNONCOLLINEAR"> F  </i>
    <v name="MAGMOM">      0.00000000      0.00000000</v>
    <i name="NUPDOWN">     -1.00000000</i>
    <i type="logical" name="LSORBIT"> F  </i>
    <v name="SAXIS">      0.00000000      0.00000000      1.00000000</v>
    <i type="logical" name="LSPIRAL"> F  </i>
    <v name="QSPIRAL">      0.00000000      0.00000000      0.00000000</v>
    <i type="logical" name="LZEROZ"> F  </i>
   </separator>
   <separator name="electronic exchange-correlation" >
    <i type="logical" name="LASPH"> T  </i>
    <i type="logical" name="LMETAGGA"> F  </i>
   </separator>
   <separator name="electronic convergence" >
    <i type="int" name="NELM">   200</i>
    <i type="int" name="NELMDL">    -5</i>
    <i type="int" name="NELMIN">     2</i>
    <i name="ENINI">    680.00000000</i>
    <separator name="electronic convergence detail" >
     <i type="logical" name="LDIAG"> T  </i>
     <i type="logical" name="LSUBROT"> F  </i>
     <i name="WEIMIN">      0.00000000</i>
     <i name="EBREAK">      0.00000016</i>
     <i name="DEPER">      0.30000000</i>
     <i type="int" name="NRMM">     4</i>
     <i name="TIME">      0.40000000</i>
    </separator>
   </separator>
   <separator name="electronic mixer" >
    <i name="AMIX">      0.40000000</i>
    <i name="BMIX">      1.00000000</i>
    <i name="AMIN">      0.10000000</i>
    <i name="AMIX_MAG">      1.60000000</i>
    <i name="BMIX_MAG">      1.00000000</i>
    <separator name="electronic mixer details" >
     <i type="int" name="IMIX">     4</i>
     <i type="logical" name="MIXFIRST"> F  </i>
     <i type="int" name="MAXMIX">   -45</i>
     <i name="WC">    100.00000000</i>
     <i type="int" name="INIMIX">     1</i>
     <i type="int" name="MIXPRE">     1</i>
     <i type="int" name="MREMOVE">     5</i>
    </separator>
   </separator>
   <separator name="electronic dipolcorrection" >
    <i type="logical" name="LDIPOL"> F  </i>
    <i type="logical" name="LMONO"> F  </i>
    <i type="int" name="IDIPOL">     0</i>
    <i name="EPSILON">      1.00000000</i>
    <v name="DIPOL">   -100.00000000   -100.00000000   -100.00000000</v>
    <i name="EFIELD">      0.00000000</i>
   </separator>
  </separator>
  <separator name="grids" >
   <i type="int" name="NGX">    36</i>
   <i type="int" name="NGY">    36</i>
   <i type="int" name="NGZ">    36</i>
   <i type="int" name="NGXF">    72</i>
   <i type="int" name="NGYF">    72</i>
   <i type="int" name="NGZF">    72</i>
   <i type="logical" name="ADDGRID"> F  </i>
  </separator>
  <separator name="ionic" >
   <i type="int" name="NSW">     0</i>
   <i type="int" name="IBRION">    -1</i>
   <i type="int" name="MDALGO">     0</i>
   <i type="int" name="ISIF">     3</i>
   <i name="PSTRESS">      0.00000000</i>
   <i name="EDIFFG">     -0.05000000</i>
   <i type="int" name="NFREE">     0</i>
   <i name="POTIM">      0.50000000</i>
   <i name="SMASS">     -3.00000000</i>
   <i name="SCALEE">      1.00000000</i>
  </separator>
  <separator name="ionic md" >
   <i name="TEBEG">      0.00010000</i>
   <i name="TEEND">      0.00010000</i>
   <i type="int" name="NBLOCK">     1</i>
   <i type="int" name="KBLOCK">     1</i>
   <i type="int" name="NPACO">   256</i>
   <i name="APACO">     16.00000000</i>
  </separator>
  <separator name="symmetry" >
   <i type="int" name="ISYM">     2</i>
   <i name="SYMPREC">      0.00001000</i>
  </separator>
  <separator name="dos" >
   <i type="int" name="LORBIT">    11</i>
   <v name="RWIGS">     -1.00000000</v>
   <i type="int" name="NEDOS">   301</i>
   <i name="EMIN">     10.00000000</i>
   <i name="EMAX">    -10.00000000</i>
   <i name="EFERMI">      0.00000000</i>
  </separator>
  <separator name="writing" >
   <i type="int" name="NWRITE">     2</i>
   <i type="logical" name="LWAVE"> T  </i>
   <i type="logical" name="LDOWNSAMPLE"> F  </i>
   <i type="logical" name="LCHARG"> T  </i>
   <i type="logical" name="LPARD"> F  </i>
   <i type="logical" name="LVTOT"> F  </i>
   <i type="logical" name="LVHAR"> T  </i>
   <i type="logical" name="LELF"> T  </i>
   <i type="logical" name="LOPTICS"> F  </i>
   <v name="STM">      0.00000000      0.00000000      0.00000000      0.00000000      0.00000000      0.00000000      0.00000000</v>
  </separator>
  <separator name="performance" >
   <i type="int" name="NPAR">    16</i>
   <i type="int" name="NSIM">     4</i>
   <i type="int" name="NBLK">    -1</i>
   <i type="logical" name="LPLANE"> T  </i>
   <i type="logical" name="LSCALAPACK"> T  </i>
   <i type="logical" name="LSCAAWARE"> F  </i>
   <i type="logical" name="LSCALU"> F  </i>
   <i type="logical" name="LASYNC"> F  </i>
   <i type="logical" name="LORBITALREAL"> F  </i>
  </separator>
  <separator name="miscellaneous" >
   <i type="int" name="IDIOT">     3</i>
   <i type="int" name="PHON_NSTRUCT">    -1</i>
   <i type="logical" name="LMUSIC"> F  </i>
   <v name="POMASS">     28.08500000</v>
   <v name="DARWINR">      0.00000000</v>
   <v name="DARWINV">      1.00000000</v>
   <i type="logical" name="LCORR"> T  </i>
  </separator>
  <i type="logical" name="GGA_COMPAT"> T  </i>
  <i type="logical" name="LBERRY"> F  </i>
  <i type="int" name="ICORELEVEL">     0</i>
  <i type="logical" name="LDAU"> F  </i>
  <i type="int" name="I_CONSTRAINED_M">     0</i>
  <separator name="electronic exchange-correlation" >
   <i type="string" name="GGA">PS</i>
   <i type="int" name="VOSKOWN">     0</i>
   <i type="logical" name="LHFCALC"> F  </i>
   <i type="string" name="PRECFOCK"></i>
   <i type="logical" name="LSYMGRAD"> F  </i>
   <i type="logical" name="LHFONE"> F  </i>
   <i type="logical" name="LRHFCALC"> F  </i>
   <i type="logical" name="LTHOMAS"> F  </i>
   <i type="logical" name="LMODELHF"> F  </i>
   <i type="logical" name="LFOCKACE"> F  </i>
   <i name="ENCUT4O">     -1.00000000</i>
   <i type="int" name="EXXOEP">     0</i>
   <i type="int" name="FOURORBIT">     0</i>
   <i name="AEXX">      0.00000000</i>
   <i name="HFALPHA">      0.00000000</i>
   <i name="MCALPHA">      0.00000000</i>
   <i name="ALDAX">      1.00000000</i>
   <i name="AGGAX">      1.00000000</i>
   <i name="ALDAC">      1.00000000</i>
   <i name="AGGAC">      1.00000000</i>
   <i type="int" name="NKREDX">     1</i>
   <i type="int" name="NKREDY">     1</i>
   <i type="int" name="NKREDZ">     1</i>
   <i type="logical" name="SHIFTRED"> F  </i>
   <i type="logical" name="ODDONLY"> F  </i>
   <i type="logical" name="EVENONLY"> F  </i>
   <i type="int" name="LMAXFOCK">     0</i>
   <i type="int" name="NMAXFOCKAE">     0</i>
   <i type="logical" name="LFOCKAEDFT"> F  </i>
   <i name="HFSCREEN">      0.00000000</i>
   <i name="HFSCREENC">      0.00000000</i>
   <i type="int" name="NBANDSGWLOW">     0</i>
  </separator>
  <separator name="vdW DFT" >
   <i type="logical" name="LUSE_VDW"> F  </i>
   <i name="Zab_VDW">     -0.84910000</i>
   <i name="PARAM1">      0.12340000</i>
   <i name="PARAM2">      1.00000000</i>
   <i name="PARAM3">      0.00000000</i>
  </separator>
  <separator name="model GW" >
   <i type="int" name="MODEL_GW">     0</i>
   <i name="MODEL_EPS0">     12.04627103</i>
   <i name="MODEL_ALPHA">      1.00000000</i>
  </separator>
  <separator name="linear response parameters" >
   <i type="logical" name="LEPSILON"> F  </i>
   <i type="logical" name="LRPA"> F  </i>
   <i type="logical" name="LNABLA"> F  </i>
   <i type="logical" name="LVEL"> F  </i>
   <i type="int" name="KINTER">     0</i>
   <i name="CSHIFT">      0.10000000</i>
   <i name="OMEGAMAX">     -1.00000000</i>
   <i name="DEG_THRESHOLD">      0.00200000</i>
   <i name="RTIME">     -0.10000000</i>
   <i name="WPLASMAI">      0.00000000</i>
   <v name="DFIELD">      0.00000000      0.00000000      0.00000000</v>
   <v name="WPLASMA">      0.00000000      0.00000000      0.00000000      0.00000000      0.00000000      0.00000000      0.00000000      0.00000000      0.00000000</v>
  </separator>
  <separator name="orbital magnetization" >
   <i type="logical" name="NUCIND"> F  </i>
   <v name="MAGPOS">      0.00000000      0.00000000      0.00000000</v>
   <i type="logical" name="LNICSALL"> T  </i>
   <i type="logical" name="ORBITALMAG"> F  </i>
   <i type="logical" name="LMAGBLOCH"> F  </i>
   <i type="logical" name="LCHIMAG"> F  </i>
   <i type="logical" name="LGAUGE"> T  </i>
   <i type="int" name="MAGATOM">     0</i>
   <v name="MAGDIPOL">      0.00000000      0.00000000      0.00000000</v>
   <v name="AVECCONST">      0.00000000      0.00000000      0.00000000</v>
  </separator>
  <separator name="response functions" >
   <i type="logical" name="LFINITE_TEMPERATURE"> F  </i>
   <i type="logical" name="LADDER"> F  </i>
   <i type="logical" name="LRPAFORCE"> F  </i>
   <i type="logical" name="LFXC"> F  </i>
   <i type="logical" name="LHARTREE"> T  </i>
   <i type="int" name="IBSE">     0</i>
   <v type="int" name="KPOINT">    -1     0     0     0</v>
   <i type="logical" name="LTCTC"> F  </i>
   <i type="logical" name="LTCTE"> F  </i>
   <i type="logical" name="LTETE"> F  </i>
   <i type="logical" name="LTRIPLET"> F  </i>
   <i type="logical" name="LFXCEPS"> F  </i>
   <i type="logical" name="LFXHEG"> F  </i>
   <i type="int" name="NATURALO">     2</i>
   <i type="logical" name="LHOLEGF"> F  </i>
   <i type="logical" name="L2ORDER"> F  </i>
   <i type="logical" name="LDMP1"> F  </i>
   <i type="logical" name="LMP2LT"> F  </i>
   <i type="logical" name="LSMP2LT"> F  </i>
   <i type="logical" name="LGWLF"> F  </i>
   <i name="ENCUTGW">     -2.00000000</i>
   <i name="ENCUTGWSOFT">     -2.00000000</i>
   <i name="ENCUTLF">     -1.00000000</i>
   <i type="logical" name="LESF_SPLINES"> F  </i>
   <i type="int" name="LMAXMP2">    -1</i>
   <i name="SCISSOR">      0.00000000</i>
   <i type="int" name="NOMEGA">     0</i>
   <i type="int" name="NOMEGAR">     0</i>
   <i type="int" name="NBANDSGW">    -1</i>
   <i type="int" name="NBANDSO">    -1</i>
   <i type="int" name="NBANDSV">    -1</i>
   <i type="int" name="NELM">   200</i>
   <i type="int" name="NELMHF">     1</i>
   <i type="int" name="DIM">     3</i>
   <i type="int" name="IESPILON">     4</i>
   <i type="int" name="ANTIRES">     0</i>
   <i name="OMEGAMAX">    -30.00000000</i>
   <i name="OMEGAMIN">    -30.00000000</i>
   <i name="OMEGATL">   -200.00000000</i>
   <i type="int" name="OMEGAGRID">     0</i>
   <i name="CSHIFT">     -0.10000000</i>
   <i type="logical" name="LSELFENERGY"> F  </i>
   <i type="logical" name="LSPECTRAL"> F  </i>
   <i type="logical" name="LSPECTRALGW"> F  </i>
   <i type="logical" name="LSINGLES"> F  </i>
   <i type="logical" name="LFERMIGW"> F  </i>
   <i type="logical" name="ODDONLYGW"> F  </i>
   <i type="logical" name="EVENONLYGW"> F  </i>
   <i type="int" name="NKREDLFX">     1</i>
   <i type="int" name="NKREDLFY">     1</i>
   <i type="int" name="NKREDLFZ">     1</i>
   <i type="int" name="MAXMEM">  2800</i>
   <i type="int" name="TELESCOPE">     0</i>
   <i type="int" name="NTAUPAR">    -1</i>
   <i type="int" name="NOMEGAPAR">    -1</i>
   <i name="DAMP_NEWTON">      0.80000001</i>
   <i name="LAMBDA">      1.00000000</i>
  </separator>
  <separator name="External order field" >
   <i name="OFIELD_KAPPA">      0.00000000</i>
   <v name="OFIELD_K">      0.00000000      0.00000000      0.00000000</v>
   <i name="OFIELD_Q6_NEAR">      0.00000000</i>
   <i name="OFIELD_Q6_FAR">      0.00000000</i>
   <i name="OFIELD_A">      0.00000000</i>
  </separator>
 </parameters>
 <atominfo>
  <atoms>       2 </atoms>
  <types>       1 </types>
  <array name="atoms" >
   <dimension dim="1">ion</dimension>
   <field type="string">element</field>
   <field type="int">atomtype</field>
   <set>
    <rc><c>Si</c><c>   1</c></rc>
    <rc><c>Si</c><c>   1</c></rc>
   </set>
  </array>
  <array name="atomtypes" >
   <dimension dim="1">type</dimension>
   <field type="int">atomspertype</field>
   <field type="string">element</field>
   <field>mass</field>
   <field>valence</field>
   <field type="string">pseudopotential</field>
   <set>
    <rc><c>   2</c><c>Si</c><c>     28.08500000</c><c>      4.00000000</c><c> PAW_PBE Si 05Jan2001                   </c></rc>
   </set>
  </array>
 </atominfo>
 <structure name="initialpos" >
  <crystal>
   <varray name="basis" >
    <v>       0.00000000       2.71790200       2.71790200 </v>
    <v>       2.71790200       0.00000000       2.71790200 </v>
    <v>       2.71790200       2.71790200       0.00000000 </v>
   </varray>
   <i name="volume">     40.15423676 </i>
   <varray name="rec_basis" >
    <v>      -0.18396543       0.18396543       0.18396543 </v>
    <v>       0.18396543      -0.18396543       0.18396543 </v>
    <v>       0.18396543       0.18396543      -0.18396543 </v>
   </varray>
  </crystal>
  <varray name="positions" >
   <v>       0.25000000       0.25000000       0.25000000 </v>
   <v>       0.00000000       0.00000000       0.00000000 </v>
  </varray>
 </structure>
 <calculation>
  <scstep>
   <time name="dav">   10.41    1.31</time>
   <time name="total">   13.32    2.07</time>
   <energy>
    <i name="alphaZ">      3.35337749 </i>
    <i name="ewald">   -228.31947958 </i>
    <i name="hartreedc">    -11.04923277 </i>
    <i name="XCdc">    -17.46666336 </i>
    <i name="pawpsdc">     65.41803010 </i>
    <i name="pawaedc">    -30.84135820 </i>
    <i name="eentropy">      0.00000000 </i>
    <i name="bandstr">     14.23193484 </i>
    <i name="atom">    205.99526524 </i>
    <i name="e_fr_energy">      1.32187377 </i>
    <i name="e_wo_entrp">      1.32187377 </i>
    <i name="e_0_energy">      1.32187377 </i>
   </energy>
  </scstep>
  <scstep>
   <time name="dav">   14.37    1.80</time>
   <time name="total">   14.43    1.81</time>
   <energy>
    <i name="e_fr_energy">    -10.77512208 </i>
    <i name="e_wo_entrp">    -10.77512208 </i>
    <i name="e_0_energy">    -10.77512208 </i>
   </energy>
  </scstep>
  <scstep>
   <time name="dav">   13.95    1.75</time>
   <time name="total">   14.01    1.75</time>
   <energy>
    <i name="e_fr_energy">    -10.86867280 </i>
    <i name="e_wo_entrp">    -10.86867280 </i>
    <i name="e_0_energy">    -10.86867280 </i>
   </energy>
  </scstep>
  <scstep>
   <time name="dav">   22.09    2.94</time>
   <time name="total">   22.15    2.95</time>
   <energy>
    <i name="e_fr_energy">    -10.86890131 </i>
    <i name="e_wo_entrp">    -10.86890131 </i>
    <i name="e_0_energy">    -10.86890131 </i>
   </energy>
  </scstep>
  <scstep>
   <time name="dav">   12.34    1.54</time>
   <time name="total">   13.12    1.65</time>
   <energy>
    <i name="e_fr_energy">    -10.86890133 </i>
    <i name="e_wo_entrp">    -10.86890133 </i>
    <i name="e_0_energy">    -10.86890133 </i>
   </energy>
  </scstep>
  <scstep>
   <time name="dav">   15.03    1.88</time>
   <time name="total">   18.58    2.77</time>
   <energy>
    <i name="e_fr_energy">    -10.71565719 </i>
    <i name="e_wo_entrp">    -10.71565719 </i>
    <i name="e_0_energy">    -10.71565719 </i>
   </energy>
  </scstep>
  <scstep>
   <time name="dav">   13.38    1.70</time>
   <time name="total">   16.90    2.57</time>
   <energy>
    <i name="e_fr_energy">    -10.64577564 </i>
    <i name="e_wo_entrp">    -10.64577564 </i>
    <i name="e_0_energy">    -10.64577564 </i>
   </energy>
  </scstep>
  <scstep>
   <time name="dav">   12.46    1.56</time>
   <time name="total">   15.90    2.43</time>
   <energy>
    <i name="e_fr_energy">    -10.64627265 </i>
    <i name="e_wo_entrp">    -10.64627265 </i>
    <i name="e_0_energy">    -10.64627265 </i>
   </energy>
  </scstep>
  <scstep>
   <time name="dav">   21.71    2.73</time>
   <time name="total">   25.24    3.60</time>
   <energy>
    <i name="e_fr_energy">    -10.64629224 </i>
    <i name="e_wo_entrp">    -10.64629224 </i>
    <i name="e_0_energy">    -10.64629224 </i>
   </energy>
  </scstep>
  <scstep>
   <time name="dav">   12.71    1.59</time>
   <time name="total">   15.56    2.38</time>
   <energy>
    <i name="alphaZ">      3.35337749 </i>
    <i name="ewald">   -228.31947958 </i>
    <i name="hartreedc">    -14.65490840 </i>
    <i name="XCdc">    -16.86051882 </i>
    <i name="pawpsdc">     73.38296374 </i>
    <i name="pawaedc">    -39.01929704 </i>
    <i name="eentropy">      0.00000000 </i>
    <i name="bandstr">      5.47629917 </i>
    <i name="atom">    205.99526524 </i>
    <i name="e_fr_energy">    -10.64629819 </i>
    <i name="e_wo_entrp">    -10.64629819 </i>
    <i name="e_0_energy">    -10.64629819 </i>
   </energy>
  </scstep>
  <structure>
   <crystal>
    <varray name="basis" >
     <v>       0.00000000       2.71790200       2.71790200 </v>
     <v>       2.71790200       0.00000000       2.71790200 </v>
     <v>       2.71790200       2.71790200       0.00000000 </v>
    </varray>
    <i name="volume">     40.15423676 </i>
    <varray name="rec_basis" >
     <v>      -0.18396543       0.18396543       0.18396543 </v>
     <v>       0.18396543      -0.18396543       0.18396543 </v>
     <v>       0.18396543       0.18396543      -0.18396543 </v>
    </varray>
   </crystal>
   <varray name="positions" >
    <v>       0.25000000       0.25000000       0.25000000 </v>
    <v>       0.00000000       0.00000000       0.00000000 </v>
   </varray>
  </structure>
  <varray name="forces" >
   <v>       0.00000000       0.00000000      -0.00000000 </v>
   <v>      -0.00000000      -0.00000000       0.00000000 </v>
  </varray>
  <varray name="stress" >
   <v>       0.03887200      -0.00000000      -0.00000000 </v>
   <v>       0.00000000       0.03887200       0.00000000 </v>
   <v>      -0.00000000      -0.00000000       0.03887200 </v>
  </varray>
  <energy>
   <i name="e_fr_energy">    -10.64629819 </i>
   <i name="e_wo_entrp">    -10.64629819 </i>
   <i name="e_0_energy">    -10.64629819 </i>
  </energy>
  <time name="totalsc">  197.48   31.01</time>
  <eigenvalues>
   <array>
    <dimension dim="1">band</dimension>
    <dimension dim="2">kpoint</dimension>
    <dimension dim="3">spin</dimension>
    <field>eigene</field>
    <field>occ</field>
    <set>
     <set comment="spin 1">
      <set comment="kpoint 1">
       <r>   -6.2083    1.0000 </r>
       <r>    5.7635    1.0000 </r>
       <r>    5.7635    1.0000 </r>
       <r>    5.7635    1.0000 </r>
       <r>    8.2789    0.0000 </r>
       <r>    8.2789    0.0000 </r>
       <r>    8.2789    0.0000 </r>
       <r>    9.0546    0.0000 </r>
       <r>   13.4494    0.0000 </r>
       <r>   13.4494    0.0000 </r>
       <r>   13.4605    0.0000 </r>
       <r>   16.8496    0.0000 </r>
       <r>   16.8496    0.0000 </r>
       <r>   16.8496    0.0000 </r>
       <r>   20.8298    0.0000 </r>
       <r>   28.7294    0.0000 </r>
      </set>
      <set comment="kpoint 2">
       <r>   -6.0038    1.0000 </r>
       <r>    4.1513    1.0000 </r>
       <r>    5.4716    1.0000 </r>
       <r>    5.4716    1.0000 </r>
       <r>    8.2003    0.0000 </r>
       <r>    8.7058    0.0000 </r>
       <r>    8.7058    0.0000 </r>
       <r>   10.4072    0.0000 </r>
       <r>   12.9456    0.0000 </r>
       <r>   12.9456    0.0000 </r>
       <r>   14.2666    0.0000 </r>
       <r>   16.2650    0.0000 </r>
       <r>   18.0374    0.0000 </r>
       <r>   18.0374    0.0000 </r>
       <r>   22.0951    0.0000 </r>
       <r>   26.7313    0.0000 </r>
      </set>
      <set comment="kpoint 3">
       <r>   -5.4070    1.0000 </r>
       <r>    1.8160    1.0000 </r>
       <r>    4.9998    1.0000 </r>
       <r>    4.9998    1.0000 </r>
       <r>    7.7141    0.0000 </r>
       <r>    9.2186    0.0000 </r>
       <r>    9.2186    0.0000 </r>
       <r>   12.5880    0.0000 </r>
       <r>   12.8921    0.0000 </r>
       <r>   12.8921    0.0000 </r>
       <r>   14.5364    0.0000 </r>
       <r>   17.4119    0.0000 </r>
       <r>   20.2999    0.0000 </r>
       <r>   20.2999    0.0000 </r>
       <r>   23.5074    0.0000 </r>
       <r>   23.5078    0.0000 </r>
      </set>
      <set comment="kpoint 4">
       <r>   -4.5096    1.0000 </r>
       <r>   -0.2098    1.0000 </r>
       <r>    4.6736    1.0000 </r>
       <r>    4.6736    1.0000 </r>
       <r>    7.3467    0.0000 </r>
       <r>    9.1520    0.0000 </r>
       <r>    9.1520    0.0000 </r>
       <r>   13.4434    0.0000 </r>
       <r>   14.2828    0.0000 </r>
       <r>   14.2828    0.0000 </r>
       <r>   15.3073    0.0000 </r>
       <r>   19.4548    0.0000 </r>
       <r>   19.4548    0.0000 </r>
       <r>   19.6847    0.0000 </r>
       <r>   22.3140    0.0000 </r>
       <r>   24.1649    0.0000 </r>
      </set>
      <set comment="kpoint 5">
       <r>   -3.8655    1.0000 </r>
       <r>   -1.2391    1.0000 </r>
       <r>    4.5623    1.0000 </r>
       <r>    4.5623    1.0000 </r>
       <r>    7.2180    0.0000 </r>
       <r>    9.0366    0.0000 </r>
       <r>    9.0366    0.0000 </r>
       <r>   13.2718    0.0000 </r>
       <r>   16.2656    0.0000 </r>
       <r>   16.2656    0.0000 </r>
       <r>   16.9605    0.0000 </r>
       <r>   17.0245    0.0000 </r>
       <r>   17.0245    0.0000 </r>
       <r>   18.6599    0.0000 </r>
       <r>   25.0018    0.0000 </r>
       <r>   25.5841    0.0000 </r>
      </set>
      <set comment="kpoint 6">
       <r>   -5.9349    1.0000 </r>
       <r>    4.4238    1.0000 </r>
       <r>    4.9475    1.0000 </r>
       <r>    4.9475    1.0000 </r>
       <r>    7.7042    0.0000 </r>
       <r>    9.4265    0.0000 </r>
       <r>    9.4265    0.0000 </r>
       <r>   10.0883    0.0000 </r>
       <r>   12.1938    0.0000 </r>
       <r>   13.7516    0.0000 </r>
       <r>   14.5686    0.0000 </r>
       <r>   17.3267    0.0000 </r>
       <r>   17.3267    0.0000 </r>
       <r>   17.8037    0.0000 </r>
       <r>   22.7047    0.0000 </r>
       <r>   26.2391    0.0000 </r>
      </set>
      <set comment="kpoint 7">
       <r>   -5.4654    1.0000 </r>
       <r>    2.5263    1.0000 </r>
       <r>    4.4341    1.0000 </r>
       <r>    4.5070    1.0000 </r>
       <r>    7.8368    0.0000 </r>
       <r>    9.4187    0.0000 </r>
       <r>   10.1880    0.0000 </r>
       <r>   10.4195    0.0000 </r>
       <r>   13.1985    0.0000 </r>
       <r>   13.9030    0.0000 </r>
       <r>   15.5779    0.0000 </r>
       <r>   17.1633    0.0000 </r>
       <r>   18.7729    0.0000 </r>
       <r>   20.0300    0.0000 </r>
       <r>   23.2494    0.0000 </r>
       <r>   23.7290    0.0000 </r>
      </set>
      <set comment="kpoint 8">
       <r>   -4.6480    1.0000 </r>
       <r>    0.4589    1.0000 </r>
       <r>    3.9110    1.0000 </r>
       <r>    4.1671    1.0000 </r>
       <r>    7.9288    0.0000 </r>
       <r>    9.3427    0.0000 </r>
       <r>   10.1731    0.0000 </r>
       <r>   11.1372    0.0000 </r>
       <r>   14.9554    0.0000 </r>
       <r>   15.0293    0.0000 </r>
       <r>   15.5894    0.0000 </r>
       <r>   19.0541    0.0000 </r>
       <r>   19.1013    0.0000 </r>
       <r>   20.8583    0.0000 </r>
       <r>   22.2903    0.0000 </r>
       <r>   23.2948    0.0000 </r>
      </set>
      <set comment="kpoint 9">
       <r>   -3.7802    1.0000 </r>
       <r>   -1.0126    1.0000 </r>
       <r>    3.4630    1.0000 </r>
       <r>    4.1940    1.0000 </r>
       <r>    7.8748    0.0000 </r>
       <r>    9.2033    0.0000 </r>
       <r>    9.8018    0.0000 </r>
       <r>   13.0327    0.0000 </r>
       <r>   14.5949    0.0000 </r>
       <r>   16.1907    0.0000 </r>
       <r>   17.1771    0.0000 </r>
       <r>   17.3472    0.0000 </r>
       <r>   18.1886    0.0000 </r>
       <r>   20.7064    0.0000 </r>
       <r>   23.9382    0.0000 </r>
       <r>   25.2856    0.0000 </r>
      </set>
      <set comment="kpoint 10">
       <r>   -4.0272    1.0000 </r>
       <r>   -0.6392    1.0000 </r>
       <r>    3.2790    1.0000 </r>
       <r>    4.4935    1.0000 </r>
       <r>    8.0470    0.0000 </r>
       <r>    9.3072    0.0000 </r>
       <r>    9.5691    0.0000 </r>
       <r>   13.5533    0.0000 </r>
       <r>   13.7938    0.0000 </r>
       <r>   14.8391    0.0000 </r>
       <r>   16.8332    0.0000 </r>
       <r>   18.1260    0.0000 </r>
       <r>   19.9678    0.0000 </r>
       <r>   20.3387    0.0000 </r>
       <r>   22.5078    0.0000 </r>
       <r>   24.2566    0.0000 </r>
      </set>
      <set comment="kpoint 11">
       <r>   -4.9554    1.0000 </r>
       <r>    1.1206    1.0000 </r>
       <r>    3.4276    1.0000 </r>
       <r>    4.9882    1.0000 </r>
       <r>    8.4142    0.0000 </r>
       <r>    9.3860    0.0000 </r>
       <r>    9.5478    0.0000 </r>
       <r>   11.9631    0.0000 </r>
       <r>   12.1626    0.0000 </r>
       <r>   15.4167    0.0000 </r>
       <r>   15.7757    0.0000 </r>
       <r>   18.0347    0.0000 </r>
       <r>   19.6454    0.0000 </r>
       <r>   21.0359    0.0000 </r>
       <r>   22.0806    0.0000 </r>
       <r>   23.6892    0.0000 </r>
      </set>
      <set comment="kpoint 12">
       <r>   -5.6670    1.0000 </r>
       <r>    3.0686    1.0000 </r>
       <r>    4.1115    1.0000 </r>
       <r>    5.4718    1.0000 </r>
       <r>    8.7512    0.0000 </r>
       <r>    8.8386    0.0000 </r>
       <r>    9.0577    0.0000 </r>
       <r>   11.2335    0.0000 </r>
       <r>   12.0314    0.0000 </r>
       <r>   13.7346    0.0000 </r>
       <r>   15.3026    0.0000 </r>
       <r>   16.7772    0.0000 </r>
       <r>   17.9724    0.0000 </r>
       <r>   20.1246    0.0000 </r>
       <r>   23.3668    0.0000 </r>
       <r>   23.6517    0.0000 </r>
      </set>
      <set comment="kpoint 13">
       <r>   -5.1247    1.0000 </r>
       <r>    2.2433    1.0000 </r>
       <r>    3.8600    1.0000 </r>
       <r>    3.8600    1.0000 </r>
       <r>    6.7987    0.0000 </r>
       <r>    8.7873    0.0000 </r>
       <r>   11.4772    0.0000 </r>
       <r>   11.4772    0.0000 </r>
       <r>   13.7522    0.0000 </r>
       <r>   14.6563    0.0000 </r>
       <r>   16.9784    0.0000 </r>
       <r>   18.6422    0.0000 </r>
       <r>   18.6422    0.0000 </r>
       <r>   19.2950    0.0000 </r>
       <r>   23.0422    0.0000 </r>
       <r>   23.0422    0.0000 </r>
      </set>
      <set comment="kpoint 14">
       <r>   -4.4131    1.0000 </r>
       <r>    0.8181    1.0000 </r>
       <r>    3.0657    1.0000 </r>
       <r>    3.5417    1.0000 </r>
       <r>    7.0178    0.0000 </r>
       <r>    8.5523    0.0000 </r>
       <r>   11.7040    0.0000 </r>
       <r>   11.9814    0.0000 </r>
       <r>   15.7007    0.0000 </r>
       <r>   15.8699    0.0000 </r>
       <r>   17.2587    0.0000 </r>
       <r>   18.9077    0.0000 </r>
       <r>   19.3336    0.0000 </r>
       <r>   20.4801    0.0000 </r>
       <r>   21.5036    0.0000 </r>
       <r>   22.6974    0.0000 </r>
      </set>
      <set comment="kpoint 15">
       <r>   -3.4826    1.0000 </r>
       <r>   -0.6305    1.0000 </r>
       <r>    2.1928    1.0000 </r>
       <r>    3.5462    1.0000 </r>
       <r>    7.1789    0.0000 </r>
       <r>   10.1181    0.0000 </r>
       <r>   11.4438    0.0000 </r>
       <r>   11.6245    0.0000 </r>
       <r>   15.8595    0.0000 </r>
       <r>   16.2410    0.0000 </r>
       <r>   17.8698    0.0000 </r>
       <r>   18.3526    0.0000 </r>
       <r>   18.6430    0.0000 </r>
       <r>   22.4395    0.0000 </r>
       <r>   23.3990    0.0000 </r>
       <r>   24.2926    0.0000 </r>
      </set>
      <set comment="kpoint 16">
       <r>   -3.2755    1.0000 </r>
       <r>   -0.8919    1.0000 </r>
       <r>    1.7295    1.0000 </r>
       <r>    3.8672    1.0000 </r>
       <r>    7.5071    0.0000 </r>
       <r>   11.1437    0.0000 </r>
       <r>   11.1847    0.0000 </r>
       <r>   12.6413    0.0000 </r>
       <r>   13.6790    0.0000 </r>
       <r>   13.6896    0.0000 </r>
       <r>   18.1592    0.0000 </r>
       <r>   20.5341    0.0000 </r>
       <r>   20.7597    0.0000 </r>
       <r>   21.6824    0.0000 </r>
       <r>   22.1040    0.0000 </r>
       <r>   24.0924    0.0000 </r>
      </set>
      <set comment="kpoint 17">
       <r>   -4.1593    1.0000 </r>
       <r>    0.2752    1.0000 </r>
       <r>    1.9681    1.0000 </r>
       <r>    4.4298    1.0000 </r>
       <r>    8.1260    0.0000 </r>
       <r>   10.5010    0.0000 </r>
       <r>   10.8158    0.0000 </r>
       <r>   11.8150    0.0000 </r>
       <r>   12.1340    0.0000 </r>
       <r>   15.3038    0.0000 </r>
       <r>   18.2231    0.0000 </r>
       <r>   18.8959    0.0000 </r>
       <r>   19.0365    0.0000 </r>
       <r>   22.2635    0.0000 </r>
       <r>   22.7585    0.0000 </r>
       <r>   23.1006    0.0000 </r>
      </set>
      <set comment="kpoint 18">
       <r>   -3.8101    1.0000 </r>
       <r>    0.0163    1.0000 </r>
       <r>    3.1421    1.0000 </r>
       <r>    3.1421    1.0000 </r>
       <r>    6.2701    0.0000 </r>
       <r>    7.1843    0.0000 </r>
       <r>   13.7503    0.0000 </r>
       <r>   13.7503    0.0000 </r>
       <r>   16.1580    0.0000 </r>
       <r>   16.3966    0.0000 </r>
       <r>   18.7147    0.0000 </r>
       <r>   18.7147    0.0000 </r>
       <r>   19.2228    0.0000 </r>
       <r>   20.8941    0.0000 </r>
       <r>   21.5313    0.0000 </r>
       <r>   22.4199    0.0000 </r>
      </set>
      <set comment="kpoint 19">
       <r>   -2.9103    1.0000 </r>
       <r>   -1.0688    1.0000 </r>
       <r>    2.2936    1.0000 </r>
       <r>    3.0662    1.0000 </r>
       <r>    6.5453    0.0000 </r>
       <r>    7.6297    0.0000 </r>
       <r>   13.9704    0.0000 </r>
       <r>   14.0487    0.0000 </r>
       <r>   16.4417    0.0000 </r>
       <r>   16.5105    0.0000 </r>
       <r>   18.0335    0.0000 </r>
       <r>   18.5392    0.0000 </r>
       <r>   20.5698    0.0000 </r>
       <r>   20.6537    0.0000 </r>
       <r>   21.5275    0.0000 </r>
       <r>   24.2884    0.0000 </r>
      </set>
      <set comment="kpoint 20">
       <r>   -2.4654    1.0000 </r>
       <r>   -1.4685    1.0000 </r>
       <r>    1.4126    1.0000 </r>
       <r>    3.3253    1.0000 </r>
       <r>    6.8563    0.0000 </r>
       <r>    9.8013    0.0000 </r>
       <r>   13.1751    0.0000 </r>
       <r>   13.6995    0.0000 </r>
       <r>   13.9143    0.0000 </r>
       <r>   14.2077    0.0000 </r>
       <r>   20.3482    0.0000 </r>
       <r>   20.6102    0.0000 </r>
       <r>   21.1776    0.0000 </r>
       <r>   21.3342    0.0000 </r>
       <r>   21.4723    0.0000 </r>
       <r>   22.7387    0.0000 </r>
      </set>
      <set comment="kpoint 21">
       <r>   -2.0574    1.0000 </r>
       <r>   -2.0574    1.0000 </r>
       <r>    2.8961    1.0000 </r>
       <r>    2.8961    1.0000 </r>
       <r>    6.3567    0.0000 </r>
       <r>    6.3567    0.0000 </r>
       <r>   15.8033    0.0000 </r>
       <r>   15.8033    0.0000 </r>
       <r>   16.6872    0.0000 </r>
       <r>   16.6872    0.0000 </r>
       <r>   18.2452    0.0000 </r>
       <r>   18.2452    0.0000 </r>
       <r>   18.6869    0.0000 </r>
       <r>   18.6869    0.0000 </r>
       <r>   24.4397    0.0000 </r>
       <r>   24.4397    0.0000 </r>
      </set>
      <set comment="kpoint 22">
       <r>   -4.8764    1.0000 </r>
       <r>    1.4669    1.0000 </r>
       <r>    3.0189    1.0000 </r>
       <r>    4.3246    1.0000 </r>
       <r>    8.1350    0.0000 </r>
       <r>    9.5944    0.0000 </r>
       <r>    9.8669    0.0000 </r>
       <r>   11.2132    0.0000 </r>
       <r>   13.4828    0.0000 </r>
       <r>   15.9570    0.0000 </r>
       <r>   16.6720    0.0000 </r>
       <r>   17.7111    0.0000 </r>
       <r>   19.5148    0.0000 </r>
       <r>   20.6815    0.0000 </r>
       <r>   21.5245    0.0000 </r>
       <r>   23.8314    0.0000 </r>
      </set>
      <set comment="kpoint 23">
       <r>   -3.9847    1.0000 </r>
       <r>   -0.0908    1.0000 </r>
       <r>    2.4091    1.0000 </r>
       <r>    3.8170    1.0000 </r>
       <r>    8.5583    0.0000 </r>
       <r>    9.2398    0.0000 </r>
       <r>   10.6965    0.0000 </r>
       <r>   11.6400    0.0000 </r>
       <r>   14.7102    0.0000 </r>
       <r>   15.3901    0.0000 </r>
       <r>   17.6070    0.0000 </r>
       <r>   18.6308    0.0000 </r>
       <r>   19.8735    0.0000 </r>
       <r>   20.7602    0.0000 </r>
       <r>   22.8758    0.0000 </r>
       <r>   23.9095    0.0000 </r>
      </set>
      <set comment="kpoint 24">
       <r>   -3.3267    1.0000 </r>
       <r>   -1.0435    1.0000 </r>
       <r>    2.2815    1.0000 </r>
       <r>    3.5848    1.0000 </r>
       <r>    8.7575    0.0000 </r>
       <r>    8.8011    0.0000 </r>
       <r>   11.6152    0.0000 </r>
       <r>   12.7925    0.0000 </r>
       <r>   13.0770    0.0000 </r>
       <r>   16.2385    0.0000 </r>
       <r>   17.3674    0.0000 </r>
       <r>   18.0231    0.0000 </r>
       <r>   21.2085    0.0000 </r>
       <r>   21.2439    0.0000 </r>
       <r>   23.7490    0.0000 </r>
       <r>   24.0785    0.0000 </r>
      </set>
      <set comment="kpoint 25">
       <r>   -3.6099    1.0000 </r>
       <r>   -0.2020    1.0000 </r>
       <r>    2.3668    1.0000 </r>
       <r>    2.9774    1.0000 </r>
       <r>    7.6214    0.0000 </r>
       <r>    8.3046    0.0000 </r>
       <r>   11.4519    0.0000 </r>
       <r>   13.6980    0.0000 </r>
       <r>   15.8789    0.0000 </r>
       <r>   15.8995    0.0000 </r>
       <r>   18.5764    0.0000 </r>
       <r>   19.0007    0.0000 </r>
       <r>   19.8197    0.0000 </r>
       <r>   20.2371    0.0000 </r>
       <r>   22.2963    0.0000 </r>
       <r>   22.7342    0.0000 </r>
      </set>
      <set comment="kpoint 26">
       <r>   -2.7300    1.0000 </r>
       <r>   -1.1724    1.0000 </r>
       <r>    1.6581    1.0000 </r>
       <r>    2.7733    1.0000 </r>
       <r>    8.0571    0.0000 </r>
       <r>    9.9512    0.0000 </r>
       <r>   10.9706    0.0000 </r>
       <r>   13.1251    0.0000 </r>
       <r>   14.1048    0.0000 </r>
       <r>   16.7812    0.0000 </r>
       <r>   17.9130    0.0000 </r>
       <r>   19.9013    0.0000 </r>
       <r>   21.0484    0.0000 </r>
       <r>   21.6799    0.0000 </r>
       <r>   23.1263    0.0000 </r>
       <r>   23.9470    0.0000 </r>
      </set>
      <set comment="kpoint 27">
       <r>   -3.0815    1.0000 </r>
       <r>   -0.8093    1.0000 </r>
       <r>    1.4887    1.0000 </r>
       <r>    3.1532    1.0000 </r>
       <r>    8.5414    0.0000 </r>
       <r>   10.2293    0.0000 </r>
       <r>   10.8937    0.0000 </r>
       <r>   12.7103    0.0000 </r>
       <r>   13.5748    0.0000 </r>
       <r>   14.9399    0.0000 </r>
       <r>   19.7457    0.0000 </r>
       <r>   19.9125    0.0000 </r>
       <r>   20.1989    0.0000 </r>
       <r>   21.9962    0.0000 </r>
       <r>   22.2179    0.0000 </r>
       <r>   24.0495    0.0000 </r>
      </set>
      <set comment="kpoint 28">
       <r>   -1.9772    1.0000 </r>
       <r>   -1.9772    1.0000 </r>
       <r>    2.3128    1.0000 </r>
       <r>    2.3128    1.0000 </r>
       <r>    7.6353    0.0000 </r>
       <r>    7.6353    0.0000 </r>
       <r>   13.5371    0.0000 </r>
       <r>   13.5371    0.0000 </r>
       <r>   16.2763    0.0000 </r>
       <r>   16.2763    0.0000 </r>
       <r>   18.5663    0.0000 </r>
       <r>   18.5663    0.0000 </r>
       <r>   21.2519    0.0000 </r>
       <r>   21.2519    0.0000 </r>
       <r>   22.9837    0.0000 </r>
       <r>   22.9837    0.0000 </r>
      </set>
      <set comment="kpoint 29">
       <r>   -1.8886    1.0000 </r>
       <r>   -1.8886    1.0000 </r>
       <r>    1.8665    1.0000 </r>
       <r>    1.8665    1.0000 </r>
       <r>    9.9351    0.0000 </r>
       <r>    9.9351    0.0000 </r>
       <r>   10.6982    0.0000 </r>
       <r>   10.6982    0.0000 </r>
       <r>   16.2809    0.0000 </r>
       <r>   16.2809    0.0000 </r>
       <r>   18.7266    0.0000 </r>
       <r>   18.7266    0.0000 </r>
       <r>   22.0256    0.0000 </r>
       <r>   22.0256    0.0000 </r>
       <r>   24.1574    0.0000 </r>
       <r>   24.1574    0.0000 </r>
      </set>
     </set>
     <set comment="spin 2">
      <set comment="kpoint 1">
       <r>   -6.2083    1.0000 </r>
       <r>    5.7634    1.0000 </r>
       <r>    5.7634    1.0000 </r>
       <r>    5.7634    1.0000 </r>
       <r>    8.2787    0.0000 </r>
       <r>    8.2787    0.0000 </r>
       <r>    8.2787    0.0000 </r>
       <r>    9.0548    0.0000 </r>
       <r>   13.4492    0.0000 </r>
       <r>   13.4492    0.0000 </r>
       <r>   13.4610    0.0000 </r>
       <r>   16.8500    0.0000 </r>
       <r>   16.8500    0.0000 </r>
       <r>   16.8500    0.0000 </r>
       <r>   20.8294    0.0000 </r>
       <r>   28.7298    0.0000 </r>
      </set>
      <set comment="kpoint 2">
       <r>   -6.0039    1.0000 </r>
       <r>    4.1512    1.0000 </r>
       <r>    5.4715    1.0000 </r>
       <r>    5.4715    1.0000 </r>
       <r>    8.2003    0.0000 </r>
       <r>    8.7056    0.0000 </r>
       <r>    8.7056    0.0000 </r>
       <r>   10.4073    0.0000 </r>
       <r>   12.9454    0.0000 </r>
       <r>   12.9454    0.0000 </r>
       <r>   14.2669    0.0000 </r>
       <r>   16.2653    0.0000 </r>
       <r>   18.0377    0.0000 </r>
       <r>   18.0377    0.0000 </r>
       <r>   22.0949    0.0000 </r>
       <r>   26.7316    0.0000 </r>
      </set>
      <set comment="kpoint 3">
       <r>   -5.4071    1.0000 </r>
       <r>    1.8159    1.0000 </r>
       <r>    4.9996    1.0000 </r>
       <r>    4.9996    1.0000 </r>
       <r>    7.7141    0.0000 </r>
       <r>    9.2185    0.0000 </r>
       <r>    9.2185    0.0000 </r>
       <r>   12.5882    0.0000 </r>
       <r>   12.8921    0.0000 </r>
       <r>   12.8921    0.0000 </r>
       <r>   14.5367    0.0000 </r>
       <r>   17.4121    0.0000 </r>
       <r>   20.3000    0.0000 </r>
       <r>   20.3000    0.0000 </r>
       <r>   23.5076    0.0000 </r>
       <r>   23.5077    0.0000 </r>
      </set>
      <set comment="kpoint 4">
       <r>   -4.5097    1.0000 </r>
       <r>   -0.2099    1.0000 </r>
       <r>    4.6734    1.0000 </r>
       <r>    4.6734    1.0000 </r>
       <r>    7.3468    0.0000 </r>
       <r>    9.1519    0.0000 </r>
       <r>    9.1519    0.0000 </r>
       <r>   13.4435    0.0000 </r>
       <r>   14.2827    0.0000 </r>
       <r>   14.2827    0.0000 </r>
       <r>   15.3076    0.0000 </r>
       <r>   19.4547    0.0000 </r>
       <r>   19.4547    0.0000 </r>
       <r>   19.6848    0.0000 </r>
       <r>   22.3143    0.0000 </r>
       <r>   24.1652    0.0000 </r>
      </set>
      <set comment="kpoint 5">
       <r>   -3.8655    1.0000 </r>
       <r>   -1.2391    1.0000 </r>
       <r>    4.5621    1.0000 </r>
       <r>    4.5621    1.0000 </r>
       <r>    7.2182    0.0000 </r>
       <r>    9.0366    0.0000 </r>
       <r>    9.0366    0.0000 </r>
       <r>   13.2719    0.0000 </r>
       <r>   16.2655    0.0000 </r>
       <r>   16.2655    0.0000 </r>
       <r>   16.9607    0.0000 </r>
       <r>   17.0245    0.0000 </r>
       <r>   17.0245    0.0000 </r>
       <r>   18.6602    0.0000 </r>
       <r>   25.0018    0.0000 </r>
       <r>   25.5846    0.0000 </r>
      </set>
      <set comment="kpoint 6">
       <r>   -5.9350    1.0000 </r>
       <r>    4.4238    1.0000 </r>
       <r>    4.9474    1.0000 </r>
       <r>    4.9474    1.0000 </r>
       <r>    7.7041    0.0000 </r>
       <r>    9.4264    0.0000 </r>
       <r>    9.4264    0.0000 </r>
       <r>   10.0884    0.0000 </r>
       <r>   12.1938    0.0000 </r>
       <r>   13.7513    0.0000 </r>
       <r>   14.5689    0.0000 </r>
       <r>   17.3270    0.0000 </r>
       <r>   17.3270    0.0000 </r>
       <r>   17.8037    0.0000 </r>
       <r>   22.7044    0.0000 </r>
       <r>   26.2395    0.0000 </r>
      </set>
      <set comment="kpoint 7">
       <r>   -5.4655    1.0000 </r>
       <r>    2.5262    1.0000 </r>
       <r>    4.4340    1.0000 </r>
       <r>    4.5069    1.0000 </r>
       <r>    7.8368    0.0000 </r>
       <r>    9.4186    0.0000 </r>
       <r>   10.1879    0.0000 </r>
       <r>   10.4195    0.0000 </r>
       <r>   13.1986    0.0000 </r>
       <r>   13.9028    0.0000 </r>
       <r>   15.5781    0.0000 </r>
       <r>   17.1635    0.0000 </r>
       <r>   18.7731    0.0000 </r>
       <r>   20.0301    0.0000 </r>
       <r>   23.2496    0.0000 </r>
       <r>   23.7294    0.0000 </r>
      </set>
      <set comment="kpoint 8">
       <r>   -4.6481    1.0000 </r>
       <r>    0.4588    1.0000 </r>
       <r>    3.9109    1.0000 </r>
       <r>    4.1670    1.0000 </r>
       <r>    7.9288    0.0000 </r>
       <r>    9.3426    0.0000 </r>
       <r>   10.1730    0.0000 </r>
       <r>   11.1372    0.0000 </r>
       <r>   14.9555    0.0000 </r>
       <r>   15.0292    0.0000 </r>
       <r>   15.5896    0.0000 </r>
       <r>   19.0542    0.0000 </r>
       <r>   19.1012    0.0000 </r>
       <r>   20.8584    0.0000 </r>
       <r>   22.2907    0.0000 </r>
       <r>   23.2950    0.0000 </r>
      </set>
      <set comment="kpoint 9">
       <r>   -3.7802    1.0000 </r>
       <r>   -1.0127    1.0000 </r>
       <r>    3.4629    1.0000 </r>
       <r>    4.1939    1.0000 </r>
       <r>    7.8749    0.0000 </r>
       <r>    9.2033    0.0000 </r>
       <r>    9.8017    0.0000 </r>
       <r>   13.0327    0.0000 </r>
       <r>   14.5950    0.0000 </r>
       <r>   16.1906    0.0000 </r>
       <r>   17.1772    0.0000 </r>
       <r>   17.3471    0.0000 </r>
       <r>   18.1888    0.0000 </r>
       <r>   20.7065    0.0000 </r>
       <r>   23.9384    0.0000 </r>
       <r>   25.2858    0.0000 </r>
      </set>
      <set comment="kpoint 10">
       <r>   -4.0273    1.0000 </r>
       <r>   -0.6392    1.0000 </r>
       <r>    3.2789    1.0000 </r>
       <r>    4.4934    1.0000 </r>
       <r>    8.0471    0.0000 </r>
       <r>    9.3072    0.0000 </r>
       <r>    9.5690    0.0000 </r>
       <r>   13.5533    0.0000 </r>
       <r>   13.7938    0.0000 </r>
       <r>   14.8391    0.0000 </r>
       <r>   16.8334    0.0000 </r>
       <r>   18.1261    0.0000 </r>
       <r>   19.9678    0.0000 </r>
       <r>   20.3388    0.0000 </r>
       <r>   22.5080    0.0000 </r>
       <r>   24.2568    0.0000 </r>
      </set>
      <set comment="kpoint 11">
       <r>   -4.9554    1.0000 </r>
       <r>    1.1206    1.0000 </r>
       <r>    3.4275    1.0000 </r>
       <r>    4.9881    1.0000 </r>
       <r>    8.4143    0.0000 </r>
       <r>    9.3859    0.0000 </r>
       <r>    9.5478    0.0000 </r>
       <r>   11.9631    0.0000 </r>
       <r>   12.1626    0.0000 </r>
       <r>   15.4169    0.0000 </r>
       <r>   15.7757    0.0000 </r>
       <r>   18.0347    0.0000 </r>
       <r>   19.6454    0.0000 </r>
       <r>   21.0363    0.0000 </r>
       <r>   22.0805    0.0000 </r>
       <r>   23.6894    0.0000 </r>
      </set>
      <set comment="kpoint 12">
       <r>   -5.6671    1.0000 </r>
       <r>    3.0686    1.0000 </r>
       <r>    4.1113    1.0000 </r>
       <r>    5.4717    1.0000 </r>
       <r>    8.7512    0.0000 </r>
       <r>    8.8385    0.0000 </r>
       <r>    9.0576    0.0000 </r>
       <r>   11.2335    0.0000 </r>
       <r>   12.0314    0.0000 </r>
       <r>   13.7346    0.0000 </r>
       <r>   15.3029    0.0000 </r>
       <r>   16.7772    0.0000 </r>
       <r>   17.9727    0.0000 </r>
       <r>   20.1247    0.0000 </r>
       <r>   23.3670    0.0000 </r>
       <r>   23.6515    0.0000 </r>
      </set>
      <set comment="kpoint 13">
       <r>   -5.1248    1.0000 </r>
       <r>    2.2432    1.0000 </r>
       <r>    3.8599    1.0000 </r>
       <r>    3.8599    1.0000 </r>
       <r>    6.7986    0.0000 </r>
       <r>    8.7873    0.0000 </r>
       <r>   11.4771    0.0000 </r>
       <r>   11.4771    0.0000 </r>
       <r>   13.7524    0.0000 </r>
       <r>   14.6561    0.0000 </r>
       <r>   16.9786    0.0000 </r>
       <r>   18.6424    0.0000 </r>
       <r>   18.6424    0.0000 </r>
       <r>   19.2948    0.0000 </r>
       <r>   23.0427    0.0000 </r>
       <r>   23.0427    0.0000 </r>
      </set>
      <set comment="kpoint 14">
       <r>   -4.4132    1.0000 </r>
       <r>    0.8181    1.0000 </r>
       <r>    3.0656    1.0000 </r>
       <r>    3.5416    1.0000 </r>
       <r>    7.0178    0.0000 </r>
       <r>    8.5523    0.0000 </r>
       <r>   11.7040    0.0000 </r>
       <r>   11.9813    0.0000 </r>
       <r>   15.7005    0.0000 </r>
       <r>   15.8701    0.0000 </r>
       <r>   17.2588    0.0000 </r>
       <r>   18.9076    0.0000 </r>
       <r>   19.3336    0.0000 </r>
       <r>   20.4802    0.0000 </r>
       <r>   21.5039    0.0000 </r>
       <r>   22.6977    0.0000 </r>
      </set>
      <set comment="kpoint 15">
       <r>   -3.4826    1.0000 </r>
       <r>   -0.6306    1.0000 </r>
       <r>    2.1927    1.0000 </r>
       <r>    3.5461    1.0000 </r>
       <r>    7.1789    0.0000 </r>
       <r>   10.1181    0.0000 </r>
       <r>   11.4438    0.0000 </r>
       <r>   11.6244    0.0000 </r>
       <r>   15.8595    0.0000 </r>
       <r>   16.2410    0.0000 </r>
       <r>   17.8697    0.0000 </r>
       <r>   18.3528    0.0000 </r>
       <r>   18.6432    0.0000 </r>
       <r>   22.4397    0.0000 </r>
       <r>   23.3990    0.0000 </r>
       <r>   24.2928    0.0000 </r>
      </set>
      <set comment="kpoint 16">
       <r>   -3.2755    1.0000 </r>
       <r>   -0.8920    1.0000 </r>
       <r>    1.7295    1.0000 </r>
       <r>    3.8670    1.0000 </r>
       <r>    7.5071    0.0000 </r>
       <r>   11.1437    0.0000 </r>
       <r>   11.1846    0.0000 </r>
       <r>   12.6413    0.0000 </r>
       <r>   13.6790    0.0000 </r>
       <r>   13.6895    0.0000 </r>
       <r>   18.1594    0.0000 </r>
       <r>   20.5340    0.0000 </r>
       <r>   20.7599    0.0000 </r>
       <r>   21.6824    0.0000 </r>
       <r>   22.1043    0.0000 </r>
       <r>   24.0924    0.0000 </r>
      </set>
      <set comment="kpoint 17">
       <r>   -4.1594    1.0000 </r>
       <r>    0.2751    1.0000 </r>
       <r>    1.9681    1.0000 </r>
       <r>    4.4296    1.0000 </r>
       <r>    8.1260    0.0000 </r>
       <r>   10.5008    0.0000 </r>
       <r>   10.8158    0.0000 </r>
       <r>   11.8150    0.0000 </r>
       <r>   12.1341    0.0000 </r>
       <r>   15.3038    0.0000 </r>
       <r>   18.2231    0.0000 </r>
       <r>   18.8959    0.0000 </r>
       <r>   19.0370    0.0000 </r>
       <r>   22.2638    0.0000 </r>
       <r>   22.7584    0.0000 </r>
       <r>   23.1009    0.0000 </r>
      </set>
      <set comment="kpoint 18">
       <r>   -3.8101    1.0000 </r>
       <r>    0.0162    1.0000 </r>
       <r>    3.1420    1.0000 </r>
       <r>    3.1420    1.0000 </r>
       <r>    6.2702    0.0000 </r>
       <r>    7.1844    0.0000 </r>
       <r>   13.7502    0.0000 </r>
       <r>   13.7502    0.0000 </r>
       <r>   16.1578    0.0000 </r>
       <r>   16.3969    0.0000 </r>
       <r>   18.7147    0.0000 </r>
       <r>   18.7147    0.0000 </r>
       <r>   19.2230    0.0000 </r>
       <r>   20.8939    0.0000 </r>
       <r>   21.5310    0.0000 </r>
       <r>   22.4204    0.0000 </r>
      </set>
      <set comment="kpoint 19">
       <r>   -2.9104    1.0000 </r>
       <r>   -1.0688    1.0000 </r>
       <r>    2.2935    1.0000 </r>
       <r>    3.0661    1.0000 </r>
       <r>    6.5454    0.0000 </r>
       <r>    7.6297    0.0000 </r>
       <r>   13.9703    0.0000 </r>
       <r>   14.0487    0.0000 </r>
       <r>   16.4417    0.0000 </r>
       <r>   16.5105    0.0000 </r>
       <r>   18.0333    0.0000 </r>
       <r>   18.5395    0.0000 </r>
       <r>   20.5701    0.0000 </r>
       <r>   20.6535    0.0000 </r>
       <r>   21.5275    0.0000 </r>
       <r>   24.2888    0.0000 </r>
      </set>
      <set comment="kpoint 20">
       <r>   -2.4655    1.0000 </r>
       <r>   -1.4686    1.0000 </r>
       <r>    1.4125    1.0000 </r>
       <r>    3.3252    1.0000 </r>
       <r>    6.8563    0.0000 </r>
       <r>    9.8014    0.0000 </r>
       <r>   13.1749    0.0000 </r>
       <r>   13.6996    0.0000 </r>
       <r>   13.9143    0.0000 </r>
       <r>   14.2077    0.0000 </r>
       <r>   20.3483    0.0000 </r>
       <r>   20.6101    0.0000 </r>
       <r>   21.1775    0.0000 </r>
       <r>   21.3341    0.0000 </r>
       <r>   21.4728    0.0000 </r>
       <r>   22.7388    0.0000 </r>
      </set>
      <set comment="kpoint 21">
       <r>   -2.0575    1.0000 </r>
       <r>   -2.0575    1.0000 </r>
       <r>    2.8960    1.0000 </r>
       <r>    2.8960    1.0000 </r>
       <r>    6.3568    0.0000 </r>
       <r>    6.3568    0.0000 </r>
       <r>   15.8032    0.0000 </r>
       <r>   15.8032    0.0000 </r>
       <r>   16.6873    0.0000 </r>
       <r>   16.6873    0.0000 </r>
       <r>   18.2449    0.0000 </r>
       <r>   18.2449    0.0000 </r>
       <r>   18.6871    0.0000 </r>
       <r>   18.6871    0.0000 </r>
       <r>   24.4394    0.0000 </r>
       <r>   24.4394    0.0000 </r>
      </set>
      <set comment="kpoint 22">
       <r>   -4.8765    1.0000 </r>
       <r>    1.4669    1.0000 </r>
       <r>    3.0188    1.0000 </r>
       <r>    4.3245    1.0000 </r>
       <r>    8.1349    0.0000 </r>
       <r>    9.5944    0.0000 </r>
       <r>    9.8669    0.0000 </r>
       <r>   11.2131    0.0000 </r>
       <r>   13.4828    0.0000 </r>
       <r>   15.9570    0.0000 </r>
       <r>   16.6722    0.0000 </r>
       <r>   17.7110    0.0000 </r>
       <r>   19.5149    0.0000 </r>
       <r>   20.6820    0.0000 </r>
       <r>   21.5244    0.0000 </r>
       <r>   23.8318    0.0000 </r>
      </set>
      <set comment="kpoint 23">
       <r>   -3.9848    1.0000 </r>
       <r>   -0.0909    1.0000 </r>
       <r>    2.4090    1.0000 </r>
       <r>    3.8168    1.0000 </r>
       <r>    8.5583    0.0000 </r>
       <r>    9.2398    0.0000 </r>
       <r>   10.6965    0.0000 </r>
       <r>   11.6400    0.0000 </r>
       <r>   14.7102    0.0000 </r>
       <r>   15.3901    0.0000 </r>
       <r>   17.6071    0.0000 </r>
       <r>   18.6308    0.0000 </r>
       <r>   19.8736    0.0000 </r>
       <r>   20.7604    0.0000 </r>
       <r>   22.8760    0.0000 </r>
       <r>   23.9096    0.0000 </r>
      </set>
      <set comment="kpoint 24">
       <r>   -3.3268    1.0000 </r>
       <r>   -1.0436    1.0000 </r>
       <r>    2.2814    1.0000 </r>
       <r>    3.5847    1.0000 </r>
       <r>    8.7575    0.0000 </r>
       <r>    8.8011    0.0000 </r>
       <r>   11.6152    0.0000 </r>
       <r>   12.7926    0.0000 </r>
       <r>   13.0769    0.0000 </r>
       <r>   16.2385    0.0000 </r>
       <r>   17.3675    0.0000 </r>
       <r>   18.0233    0.0000 </r>
       <r>   21.2087    0.0000 </r>
       <r>   21.2440    0.0000 </r>
       <r>   23.7493    0.0000 </r>
       <r>   24.0784    0.0000 </r>
      </set>
      <set comment="kpoint 25">
       <r>   -3.6100    1.0000 </r>
       <r>   -0.2021    1.0000 </r>
       <r>    2.3667    1.0000 </r>
       <r>    2.9773    1.0000 </r>
       <r>    7.6214    0.0000 </r>
       <r>    8.3047    0.0000 </r>
       <r>   11.4519    0.0000 </r>
       <r>   13.6980    0.0000 </r>
       <r>   15.8789    0.0000 </r>
       <r>   15.8995    0.0000 </r>
       <r>   18.5764    0.0000 </r>
       <r>   19.0007    0.0000 </r>
       <r>   19.8200    0.0000 </r>
       <r>   20.2372    0.0000 </r>
       <r>   22.2966    0.0000 </r>
       <r>   22.7341    0.0000 </r>
      </set>
      <set comment="kpoint 26">
       <r>   -2.7301    1.0000 </r>
       <r>   -1.1725    1.0000 </r>
       <r>    1.6581    1.0000 </r>
       <r>    2.7732    1.0000 </r>
       <r>    8.0572    0.0000 </r>
       <r>    9.9513    0.0000 </r>
       <r>   10.9706    0.0000 </r>
       <r>   13.1250    0.0000 </r>
       <r>   14.1048    0.0000 </r>
       <r>   16.7812    0.0000 </r>
       <r>   17.9131    0.0000 </r>
       <r>   19.9015    0.0000 </r>
       <r>   21.0484    0.0000 </r>
       <r>   21.6801    0.0000 </r>
       <r>   23.1262    0.0000 </r>
       <r>   23.9473    0.0000 </r>
      </set>
      <set comment="kpoint 27">
       <r>   -3.0816    1.0000 </r>
       <r>   -0.8094    1.0000 </r>
       <r>    1.4886    1.0000 </r>
       <r>    3.1531    1.0000 </r>
       <r>    8.5414    0.0000 </r>
       <r>   10.2293    0.0000 </r>
       <r>   10.8937    0.0000 </r>
       <r>   12.7103    0.0000 </r>
       <r>   13.5747    0.0000 </r>
       <r>   14.9400    0.0000 </r>
       <r>   19.7456    0.0000 </r>
       <r>   19.9126    0.0000 </r>
       <r>   20.1993    0.0000 </r>
       <r>   21.9963    0.0000 </r>
       <r>   22.2180    0.0000 </r>
       <r>   24.0496    0.0000 </r>
      </set>
      <set comment="kpoint 28">
       <r>   -1.9773    1.0000 </r>
       <r>   -1.9773    1.0000 </r>
       <r>    2.3127    1.0000 </r>
       <r>    2.3127    1.0000 </r>
       <r>    7.6354    0.0000 </r>
       <r>    7.6354    0.0000 </r>
       <r>   13.5370    0.0000 </r>
       <r>   13.5370    0.0000 </r>
       <r>   16.2763    0.0000 </r>
       <r>   16.2763    0.0000 </r>
       <r>   18.5663    0.0000 </r>
       <r>   18.5663    0.0000 </r>
       <r>   21.2520    0.0000 </r>
       <r>   21.2520    0.0000 </r>
       <r>   22.9836    0.0000 </r>
       <r>   22.9836    0.0000 </r>
      </set>
      <set comment="kpoint 29">
       <r>   -1.8887    1.0000 </r>
       <r>   -1.8887    1.0000 </r>
       <r>    1.8664    1.0000 </r>
       <r>    1.8664    1.0000 </r>
       <r>    9.9351    0.0000 </r>
       <r>    9.9351    0.0000 </r>
       <r>   10.6982    0.0000 </r>
       <r>   10.6982    0.0000 </r>
       <r>   16.2809    0.0000 </r>
       <r>   16.2809    0.0000 </r>
       <r>   18.7267    0.0000 </r>
       <r>   18.7267    0.0000 </r>
       <r>   22.0254    0.0000 </r>
       <r>   22.0254    0.0000 </r>
       <r>   24.1580    0.0000 </r>
       <r>   24.1580    0.0000 </r>
      </set>
     </set>
    </set>
   </array>
  </eigenvalues>
  <separator name="orbital magnetization" >
   <v name="MAGDIPOLOUT">      0.00000000      0.00000000      0.00000000</v>
  </separator>
  <dos>
   <i name="efermi">      6.27000444 </i>
   <total>
    <array>
     <dimension dim="1">gridpoints</dimension>
     <dimension dim="2">spin</dimension>
     <field>energy</field>
     <field>total</field>
     <field>integrated</field>
     <set>
      <set comment="spin 1">
       <r>    -8.2083     0.0000     0.0000 </r>
       <r>    -8.0785     0.0000     0.0000 </r>
       <r>    -7.9487     0.0000     0.0000 </r>
       <r>    -7.8189     0.0000     0.0000 </r>
       <r>    -7.6891     0.0000     0.0000 </r>
       <r>    -7.5593     0.0000     0.0000 </r>
       <r>    -7.4296     0.0000     0.0000 </r>
       <r>    -7.2998     0.0000     0.0000 </r>
       <r>    -7.1700     0.0000     0.0000 </r>
       <r>    -7.0402     0.0000     0.0000 </r>
       <r>    -6.9104     0.0000     0.0000 </r>
       <r>    -6.7806     0.0000     0.0000 </r>
       <r>    -6.6508     0.0000     0.0000 </r>
       <r>    -6.5210     0.0000     0.0000 </r>
       <r>    -6.3912     0.0000     0.0000 </r>
       <r>    -6.2614     0.0000     0.0000 </r>
       <r>    -6.1316     0.0120     0.0003 </r>
       <r>    -6.0018     0.0848     0.0060 </r>
       <r>    -5.8720     0.0858     0.0162 </r>
       <r>    -5.7422     0.1095     0.0288 </r>
       <r>    -5.6124     0.1342     0.0447 </r>
       <r>    -5.4826     0.1461     0.0631 </r>
       <r>    -5.3529     0.1581     0.0827 </r>
       <r>    -5.2231     0.1742     0.1042 </r>
       <r>    -5.0933     0.1910     0.1279 </r>
       <r>    -4.9635     0.2085     0.1538 </r>
       <r>    -4.8337     0.2205     0.1816 </r>
       <r>    -4.7039     0.2350     0.2112 </r>
       <r>    -4.5741     0.2508     0.2427 </r>
       <r>    -4.4443     0.2699     0.2764 </r>
       <r>    -4.3145     0.2922     0.3129 </r>
       <r>    -4.1847     0.3171     0.3524 </r>
       <r>    -4.0549     0.3457     0.3953 </r>
       <r>    -3.9251     0.4294     0.4441 </r>
       <r>    -3.7953     0.4710     0.5083 </r>
       <r>    -3.6655     0.4148     0.5630 </r>
       <r>    -3.5357     0.4085     0.6165 </r>
       <r>    -3.4059     0.3934     0.6689 </r>
       <r>    -3.2762     0.3480     0.7166 </r>
       <r>    -3.1464     0.3505     0.7622 </r>
       <r>    -3.0166     0.3327     0.8067 </r>
       <r>    -2.8868     0.3139     0.8485 </r>
       <r>    -2.7570     0.3000     0.8885 </r>
       <r>    -2.6272     0.2495     0.9245 </r>
       <r>    -2.4974     0.1922     0.9532 </r>
       <r>    -2.3676     0.1362     0.9744 </r>
       <r>    -2.2378     0.0857     0.9888 </r>
       <r>    -2.1080     0.0410     0.9969 </r>
       <r>    -1.9782     0.0107     0.9999 </r>
       <r>    -1.8484     0.0324     1.0021 </r>
       <r>    -1.7186     0.0741     1.0090 </r>
       <r>    -1.5888     0.1218     1.0216 </r>
       <r>    -1.4590     0.1757     1.0409 </r>
       <r>    -1.3292     0.2384     1.0676 </r>
       <r>    -1.1995     0.3147     1.1033 </r>
       <r>    -1.0697     0.5248     1.1569 </r>
       <r>    -0.9399     0.8621     1.2525 </r>
       <r>    -0.8101     0.5582     1.3452 </r>
       <r>    -0.6803     0.4222     1.4076 </r>
       <r>    -0.5505     0.3739     1.4589 </r>
       <r>    -0.4207     0.3362     1.5050 </r>
       <r>    -0.2909     0.3023     1.5463 </r>
       <r>    -0.1611     0.2704     1.5836 </r>
       <r>    -0.0313     0.2315     1.6159 </r>
       <r>     0.0985     0.2092     1.6444 </r>
       <r>     0.2283     0.1938     1.6705 </r>
       <r>     0.3581     0.1839     1.6949 </r>
       <r>     0.4879     0.1750     1.7182 </r>
       <r>     0.6177     0.1658     1.7404 </r>
       <r>     0.7475     0.1560     1.7612 </r>
       <r>     0.8772     0.1454     1.7808 </r>
       <r>     1.0070     0.1353     1.7990 </r>
       <r>     1.1368     0.1245     1.8159 </r>
       <r>     1.2666     0.1078     1.8310 </r>
       <r>     1.3964     0.0974     1.8442 </r>
       <r>     1.5262     0.3010     1.8650 </r>
       <r>     1.6560     0.7073     1.9296 </r>
       <r>     1.7858     0.5764     2.0125 </r>
       <r>     1.9156     0.5406     2.0840 </r>
       <r>     2.0454     0.5429     2.1542 </r>
       <r>     2.1752     0.5564     2.2254 </r>
       <r>     2.3050     0.8243     2.2995 </r>
       <r>     2.4348     0.5409     2.3764 </r>
       <r>     2.5646     0.5570     2.4474 </r>
       <r>     2.6944     0.5970     2.5220 </r>
       <r>     2.8242     0.6627     2.6034 </r>
       <r>     2.9539     0.7276     2.6938 </r>
       <r>     3.0837     0.8658     2.7993 </r>
       <r>     3.2135     0.7372     2.8981 </r>
       <r>     3.3433     0.7211     2.9928 </r>
       <r>     3.4731     0.7023     3.0853 </r>
       <r>     3.6029     0.6889     3.1749 </r>
       <r>     3.7327     0.6954     3.2649 </r>
       <r>     3.8625     0.6834     3.3546 </r>
       <r>     3.9923     0.6608     3.4419 </r>
       <r>     4.1221     0.6319     3.5258 </r>
       <r>     4.2519     0.6246     3.6065 </r>
       <r>     4.3817     0.6203     3.6878 </r>
       <r>     4.5115     0.5469     3.7648 </r>
       <r>     4.6413     0.3811     3.8245 </r>
       <r>     4.7711     0.3131     3.8693 </r>
       <r>     4.9009     0.2490     3.9058 </r>
       <r>     5.0306     0.1897     3.9340 </r>
       <r>     5.1604     0.1526     3.9561 </r>
       <r>     5.2902     0.1251     3.9740 </r>
       <r>     5.4200     0.1072     3.9889 </r>
       <r>     5.5498     0.0311     3.9978 </r>
       <r>     5.6796     0.0048     3.9999 </r>
       <r>     5.8094     0.0000     4.0000 </r>
       <r>     5.9392     0.0000     4.0000 </r>
       <r>     6.0690     0.0000     4.0000 </r>
       <r>     6.1988     0.0000     4.0000 </r>
       <r>     6.3286     0.0139     4.0003 </r>
       <r>     6.4584     0.0771     4.0068 </r>
       <r>     6.5882     0.0875     4.0172 </r>
       <r>     6.7180     0.1244     4.0309 </r>
       <r>     6.8478     0.1664     4.0498 </r>
       <r>     6.9776     0.2049     4.0739 </r>
       <r>     7.1073     0.2443     4.1030 </r>
       <r>     7.2371     0.2839     4.1373 </r>
       <r>     7.3669     0.3465     4.1778 </r>
       <r>     7.4967     0.4340     4.2283 </r>
       <r>     7.6265     0.5442     4.2915 </r>
       <r>     7.7563     0.6836     4.3711 </r>
       <r>     7.8861     0.9030     4.4738 </r>
       <r>     8.0159     0.9715     4.5968 </r>
       <r>     8.1457     1.0272     4.7250 </r>
       <r>     8.2755     1.0263     4.8625 </r>
       <r>     8.4053     0.7894     4.9830 </r>
       <r>     8.5351     0.5106     5.0652 </r>
       <r>     8.6649     0.2576     5.1097 </r>
       <r>     8.7947     0.2881     5.1430 </r>
       <r>     8.9245     0.3972     5.1868 </r>
       <r>     9.0543     0.5739     5.2489 </r>
       <r>     9.1840     1.1682     5.3550 </r>
       <r>     9.3138     1.6990     5.5469 </r>
       <r>     9.4436     0.9843     5.7191 </r>
       <r>     9.5734     0.7177     5.8255 </r>
       <r>     9.7032     0.6742     5.9157 </r>
       <r>     9.8330     0.6309     5.9999 </r>
       <r>     9.9628     0.9306     6.0887 </r>
       <r>    10.0926     0.6024     6.1867 </r>
       <r>    10.2224     0.4455     6.2520 </r>
       <r>    10.3522     0.4469     6.3096 </r>
       <r>    10.4820     0.4412     6.3681 </r>
       <r>    10.6118     0.4157     6.4236 </r>
       <r>    10.7416     0.4805     6.4782 </r>
       <r>    10.8714     0.7543     6.5567 </r>
       <r>    11.0012     0.7372     6.6617 </r>
       <r>    11.1310     0.6799     6.7543 </r>
       <r>    11.2607     0.6304     6.8386 </r>
       <r>    11.3905     0.5740     6.9172 </r>
       <r>    11.5203     0.4976     6.9864 </r>
       <r>    11.6501     0.5014     7.0508 </r>
       <r>    11.7799     0.4588     7.1129 </r>
       <r>    11.9097     0.4184     7.1700 </r>
       <r>    12.0395     0.4059     7.2224 </r>
       <r>    12.1693     0.4803     7.2783 </r>
       <r>    12.2991     0.5408     7.3447 </r>
       <r>    12.4289     0.5955     7.4185 </r>
       <r>    12.5587     0.6440     7.4990 </r>
       <r>    12.6885     0.6924     7.5854 </r>
       <r>    12.8183     0.7463     7.6807 </r>
       <r>    12.9481     0.7095     7.7757 </r>
       <r>    13.0779     0.6506     7.8641 </r>
       <r>    13.2077     0.6322     7.9459 </r>
       <r>    13.3374     0.6408     8.0291 </r>
       <r>    13.4672     0.5886     8.1094 </r>
       <r>    13.5970     0.6217     8.1863 </r>
       <r>    13.7268     0.7266     8.2756 </r>
       <r>    13.8566     0.7413     8.3733 </r>
       <r>    13.9864     0.6147     8.4602 </r>
       <r>    14.1162     0.5381     8.5335 </r>
       <r>    14.2460     0.5449     8.6037 </r>
       <r>    14.3758     0.5544     8.6750 </r>
       <r>    14.5056     0.5646     8.7476 </r>
       <r>    14.6354     0.5755     8.8216 </r>
       <r>    14.7652     0.5894     8.8972 </r>
       <r>    14.8950     0.6164     8.9752 </r>
       <r>    15.0248     0.6654     9.0582 </r>
       <r>    15.1546     0.7299     9.1486 </r>
       <r>    15.2844     0.8005     9.2479 </r>
       <r>    15.4141     0.8541     9.3557 </r>
       <r>    15.5439     0.8146     9.4639 </r>
       <r>    15.6737     0.7932     9.5680 </r>
       <r>    15.8035     0.8254     9.6725 </r>
       <r>    15.9333     0.8106     9.7883 </r>
       <r>    16.0631     0.7652     9.8881 </r>
       <r>    16.1929     0.7646     9.9876 </r>
       <r>    16.3227     0.6522    10.0733 </r>
       <r>    16.4525     0.7271    10.1633 </r>
       <r>    16.5823     0.4661    10.2454 </r>
       <r>    16.7121     0.2815    10.2910 </r>
       <r>    16.8419     0.2485    10.3236 </r>
       <r>    16.9717     0.3520    10.3611 </r>
       <r>    17.1015     0.4547    10.4145 </r>
       <r>    17.2313     0.4267    10.4737 </r>
       <r>    17.3610     0.4395    10.5285 </r>
       <r>    17.4908     0.4950    10.5891 </r>
       <r>    17.6206     0.5616    10.6576 </r>
       <r>    17.7504     0.6169    10.7342 </r>
       <r>    17.8802     0.6660    10.8174 </r>
       <r>    18.0100     0.7732    10.9118 </r>
       <r>    18.1398     0.9093    11.0190 </r>
       <r>    18.2696     0.9685    11.1432 </r>
       <r>    18.3994     0.9676    11.2684 </r>
       <r>    18.5292     1.0471    11.3981 </r>
       <r>    18.6590     0.9869    11.5258 </r>
       <r>    18.7888     1.0515    11.6592 </r>
       <r>    18.9186     0.8541    11.7867 </r>
       <r>    19.0484     0.7196    11.8827 </r>
       <r>    19.1782     0.7913    11.9805 </r>
       <r>    19.3080     0.8712    12.0883 </r>
       <r>    19.4377     0.9562    12.2068 </r>
       <r>    19.5675     1.0088    12.3358 </r>
       <r>    19.6973     0.8775    12.4587 </r>
       <r>    19.8271     0.7463    12.5642 </r>
       <r>    19.9569     0.5554    12.6490 </r>
       <r>    20.0867     0.5659    12.7207 </r>
       <r>    20.2165     0.6019    12.7965 </r>
       <r>    20.3463     0.6858    12.8787 </r>
       <r>    20.4761     0.9318    12.9817 </r>
       <r>    20.6059     1.0375    13.1101 </r>
       <r>    20.7357     1.1275    13.2532 </r>
       <r>    20.8655     0.9147    13.3875 </r>
       <r>    20.9953     0.7149    13.4917 </r>
       <r>    21.1251     0.6322    13.5792 </r>
       <r>    21.2549     0.4562    13.6478 </r>
       <r>    21.3847     0.4511    13.7063 </r>
       <r>    21.5144     0.5802    13.7677 </r>
       <r>    21.6442     0.8151    13.8643 </r>
       <r>    21.7740     0.7740    13.9713 </r>
       <r>    21.9038     0.6133    14.0618 </r>
       <r>    22.0336     0.4465    14.1290 </r>
       <r>    22.1634     0.4774    14.1881 </r>
       <r>    22.2932     0.6491    14.2592 </r>
       <r>    22.4230     0.6848    14.3465 </r>
       <r>    22.5528     0.7629    14.4398 </r>
       <r>    22.6826     0.8363    14.5439 </r>
       <r>    22.8124     0.7057    14.6432 </r>
       <r>    22.9422     0.6812    14.7307 </r>
       <r>    23.0720     0.7473    14.8234 </r>
       <r>    23.2018     0.7586    14.9222 </r>
       <r>    23.3316     0.7054    15.0174 </r>
       <r>    23.4614     0.7656    15.1110 </r>
       <r>    23.5911     0.9952    15.2236 </r>
       <r>    23.7209     1.3794    15.3800 </r>
       <r>    23.8507     0.7653    15.5087 </r>
       <r>    23.9805     1.2851    15.6127 </r>
       <r>    24.1103     0.6355    15.7775 </r>
       <r>    24.2401     0.3103    15.8339 </r>
       <r>    24.3699     0.2108    15.8671 </r>
       <r>    24.4997     0.1702    15.8914 </r>
       <r>    24.6295     0.1427    15.9116 </r>
       <r>    24.7593     0.1190    15.9286 </r>
       <r>    24.8891     0.0989    15.9427 </r>
       <r>    25.0189     0.0827    15.9544 </r>
[...]
       </set>
       <set comment="band 12">
        <r>  0.0441  0.0142  0.0139  0.0139  0.0000  0.0000  0.0000  0.0000  0.0000 </r>
        <r>  0.0441  0.0142  0.0139  0.0139  0.0000  0.0000  0.0000  0.0000  0.0000 </r>
       </set>
       <set comment="band 13">
        <r>  0.0085  0.0555  0.0795  0.0795  0.0000  0.0000  0.0000  0.0000  0.0000 </r>
        <r>  0.0085  0.0555  0.0795  0.0795  0.0000  0.0000  0.0000  0.0000  0.0000 </r>
       </set>
       <set comment="band 14">
        <r>  0.0119  0.0427  0.0078  0.0078  0.0000  0.0000  0.0000  0.0000  0.0000 </r>
        <r>  0.0119  0.0427  0.0078  0.0078  0.0000  0.0000  0.0000  0.0000  0.0000 </r>
       </set>
       <set comment="band 15">
        <r>  0.0002  0.0000  0.0386  0.0386  0.0000  0.0000  0.0000  0.0000  0.0000 </r>
        <r>  0.0002  0.0000  0.0386  0.0386  0.0000  0.0000  0.0000  0.0000  0.0000 </r>
       </set>
       <set comment="band 16">
        <r>  0.0382  0.0000  0.0019  0.0019  0.0000  0.0000  0.0000  0.0000  0.0000 </r>
        <r>  0.0382  0.0000  0.0019  0.0019  0.0000  0.0000  0.0000  0.0000  0.0000 </r>
       </set>
      </set>
      <set comment="kpoint 25">
       <set comment="band 1">
        <r>  0.2038  0.0012  0.0239  0.0014  0.0000  0.0000  0.0000  0.0000  0.0000 </r>
        <r>  0.2038  0.0012  0.0239  0.0014  0.0000  0.0000  0.0000  0.0000  0.0000 </r>
       </set>
       <set comment="band 2">
        <r>  0.1824  0.0028  0.0508  0.0141  0.0000  0.0000  0.0000  0.0000  0.0000 </r>
        <r>  0.1824  0.0028  0.0508  0.0141  0.0000  0.0000  0.0000  0.0000  0.0000 </r>
       </set>
       <set comment="band 3">
        <r>  0.0092  0.0632  0.0154  0.0870  0.0000  0.0000  0.0000  0.0000  0.0000 </r>
        <r>  0.0092  0.0632  0.0154  0.0870  0.0000  0.0000  0.0000  0.0000  0.0000 </r>
       </set>
       <set comment="band 4">
        <r>  0.0007  0.0940  0.0293  0.0575  0.0000  0.0000  0.0000  0.0000  0.0000 </r>
        <r>  0.0007  0.0940  0.0293  0.0575  0.0000  0.0000  0.0000  0.0000  0.0000 </r>
       </set>
       <set comment="band 5">
        <r>  0.0375  0.0256  0.0364  0.0218  0.0000  0.0000  0.0000  0.0000  0.0000 </r>
        <r>  0.0375  0.0256  0.0364  0.0218  0.0000  0.0000  0.0000  0.0000  0.0000 </r>
       </set>
       <set comment="band 6">
        <r>  0.0378  0.0232  0.0194  0.0100  0.0000  0.0000  0.0000  0.0000  0.0000 </r>
        <r>  0.0378  0.0232  0.0194  0.0100  0.0000  0.0000  0.0000  0.0000  0.0000 </r>
       </set>
       <set comment="band 7">
        <r>  0.0348  0.0566  0.0207  0.0403  0.0000  0.0000  0.0000  0.0000  0.0000 </r>
        <r>  0.0348  0.0566  0.0207  0.0403  0.0000  0.0000  0.0000  0.0000  0.0000 </r>
       </set>
       <set comment="band 8">
        <r>  0.0024  0.0544  0.0081  0.0964  0.0000  0.0000  0.0000  0.0000  0.0000 </r>
        <r>  0.0024  0.0544  0.0081  0.0964  0.0000  0.0000  0.0000  0.0000  0.0000 </r>
       </set>
       <set comment="band 9">
        <r>  0.0406  0.0043  0.0655  0.0015  0.0000  0.0000  0.0000  0.0000  0.0000 </r>
        <r>  0.0406  0.0043  0.0655  0.0015  0.0000  0.0000  0.0000  0.0000  0.0000 </r>
       </set>
       <set comment="band 10">
        <r>  0.0066  0.0397  0.0560  0.0195  0.0000  0.0000  0.0000  0.0000  0.0000 </r>
        <r>  0.0066  0.0397  0.0560  0.0195  0.0000  0.0000  0.0000  0.0000  0.0000 </r>
       </set>
       <set comment="band 11">
        <r>  0.0232  0.0565  0.0579  0.0476  0.0000  0.0000  0.0000  0.0000  0.0000 </r>
        <r>  0.0232  0.0565  0.0579  0.0476  0.0000  0.0000  0.0000  0.0000  0.0000 </r>
       </set>
       <set comment="band 12">
        <r>  0.0234  0.0019  0.0134  0.0104  0.0000  0.0000  0.0000  0.0000  0.0000 </r>
        <r>  0.0234  0.0019  0.0134  0.0104  0.0000  0.0000  0.0000  0.0000  0.0000 </r>
       </set>
       <set comment="band 13">
        <r>  0.0034  0.0044  0.0936  0.0035  0.0000  0.0000  0.0000  0.0000  0.0000 </r>
        <r>  0.0034  0.0044  0.0936  0.0035  0.0000  0.0000  0.0000  0.0000  0.0000 </r>
       </set>
       <set comment="band 14">
        <r>  0.0001  0.0018  0.0012  0.0478  0.0000  0.0000  0.0000  0.0000  0.0000 </r>
        <r>  0.0001  0.0018  0.0012  0.0478  0.0000  0.0000  0.0000  0.0000  0.0000 </r>
       </set>
       <set comment="band 15">
        <r>  0.0279  0.0112  0.0390  0.0016  0.0000  0.0000  0.0000  0.0000  0.0000 </r>
        <r>  0.0279  0.0112  0.0390  0.0016  0.0000  0.0000  0.0000  0.0000  0.0000 </r>
       </set>
       <set comment="band 16">
        <r>  0.0113  0.0001  0.0074  0.0102  0.0000  0.0000  0.0000  0.0000  0.0000 </r>
        <r>  0.0113  0.0001  0.0074  0.0102  0.0000  0.0000  0.0000  0.0000  0.0000 </r>
       </set>
      </set>
      <set comment="kpoint 26">
       <set comment="band 1">
        <r>  0.2104  0.0013  0.0231  0.0071  0.0000  0.0000  0.0000  0.0000  0.0000 </r>
        <r>  0.2104  0.0013  0.0231  0.0071  0.0000  0.0000  0.0000  0.0000  0.0000 </r>
       </set>
       <set comment="band 2">
        <r>  0.1841  0.0048  0.0347  0.0183  0.0000  0.0000  0.0000  0.0000  0.0000 </r>
        <r>  0.1841  0.0048  0.0347  0.0183  0.0000  0.0000  0.0000  0.0000  0.0000 </r>
       </set>
       <set comment="band 3">
        <r>  0.0077  0.0558  0.0437  0.0539  0.0000  0.0000  0.0000  0.0000  0.0000 </r>
        <r>  0.0077  0.0558  0.0437  0.0539  0.0000  0.0000  0.0000  0.0000  0.0000 </r>
       </set>
       <set comment="band 4">
        <r>  0.0019  0.0850  0.0221  0.0688  0.0000  0.0000  0.0000  0.0000  0.0000 </r>
        <r>  0.0019  0.0850  0.0221  0.0688  0.0000  0.0000  0.0000  0.0000  0.0000 </r>
       </set>
       <set comment="band 5">
        <r>  0.0383  0.0316  0.0275  0.0125  0.0000  0.0000  0.0000  0.0000  0.0000 </r>
        <r>  0.0383  0.0316  0.0275  0.0125  0.0000  0.0000  0.0000  0.0000  0.0000 </r>
       </set>
       <set comment="band 6">
        <r>  0.0155  0.0587  0.0086  0.0182  0.0000  0.0000  0.0000  0.0000  0.0000 </r>
        <r>  0.0155  0.0587  0.0086  0.0182  0.0000  0.0000  0.0000  0.0000  0.0000 </r>
       </set>
       <set comment="band 7">
        <r>  0.0457  0.0297  0.0336  0.0439  0.0000  0.0000  0.0000  0.0000  0.0000 </r>
        <r>  0.0457  0.0297  0.0336  0.0439  0.0000  0.0000  0.0000  0.0000  0.0000 </r>
       </set>
       <set comment="band 8">
        <r>  0.0238  0.0486  0.0381  0.0319  0.0000  0.0000  0.0000  0.0000  0.0000 </r>
        <r>  0.0238  0.0486  0.0381  0.0319  0.0000  0.0000  0.0000  0.0000  0.0000 </r>
       </set>
       <set comment="band 9">
        <r>  0.0124  0.0302  0.0433  0.0507  0.0000  0.0000  0.0000  0.0000  0.0000 </r>
        <r>  0.0124  0.0302  0.0433  0.0507  0.0000  0.0000  0.0000  0.0000  0.0000 </r>
       </set>
       <set comment="band 10">
        <r>  0.0067  0.0236  0.0278  0.0506  0.0000  0.0000  0.0000  0.0000  0.0000 </r>
        <r>  0.0067  0.0236  0.0278  0.0506  0.0000  0.0000  0.0000  0.0000  0.0000 </r>
       </set>
       <set comment="band 11">
        <r>  0.0218  0.0090  0.0694  0.0319  0.0000  0.0000  0.0000  0.0000  0.0000 </r>
        <r>  0.0218  0.0090  0.0694  0.0319  0.0000  0.0000  0.0000  0.0000  0.0000 </r>
       </set>
       <set comment="band 12">
        <r>  0.0081  0.0110  0.0257  0.0357  0.0000  0.0000  0.0000  0.0000  0.0000 </r>
        <r>  0.0081  0.0110  0.0257  0.0357  0.0000  0.0000  0.0000  0.0000  0.0000 </r>
       </set>
       <set comment="band 13">
        <r>  0.0125  0.0128  0.0512  0.0223  0.0000  0.0000  0.0000  0.0000  0.0000 </r>
        <r>  0.0125  0.0128  0.0512  0.0223  0.0000  0.0000  0.0000  0.0000  0.0000 </r>
       </set>
       <set comment="band 14">
        <r>  0.0154  0.0250  0.0692  0.0147  0.0000  0.0000  0.0000  0.0000  0.0000 </r>
        <r>  0.0154  0.0250  0.0692  0.0147  0.0000  0.0000  0.0000  0.0000  0.0000 </r>
       </set>
       <set comment="band 15">
        <r>  0.0126  0.0006  0.0058  0.0146  0.0000  0.0000  0.0000  0.0000  0.0000 </r>
        <r>  0.0126  0.0006  0.0058  0.0146  0.0000  0.0000  0.0000  0.0000  0.0000 </r>
       </set>
       <set comment="band 16">
        <r>  0.0248  0.0015  0.0032  0.0114  0.0000  0.0000  0.0000  0.0000  0.0000 </r>
        <r>  0.0248  0.0015  0.0032  0.0114  0.0000  0.0000  0.0000  0.0000  0.0000 </r>
       </set>
      </set>
      <set comment="kpoint 27">
       <set comment="band 1">
        <r>  0.2112  0.0038  0.0077  0.0164  0.0000  0.0000  0.0000  0.0000  0.0000 </r>
        <r>  0.2112  0.0038  0.0077  0.0164  0.0000  0.0000  0.0000  0.0000  0.0000 </r>
       </set>
       <set comment="band 2">
        <r>  0.1797  0.0061  0.0359  0.0212  0.0000  0.0000  0.0000  0.0000  0.0000 </r>
        <r>  0.1797  0.0061  0.0359  0.0212  0.0000  0.0000  0.0000  0.0000  0.0000 </r>
       </set>
       <set comment="band 3">
        <r>  0.0066  0.0511  0.0663  0.0338  0.0000  0.0000  0.0000  0.0000  0.0000 </r>
        <r>  0.0066  0.0511  0.0663  0.0338  0.0000  0.0000  0.0000  0.0000  0.0000 </r>
       </set>
       <set comment="band 4">
        <r>  0.0038  0.0865  0.0192  0.0741  0.0000  0.0000  0.0000  0.0000  0.0000 </r>
        <r>  0.0038  0.0865  0.0192  0.0741  0.0000  0.0000  0.0000  0.0000  0.0000 </r>
       </set>
       <set comment="band 5">
        <r>  0.0374  0.0389  0.0297  0.0083  0.0000  0.0000  0.0000  0.0000  0.0000 </r>
        <r>  0.0374  0.0389  0.0297  0.0083  0.0000  0.0000  0.0000  0.0000  0.0000 </r>
       </set>
       <set comment="band 6">
        <r>  0.0178  0.0546  0.0282  0.0244  0.0000  0.0000  0.0000  0.0000  0.0000 </r>
        <r>  0.0178  0.0546  0.0282  0.0244  0.0000  0.0000  0.0000  0.0000  0.0000 </r>
       </set>
       <set comment="band 7">
        <r>  0.0448  0.0343  0.0278  0.0198  0.0000  0.0000  0.0000  0.0000  0.0000 </r>
        <r>  0.0448  0.0343  0.0278  0.0198  0.0000  0.0000  0.0000  0.0000  0.0000 </r>
       </set>
       <set comment="band 8">
        <r>  0.0180  0.0203  0.0135  0.0674  0.0000  0.0000  0.0000  0.0000  0.0000 </r>
        <r>  0.0180  0.0203  0.0135  0.0674  0.0000  0.0000  0.0000  0.0000  0.0000 </r>
       </set>
       <set comment="band 9">
        <r>  0.0139  0.0528  0.0894  0.0142  0.0000  0.0000  0.0000  0.0000  0.0000 </r>
        <r>  0.0139  0.0528  0.0894  0.0142  0.0000  0.0000  0.0000  0.0000  0.0000 </r>
       </set>
       <set comment="band 10">
        <r>  0.0295  0.0099  0.0078  0.0642  0.0000  0.0000  0.0000  0.0000  0.0000 </r>
        <r>  0.0295  0.0099  0.0078  0.0642  0.0000  0.0000  0.0000  0.0000  0.0000 </r>
       </set>
       <set comment="band 11">
        <r>  0.0173  0.0019  0.0089  0.0019  0.0000  0.0000  0.0000  0.0000  0.0000 </r>
        <r>  0.0173  0.0019  0.0089  0.0019  0.0000  0.0000  0.0000  0.0000  0.0000 </r>
       </set>
       <set comment="band 12">
        <r>  0.0007  0.0331  0.0997  0.0135  0.0000  0.0000  0.0000  0.0000  0.0000 </r>
        <r>  0.0007  0.0331  0.0997  0.0135  0.0000  0.0000  0.0000  0.0000  0.0000 </r>
       </set>
       <set comment="band 13">
        <r>  0.0064  0.0000  0.0200  0.0561  0.0000  0.0000  0.0000  0.0000  0.0000 </r>
        <r>  0.0064  0.0000  0.0200  0.0561  0.0000  0.0000  0.0000  0.0000  0.0000 </r>
       </set>
       <set comment="band 14">
        <r>  0.0156  0.0377  0.0102  0.0605  0.0000  0.0000  0.0000  0.0000  0.0000 </r>
        <r>  0.0156  0.0377  0.0102  0.0605  0.0000  0.0000  0.0000  0.0000  0.0000 </r>
       </set>
       <set comment="band 15">
        <r>  0.0342  0.0067  0.0014  0.0436  0.0000  0.0000  0.0000  0.0000  0.0000 </r>
        <r>  0.0342  0.0067  0.0014  0.0436  0.0000  0.0000  0.0000  0.0000  0.0000 </r>
       </set>
       <set comment="band 16">
        <r>  0.0101  0.0020  0.0568  0.0073  0.0000  0.0000  0.0000  0.0000  0.0000 </r>
        <r>  0.0101  0.0020  0.0568  0.0073  0.0000  0.0000  0.0000  0.0000  0.0000 </r>
       </set>
      </set>
      <set comment="kpoint 28">
       <set comment="band 1">
        <r>  0.1985  0.0000  0.0392  0.0047  0.0000  0.0000  0.0000  0.0000  0.0000 </r>
        <r>  0.1984  0.0000  0.0392  0.0047  0.0000  0.0000  0.0000  0.0000  0.0000 </r>
       </set>
       <set comment="band 2">
        <r>  0.1984  0.0000  0.0392  0.0047  0.0000  0.0000  0.0000  0.0000  0.0000 </r>
        <r>  0.1985  0.0000  0.0392  0.0047  0.0000  0.0000  0.0000  0.0000  0.0000 </r>
       </set>
       <set comment="band 3">
        <r>  0.0029  0.0780  0.0166  0.0758  0.0000  0.0000  0.0000  0.0000  0.0000 </r>
        <r>  0.0029  0.0781  0.0166  0.0757  0.0000  0.0000  0.0000  0.0000  0.0000 </r>
       </set>
       <set comment="band 4">
        <r>  0.0029  0.0781  0.0166  0.0757  0.0000  0.0000  0.0000  0.0000  0.0000 </r>
        <r>  0.0029  0.0780  0.0166  0.0758  0.0000  0.0000  0.0000  0.0000  0.0000 </r>
       </set>
       <set comment="band 5">
        <r>  0.0399  0.0264  0.0239  0.0157  0.0000  0.0000  0.0000  0.0000  0.0000 </r>
        <r>  0.0396  0.0262  0.0241  0.0158  0.0000  0.0000  0.0000  0.0000  0.0000 </r>
       </set>
       <set comment="band 6">
        <r>  0.0396  0.0262  0.0241  0.0158  0.0000  0.0000  0.0000  0.0000  0.0000 </r>
        <r>  0.0399  0.0264  0.0239  0.0157  0.0000  0.0000  0.0000  0.0000  0.0000 </r>
       </set>
       <set comment="band 7">
        <r>  0.0212  0.0612  0.0288  0.0338  0.0000  0.0000  0.0000  0.0000  0.0000 </r>
        <r>  0.0213  0.0613  0.0288  0.0338  0.0000  0.0000  0.0000  0.0000  0.0000 </r>
       </set>
       <set comment="band 8">
        <r>  0.0213  0.0613  0.0288  0.0338  0.0000  0.0000  0.0000  0.0000  0.0000 </r>
        <r>  0.0212  0.0612  0.0288  0.0338  0.0000  0.0000  0.0000  0.0000  0.0000 </r>
       </set>
       <set comment="band 9">
        <r>  0.0004  0.0320  0.0205  0.0724  0.0000  0.0000  0.0000  0.0000  0.0000 </r>
        <r>  0.0004  0.0320  0.0205  0.0725  0.0000  0.0000  0.0000  0.0000  0.0000 </r>
       </set>
       <set comment="band 10">
        <r>  0.0004  0.0320  0.0205  0.0725  0.0000  0.0000  0.0000  0.0000  0.0000 </r>
        <r>  0.0004  0.0320  0.0205  0.0724  0.0000  0.0000  0.0000  0.0000  0.0000 </r>
       </set>
       <set comment="band 11">
        <r>  0.0245  0.0001  0.0797  0.0153  0.0000  0.0000  0.0000  0.0000  0.0000 </r>
        <r>  0.0245  0.0001  0.0797  0.0153  0.0000  0.0000  0.0000  0.0000  0.0000 </r>
       </set>
       <set comment="band 12">
        <r>  0.0245  0.0001  0.0797  0.0153  0.0000  0.0000  0.0000  0.0000  0.0000 </r>
        <r>  0.0245  0.0001  0.0797  0.0153  0.0000  0.0000  0.0000  0.0000  0.0000 </r>
       </set>
       <set comment="band 13">
        <r>  0.0113  0.0266  0.0821  0.0115  0.0000  0.0000  0.0000  0.0000  0.0000 </r>
        <r>  0.0113  0.0266  0.0821  0.0115  0.0000  0.0000  0.0000  0.0000  0.0000 </r>
       </set>
       <set comment="band 14">
        <r>  0.0113  0.0266  0.0821  0.0115  0.0000  0.0000  0.0000  0.0000  0.0000 </r>
        <r>  0.0113  0.0266  0.0821  0.0115  0.0000  0.0000  0.0000  0.0000  0.0000 </r>
       </set>
       <set comment="band 15">
        <r>  0.0031  0.0011  0.0056  0.0126  0.0000  0.0000  0.0000  0.0000  0.0000 </r>
        <r>  0.0031  0.0011  0.0056  0.0126  0.0000  0.0000  0.0000  0.0000  0.0000 </r>
       </set>
       <set comment="band 16">
        <r>  0.0031  0.0011  0.0056  0.0126  0.0000  0.0000  0.0000  0.0000  0.0000 </r>
        <r>  0.0031  0.0011  0.0056  0.0126  0.0000  0.0000  0.0000  0.0000  0.0000 </r>
       </set>
      </set>
      <set comment="kpoint 29">
       <set comment="band 1">
        <r>  0.2051  0.0000  0.0210  0.0210  0.0000  0.0000  0.0000  0.0000  0.0000 </r>
        <r>  0.2052  0.0000  0.0210  0.0210  0.0000  0.0000  0.0000  0.0000  0.0000 </r>
       </set>
       <set comment="band 2">
        <r>  0.2052  0.0000  0.0210  0.0210  0.0000  0.0000  0.0000  0.0000  0.0000 </r>
        <r>  0.2051  0.0000  0.0210  0.0210  0.0000  0.0000  0.0000  0.0000  0.0000 </r>
       </set>
       <set comment="band 3">
        <r>  0.0000  0.0668  0.0466  0.0466  0.0000  0.0000  0.0000  0.0000  0.0000 </r>
        <r>  0.0000  0.0699  0.0445  0.0445  0.0000  0.0000  0.0000  0.0000  0.0000 </r>
       </set>
       <set comment="band 4">
        <r>  0.0000  0.0699  0.0445  0.0445  0.0000  0.0000  0.0000  0.0000  0.0000 </r>
        <r>  0.0000  0.0668  0.0466  0.0466  0.0000  0.0000  0.0000  0.0000  0.0000 </r>
       </set>
       <set comment="band 5">
        <r>  0.0000  0.0873  0.0001  0.0001  0.0000  0.0000  0.0000  0.0000  0.0000 </r>
        <r>  0.0000  0.0873  0.0001  0.0001  0.0000  0.0000  0.0000  0.0000  0.0000 </r>
       </set>
       <set comment="band 6">
        <r>  0.0000  0.0873  0.0001  0.0001  0.0000  0.0000  0.0000  0.0000  0.0000 </r>
        <r>  0.0000  0.0873  0.0001  0.0001  0.0000  0.0000  0.0000  0.0000  0.0000 </r>
       </set>
       <set comment="band 7">
        <r>  0.0618  0.0000  0.0514  0.0514  0.0000  0.0000  0.0000  0.0000  0.0000 </r>
        <r>  0.0618  0.0000  0.0515  0.0515  0.0000  0.0000  0.0000  0.0000  0.0000 </r>
       </set>
       <set comment="band 8">
        <r>  0.0618  0.0000  0.0515  0.0515  0.0000  0.0000  0.0000  0.0000  0.0000 </r>
        <r>  0.0618  0.0000  0.0514  0.0514  0.0000  0.0000  0.0000  0.0000  0.0000 </r>
       </set>
       <set comment="band 9">
        <r>  0.0000  0.0384  0.0486  0.0486  0.0000  0.0000  0.0000  0.0000  0.0000 </r>
        <r>  0.0000  0.0384  0.0487  0.0487  0.0000  0.0000  0.0000  0.0000  0.0000 </r>
       </set>
       <set comment="band 10">
        <r>  0.0000  0.0384  0.0487  0.0487  0.0000  0.0000  0.0000  0.0000  0.0000 </r>
        <r>  0.0000  0.0384  0.0486  0.0486  0.0000  0.0000  0.0000  0.0000  0.0000 </r>
       </set>
       <set comment="band 11">
        <r>  0.0256  0.0000  0.0536  0.0536  0.0000  0.0000  0.0000  0.0000  0.0000 </r>
        <r>  0.0257  0.0000  0.0534  0.0534  0.0000  0.0000  0.0000  0.0000  0.0000 </r>
       </set>
       <set comment="band 12">
        <r>  0.0257  0.0000  0.0534  0.0534  0.0000  0.0000  0.0000  0.0000  0.0000 </r>
        <r>  0.0256  0.0000  0.0536  0.0536  0.0000  0.0000  0.0000  0.0000  0.0000 </r>
       </set>
       <set comment="band 13">
        <r>  0.0000  0.0023  0.0131  0.0131  0.0000  0.0000  0.0000  0.0000  0.0000 </r>
        <r>  0.0000  0.0022  0.0138  0.0138  0.0000  0.0000  0.0000  0.0000  0.0000 </r>
       </set>
       <set comment="band 14">
        <r>  0.0000  0.0022  0.0138  0.0138  0.0000  0.0000  0.0000  0.0000  0.0000 </r>
        <r>  0.0000  0.0023  0.0131  0.0131  0.0000  0.0000  0.0000  0.0000  0.0000 </r>
       </set>
       <set comment="band 15">
        <r>  0.0332  0.0000  0.0100  0.0101  0.0000  0.0000  0.0000  0.0000  0.0000 </r>
        <r>  0.0256  0.0000  0.0130  0.0130  0.0000  0.0000  0.0000  0.0000  0.0000 </r>
       </set>
       <set comment="band 16">
        <r>  0.0256  0.0000  0.0130  0.0131  0.0000  0.0000  0.0000  0.0000  0.0000 </r>
        <r>  0.0331  0.0000  0.0101  0.0100  0.0000  0.0000  0.0000  0.0000  0.0000 </r>
       </set>
      </set>
     </set>
    </set>
   </array>
  </projected>
 </calculation>
 <structure name="finalpos" >
  <crystal>
   <varray name="basis" >
    <v>       0.00000000       2.71790200       2.71790200 </v>
    <v>       2.71790200       0.00000000       2.71790200 </v>
    <v>       2.71790200       2.71790200       0.00000000 </v>
   </varray>
   <i name="volume">     40.15423676 </i>
   <varray name="rec_basis" >
    <v>      -0.18396543       0.18396543       0.18396543 </v>
    <v>       0.18396543      -0.18396543       0.18396543 </v>
    <v>       0.18396543       0.18396543      -0.18396543 </v>
   </varray>
  </crystal>
  <varray name="positions" >
   <v>       0.25000000       0.25000000       0.25000000 </v>
   <v>       0.00000000       0.00000000       0.00000000 </v>
  </varray>
 </structure>
</modeling>
