<?xml version="1.0" encoding="ISO-8859-1"?>
<modeling>
 <generator>
  <i name="program" type="string">vasp </i>
  <i name="version" type="string">5.4.1  </i>
  <i name="subversion" type="string">24Jun15 (build Feb  4 2017 17:53:50) complex                          parallel </i>
  <i name="platform" type="string">IFC91_ompi </i>
  <i name="date" type="string">2018 11 09 </i>
  <i name="time" type="string">13:19:42 </i>
 </generator>
 <incar>
  <i type="string" name="PREC">normal</i>
  <i type="string" name="ALGO"> D</i>
  <i type="int" name="NSW">     0</i>
  <i type="int" name="ISIF">     2</i>
  <i type="int" name="ISYM">     0</i>
  <i name="ENCUT">    850.00000000</i>
  <i type="int" name="NBANDS">    96</i>
  <i type="int" name="NEDOS">  5000</i>
  <i name="SIGMA">      0.10000000</i>
  <i type="logical" name="LWAVE"> F  </i>
  <i type="logical" name="LVTOT"> F  </i>
  <i type="logical" name="LVHAR"> F  </i>
  <i type="logical" name="LOPTICS"> T  </i>
  <v type="int" name="KPOINT_BSE">    -1     0     0     0</v>
  <i type="string" name="METAGGA"> Mbj</i>
 </incar>
 <kpoints>
  <generation param="Gamma">
   <v type="int" name="divisions">      10        9        4 </v>
   <v name="usershift">      0.00000000       0.00000000       0.00000000 </v>
   <v name="genvec1">      0.10000000       0.00000000       0.00000000 </v>
   <v name="genvec2">      0.00000000       0.11111111       0.00000000 </v>
   <v name="genvec3">      0.00000000       0.00000000       0.25000000 </v>
   <v name="shift">      0.00000000       0.00000000       0.00000000 </v>
  </generation>
  <varray name="kpointlist" >
   <v>       0.00000000       0.00000000       0.00000000 </v>
   <v>       0.10000000       0.00000000       0.00000000 </v>
   <v>       0.20000000       0.00000000       0.00000000 </v>
   <v>       0.30000000       0.00000000       0.00000000 </v>
   <v>       0.40000000       0.00000000       0.00000000 </v>
   <v>       0.50000000       0.00000000       0.00000000 </v>
   <v>       0.00000000       0.11111111       0.00000000 </v>
   <v>       0.10000000       0.11111111       0.00000000 </v>
   <v>       0.20000000       0.11111111       0.00000000 </v>
   <v>       0.30000000       0.11111111       0.00000000 </v>
   <v>       0.40000000       0.11111111       0.00000000 </v>
   <v>       0.50000000       0.11111111       0.00000000 </v>
   <v>      -0.40000000       0.11111111       0.00000000 </v>
   <v>      -0.30000000       0.11111111       0.00000000 </v>
   <v>      -0.20000000       0.11111111       0.00000000 </v>
   <v>      -0.10000000       0.11111111       0.00000000 </v>
   <v>       0.00000000       0.22222222       0.00000000 </v>
   <v>       0.10000000       0.22222222       0.00000000 </v>
   <v>       0.20000000       0.22222222       0.00000000 </v>
   <v>       0.30000000       0.22222222       0.00000000 </v>
   <v>       0.40000000       0.22222222       0.00000000 </v>
   <v>       0.50000000       0.22222222       0.00000000 </v>
   <v>      -0.40000000       0.22222222       0.00000000 </v>
   <v>      -0.30000000       0.22222222       0.00000000 </v>
   <v>      -0.20000000       0.22222222       0.00000000 </v>
   <v>      -0.10000000       0.22222222       0.00000000 </v>
   <v>       0.00000000       0.33333333       0.00000000 </v>
   <v>       0.10000000       0.33333333       0.00000000 </v>
   <v>       0.20000000       0.33333333       0.00000000 </v>
   <v>       0.30000000       0.33333333       0.00000000 </v>
   <v>       0.40000000       0.33333333       0.00000000 </v>
   <v>       0.50000000       0.33333333       0.00000000 </v>
   <v>      -0.40000000       0.33333333       0.00000000 </v>
   <v>      -0.30000000       0.33333333       0.00000000 </v>
   <v>      -0.20000000       0.33333333       0.00000000 </v>
   <v>      -0.10000000       0.33333333       0.00000000 </v>
   <v>       0.00000000       0.44444444       0.00000000 </v>
   <v>       0.10000000       0.44444444       0.00000000 </v>
   <v>       0.20000000       0.44444444       0.00000000 </v>
   <v>       0.30000000       0.44444444       0.00000000 </v>
   <v>       0.40000000       0.44444444       0.00000000 </v>
   <v>       0.50000000       0.44444444       0.00000000 </v>
   <v>      -0.40000000       0.44444444       0.00000000 </v>
   <v>      -0.30000000       0.44444444       0.00000000 </v>
   <v>      -0.20000000       0.44444444       0.00000000 </v>
   <v>      -0.10000000       0.44444444       0.00000000 </v>
   <v>       0.00000000       0.00000000       0.25000000 </v>
   <v>       0.10000000       0.00000000       0.25000000 </v>
   <v>       0.20000000       0.00000000       0.25000000 </v>
   <v>       0.30000000       0.00000000       0.25000000 </v>
   <v>       0.40000000       0.00000000       0.25000000 </v>
   <v>       0.50000000       0.00000000       0.25000000 </v>
   <v>      -0.40000000       0.00000000       0.25000000 </v>
   <v>      -0.30000000       0.00000000       0.25000000 </v>
   <v>      -0.20000000       0.00000000       0.25000000 </v>
   <v>      -0.10000000       0.00000000       0.25000000 </v>
   <v>       0.00000000       0.11111111       0.25000000 </v>
   <v>       0.10000000       0.11111111       0.25000000 </v>
   <v>       0.20000000       0.11111111       0.25000000 </v>
   <v>       0.30000000       0.11111111       0.25000000 </v>
   <v>       0.40000000       0.11111111       0.25000000 </v>
   <v>       0.50000000       0.11111111       0.25000000 </v>
   <v>      -0.40000000       0.11111111       0.25000000 </v>
   <v>      -0.30000000       0.11111111       0.25000000 </v>
   <v>      -0.20000000       0.11111111       0.25000000 </v>
   <v>      -0.10000000       0.11111111       0.25000000 </v>
   <v>       0.00000000       0.22222222       0.25000000 </v>
   <v>       0.10000000       0.22222222       0.25000000 </v>
   <v>       0.20000000       0.22222222       0.25000000 </v>
   <v>       0.30000000       0.22222222       0.25000000 </v>
   <v>       0.40000000       0.22222222       0.25000000 </v>
   <v>       0.50000000       0.22222222       0.25000000 </v>
   <v>      -0.40000000       0.22222222       0.25000000 </v>
   <v>      -0.30000000       0.22222222       0.25000000 </v>
   <v>      -0.20000000       0.22222222       0.25000000 </v>
   <v>      -0.10000000       0.22222222       0.25000000 </v>
   <v>       0.00000000       0.33333333       0.25000000 </v>
   <v>       0.10000000       0.33333333       0.25000000 </v>
   <v>       0.20000000       0.33333333       0.25000000 </v>
   <v>       0.30000000       0.33333333       0.25000000 </v>
   <v>       0.40000000       0.33333333       0.25000000 </v>
   <v>       0.50000000       0.33333333       0.25000000 </v>
   <v>      -0.40000000       0.33333333       0.25000000 </v>
   <v>      -0.30000000       0.33333333       0.25000000 </v>
   <v>      -0.20000000       0.33333333       0.25000000 </v>
   <v>      -0.10000000       0.33333333       0.25000000 </v>
   <v>       0.00000000       0.44444444       0.25000000 </v>
   <v>       0.10000000       0.44444444       0.25000000 </v>
   <v>       0.20000000       0.44444444       0.25000000 </v>
   <v>       0.30000000       0.44444444       0.25000000 </v>
   <v>       0.40000000       0.44444444       0.25000000 </v>
   <v>       0.50000000       0.44444444       0.25000000 </v>
   <v>      -0.40000000       0.44444444       0.25000000 </v>
   <v>      -0.30000000       0.44444444       0.25000000 </v>
   <v>      -0.20000000       0.44444444       0.25000000 </v>
   <v>      -0.10000000       0.44444444       0.25000000 </v>
   <v>       0.00000000      -0.44444444       0.25000000 </v>
   <v>       0.10000000      -0.44444444       0.25000000 </v>
   <v>       0.20000000      -0.44444444       0.25000000 </v>
   <v>       0.30000000      -0.44444444       0.25000000 </v>
   <v>       0.40000000      -0.44444444       0.25000000 </v>
   <v>       0.50000000      -0.44444444       0.25000000 </v>
   <v>      -0.40000000      -0.44444444       0.25000000 </v>
   <v>      -0.30000000      -0.44444444       0.25000000 </v>
   <v>      -0.20000000      -0.44444444       0.25000000 </v>
   <v>      -0.10000000      -0.44444444       0.25000000 </v>
   <v>       0.00000000      -0.33333333       0.25000000 </v>
   <v>       0.10000000      -0.33333333       0.25000000 </v>
   <v>       0.20000000      -0.33333333       0.25000000 </v>
   <v>       0.30000000      -0.33333333       0.25000000 </v>
   <v>       0.40000000      -0.33333333       0.25000000 </v>
   <v>       0.50000000      -0.33333333       0.25000000 </v>
   <v>      -0.40000000      -0.33333333       0.25000000 </v>
   <v>      -0.30000000      -0.33333333       0.25000000 </v>
   <v>      -0.20000000      -0.33333333       0.25000000 </v>
   <v>      -0.10000000      -0.33333333       0.25000000 </v>
   <v>       0.00000000      -0.22222222       0.25000000 </v>
   <v>       0.10000000      -0.22222222       0.25000000 </v>
   <v>       0.20000000      -0.22222222       0.25000000 </v>
   <v>       0.30000000      -0.22222222       0.25000000 </v>
   <v>       0.40000000      -0.22222222       0.25000000 </v>
   <v>       0.50000000      -0.22222222       0.25000000 </v>
   <v>      -0.40000000      -0.22222222       0.25000000 </v>
   <v>      -0.30000000      -0.22222222       0.25000000 </v>
   <v>      -0.20000000      -0.22222222       0.25000000 </v>
   <v>      -0.10000000      -0.22222222       0.25000000 </v>
   <v>       0.00000000      -0.11111111       0.25000000 </v>
   <v>       0.10000000      -0.11111111       0.25000000 </v>
   <v>       0.20000000      -0.11111111       0.25000000 </v>
   <v>       0.30000000      -0.11111111       0.25000000 </v>
   <v>       0.40000000      -0.11111111       0.25000000 </v>
   <v>       0.50000000      -0.11111111       0.25000000 </v>
   <v>      -0.40000000      -0.11111111       0.25000000 </v>
   <v>      -0.30000000      -0.11111111       0.25000000 </v>
   <v>      -0.20000000      -0.11111111       0.25000000 </v>
   <v>      -0.10000000      -0.11111111       0.25000000 </v>
   <v>       0.00000000       0.00000000       0.50000000 </v>
   <v>       0.10000000       0.00000000       0.50000000 </v>
   <v>       0.20000000       0.00000000       0.50000000 </v>
   <v>       0.30000000       0.00000000       0.50000000 </v>
   <v>       0.40000000       0.00000000       0.50000000 </v>
   <v>       0.50000000       0.00000000       0.50000000 </v>
   <v>       0.00000000       0.11111111       0.50000000 </v>
   <v>       0.10000000       0.11111111       0.50000000 </v>
   <v>       0.20000000       0.11111111       0.50000000 </v>
   <v>       0.30000000       0.11111111       0.50000000 </v>
   <v>       0.40000000       0.11111111       0.50000000 </v>
   <v>       0.50000000       0.11111111       0.50000000 </v>
   <v>      -0.40000000       0.11111111       0.50000000 </v>
   <v>      -0.30000000       0.11111111       0.50000000 </v>
   <v>      -0.20000000       0.11111111       0.50000000 </v>
   <v>      -0.10000000       0.11111111       0.50000000 </v>
   <v>       0.00000000       0.22222222       0.50000000 </v>
   <v>       0.10000000       0.22222222       0.50000000 </v>
   <v>       0.20000000       0.22222222       0.50000000 </v>
   <v>       0.30000000       0.22222222       0.50000000 </v>
   <v>       0.40000000       0.22222222       0.50000000 </v>
   <v>       0.50000000       0.22222222       0.50000000 </v>
   <v>      -0.40000000       0.22222222       0.50000000 </v>
   <v>      -0.30000000       0.22222222       0.50000000 </v>
   <v>      -0.20000000       0.22222222       0.50000000 </v>
   <v>      -0.10000000       0.22222222       0.50000000 </v>
   <v>       0.00000000       0.33333333       0.50000000 </v>
   <v>       0.10000000       0.33333333       0.50000000 </v>
   <v>       0.20000000       0.33333333       0.50000000 </v>
   <v>       0.30000000       0.33333333       0.50000000 </v>
   <v>       0.40000000       0.33333333       0.50000000 </v>
   <v>       0.50000000       0.33333333       0.50000000 </v>
   <v>      -0.40000000       0.33333333       0.50000000 </v>
   <v>      -0.30000000       0.33333333       0.50000000 </v>
   <v>      -0.20000000       0.33333333       0.50000000 </v>
   <v>      -0.10000000       0.33333333       0.50000000 </v>
   <v>       0.00000000       0.44444444       0.50000000 </v>
   <v>       0.10000000       0.44444444       0.50000000 </v>
   <v>       0.20000000       0.44444444       0.50000000 </v>
   <v>       0.30000000       0.44444444       0.50000000 </v>
   <v>       0.40000000       0.44444444       0.50000000 </v>
   <v>       0.50000000       0.44444444       0.50000000 </v>
   <v>      -0.40000000       0.44444444       0.50000000 </v>
   <v>      -0.30000000       0.44444444       0.50000000 </v>
   <v>      -0.20000000       0.44444444       0.50000000 </v>
   <v>      -0.10000000       0.44444444       0.50000000 </v>
  </varray>
  <varray name="weights" >
   <v>       0.00277778 </v>
   <v>       0.00555556 </v>
   <v>       0.00555556 </v>
   <v>       0.00555556 </v>
   <v>       0.00555556 </v>
   <v>       0.00277778 </v>
   <v>       0.00555556 </v>
   <v>       0.00555556 </v>
   <v>       0.00555556 </v>
   <v>       0.00555556 </v>
   <v>       0.00555556 </v>
   <v>       0.00555556 </v>
   <v>       0.00555556 </v>
   <v>       0.00555556 </v>
   <v>       0.00555556 </v>
   <v>       0.00555556 </v>
   <v>       0.00555556 </v>
   <v>       0.00555556 </v>
   <v>       0.00555556 </v>
   <v>       0.00555556 </v>
   <v>       0.00555556 </v>
   <v>       0.00555556 </v>
   <v>       0.00555556 </v>
   <v>       0.00555556 </v>
   <v>       0.00555556 </v>
   <v>       0.00555556 </v>
   <v>       0.00555556 </v>
   <v>       0.00555556 </v>
   <v>       0.00555556 </v>
   <v>       0.00555556 </v>
   <v>       0.00555556 </v>
   <v>       0.00555556 </v>
   <v>       0.00555556 </v>
   <v>       0.00555556 </v>
   <v>       0.00555556 </v>
   <v>       0.00555556 </v>
   <v>       0.00555556 </v>
   <v>       0.00555556 </v>
   <v>       0.00555556 </v>
   <v>       0.00555556 </v>
   <v>       0.00555556 </v>
   <v>       0.00555556 </v>
   <v>       0.00555556 </v>
   <v>       0.00555556 </v>
   <v>       0.00555556 </v>
   <v>       0.00555556 </v>
   <v>       0.00555556 </v>
   <v>       0.00555556 </v>
   <v>       0.00555556 </v>
   <v>       0.00555556 </v>
   <v>       0.00555556 </v>
   <v>       0.00555556 </v>
   <v>       0.00555556 </v>
   <v>       0.00555556 </v>
   <v>       0.00555556 </v>
   <v>       0.00555556 </v>
   <v>       0.00555556 </v>
   <v>       0.00555556 </v>
   <v>       0.00555556 </v>
   <v>       0.00555556 </v>
   <v>       0.00555556 </v>
   <v>       0.00555556 </v>
   <v>       0.00555556 </v>
   <v>       0.00555556 </v>
   <v>       0.00555556 </v>
   <v>       0.00555556 </v>
   <v>       0.00555556 </v>
   <v>       0.00555556 </v>
   <v>       0.00555556 </v>
   <v>       0.00555556 </v>
   <v>       0.00555556 </v>
   <v>       0.00555556 </v>
   <v>       0.00555556 </v>
   <v>       0.00555556 </v>
   <v>       0.00555556 </v>
   <v>       0.00555556 </v>
   <v>       0.00555556 </v>
   <v>       0.00555556 </v>
   <v>       0.00555556 </v>
   <v>       0.00555556 </v>
   <v>       0.00555556 </v>
   <v>       0.00555556 </v>
   <v>       0.00555556 </v>
   <v>       0.00555556 </v>
   <v>       0.00555556 </v>
   <v>       0.00555556 </v>
   <v>       0.00555556 </v>
   <v>       0.00555556 </v>
   <v>       0.00555556 </v>
   <v>       0.00555556 </v>
   <v>       0.00555556 </v>
   <v>       0.00555556 </v>
   <v>       0.00555556 </v>
   <v>       0.00555556 </v>
   <v>       0.00555556 </v>
   <v>       0.00555556 </v>
   <v>       0.00555556 </v>
   <v>       0.00555556 </v>
   <v>       0.00555556 </v>
   <v>       0.00555556 </v>
   <v>       0.00555556 </v>
   <v>       0.00555556 </v>
   <v>       0.00555556 </v>
   <v>       0.00555556 </v>
   <v>       0.00555556 </v>
   <v>       0.00555556 </v>
   <v>       0.00555556 </v>
   <v>       0.00555556 </v>
   <v>       0.00555556 </v>
   <v>       0.00555556 </v>
   <v>       0.00555556 </v>
   <v>       0.00555556 </v>
   <v>       0.00555556 </v>
   <v>       0.00555556 </v>
   <v>       0.00555556 </v>
   <v>       0.00555556 </v>
   <v>       0.00555556 </v>
   <v>       0.00555556 </v>
   <v>       0.00555556 </v>
   <v>       0.00555556 </v>
   <v>       0.00555556 </v>
   <v>       0.00555556 </v>
   <v>       0.00555556 </v>
   <v>       0.00555556 </v>
   <v>       0.00555556 </v>
   <v>       0.00555556 </v>
   <v>       0.00555556 </v>
   <v>       0.00555556 </v>
   <v>       0.00555556 </v>
   <v>       0.00555556 </v>
   <v>       0.00555556 </v>
   <v>       0.00555556 </v>
   <v>       0.00555556 </v>
   <v>       0.00555556 </v>
   <v>       0.00555556 </v>
   <v>       0.00555556 </v>
   <v>       0.00277778 </v>
   <v>       0.00555556 </v>
   <v>       0.00555556 </v>
   <v>       0.00555556 </v>
   <v>       0.00555556 </v>
   <v>       0.00277778 </v>
   <v>       0.00555556 </v>
   <v>       0.00555556 </v>
   <v>       0.00555556 </v>
   <v>       0.00555556 </v>
   <v>       0.00555556 </v>
   <v>       0.00555556 </v>
   <v>       0.00555556 </v>
   <v>       0.00555556 </v>
   <v>       0.00555556 </v>
   <v>       0.00555556 </v>
   <v>       0.00555556 </v>
   <v>       0.00555556 </v>
   <v>       0.00555556 </v>
   <v>       0.00555556 </v>
   <v>       0.00555556 </v>
   <v>       0.00555556 </v>
   <v>       0.00555556 </v>
   <v>       0.00555556 </v>
   <v>       0.00555556 </v>
   <v>       0.00555556 </v>
   <v>       0.00555556 </v>
   <v>       0.00555556 </v>
   <v>       0.00555556 </v>
   <v>       0.00555556 </v>
   <v>       0.00555556 </v>
   <v>       0.00555556 </v>
   <v>       0.00555556 </v>
   <v>       0.00555556 </v>
   <v>       0.00555556 </v>
   <v>       0.00555556 </v>
   <v>       0.00555556 </v>
   <v>       0.00555556 </v>
   <v>       0.00555556 </v>
   <v>       0.00555556 </v>
   <v>       0.00555556 </v>
   <v>       0.00555556 </v>
   <v>       0.00555556 </v>
   <v>       0.00555556 </v>
   <v>       0.00555556 </v>
   <v>       0.00555556 </v>
  </varray>
 </kpoints>
 <parameters>
  <separator name="general" >
   <i type="string" name="SYSTEM">unknown system</i>
   <i type="logical" name="LCOMPAT"> F  </i>
  </separator>
  <separator name="electronic" >
   <i type="string" name="PREC">normal</i>
   <i name="ENMAX">    850.00000000</i>
   <i name="ENAUG">    627.11200000</i>
   <i name="EDIFF">      0.00010000</i>
   <i type="int" name="IALGO">    53</i>
   <i type="int" name="IWAVPR">    10</i>
   <i type="int" name="NBANDS">    96</i>
   <i name="NELECT">     44.00000000</i>
   <i type="int" name="TURBO">     0</i>
   <i type="int" name="IRESTART">     0</i>
   <i type="int" name="NREBOOT">     0</i>
   <i type="int" name="NMIN">     0</i>
   <i name="EREF">      0.00000000</i>
   <separator name="electronic smearing" >
    <i type="int" name="ISMEAR">     1</i>
    <i name="SIGMA">      0.10000000</i>
    <i name="KSPACING">      0.50000000</i>
    <i type="logical" name="KGAMMA"> T  </i>
   </separator>
   <separator name="electronic projectors" >
    <i type="logical" name="LREAL"> F  </i>
    <v name="ROPT">      0.00000000      0.00000000      0.00000000</v>
    <i type="int" name="LMAXPAW">  -100</i>
    <i type="int" name="LMAXMIX">     2</i>
    <i type="logical" name="NLSPLINE"> F  </i>
   </separator>
   <separator name="electronic startup" >
    <i type="int" name="ISTART">     0</i>
    <i type="int" name="ICHARG">     2</i>
    <i type="int" name="INIWAV">     1</i>
   </separator>
   <separator name="electronic spin" >
    <i type="int" name="ISPIN">     1</i>
    <i type="logical" name="LNONCOLLINEAR"> F  </i>
    <v name="MAGMOM">      1.00000000      1.00000000      1.00000000      1.00000000      1.00000000      1.00000000</v>
    <i name="NUPDOWN">     -1.00000000</i>
    <i type="logical" name="LSORBIT"> F  </i>
    <v name="SAXIS">      0.00000000      0.00000000      1.00000000</v>
    <i type="logical" name="LSPIRAL"> F  </i>
    <v name="QSPIRAL">      0.00000000      0.00000000      0.00000000</v>
    <i type="logical" name="LZEROZ"> F  </i>
   </separator>
   <separator name="electronic exchange-correlation" >
    <i type="logical" name="LASPH"> F  </i>
    <i type="logical" name="LMETAGGA"> F  </i>
   </separator>
   <separator name="electronic convergence" >
    <i type="int" name="NELM">    60</i>
    <i type="int" name="NELMDL">    -5</i>
    <i type="int" name="NELMIN">     2</i>
    <i name="ENINI">    850.00000000</i>
    <separator name="electronic convergence detail" >
     <i type="logical" name="LDIAG"> T  </i>
     <i type="logical" name="LSUBROT"> F  </i>
     <i name="WEIMIN">      0.00000000</i>
     <i name="EBREAK">      0.00000026</i>
     <i name="DEPER">      0.30000000</i>
     <i type="int" name="NRMM">     4</i>
     <i name="TIME">      0.40000000</i>
    </separator>
   </separator>
   <separator name="electronic mixer" >
    <i name="AMIX">      0.40000000</i>
    <i name="BMIX">      1.00000000</i>
    <i name="AMIN">      0.10000000</i>
    <i name="AMIX_MAG">      1.60000000</i>
    <i name="BMIX_MAG">      1.00000000</i>
    <separator name="electronic mixer details" >
     <i type="int" name="IMIX">     4</i>
     <i type="logical" name="MIXFIRST"> F  </i>
     <i type="int" name="MAXMIX">   -45</i>
     <i name="WC">    100.00000000</i>
     <i type="int" name="INIMIX">     1</i>
     <i type="int" name="MIXPRE">     1</i>
     <i type="int" name="MREMOVE">     5</i>
    </separator>
   </separator>
   <separator name="electronic dipolcorrection" >
    <i type="logical" name="LDIPOL"> F  </i>
    <i type="logical" name="LMONO"> F  </i>
    <i type="int" name="IDIPOL">     0</i>
    <i name="EPSILON">      1.00000000</i>
    <v name="DIPOL">   -100.00000000   -100.00000000   -100.00000000</v>
    <i name="EFIELD">      0.00000000</i>
   </separator>
  </separator>
  <separator name="grids" >
   <i type="int" name="NGX">    24</i>
   <i type="int" name="NGY">    28</i>
   <i type="int" name="NGZ">    60</i>
   <i type="int" name="NGXF">    48</i>
   <i type="int" name="NGYF">    56</i>
   <i type="int" name="NGZF">   120</i>
   <i type="logical" name="ADDGRID"> F  </i>
  </separator>
  <separator name="ionic" >
   <i type="int" name="NSW">     0</i>
   <i type="int" name="IBRION">    -1</i>
   <i type="int" name="ISIF">     2</i>
   <i name="PSTRESS">      0.00000000</i>
   <i name="EDIFFG">      0.00100000</i>
   <i type="int" name="NFREE">     0</i>
   <i name="POTIM">      0.50000000</i>
   <i name="SMASS">     -3.00000000</i>
   <i name="SCALEE">      1.00000000</i>
  </separator>
  <separator name="ionic md" >
   <i name="TEBEG">      0.00010000</i>
   <i name="TEEND">      0.00010000</i>
   <i type="int" name="NBLOCK">     1</i>
   <i type="int" name="KBLOCK">     1</i>
   <i type="int" name="NPACO">   256</i>
   <i name="APACO">     16.00000000</i>
  </separator>
  <separator name="symmetry" >
   <i type="int" name="ISYM">     0</i>
   <i name="SYMPREC">      0.00001000</i>
  </separator>
  <separator name="dos" >
   <i type="logical" name="LORBIT"> T  </i>
   <v name="RWIGS">     -1.00000000     -1.00000000     -1.00000000</v>
   <i type="int" name="NEDOS">  5000</i>
   <i name="EMIN">     10.00000000</i>
   <i name="EMAX">    -10.00000000</i>
   <i name="EFERMI">      0.00000000</i>
  </separator>
  <separator name="writing" >
   <i type="int" name="NWRITE">     2</i>
   <i type="logical" name="LWAVE"> F  </i>
   <i type="logical" name="LCHARG"> T  </i>
   <i type="logical" name="LPARD"> F  </i>
   <i type="logical" name="LVTOT"> F  </i>
   <i type="logical" name="LVHAR"> F  </i>
   <i type="logical" name="LELF"> F  </i>
   <i type="logical" name="LOPTICS"> T  </i>
   <v name="STM">      0.00000000      0.00000000      0.00000000      0.00000000      0.00000000      0.00000000      0.00000000</v>
  </separator>
  <separator name="performance" >
   <i type="int" name="NPAR">     8</i>
   <i type="int" name="NSIM">     4</i>
   <i type="int" name="NBLK">    -1</i>
   <i type="logical" name="LPLANE"> T  </i>
   <i type="logical" name="LSCALAPACK"> T  </i>
   <i type="logical" name="LSCAAWARE"> F  </i>
   <i type="logical" name="LSCALU"> F  </i>
   <i type="logical" name="LASYNC"> F  </i>
   <i type="logical" name="LORBITALREAL"> F  </i>
  </separator>
  <separator name="miscellaneous" >
   <i type="int" name="IDIOT">     3</i>
   <i type="logical" name="LMUSIC"> F  </i>
   <v name="POMASS">     47.88000000     79.90400000     14.00100000</v>
   <v name="DARWINR">      0.00000000      0.00000000      0.00000000</v>
   <v name="DARWINV">      1.00000000      1.00000000      1.00000000</v>
   <i type="logical" name="LCORR"> T  </i>
  </separator>
  <i type="logical" name="GGA_COMPAT"> T  </i>
  <i type="logical" name="LBERRY"> F  </i>
  <i type="int" name="ICORELEVEL">     0</i>
  <i type="logical" name="LDAU"> F  </i>
  <i type="int" name="I_CONSTRAINED_M">     0</i>
  <separator name="electronic exchange-correlation" >
   <i type="string" name="GGA">--</i>
   <i type="int" name="VOSKOWN">     0</i>
   <i type="logical" name="LHFCALC"> F  </i>
   <i type="string" name="PRECFOCK"></i>
   <i type="logical" name="LSYMGRAD"> F  </i>
   <i type="logical" name="LHFONE"> F  </i>
   <i type="logical" name="LRHFCALC"> F  </i>
   <i type="logical" name="LTHOMAS"> F  </i>
   <i type="logical" name="LMODELHF"> F  </i>
   <i name="ENCUT4O">     -1.00000000</i>
   <i type="int" name="EXXOEP">     0</i>
   <i type="int" name="FOURORBIT">     0</i>
   <i name="AEXX">      0.00000000</i>
   <i name="HFALPHA">      0.00000000</i>
   <i name="MCALPHA">      0.00000000</i>
   <i name="ALDAX">      1.00000000</i>
   <i name="AGGAX">      1.00000000</i>
   <i name="ALDAC">      1.00000000</i>
   <i name="AGGAC">      1.00000000</i>
   <i type="int" name="NKREDX">     1</i>
   <i type="int" name="NKREDY">     1</i>
   <i type="int" name="NKREDZ">     1</i>
   <i type="logical" name="SHIFTRED"> F  </i>
   <i type="logical" name="ODDONLY"> F  </i>
   <i type="logical" name="EVENONLY"> F  </i>
   <i type="int" name="LMAXFOCK">     0</i>
   <i type="int" name="NMAXFOCKAE">     0</i>
   <i type="logical" name="LFOCKAEDFT"> F  </i>
   <i name="HFSCREEN">      0.00000000</i>
   <i name="HFSCREENC">      0.00000000</i>
   <i type="int" name="NBANDSGWLOW">     0</i>
  </separator>
  <separator name="vdW DFT" >
   <i type="logical" name="LUSE_VDW"> F  </i>
   <i name="Zab_VDW">     -0.84910000</i>
   <i name="PARAM1">      0.12340000</i>
   <i name="PARAM2">      1.00000000</i>
   <i name="PARAM3">      0.00000000</i>
  </separator>
  <separator name="model GW" >
   <i type="int" name="MODEL_GW">     0</i>
   <i name="MODEL_EPS0">     11.12457910</i>
   <i name="MODEL_ALPHA">      1.00000000</i>
  </separator>
  <separator name="linear response parameters" >
   <i type="logical" name="LEPSILON"> F  </i>
   <i type="logical" name="LRPA"> F  </i>
   <i type="logical" name="LNABLA"> F  </i>
   <i type="logical" name="LVEL"> F  </i>
   <i type="int" name="KINTER">     0</i>
   <i name="CSHIFT">      0.10000000</i>
   <i name="OMEGAMAX">     -1.00000000</i>
   <i name="DEG_THRESHOLD">      0.00200000</i>
  </separator>
  <separator name="orbital magnetization" >
   <i type="logical" name="NUCIND"> F  </i>
   <v name="MAGPOS">      0.00000000      0.00000000      0.00000000</v>
   <i type="logical" name="LNICSALL"> T  </i>
   <i type="logical" name="ORBITALMAG"> F  </i>
   <i type="logical" name="LMAGBLOCH"> F  </i>
   <i type="logical" name="LCHIMAG"> F  </i>
   <i type="logical" name="LGAUGE"> T  </i>
   <i type="int" name="MAGATOM">     0</i>
   <v name="MAGDIPOL">      0.00000000      0.00000000      0.00000000</v>
   <v name="AVECCONST">      0.00000000      0.00000000      0.00000000</v>
  </separator>
  <separator name="response functions" >
   <i type="logical" name="LADDER"> F  </i>
   <i type="logical" name="LFXC"> F  </i>
   <i type="logical" name="LHARTREE"> T  </i>
   <i type="int" name="IBSE">     0</i>
   <v type="int" name="KPOINT">    -1     0     0     0</v>
   <i type="logical" name="LTCTE"> F  </i>
   <i type="logical" name="LTETE"> F  </i>
   <i type="logical" name="LTRIPLET"> F  </i>
   <i type="logical" name="LFXCEPS"> F  </i>
   <i type="logical" name="LFXHEG"> F  </i>
   <i type="int" name="NATURALO">     0</i>
   <i type="logical" name="L2ORDER"> F  </i>
   <i type="logical" name="LUSEW"> F  </i>
   <i name="ENCUTGW">     -2.00000000</i>
   <i name="ENCUTGWSOFT">     -2.00000000</i>
   <i name="ENCUTLF">     -1.00000000</i>
   <i type="int" name="LMAXMP2">    -1</i>
   <i name="SCISSOR">      0.00000000</i>
   <i type="int" name="NOMEGA">     0</i>
   <i type="int" name="NOMEGAR">     0</i>
   <i type="int" name="NBANDSGW">    -1</i>
   <i type="int" name="NBANDSO">    -1</i>
   <i type="int" name="NBANDSV">    -1</i>
   <i type="int" name="NELM">     1</i>
   <i type="int" name="NELMHF">     1</i>
   <i type="int" name="DIM">     3</i>
   <i type="int" name="ANTIRES">     0</i>
   <i name="OMEGAMAX">    -30.00000000</i>
   <i name="OMEGAMIN">    -30.00000000</i>
   <i name="OMEGATL">   -200.00000000</i>
   <i type="int" name="OMEGAGRID">     0</i>
   <i name="CSHIFT">     -0.10000000</i>
   <i type="logical" name="SELFENERGY"> F  </i>
   <i type="logical" name="LSPECTRAL"> F  </i>
   <i type="logical" name="LSPECTRALGW"> F  </i>
   <i type="logical" name="LSINGLES"> F  </i>
   <i type="logical" name="LFERMIGW"> F  </i>
   <i type="logical" name="ODDONLYGW"> F  </i>
   <i type="logical" name="EVENONLYGW"> F  </i>
   <i type="int" name="NKREDLFX">     1</i>
   <i type="int" name="NKREDLFY">     1</i>
   <i type="int" name="NKREDLFZ">     1</i>
   <i type="int" name="MAXMEM">  1800</i>
   <i type="int" name="TELESCOPE">     0</i>
   <i type="int" name="TAUPAR">     1</i>
   <i type="int" name="OMEGAPAR">    -1</i>
   <i name="LAMBDA">      1.00000000</i>
  </separator>
  <separator name="External order field" >
   <i name="OFIELD_KAPPA">      0.00000000</i>
   <v name="OFIELD_K">      0.00000000      0.00000000      0.00000000</v>
   <i name="OFIELD_Q6_NEAR">      0.00000000</i>
   <i name="OFIELD_Q6_FAR">      0.00000000</i>
   <i name="OFIELD_A">      0.00000000</i>
  </separator>
 </parameters>
 <atominfo>
  <atoms>       6 </atoms>
  <types>       3 </types>
  <array name="atoms" >
   <dimension dim="1">ion</dimension>
   <field type="string">element</field>
   <field type="int">atomtype</field>
   <set>
    <rc><c>Ti</c><c>   1</c></rc>
    <rc><c>Ti</c><c>   1</c></rc>
    <rc><c>Br</c><c>   2</c></rc>
    <rc><c>Br</c><c>   2</c></rc>
    <rc><c>N </c><c>   3</c></rc>
    <rc><c>N </c><c>   3</c></rc>
   </set>
  </array>
  <array name="atomtypes" >
   <dimension dim="1">type</dimension>
   <field type="int">atomspertype</field>
   <field type="string">element</field>
   <field>mass</field>
   <field>valence</field>
   <field type="string">pseudopotential</field>
   <set>
    <rc><c>   2</c><c>Ti</c><c>     47.88000000</c><c>     10.00000000</c><c>  PAW_PBE Ti_pv 07Sep2000               </c></rc>
    <rc><c>   2</c><c>Br</c><c>     79.90400000</c><c>      7.00000000</c><c>  PAW_PBE Br 06Sep2000                  </c></rc>
    <rc><c>   2</c><c>N </c><c>     14.00100000</c><c>      5.00000000</c><c>  PAW_PBE N 08Apr2002                   </c></rc>
   </set>
  </array>
 </atominfo>
 <structure name="initialpos" >
  <crystal>
   <varray name="basis" >
    <v>       3.37346400       0.00000000       0.00000000 </v>
    <v>       0.00000000       3.94665100       0.00000000 </v>
    <v>       0.00000000       0.00000000       8.35562200 </v>
   </varray>
   <i name="volume">    111.24579099 </i>
   <varray name="rec_basis" >
    <v>       0.29643121       0.00000000       0.00000000 </v>
    <v>       0.00000000       0.25337938       0.00000000 </v>
    <v>       0.00000000       0.00000000       0.11967990 </v>
   </varray>
  </crystal>
  <varray name="positions" >
   <v>       0.00000000       0.50000000       0.90969900 </v>
   <v>       0.50000000       0.00000000       0.09030100 </v>
   <v>       0.50000000       0.50000000       0.67175600 </v>
   <v>       0.00000000       0.00000000       0.32824400 </v>
   <v>       0.00000000       0.00000000       0.95789800 </v>
   <v>       0.50000000       0.50000000       0.04210200 </v>
  </varray>
 </structure>
 <calculation>
  <scstep>
   <i name="CMBJ">      1.00000000 </i>
   <time name="total">   50.19   50.18</time>
   <energy>
    <i name="alphaZ">    154.88259767 </i>
    <i name="ewald">  -1595.61897418 </i>
    <i name="hartreedc">  -1635.28322382 </i>
    <i name="XCdc">      0.00000000 </i>
    <i name="pawpsdc">   2276.48625618 </i>
    <i name="pawaedc">   5071.35663623 </i>
    <i name="eentropy">     -0.00007746 </i>
    <i name="bandstr">    585.06004408 </i>
    <i name="atom">   3351.18852686 </i>
    <i name="e_fr_energy">   8208.07178555 </i>
    <i name="e_wo_entrp">   8208.07186301 </i>
    <i name="e_0_energy">   8208.07181137 </i>
   </energy>
  </scstep>
  <scstep>
   <time name="total">   79.11   79.09</time>
   <energy>
    <i name="e_fr_energy">   7754.34507198 </i>
    <i name="e_wo_entrp">   7754.34500310 </i>
    <i name="e_0_energy">   7754.34504902 </i>
   </energy>
  </scstep>
  <scstep>
   <time name="total">   84.68   84.68</time>
   <energy>
    <i name="e_fr_energy">   7666.25174568 </i>
    <i name="e_wo_entrp">   7666.25095216 </i>
    <i name="e_0_energy">   7666.25148117 </i>
   </energy>
  </scstep>
  <scstep>
   <time name="total">   76.37   76.35</time>
   <energy>
    <i name="e_fr_energy">   7657.41706901 </i>
    <i name="e_wo_entrp">   7657.41665933 </i>
    <i name="e_0_energy">   7657.41693245 </i>
   </energy>
  </scstep>
  <scstep>
   <time name="total">   89.10   89.07</time>
   <energy>
    <i name="e_fr_energy">   7656.17459433 </i>
    <i name="e_wo_entrp">   7656.17437073 </i>
    <i name="e_0_energy">   7656.17451980 </i>
   </energy>
  </scstep>
  <scstep>
   <i name="CMBJ">      2.00000000 </i>
   <time name="total">   41.30   41.30</time>
   <energy>
    <i name="e_fr_energy">   8751.20943375 </i>
    <i name="e_wo_entrp">   8751.20649064 </i>
    <i name="e_0_energy">   8751.20845271 </i>
   </energy>
  </scstep>
  <scstep>
   <i name="CMBJ">      1.06282664 </i>
   <time name="total">   41.14   41.13</time>
   <energy>
    <i name="e_fr_energy">   8000.43416139 </i>
    <i name="e_wo_entrp">   8000.43351079 </i>
    <i name="e_0_energy">   8000.43394452 </i>
   </energy>
  </scstep>
  <scstep>
   <i name="CMBJ">      1.01332684 </i>
   <time name="total">   37.04   37.03</time>
   <energy>
    <i name="e_fr_energy">   7648.20695048 </i>
    <i name="e_wo_entrp">   7648.20594276 </i>
    <i name="e_0_energy">   7648.20661458 </i>
   </energy>
  </scstep>
  <scstep>
   <i name="CMBJ">      1.17610455 </i>
   <time name="total">   41.97   41.96</time>
   <energy>
    <i name="e_fr_energy">   7676.73962036 </i>
    <i name="e_wo_entrp">   7676.73940215 </i>
    <i name="e_0_energy">   7676.73954762 </i>
   </energy>
  </scstep>
  <scstep>
   <i name="CMBJ">      1.22323851 </i>
   <time name="total">   43.86   43.85</time>
   <energy>
    <i name="e_fr_energy">   7658.55713872 </i>
    <i name="e_wo_entrp">   7658.55707011 </i>
    <i name="e_0_energy">   7658.55711585 </i>
   </energy>
  </scstep>
  <scstep>
   <i name="CMBJ">      1.26040533 </i>
   <time name="total">   43.53   43.51</time>
   <energy>
    <i name="e_fr_energy">   7649.69965694 </i>
    <i name="e_wo_entrp">   7649.69938360 </i>
    <i name="e_0_energy">   7649.69956582 </i>
   </energy>
  </scstep>
  <scstep>
   <i name="CMBJ">      1.28276582 </i>
   <time name="total">   43.44   43.43</time>
   <energy>
    <i name="e_fr_energy">   7647.89831773 </i>
    <i name="e_wo_entrp">   7647.89825181 </i>
    <i name="e_0_energy">   7647.89829576 </i>
   </energy>
  </scstep>
  <scstep>
   <i name="CMBJ">      1.29780062 </i>
   <time name="total">   43.12   43.11</time>
   <energy>
    <i name="e_fr_energy">   7645.95831282 </i>
    <i name="e_wo_entrp">   7645.95824424 </i>
    <i name="e_0_energy">   7645.95828996 </i>
   </energy>
  </scstep>
  <scstep>
   <i name="CMBJ">      1.30859488 </i>
   <time name="total">   45.42   45.41</time>
   <energy>
    <i name="e_fr_energy">   7646.88524411 </i>
    <i name="e_wo_entrp">   7646.88510591 </i>
    <i name="e_0_energy">   7646.88519805 </i>
   </energy>
  </scstep>
  <scstep>
   <i name="CMBJ">      1.31439232 </i>
   <time name="total">   44.23   44.21</time>
   <energy>
    <i name="e_fr_energy">   7648.45764028 </i>
    <i name="e_wo_entrp">   7648.45755784 </i>
    <i name="e_0_energy">   7648.45761280 </i>
   </energy>
  </scstep>
  <scstep>
   <i name="CMBJ">      1.31678843 </i>
   <time name="total">   43.40   43.39</time>
   <energy>
    <i name="e_fr_energy">   7649.30079075 </i>
    <i name="e_wo_entrp">   7649.30072589 </i>
    <i name="e_0_energy">   7649.30076913 </i>
   </energy>
  </scstep>
  <scstep>
   <i name="CMBJ">      1.31784103 </i>
   <time name="total">   42.94   42.93</time>
   <energy>
    <i name="e_fr_energy">   7649.52880685 </i>
    <i name="e_wo_entrp">   7649.52874232 </i>
    <i name="e_0_energy">   7649.52878534 </i>
   </energy>
  </scstep>
  <scstep>
   <i name="CMBJ">      1.31860159 </i>
   <time name="total">   29.70   29.70</time>
   <energy>
    <i name="e_fr_energy">   7649.44362296 </i>
    <i name="e_wo_entrp">   7649.44355826 </i>
    <i name="e_0_energy">   7649.44360139 </i>
   </energy>
  </scstep>
  <scstep>
   <i name="CMBJ">      1.31935320 </i>
   <time name="total">   26.69   26.69</time>
   <energy>
    <i name="e_fr_energy">   7649.33408923 </i>
    <i name="e_wo_entrp">   7649.33402411 </i>
    <i name="e_0_energy">   7649.33406752 </i>
   </energy>
  </scstep>
  <scstep>
   <i name="CMBJ">      1.32001436 </i>
   <time name="total">   41.13   41.12</time>
   <energy>
    <i name="e_fr_energy">   7649.30795014 </i>
    <i name="e_wo_entrp">   7649.30788499 </i>
    <i name="e_0_energy">   7649.30792843 </i>
   </energy>
  </scstep>
  <scstep>
   <i name="CMBJ">      1.32050336 </i>
   <time name="total">   44.65   44.64</time>
   <energy>
    <i name="e_fr_energy">   7649.33400506 </i>
    <i name="e_wo_entrp">   7649.33394016 </i>
    <i name="e_0_energy">   7649.33398343 </i>
   </energy>
  </scstep>
  <scstep>
   <i name="CMBJ">      1.32084028 </i>
   <time name="total">   44.06   44.05</time>
   <energy>
    <i name="e_fr_energy">   7649.36860453 </i>
    <i name="e_wo_entrp">   7649.36853976 </i>
    <i name="e_0_energy">   7649.36858294 </i>
   </energy>
  </scstep>
  <scstep>
   <i name="CMBJ">      1.32108413 </i>
   <time name="total">   43.26   43.25</time>
   <energy>
    <i name="e_fr_energy">   7649.39575151 </i>
    <i name="e_wo_entrp">   7649.39568677 </i>
    <i name="e_0_energy">   7649.39572993 </i>
   </energy>
  </scstep>
  <scstep>
   <i name="CMBJ">      1.32127831 </i>
   <time name="total">   44.01   43.99</time>
   <energy>
    <i name="e_fr_energy">   7649.41624134 </i>
    <i name="e_wo_entrp">   7649.41617656 </i>
    <i name="e_0_energy">   7649.41621975 </i>
   </energy>
  </scstep>
  <scstep>
   <i name="CMBJ">      1.32143984 </i>
   <time name="total">   42.46   42.44</time>
   <energy>
    <i name="e_fr_energy">   7649.43297717 </i>
    <i name="e_wo_entrp">   7649.43291238 </i>
    <i name="e_0_energy">   7649.43295557 </i>
   </energy>
  </scstep>
  <scstep>
   <i name="CMBJ">      1.32157261 </i>
   <time name="total">   43.23   43.21</time>
   <energy>
    <i name="e_fr_energy">   7649.44637685 </i>
    <i name="e_wo_entrp">   7649.44631206 </i>
    <i name="e_0_energy">   7649.44635525 </i>
   </energy>
  </scstep>
  <scstep>
   <i name="CMBJ">      1.32167924 </i>
   <time name="total">   41.20   41.18</time>
   <energy>
    <i name="e_fr_energy">   7649.45625949 </i>
    <i name="e_wo_entrp">   7649.45619471 </i>
    <i name="e_0_energy">   7649.45623790 </i>
   </energy>
  </scstep>
  <scstep>
   <i name="CMBJ">      1.32176382 </i>
   <time name="total">   41.23   41.22</time>
   <energy>
    <i name="e_fr_energy">   7649.46334759 </i>
    <i name="e_wo_entrp">   7649.46328281 </i>
    <i name="e_0_energy">   7649.46332599 </i>
   </energy>
  </scstep>
  <scstep>
   <i name="CMBJ">      1.32183064 </i>
   <time name="total">   43.54   43.53</time>
   <energy>
    <i name="e_fr_energy">   7649.46874365 </i>
    <i name="e_wo_entrp">   7649.46867888 </i>
    <i name="e_0_energy">   7649.46872206 </i>
   </energy>
  </scstep>
  <scstep>
   <i name="CMBJ">      1.32188312 </i>
   <time name="total">   43.58   43.57</time>
   <energy>
    <i name="e_fr_energy">   7649.47312849 </i>
    <i name="e_wo_entrp">   7649.47306372 </i>
    <i name="e_0_energy">   7649.47310690 </i>
   </energy>
  </scstep>
  <scstep>
   <i name="CMBJ">      1.32192381 </i>
   <time name="total">   43.29   43.28</time>
   <energy>
    <i name="e_fr_energy">   7649.47668820 </i>
    <i name="e_wo_entrp">   7649.47662343 </i>
    <i name="e_0_energy">   7649.47666661 </i>
   </energy>
  </scstep>
  <scstep>
   <i name="CMBJ">      1.32195488 </i>
   <time name="total">   44.16   44.72</time>
   <energy>
    <i name="e_fr_energy">   7649.47945945 </i>
    <i name="e_wo_entrp">   7649.47939467 </i>
    <i name="e_0_energy">   7649.47943785 </i>
   </energy>
  </scstep>
  <scstep>
   <i name="CMBJ">      1.32197844 </i>
   <time name="total">   43.00   42.99</time>
   <energy>
    <i name="e_fr_energy">   7649.48155320 </i>
    <i name="e_wo_entrp">   7649.48148843 </i>
    <i name="e_0_energy">   7649.48153161 </i>
   </energy>
  </scstep>
  <scstep>
   <i name="CMBJ">      1.32199628 </i>
   <time name="total">   42.18   42.17</time>
   <energy>
    <i name="e_fr_energy">   7649.48313804 </i>
    <i name="e_wo_entrp">   7649.48307327 </i>
    <i name="e_0_energy">   7649.48311645 </i>
   </energy>
  </scstep>
  <scstep>
   <i name="CMBJ">      1.32200980 </i>
   <time name="total">   42.45   42.44</time>
   <energy>
    <i name="e_fr_energy">   7649.48436288 </i>
    <i name="e_wo_entrp">   7649.48429810 </i>
    <i name="e_0_energy">   7649.48434128 </i>
   </energy>
  </scstep>
  <scstep>
   <i name="CMBJ">      1.32202021 </i>
   <time name="total">   42.38   42.36</time>
   <energy>
    <i name="e_fr_energy">   7649.48531538 </i>
    <i name="e_wo_entrp">   7649.48525061 </i>
    <i name="e_0_energy">   7649.48529379 </i>
   </energy>
  </scstep>
  <scstep>
   <i name="CMBJ">      1.32202828 </i>
   <time name="total">   42.90   42.97</time>
   <energy>
    <i name="e_fr_energy">   7649.48605000 </i>
    <i name="e_wo_entrp">   7649.48598523 </i>
    <i name="e_0_energy">   7649.48602841 </i>
   </energy>
  </scstep>
  <scstep>
   <i name="CMBJ">      1.32203454 </i>
   <time name="total">   43.37   43.43</time>
   <energy>
    <i name="e_fr_energy">   7649.48661288 </i>
    <i name="e_wo_entrp">   7649.48654811 </i>
    <i name="e_0_energy">   7649.48659129 </i>
   </energy>
  </scstep>
  <scstep>
   <i name="CMBJ">      1.32203940 </i>
   <time name="total">   43.58   43.56</time>
   <energy>
    <i name="e_fr_energy">   7649.48704503 </i>
    <i name="e_wo_entrp">   7649.48698025 </i>
    <i name="e_0_energy">   7649.48702344 </i>
   </energy>
  </scstep>
  <scstep>
   <i name="CMBJ">      1.32204312 </i>
   <time name="total">   44.20   44.19</time>
   <energy>
    <i name="e_fr_energy">   7649.48738144 </i>
    <i name="e_wo_entrp">   7649.48731667 </i>
    <i name="e_0_energy">   7649.48735985 </i>
   </energy>
  </scstep>
  <scstep>
   <i name="CMBJ">      1.32204599 </i>
   <time name="total">   41.92   41.91</time>
   <energy>
    <i name="e_fr_energy">   7649.48764345 </i>
    <i name="e_wo_entrp">   7649.48757868 </i>
    <i name="e_0_energy">   7649.48762186 </i>
   </energy>
  </scstep>
  <scstep>
   <i name="CMBJ">      1.32204821 </i>
   <time name="total">   40.78   40.77</time>
   <energy>
    <i name="e_fr_energy">   7649.48784744 </i>
    <i name="e_wo_entrp">   7649.48778267 </i>
    <i name="e_0_energy">   7649.48782585 </i>
   </energy>
  </scstep>
  <scstep>
   <i name="CMBJ">      1.32204994 </i>
   <time name="total">   29.37   29.36</time>
   <energy>
    <i name="e_fr_energy">   7649.48800527 </i>
    <i name="e_wo_entrp">   7649.48794049 </i>
    <i name="e_0_energy">   7649.48798367 </i>
   </energy>
  </scstep>
  <scstep>
   <i name="CMBJ">      1.32205128 </i>
   <time name="total">   39.95   39.94</time>
   <energy>
    <i name="e_fr_energy">   7649.48812795 </i>
    <i name="e_wo_entrp">   7649.48806318 </i>
    <i name="e_0_energy">   7649.48810636 </i>
   </energy>
  </scstep>
  <scstep>
   <i name="CMBJ">      1.32205232 </i>
   <time name="total">   44.10   44.10</time>
   <energy>
    <i name="alphaZ">    154.88259767 </i>
    <i name="ewald">  -1595.61897418 </i>
    <i name="hartreedc">  -1625.01366825 </i>
    <i name="XCdc">    507.54521978 </i>
    <i name="pawpsdc">   4426.56600315 </i>
    <i name="pawaedc">   2899.10213419 </i>
    <i name="eentropy">      0.00006477 </i>
    <i name="bandstr">   -469.16367960 </i>
    <i name="atom">   3351.18852686 </i>
    <i name="e_fr_energy">   7649.48822439 </i>
    <i name="e_wo_entrp">   7649.48815962 </i>
    <i name="e_0_energy">   7649.48820280 </i>
   </energy>
  </scstep>
  <structure>
   <crystal>
    <varray name="basis" >
     <v>       3.37346400       0.00000000       0.00000000 </v>
     <v>       0.00000000       3.94665100       0.00000000 </v>
     <v>       0.00000000       0.00000000       8.35562200 </v>
    </varray>
    <i name="volume">    111.24579099 </i>
    <varray name="rec_basis" >
     <v>       0.29643121       0.00000000       0.00000000 </v>
     <v>       0.00000000       0.25337938       0.00000000 </v>
     <v>       0.00000000       0.00000000       0.11967990 </v>
    </varray>
   </crystal>
   <varray name="positions" >
    <v>       0.00000000       0.50000000       0.90969900 </v>
    <v>       0.50000000       0.00000000       0.09030100 </v>
    <v>       0.50000000       0.50000000       0.67175600 </v>
    <v>       0.00000000       0.00000000       0.32824400 </v>
    <v>       0.00000000       0.00000000       0.95789800 </v>
    <v>       0.50000000       0.50000000       0.04210200 </v>
   </varray>
  </structure>
  <varray name="forces" >
   <v>       0.00000068      -0.00000056       3.90266862 </v>
   <v>       0.00000053       0.00000263      -3.90266816 </v>
   <v>      -0.00000154      -0.00000120      -0.63874609 </v>
   <v>      -0.00000187      -0.00000345       0.63874484 </v>
   <v>       0.00000091       0.00000273      -0.10234802 </v>
   <v>       0.00000128      -0.00000015       0.10234881 </v>
  </varray>
  <varray name="stress" >
   <v>   -6320.33055462       0.00002138      -0.00001258 </v>
   <v>       0.00002137   -6335.37624142      -0.00003626 </v>
   <v>      -0.00001244      -0.00003646   -6212.05642106 </v>
  </varray>
  <i name="CMBJ">      1.32205314 </i>
  <energy>
   <i name="e_fr_energy">   7649.48822439 </i>
   <i name="e_wo_entrp">   7649.48820280 </i>
   <i name="e_0_energy">      0.00006477 </i>
  </energy>
  <time name="totalsc"> 2089.00 2089.23</time>
  <eigenvalues>
   <array>
    <dimension dim="1">band</dimension>
    <dimension dim="2">kpoint</dimension>
    <dimension dim="3">spin</dimension>
    <field>eigene</field>
    <field>occ</field>
    <set>
     <set comment="spin 1">
      <set comment="kpoint 1">
       <r>  -31.4847    1.0000 </r>
       <r>  -31.4578    1.0000 </r>
       <r>  -31.3485    1.0000 </r>
       <r>  -31.3321    1.0000 </r>
       <r>  -31.2745    1.0000 </r>
       <r>  -31.2079    1.0000 </r>
       <r>  -12.7637    1.0000 </r>
       <r>  -11.5588    1.0000 </r>
       <r>  -11.5006    1.0000 </r>
       <r>  -11.3381    1.0000 </r>
       <r>   -1.7635    1.0000 </r>
       <r>   -1.5553    1.0000 </r>
       <r>   -1.3493    1.0000 </r>
       <r>   -1.0533    1.0000 </r>
       <r>    0.1480    1.0000 </r>
       <r>    0.2449    1.0000 </r>
       <r>    0.9770    1.0000 </r>
       <r>    1.2257    1.0000 </r>
       <r>    1.2804    1.0000 </r>
       <r>    1.6582    1.0000 </r>
       <r>    2.3924    1.0003 </r>
       <r>    2.5897    0.9975 </r>
       <r>    3.4436   -0.0000 </r>
       <r>    4.7732   -0.0000 </r>
       <r>    5.0804   -0.0000 </r>
       <r>    5.1649   -0.0000 </r>
       <r>    5.6831    0.0000 </r>
       <r>    5.7889    0.0000 </r>
       <r>    7.1059    0.0000 </r>
       <r>    7.1768    0.0000 </r>
       <r>    7.2846    0.0000 </r>
       <r>    7.6394    0.0000 </r>
       <r>   10.2513    0.0000 </r>
       <r>   10.9750    0.0000 </r>
       <r>   12.1626    0.0000 </r>
       <r>   12.3773    0.0000 </r>
       <r>   13.7739    0.0000 </r>
       <r>   14.3559    0.0000 </r>
       <r>   14.7783    0.0000 </r>
       <r>   15.1374    0.0000 </r>
       <r>   15.5201    0.0000 </r>
       <r>   17.0242    0.0000 </r>
       <r>   17.0451    0.0000 </r>
       <r>   17.3964    0.0000 </r>
       <r>   18.3917    0.0000 </r>
       <r>   18.9382    0.0000 </r>
       <r>   19.3087    0.0000 </r>
       <r>   20.0663    0.0000 </r>
       <r>   20.1540    0.0000 </r>
       <r>   21.3207    0.0000 </r>
       <r>   21.5594    0.0000 </r>
       <r>   22.2649    0.0000 </r>
       <r>   22.4457    0.0000 </r>
       <r>   22.4577    0.0000 </r>
       <r>   23.0495    0.0000 </r>
       <r>   23.2192    0.0000 </r>
       <r>   23.3500    0.0000 </r>
       <r>   25.1978    0.0000 </r>
       <r>   25.5639    0.0000 </r>
       <r>   25.6818    0.0000 </r>
       <r>   25.9836    0.0000 </r>
       <r>   27.1789    0.0000 </r>
       <r>   27.4655    0.0000 </r>
       <r>   27.9686    0.0000 </r>
       <r>   28.1641    0.0000 </r>
       <r>   28.5633    0.0000 </r>
       <r>   28.8482    0.0000 </r>
       <r>   29.1957    0.0000 </r>
       <r>   29.7000    0.0000 </r>
       <r>   30.4853    0.0000 </r>
       <r>   31.1644    0.0000 </r>
       <r>   31.8423    0.0000 </r>
       <r>   32.1369    0.0000 </r>
       <r>   32.9803    0.0000 </r>
       <r>   33.1942    0.0000 </r>
       <r>   34.2862    0.0000 </r>
       <r>   34.7670    0.0000 </r>
       <r>   34.7979    0.0000 </r>
       <r>   34.9164    0.0000 </r>
       <r>   35.2147    0.0000 </r>
       <r>   35.4707    0.0000 </r>
       <r>   36.3665    0.0000 </r>
       <r>   36.4175    0.0000 </r>
       <r>   36.9668    0.0000 </r>
       <r>   37.1607    0.0000 </r>
       <r>   37.2525    0.0000 </r>
       <r>   38.0645    0.0000 </r>
       <r>   38.4491    0.0000 </r>
       <r>   39.0132    0.0000 </r>
       <r>   39.5871    0.0000 </r>
       <r>   40.0465    0.0000 </r>
       <r>   40.6629    0.0000 </r>
       <r>   41.9686    0.0000 </r>
       <r>   42.9855    0.0000 </r>
       <r>   43.6308    0.0000 </r>
       <r>   44.4724    0.0000 </r>
      </set>
      <set comment="kpoint 2">
       <r>  -31.4789    1.0000 </r>
       <r>  -31.4580    1.0000 </r>
       <r>  -31.3711    1.0000 </r>
       <r>  -31.3187    1.0000 </r>
       <r>  -31.2790    1.0000 </r>
       <r>  -31.2180    1.0000 </r>
       <r>  -12.6964    1.0000 </r>
       <r>  -11.5206    1.0000 </r>
       <r>  -11.4757    1.0000 </r>
       <r>  -11.3454    1.0000 </r>
       <r>   -1.6641    1.0000 </r>
       <r>   -1.5200    1.0000 </r>
       <r>   -1.3063    1.0000 </r>
       <r>   -1.1403    1.0000 </r>
       <r>    0.1688    1.0000 </r>
       <r>    0.4355    1.0000 </r>
       <r>    1.0255    1.0000 </r>
       <r>    1.1012    1.0000 </r>
       <r>    1.2318    1.0000 </r>
       <r>    1.4715    1.0000 </r>
       <r>    1.9305    1.0000 </r>
       <r>    2.1730    1.0000 </r>
       <r>    3.8319   -0.0000 </r>
       <r>    4.9000   -0.0000 </r>
       <r>    5.0740   -0.0000 </r>
       <r>    5.1690   -0.0000 </r>
       <r>    5.7054    0.0000 </r>
       <r>    5.7668    0.0000 </r>
       <r>    6.9387    0.0000 </r>
       <r>    7.2094    0.0000 </r>
       <r>    7.2208    0.0000 </r>
       <r>    7.4686    0.0000 </r>
       <r>   10.4468    0.0000 </r>
       <r>   11.0883    0.0000 </r>
       <r>   12.6618    0.0000 </r>
       <r>   12.8786    0.0000 </r>
       <r>   13.8563    0.0000 </r>
       <r>   14.4141    0.0000 </r>
       <r>   14.6430    0.0000 </r>
       <r>   15.2050    0.0000 </r>
       <r>   15.3657    0.0000 </r>
       <r>   16.2067    0.0000 </r>
       <r>   17.0930    0.0000 </r>
       <r>   17.5791    0.0000 </r>
       <r>   17.7840    0.0000 </r>
       <r>   17.8273    0.0000 </r>
       <r>   19.5862    0.0000 </r>
       <r>   20.1362    0.0000 </r>
       <r>   20.6478    0.0000 </r>
       <r>   21.6773    0.0000 </r>
       <r>   21.7211    0.0000 </r>
       <r>   22.3982    0.0000 </r>
       <r>   22.5113    0.0000 </r>
       <r>   22.9770    0.0000 </r>
       <r>   22.9850    0.0000 </r>
       <r>   23.1894    0.0000 </r>
       <r>   23.5385    0.0000 </r>
       <r>   24.4558    0.0000 </r>
       <r>   24.8216    0.0000 </r>
       <r>   26.6367    0.0000 </r>
       <r>   26.7972    0.0000 </r>
       <r>   27.0314    0.0000 </r>
       <r>   27.4538    0.0000 </r>
       <r>   27.5629    0.0000 </r>
       <r>   28.0926    0.0000 </r>
       <r>   28.4514    0.0000 </r>
       <r>   29.4096    0.0000 </r>
       <r>   30.0643    0.0000 </r>
       <r>   30.5131    0.0000 </r>
       <r>   30.5181    0.0000 </r>
       <r>   30.6984    0.0000 </r>
       <r>   31.9454    0.0000 </r>
       <r>   31.9924    0.0000 </r>
       <r>   33.5458    0.0000 </r>
       <r>   33.6439    0.0000 </r>
       <r>   33.6875    0.0000 </r>
       <r>   34.6662    0.0000 </r>
       <r>   34.8347    0.0000 </r>
       <r>   34.9071    0.0000 </r>
       <r>   35.1074    0.0000 </r>
       <r>   35.5224    0.0000 </r>
       <r>   36.2429    0.0000 </r>
       <r>   36.4373    0.0000 </r>
       <r>   36.8164    0.0000 </r>
       <r>   37.2813    0.0000 </r>
       <r>   37.9237    0.0000 </r>
       <r>   38.6142    0.0000 </r>
       <r>   38.7328    0.0000 </r>
       <r>   38.8107    0.0000 </r>
       <r>   39.2713    0.0000 </r>
       <r>   40.0008    0.0000 </r>
       <r>   40.1552    0.0000 </r>
       <r>   41.6231    0.0000 </r>
       <r>   41.7925    0.0000 </r>
       <r>   43.1118    0.0000 </r>
       <r>   44.5729    0.0000 </r>
      </set>
      <set comment="kpoint 3">
       <r>  -31.4622    1.0000 </r>
       <r>  -31.4603    1.0000 </r>
       <r>  -31.4073    1.0000 </r>
       <r>  -31.3068    1.0000 </r>
       <r>  -31.2921    1.0000 </r>
       <r>  -31.2426    1.0000 </r>
       <r>  -12.5122    1.0000 </r>
       <r>  -11.4646    1.0000 </r>
       <r>  -11.4048    1.0000 </r>
       <r>  -11.3273    1.0000 </r>
       <r>   -1.4587    1.0000 </r>
       <r>   -1.4112    1.0000 </r>
       <r>   -1.2659    1.0000 </r>
       <r>   -1.0972    1.0000 </r>
       <r>    0.2846    1.0000 </r>
       <r>    0.3125    1.0000 </r>
       <r>    0.5100    1.0000 </r>
       <r>    1.0799    1.0000 </r>
       <r>    1.1625    1.0000 </r>
       <r>    1.2682    1.0000 </r>
       <r>    1.4505    1.0000 </r>
       <r>    1.7160    1.0000 </r>
       <r>    4.3680   -0.0000 </r>
       <r>    4.9818   -0.0000 </r>
       <r>    5.0555   -0.0000 </r>
       <r>    5.1820   -0.0000 </r>
       <r>    5.5197    0.0000 </r>
       <r>    5.6922    0.0000 </r>
       <r>    6.7675    0.0000 </r>
       <r>    6.8272    0.0000 </r>
       <r>    7.2348    0.0000 </r>
       <r>    7.3101    0.0000 </r>
       <r>   10.8799    0.0000 </r>
       <r>   11.3777    0.0000 </r>
       <r>   13.6639    0.0000 </r>
       <r>   13.7921    0.0000 </r>
       <r>   14.0966    0.0000 </r>
       <r>   14.1794    0.0000 </r>
       <r>   14.5748    0.0000 </r>
       <r>   14.9439    0.0000 </r>
       <r>   15.2094    0.0000 </r>
       <r>   16.0807    0.0000 </r>
       <r>   16.4460    0.0000 </r>
       <r>   16.5510    0.0000 </r>
       <r>   17.2798    0.0000 </r>
       <r>   18.5371    0.0000 </r>
       <r>   19.6423    0.0000 </r>
       <r>   19.8530    0.0000 </r>
       <r>   20.8392    0.0000 </r>
       <r>   20.8602    0.0000 </r>
       <r>   21.1455    0.0000 </r>
       <r>   21.5976    0.0000 </r>
       <r>   22.6747    0.0000 </r>
       <r>   23.0961    0.0000 </r>
       <r>   23.8226    0.0000 </r>
       <r>   24.4404    0.0000 </r>
       <r>   24.5765    0.0000 </r>
       <r>   25.1781    0.0000 </r>
       <r>   25.5630    0.0000 </r>
       <r>   26.2002    0.0000 </r>
       <r>   26.7241    0.0000 </r>
       <r>   26.7667    0.0000 </r>
       <r>   26.8103    0.0000 </r>
       <r>   28.1471    0.0000 </r>
       <r>   28.5730    0.0000 </r>
       <r>   29.3988    0.0000 </r>
       <r>   29.7613    0.0000 </r>
       <r>   30.1356    0.0000 </r>
       <r>   30.7489    0.0000 </r>
       <r>   31.8950    0.0000 </r>
       <r>   31.9695    0.0000 </r>
       <r>   32.2026    0.0000 </r>
       <r>   32.6677    0.0000 </r>
       <r>   32.8570    0.0000 </r>
       <r>   33.4869    0.0000 </r>
       <r>   33.5074    0.0000 </r>
       <r>   34.5656    0.0000 </r>
       <r>   34.9201    0.0000 </r>
       <r>   35.0185    0.0000 </r>
       <r>   35.0322    0.0000 </r>
       <r>   35.3594    0.0000 </r>
       <r>   35.7122    0.0000 </r>
       <r>   36.5355    0.0000 </r>
       <r>   36.8956    0.0000 </r>
       <r>   37.0556    0.0000 </r>
       <r>   38.2314    0.0000 </r>
       <r>   38.2426    0.0000 </r>
       <r>   38.9432    0.0000 </r>
       <r>   39.5303    0.0000 </r>
       <r>   39.9233    0.0000 </r>
       <r>   40.6733    0.0000 </r>
       <r>   41.3151    0.0000 </r>
       <r>   41.5571    0.0000 </r>
       <r>   42.1248    0.0000 </r>
       <r>   42.3185    0.0000 </r>
       <r>   44.2844    0.0000 </r>
      </set>
      <set comment="kpoint 4">
       <r>  -31.4674    1.0000 </r>
       <r>  -31.4439    1.0000 </r>
       <r>  -31.4368    1.0000 </r>
       <r>  -31.3132    1.0000 </r>
       <r>  -31.2998    1.0000 </r>
       <r>  -31.2686    1.0000 </r>
       <r>  -12.2600    1.0000 </r>
       <r>  -11.5138    1.0000 </r>
       <r>  -11.2993    1.0000 </r>
       <r>  -11.2130    1.0000 </r>
       <r>   -1.2884    1.0000 </r>
       <r>   -1.2860    1.0000 </r>
       <r>   -1.2209    1.0000 </r>
       <r>   -0.8046    1.0000 </r>
       <r>   -0.3407    1.0000 </r>
       <r>   -0.2890    1.0000 </r>
       <r>    0.4274    1.0000 </r>
       <r>    0.5346    1.0000 </r>
       <r>    1.3600    1.0000 </r>
       <r>    1.3940    1.0000 </r>
       <r>    1.4202    1.0000 </r>
       <r>    1.6941    1.0000 </r>
       <r>    4.7832   -0.0000 </r>
       <r>    4.9438   -0.0000 </r>
       <r>    5.0459   -0.0000 </r>
       <r>    5.1942   -0.0000 </r>
       <r>    5.2019   -0.0000 </r>
       <r>    5.5620    0.0000 </r>
       <r>    6.3111    0.0000 </r>
       <r>    6.6736    0.0000 </r>
       <r>    7.1192    0.0000 </r>
       <r>    7.2163    0.0000 </r>
       <r>   11.4041    0.0000 </r>
       <r>   11.7477    0.0000 </r>
       <r>   12.9441    0.0000 </r>
       <r>   13.2650    0.0000 </r>
       <r>   14.6549    0.0000 </r>
       <r>   14.6643    0.0000 </r>
       <r>   14.7213    0.0000 </r>
       <r>   14.9985    0.0000 </r>
       <r>   15.5637    0.0000 </r>
       <r>   15.6988    0.0000 </r>
       <r>   16.3652    0.0000 </r>
       <r>   16.4472    0.0000 </r>
       <r>   18.2152    0.0000 </r>
       <r>   19.2377    0.0000 </r>
       <r>   19.3059    0.0000 </r>
       <r>   19.7072    0.0000 </r>
       <r>   20.6001    0.0000 </r>
       <r>   20.7420    0.0000 </r>
       <r>   20.8771    0.0000 </r>
       <r>   21.2647    0.0000 </r>
       <r>   22.2330    0.0000 </r>
       <r>   22.2601    0.0000 </r>
       <r>   23.5672    0.0000 </r>
       <r>   24.7733    0.0000 </r>
       <r>   25.8818    0.0000 </r>
       <r>   26.0061    0.0000 </r>
       <r>   26.2008    0.0000 </r>
       <r>   26.6994    0.0000 </r>
       <r>   26.8935    0.0000 </r>
       <r>   27.5328    0.0000 </r>
       <r>   27.5987    0.0000 </r>
       <r>   28.4029    0.0000 </r>
       <r>   29.7110    0.0000 </r>
       <r>   29.7894    0.0000 </r>
       <r>   30.0100    0.0000 </r>
       <r>   30.4758    0.0000 </r>
       <r>   30.7944    0.0000 </r>
       <r>   30.8078    0.0000 </r>
       <r>   31.2265    0.0000 </r>
       <r>   32.0904    0.0000 </r>
       <r>   32.8932    0.0000 </r>
       <r>   33.1547    0.0000 </r>
       <r>   33.6325    0.0000 </r>
       <r>   34.4344    0.0000 </r>
       <r>   34.5153    0.0000 </r>
       <r>   34.5304    0.0000 </r>
       <r>   34.9789    0.0000 </r>
       <r>   35.2191    0.0000 </r>
       <r>   35.4082    0.0000 </r>
       <r>   35.8019    0.0000 </r>
       <r>   35.9544    0.0000 </r>
       <r>   37.3041    0.0000 </r>
       <r>   38.2230    0.0000 </r>
       <r>   38.9206    0.0000 </r>
       <r>   39.0324    0.0000 </r>
       <r>   39.5327    0.0000 </r>
       <r>   39.8380    0.0000 </r>
       <r>   39.9810    0.0000 </r>
       <r>   40.9597    0.0000 </r>
       <r>   41.4417    0.0000 </r>
       <r>   41.5652    0.0000 </r>
       <r>   42.2500    0.0000 </r>
       <r>   42.6727    0.0000 </r>
       <r>   43.4604    0.0000 </r>
      </set>
      <set comment="kpoint 5">
       <r>  -31.4777    1.0000 </r>
       <r>  -31.4710    1.0000 </r>
       <r>  -31.4057    1.0000 </r>
       <r>  -31.3407    1.0000 </r>
       <r>  -31.2959    1.0000 </r>
       <r>  -31.2853    1.0000 </r>
       <r>  -12.0029    1.0000 </r>
       <r>  -11.6258    1.0000 </r>
       <r>  -11.1840    1.0000 </r>
       <r>  -11.1158    1.0000 </r>
       <r>   -1.2607    1.0000 </r>
       <r>   -1.1870    1.0000 </r>
       <r>   -1.0581    1.0000 </r>
       <r>   -0.9986    1.0000 </r>
       <r>   -0.9369    1.0000 </r>
       <r>   -0.0504    1.0000 </r>
       <r>   -0.0331    1.0000 </r>
       <r>    0.3969    1.0000 </r>
       <r>    1.3610    1.0000 </r>
       <r>    1.5666    1.0000 </r>
       <r>    1.6056    1.0000 </r>
       <r>    1.7483    1.0000 </r>
       <r>    4.8649   -0.0000 </r>
       <r>    4.9414   -0.0000 </r>
       <r>    4.9750   -0.0000 </r>
       <r>    5.1521   -0.0000 </r>
       <r>    5.1636   -0.0000 </r>
       <r>    5.4182    0.0000 </r>
       <r>    6.0345    0.0000 </r>
       <r>    6.5876    0.0000 </r>
       <r>    6.8943    0.0000 </r>
       <r>    7.1004    0.0000 </r>
       <r>   11.7400    0.0000 </r>
       <r>   11.7503    0.0000 </r>
       <r>   12.9707    0.0000 </r>
       <r>   12.9907    0.0000 </r>
       <r>   14.1166    0.0000 </r>
       <r>   14.2341    0.0000 </r>
       <r>   14.6532    0.0000 </r>
       <r>   14.6783    0.0000 </r>
       <r>   15.6832    0.0000 </r>
       <r>   16.3222    0.0000 </r>
       <r>   16.3798    0.0000 </r>
       <r>   16.8733    0.0000 </r>
       <r>   18.6742    0.0000 </r>
       <r>   19.4815    0.0000 </r>
       <r>   20.1660    0.0000 </r>
       <r>   20.5030    0.0000 </r>
       <r>   20.8560    0.0000 </r>
       <r>   20.9260    0.0000 </r>
       <r>   21.1780    0.0000 </r>
       <r>   21.5545    0.0000 </r>
       <r>   22.1998    0.0000 </r>
       <r>   22.2332    0.0000 </r>
       <r>   22.8457    0.0000 </r>
       <r>   23.5641    0.0000 </r>
       <r>   25.8526    0.0000 </r>
       <r>   26.0954    0.0000 </r>
       <r>   26.9002    0.0000 </r>
       <r>   26.9322    0.0000 </r>
       <r>   27.1531    0.0000 </r>
       <r>   27.7874    0.0000 </r>
       <r>   27.8775    0.0000 </r>
       <r>   27.9508    0.0000 </r>
       <r>   28.7856    0.0000 </r>
       <r>   29.1556    0.0000 </r>
       <r>   30.2036    0.0000 </r>
       <r>   31.1837    0.0000 </r>
       <r>   31.3328    0.0000 </r>
       <r>   31.3937    0.0000 </r>
       <r>   31.7538    0.0000 </r>
       <r>   32.2431    0.0000 </r>
       <r>   32.5460    0.0000 </r>
       <r>   32.6151    0.0000 </r>
       <r>   33.4700    0.0000 </r>
       <r>   34.2454    0.0000 </r>
       <r>   35.5122    0.0000 </r>
       <r>   35.8075    0.0000 </r>
       <r>   35.8902    0.0000 </r>
       <r>   36.4941    0.0000 </r>
       <r>   36.7100    0.0000 </r>
       <r>   37.0706    0.0000 </r>
       <r>   37.1767    0.0000 </r>
       <r>   37.3799    0.0000 </r>
       <r>   38.3259    0.0000 </r>
       <r>   38.3966    0.0000 </r>
       <r>   38.7719    0.0000 </r>
       <r>   38.9472    0.0000 </r>
       <r>   39.3932    0.0000 </r>
       <r>   39.5254    0.0000 </r>
       <r>   39.9934    0.0000 </r>
       <r>   40.6898    0.0000 </r>
       <r>   41.3421    0.0000 </r>
       <r>   42.0335    0.0000 </r>
       <r>   42.4061    0.0000 </r>
       <r>   42.7933    0.0000 </r>
      </set>
      <set comment="kpoint 6">
       <r>  -31.4819    1.0000 </r>
       <r>  -31.4819    1.0000 </r>
       <r>  -31.3725    1.0000 </r>
       <r>  -31.3725    1.0000 </r>
       <r>  -31.2926    1.0000 </r>
       <r>  -31.2926    1.0000 </r>
       <r>  -11.7875    1.0000 </r>
       <r>  -11.7875    1.0000 </r>
       <r>  -11.1064    1.0000 </r>
       <r>  -11.1064    1.0000 </r>
       <r>   -1.3360    1.0000 </r>
       <r>   -1.3360    1.0000 </r>
       <r>   -1.0723    1.0000 </r>
       <r>   -1.0723    1.0000 </r>
       <r>   -0.5478    1.0000 </r>
       <r>   -0.5478    1.0000 </r>
       <r>    0.2384    1.0000 </r>
       <r>    0.2384    1.0000 </r>
       <r>    1.5299    1.0000 </r>
       <r>    1.5299    1.0000 </r>
       <r>    1.7131    1.0000 </r>
       <r>    1.7131    1.0000 </r>
       <r>    4.7990   -0.0000 </r>
       <r>    4.7990   -0.0000 </r>
       <r>    5.0659   -0.0000 </r>
       <r>    5.0659   -0.0000 </r>
       <r>    5.3026   -0.0000 </r>
       <r>    5.3026   -0.0000 </r>
       <r>    6.2547    0.0000 </r>
       <r>    6.2547    0.0000 </r>
       <r>    6.9439    0.0000 </r>
       <r>    6.9439    0.0000 </r>
       <r>   11.6661    0.0000 </r>
       <r>   11.6661    0.0000 </r>
       <r>   13.3441    0.0000 </r>
       <r>   13.3441    0.0000 </r>
       <r>   13.9627    0.0000 </r>
       <r>   13.9627    0.0000 </r>
       <r>   14.2248    0.0000 </r>
       <r>   14.2248    0.0000 </r>
       <r>   16.1081    0.0000 </r>
       <r>   16.1081    0.0000 </r>
       <r>   16.7353    0.0000 </r>
       <r>   16.7353    0.0000 </r>
       <r>   18.9649    0.0000 </r>
       <r>   18.9649    0.0000 </r>
       <r>   20.8356    0.0000 </r>
       <r>   20.8356    0.0000 </r>
       <r>   20.8639    0.0000 </r>
       <r>   20.8639    0.0000 </r>
       <r>   22.1491    0.0000 </r>
       <r>   22.1491    0.0000 </r>
       <r>   22.6671    0.0000 </r>
       <r>   22.6671    0.0000 </r>
       <r>   23.7486    0.0000 </r>
       <r>   23.7486    0.0000 </r>
       <r>   24.1733    0.0000 </r>
       <r>   24.1733    0.0000 </r>
       <r>   26.5614    0.0000 </r>
       <r>   26.5614    0.0000 </r>
       <r>   27.2615    0.0000 </r>
       <r>   27.2615    0.0000 </r>
       <r>   27.7960    0.0000 </r>
       <r>   27.7960    0.0000 </r>
       <r>   29.4889    0.0000 </r>
       <r>   29.4889    0.0000 </r>
       <r>   29.7450    0.0000 </r>
       <r>   29.7450    0.0000 </r>
       <r>   31.5294    0.0000 </r>
       <r>   31.5294    0.0000 </r>
       <r>   33.6883    0.0000 </r>
       <r>   33.6883    0.0000 </r>
       <r>   34.1709    0.0000 </r>
       <r>   34.1710    0.0000 </r>
       <r>   34.3263    0.0000 </r>
       <r>   34.3271    0.0000 </r>
       <r>   35.1791    0.0000 </r>
       <r>   35.1843    0.0000 </r>
       <r>   35.2642    0.0000 </r>
       <r>   35.2743    0.0000 </r>
       <r>   36.8339    0.0000 </r>
       <r>   36.8395    0.0000 </r>
       <r>   37.0464    0.0000 </r>
       <r>   37.0862    0.0000 </r>
       <r>   37.9309    0.0000 </r>
       <r>   38.3889    0.0000 </r>
       <r>   38.6961    0.0000 </r>
       <r>   39.1244    0.0000 </r>
       <r>   39.2765    0.0000 </r>
       <r>   39.5092    0.0000 </r>
       <r>   39.7844    0.0000 </r>
       <r>   40.2143    0.0000 </r>
       <r>   40.8883    0.0000 </r>
       <r>   41.1565    0.0000 </r>
       <r>   41.3050    0.0000 </r>
       <r>   42.8567    0.0000 </r>
      </set>
      <set comment="kpoint 7">
       <r>  -31.4936    1.0000 </r>
       <r>  -31.4645    1.0000 </r>
       <r>  -31.3441    1.0000 </r>
       <r>  -31.3246    1.0000 </r>
       <r>  -31.2744    1.0000 </r>
       <r>  -31.2120    1.0000 </r>
       <r>  -12.6841    1.0000 </r>
       <r>  -11.5540    1.0000 </r>
       <r>  -11.4771    1.0000 </r>
       <r>  -11.3012    1.0000 </r>
       <r>   -1.9963    1.0000 </r>
       <r>   -1.3832    1.0000 </r>
       <r>   -1.3459    1.0000 </r>
       <r>   -1.0840    1.0000 </r>
       <r>    0.0316    1.0000 </r>
       <r>    0.2064    1.0000 </r>
       <r>    0.8739    1.0000 </r>
       <r>    1.1141    1.0000 </r>
       <r>    1.2681    1.0000 </r>
       <r>    1.6720    1.0000 </r>
       <r>    2.2321    1.0000 </r>
       <r>    2.2626    1.0000 </r>
       <r>    3.7112   -0.0000 </r>
       <r>    4.7464   -0.0000 </r>
       <r>    4.9692   -0.0000 </r>
       <r>    5.1760   -0.0000 </r>
       <r>    5.3239   -0.0000 </r>
       <r>    5.8966    0.0000 </r>
       <r>    7.2417    0.0000 </r>
       <r>    7.3936    0.0000 </r>
       <r>    7.6672    0.0000 </r>
       <r>    7.7093    0.0000 </r>
       <r>   10.5658    0.0000 </r>
       <r>   11.3080    0.0000 </r>
       <r>   12.2366    0.0000 </r>
       <r>   12.3357    0.0000 </r>
       <r>   13.6839    0.0000 </r>
       <r>   14.0088    0.0000 </r>
       <r>   14.3771    0.0000 </r>
       <r>   15.3819    0.0000 </r>
       <r>   16.4087    0.0000 </r>
       <r>   17.0313    0.0000 </r>
       <r>   17.0970    0.0000 </r>
       <r>   17.1672    0.0000 </r>
       <r>   18.3491    0.0000 </r>
       <r>   18.5798    0.0000 </r>
       <r>   18.8182    0.0000 </r>
       <r>   19.8107    0.0000 </r>
       <r>   20.3540    0.0000 </r>
       <r>   21.1622    0.0000 </r>
       <r>   21.5583    0.0000 </r>
       <r>   22.4745    0.0000 </r>
       <r>   22.7119    0.0000 </r>
       <r>   22.8430    0.0000 </r>
       <r>   22.9788    0.0000 </r>
       <r>   23.5577    0.0000 </r>
       <r>   23.5790    0.0000 </r>
       <r>   25.1307    0.0000 </r>
       <r>   25.5676    0.0000 </r>
       <r>   25.7937    0.0000 </r>
       <r>   26.1610    0.0000 </r>
       <r>   27.0461    0.0000 </r>
       <r>   27.6158    0.0000 </r>
       <r>   27.7765    0.0000 </r>
       <r>   28.3512    0.0000 </r>
       <r>   28.3946    0.0000 </r>
       <r>   28.5077    0.0000 </r>
       <r>   29.6968    0.0000 </r>
       <r>   29.7931    0.0000 </r>
       <r>   30.6698    0.0000 </r>
       <r>   31.1644    0.0000 </r>
       <r>   31.4092    0.0000 </r>
       <r>   31.9356    0.0000 </r>
       <r>   32.4630    0.0000 </r>
       <r>   33.0299    0.0000 </r>
       <r>   33.4628    0.0000 </r>
       <r>   33.9740    0.0000 </r>
       <r>   34.1472    0.0000 </r>
       <r>   34.7782    0.0000 </r>
       <r>   35.1602    0.0000 </r>
       <r>   35.2169    0.0000 </r>
       <r>   36.1512    0.0000 </r>
       <r>   36.3791    0.0000 </r>
       <r>   37.6935    0.0000 </r>
       <r>   38.0356    0.0000 </r>
       <r>   38.0930    0.0000 </r>
       <r>   38.8645    0.0000 </r>
       <r>   38.9770    0.0000 </r>
       <r>   39.3628    0.0000 </r>
       <r>   39.7442    0.0000 </r>
       <r>   40.2504    0.0000 </r>
       <r>   41.0069    0.0000 </r>
       <r>   42.0576    0.0000 </r>
       <r>   42.4805    0.0000 </r>
       <r>   43.6873    0.0000 </r>
       <r>   44.1768    0.0000 </r>
      </set>
      <set comment="kpoint 8">
       <r>  -31.4883    1.0000 </r>
       <r>  -31.4648    1.0000 </r>
       <r>  -31.3670    1.0000 </r>
       <r>  -31.3108    1.0000 </r>
       <r>  -31.2801    1.0000 </r>
       <r>  -31.2205    1.0000 </r>
       <r>  -12.6170    1.0000 </r>
       <r>  -11.5128    1.0000 </r>
       <r>  -11.4531    1.0000 </r>
       <r>  -11.3095    1.0000 </r>
       <r>   -1.9150    1.0000 </r>
       <r>   -1.4266    1.0000 </r>
       <r>   -1.2182    1.0000 </r>
       <r>   -1.1533    1.0000 </r>
       <r>   -0.0097    1.0000 </r>
       <r>    0.4068    1.0000 </r>
       <r>    0.9243    1.0000 </r>
       <r>    1.1127    1.0000 </r>
       <r>    1.1386    1.0000 </r>
       <r>    1.4718    1.0000 </r>
       <r>    1.7777    1.0000 </r>
       <r>    2.0520    1.0000 </r>
       <r>    3.9028   -0.0000 </r>
       <r>    4.8073   -0.0000 </r>
       <r>    5.0224   -0.0000 </r>
       <r>    5.1740   -0.0000 </r>
       <r>    5.3327   -0.0000 </r>
       <r>    5.8855    0.0000 </r>
       <r>    7.0390    0.0000 </r>
       <r>    7.4222    0.0000 </r>
       <r>    7.4842    0.0000 </r>
       <r>    7.7313    0.0000 </r>
       <r>   10.7560    0.0000 </r>
       <r>   11.4356    0.0000 </r>
       <r>   12.7222    0.0000 </r>
       <r>   12.8108    0.0000 </r>
       <r>   13.7370    0.0000 </r>
       <r>   14.0782    0.0000 </r>
       <r>   14.4650    0.0000 </r>
       <r>   15.0597    0.0000 </r>
       <r>   16.0249    0.0000 </r>
       <r>   16.4758    0.0000 </r>
       <r>   16.7078    0.0000 </r>
       <r>   17.3926    0.0000 </r>
       <r>   17.7881    0.0000 </r>
       <r>   17.9265    0.0000 </r>
       <r>   19.1679    0.0000 </r>
       <r>   20.3870    0.0000 </r>
       <r>   20.5320    0.0000 </r>
       <r>   22.0580    0.0000 </r>
       <r>   22.2600    0.0000 </r>
       <r>   22.3232    0.0000 </r>
       <r>   22.5214    0.0000 </r>
       <r>   22.7511    0.0000 </r>
       <r>   23.2059    0.0000 </r>
       <r>   23.2513    0.0000 </r>
       <r>   23.6448    0.0000 </r>
       <r>   24.4022    0.0000 </r>
       <r>   24.7940    0.0000 </r>
       <r>   26.3432    0.0000 </r>
       <r>   26.7023    0.0000 </r>
       <r>   26.7900    0.0000 </r>
       <r>   27.8086    0.0000 </r>
       <r>   27.9328    0.0000 </r>
       <r>   28.1381    0.0000 </r>
       <r>   29.0070    0.0000 </r>
       <r>   29.4943    0.0000 </r>
       <r>   29.6648    0.0000 </r>
       <r>   30.3641    0.0000 </r>
       <r>   30.4240    0.0000 </r>
       <r>   31.1783    0.0000 </r>
       <r>   31.3230    0.0000 </r>
       <r>   31.7601    0.0000 </r>
       <r>   32.8451    0.0000 </r>
       <r>   33.0079    0.0000 </r>
       <r>   33.1081    0.0000 </r>
       <r>   34.3827    0.0000 </r>
       <r>   34.5936    0.0000 </r>
       <r>   34.8366    0.0000 </r>
       <r>   34.8798    0.0000 </r>
       <r>   35.2082    0.0000 </r>
       <r>   36.2971    0.0000 </r>
       <r>   36.5031    0.0000 </r>
       <r>   37.7370    0.0000 </r>
       <r>   38.4879    0.0000 </r>
       <r>   38.5936    0.0000 </r>
       <r>   38.7576    0.0000 </r>
       <r>   39.0957    0.0000 </r>
       <r>   39.2725    0.0000 </r>
       <r>   39.8187    0.0000 </r>
       <r>   40.1085    0.0000 </r>
       <r>   40.7921    0.0000 </r>
       <r>   41.3649    0.0000 </r>
       <r>   41.8473    0.0000 </r>
       <r>   42.3928    0.0000 </r>
       <r>   42.8059    0.0000 </r>
      </set>
      <set comment="kpoint 9">
       <r>  -31.4743    1.0000 </r>
       <r>  -31.4672    1.0000 </r>
       <r>  -31.4021    1.0000 </r>
       <r>  -31.2982    1.0000 </r>
       <r>  -31.2965    1.0000 </r>
       <r>  -31.2406    1.0000 </r>
       <r>  -12.4334    1.0000 </r>
       <r>  -11.4345    1.0000 </r>
       <r>  -11.3844    1.0000 </r>
       <r>  -11.3079    1.0000 </r>
       <r>   -1.7162    1.0000 </r>
       <r>   -1.4051    1.0000 </r>
       <r>   -1.2597    1.0000 </r>
       <r>   -0.9489    1.0000 </r>
       <r>    0.0152    1.0000 </r>
       <r>    0.3313    1.0000 </r>
       <r>    0.5174    1.0000 </r>
       <r>    0.7881    1.0000 </r>
       <r>    1.0723    1.0000 </r>
       <r>    1.4140    1.0000 </r>
       <r>    1.4633    1.0000 </r>
       <r>    1.6950    1.0000 </r>
       <r>    4.2472   -0.0000 </r>
       <r>    4.8476   -0.0000 </r>
       <r>    5.0596   -0.0000 </r>
       <r>    5.1613   -0.0000 </r>
       <r>    5.2716   -0.0000 </r>
       <r>    5.7010    0.0000 </r>
       <r>    6.8462    0.0000 </r>
       <r>    6.9623    0.0000 </r>
       <r>    7.5357    0.0000 </r>
       <r>    7.7012    0.0000 </r>
       <r>   11.1475    0.0000 </r>
       <r>   11.7171    0.0000 </r>
       <r>   13.6147    0.0000 </r>
       <r>   13.8439    0.0000 </r>
       <r>   13.9774    0.0000 </r>
       <r>   14.0826    0.0000 </r>
       <r>   14.3123    0.0000 </r>
       <r>   14.5851    0.0000 </r>
       <r>   15.4896    0.0000 </r>
       <r>   15.9952    0.0000 </r>
       <r>   16.1159    0.0000 </r>
       <r>   16.5372    0.0000 </r>
       <r>   17.9812    0.0000 </r>
       <r>   18.3941    0.0000 </r>
       <r>   19.4102    0.0000 </r>
       <r>   20.2963    0.0000 </r>
       <r>   20.8889    0.0000 </r>
       <r>   21.2243    0.0000 </r>
       <r>   21.4452    0.0000 </r>
       <r>   22.1903    0.0000 </r>
       <r>   22.5538    0.0000 </r>
       <r>   23.0130    0.0000 </r>
       <r>   23.5349    0.0000 </r>
       <r>   24.0338    0.0000 </r>
       <r>   24.6937    0.0000 </r>
       <r>   24.9429    0.0000 </r>
       <r>   25.5512    0.0000 </r>
       <r>   25.9080    0.0000 </r>
       <r>   26.4077    0.0000 </r>
       <r>   27.2036    0.0000 </r>
       <r>   27.7972    0.0000 </r>
       <r>   28.1161    0.0000 </r>
       <r>   28.2934    0.0000 </r>
       <r>   29.4351    0.0000 </r>
       <r>   29.8177    0.0000 </r>
       <r>   30.4804    0.0000 </r>
       <r>   30.7812    0.0000 </r>
       <r>   31.1791    0.0000 </r>
       <r>   31.4345    0.0000 </r>
       <r>   31.9349    0.0000 </r>
       <r>   32.2467    0.0000 </r>
       <r>   32.3303    0.0000 </r>
       <r>   33.2848    0.0000 </r>
       <r>   33.5949    0.0000 </r>
       <r>   34.1137    0.0000 </r>
       <r>   34.1286    0.0000 </r>
       <r>   34.9579    0.0000 </r>
       <r>   35.7881    0.0000 </r>
       <r>   35.9653    0.0000 </r>
       <r>   36.0192    0.0000 </r>
       <r>   36.1865    0.0000 </r>
       <r>   36.7308    0.0000 </r>
       <r>   37.9495    0.0000 </r>
       <r>   38.2247    0.0000 </r>
       <r>   38.5909    0.0000 </r>
       <r>   39.1087    0.0000 </r>
       <r>   40.0811    0.0000 </r>
       <r>   40.2601    0.0000 </r>
       <r>   40.5021    0.0000 </r>
       <r>   40.6598    0.0000 </r>
       <r>   41.1489    0.0000 </r>
       <r>   41.3733    0.0000 </r>
       <r>   41.8454    0.0000 </r>
       <r>   43.6629    0.0000 </r>
      </set>
      <set comment="kpoint 10">
       <r>  -31.4748    1.0000 </r>
       <r>  -31.4657    1.0000 </r>
       <r>  -31.4234    1.0000 </r>
       <r>  -31.3202    1.0000 </r>
       <r>  -31.2911    1.0000 </r>
       <r>  -31.2618    1.0000 </r>
       <r>  -12.1830    1.0000 </r>
       <r>  -11.4640    1.0000 </r>
       <r>  -11.2820    1.0000 </r>
       <r>  -11.2049    1.0000 </r>
       <r>   -1.5107    1.0000 </r>
       <r>   -1.2758    1.0000 </r>
       <r>   -1.2742    1.0000 </r>
       <r>   -0.6743    1.0000 </r>
[...]
       <r>    42.1764     3.4914   189.1072 </r>
       <r>    42.1932     3.4301   189.1648 </r>
       <r>    42.2101     3.3553   189.2212 </r>
       <r>    42.2269     3.2596   189.2760 </r>
       <r>    42.2437     3.1362   189.3287 </r>
       <r>    42.2605     2.9821   189.3789 </r>
       <r>    42.2773     2.7999   189.4259 </r>
       <r>    42.2941     2.6001   189.4696 </r>
       <r>    42.3109     2.4000   189.5100 </r>
       <r>    42.3277     2.2210   189.5473 </r>
       <r>    42.3445     2.0834   189.5823 </r>
       <r>    42.3613     2.0004   189.6159 </r>
       <r>    42.3781     1.9747   189.6491 </r>
       <r>    42.3949     1.9982   189.6827 </r>
       <r>    42.4117     2.0548   189.7172 </r>
       <r>    42.4285     2.1261   189.7530 </r>
       <r>    42.4454     2.1971   189.7899 </r>
       <r>    42.4622     2.2595   189.8279 </r>
       <r>    42.4790     2.3126   189.8667 </r>
       <r>    42.4958     2.3609   189.9064 </r>
       <r>    42.5126     2.4100   189.9469 </r>
       <r>    42.5294     2.4627   189.9883 </r>
       <r>    42.5462     2.5171   190.0306 </r>
       <r>    42.5630     2.5673   190.0738 </r>
       <r>    42.5798     2.6063   190.1176 </r>
       <r>    42.5966     2.6287   190.1617 </r>
       <r>    42.6134     2.6329   190.2060 </r>
       <r>    42.6302     2.6216   190.2501 </r>
       <r>    42.6470     2.6001   190.2938 </r>
       <r>    42.6638     2.5737   190.3370 </r>
       <r>    42.6807     2.5464   190.3798 </r>
       <r>    42.6975     2.5198   190.4222 </r>
       <r>    42.7143     2.4933   190.4641 </r>
       <r>    42.7311     2.4649   190.5055 </r>
       <r>    42.7479     2.4320   190.5464 </r>
       <r>    42.7647     2.3924   190.5866 </r>
       <r>    42.7815     2.3446   190.6260 </r>
       <r>    42.7983     2.2879   190.6644 </r>
       <r>    42.8151     2.2217   190.7018 </r>
       <r>    42.8319     2.1450   190.7378 </r>
       <r>    42.8487     2.0555   190.7724 </r>
       <r>    42.8655     1.9509   190.8052 </r>
       <r>    42.8823     1.8307   190.8359 </r>
       <r>    42.8991     1.6994   190.8645 </r>
       <r>    42.9160     1.5688   190.8909 </r>
       <r>    42.9328     1.4566   190.9153 </r>
       <r>    42.9496     1.3834   190.9386 </r>
       <r>    42.9664     1.3665   190.9616 </r>
       <r>    42.9832     1.4134   190.9853 </r>
       <r>    43.0000     1.5182   191.0108 </r>
       <r>    43.0168     1.6614   191.0388 </r>
       <r>    43.0336     1.8143   191.0692 </r>
       <r>    43.0504     1.9462   191.1020 </r>
       <r>    43.0672     2.0323   191.1361 </r>
       <r>    43.0840     2.0594   191.1707 </r>
       <r>    43.1008     2.0272   191.2048 </r>
       <r>    43.1176     1.9458   191.2375 </r>
       <r>    43.1344     1.8300   191.2683 </r>
       <r>    43.1513     1.6933   191.2967 </r>
       <r>    43.1681     1.5450   191.3227 </r>
       <r>    43.1849     1.3894   191.3460 </r>
       <r>    43.2017     1.2293   191.3667 </r>
       <r>    43.2185     1.0691   191.3847 </r>
       <r>    43.2353     0.9170   191.4001 </r>
       <r>    43.2521     0.7846   191.4133 </r>
       <r>    43.2689     0.6839   191.4248 </r>
       <r>    43.2857     0.6235   191.4352 </r>
       <r>    43.3025     0.6059   191.4454 </r>
       <r>    43.3193     0.6267   191.4560 </r>
       <r>    43.3361     0.6761   191.4673 </r>
       <r>    43.3529     0.7429   191.4798 </r>
       <r>    43.3697     0.8171   191.4935 </r>
       <r>    43.3866     0.8921   191.5085 </r>
       <r>    43.4034     0.9638   191.5247 </r>
       <r>    43.4202     1.0288   191.5420 </r>
       <r>    43.4370     1.0815   191.5602 </r>
       <r>    43.4538     1.1138   191.5789 </r>
       <r>    43.4706     1.1164   191.5977 </r>
       <r>    43.4874     1.0825   191.6159 </r>
       <r>    43.5042     1.0118   191.6329 </r>
       <r>    43.5210     0.9127   191.6482 </r>
       <r>    43.5378     0.8013   191.6617 </r>
       <r>    43.5546     0.6979   191.6734 </r>
       <r>    43.5714     0.6202   191.6838 </r>
       <r>    43.5882     0.5787   191.6936 </r>
       <r>    43.6050     0.5734   191.7032 </r>
       <r>    43.6219     0.5951   191.7132 </r>
       <r>    43.6387     0.6297   191.7238 </r>
       <r>    43.6555     0.6634   191.7349 </r>
       <r>    43.6723     0.6873   191.7465 </r>
       <r>    43.6891     0.6985   191.7582 </r>
       <r>    43.7059     0.6991   191.7700 </r>
       <r>    43.7227     0.6929   191.7816 </r>
       <r>    43.7395     0.6833   191.7931 </r>
       <r>    43.7563     0.6714   191.8044 </r>
       <r>    43.7731     0.6562   191.8154 </r>
       <r>    43.7899     0.6354   191.8261 </r>
       <r>    43.8067     0.6073   191.8363 </r>
       <r>    43.8235     0.5710   191.8459 </r>
       <r>    43.8403     0.5275   191.8548 </r>
       <r>    43.8572     0.4789   191.8628 </r>
       <r>    43.8740     0.4281   191.8700 </r>
       <r>    43.8908     0.3781   191.8764 </r>
       <r>    43.9076     0.3311   191.8819 </r>
       <r>    43.9244     0.2888   191.8868 </r>
       <r>    43.9412     0.2527   191.8910 </r>
       <r>    43.9580     0.2248   191.8948 </r>
       <r>    43.9748     0.2072   191.8983 </r>
       <r>    43.9916     0.2016   191.9017 </r>
       <r>    44.0084     0.2080   191.9052 </r>
       <r>    44.0252     0.2241   191.9090 </r>
       <r>    44.0420     0.2449   191.9131 </r>
       <r>    44.0588     0.2643   191.9175 </r>
       <r>    44.0756     0.2761   191.9222 </r>
       <r>    44.0925     0.2763   191.9268 </r>
       <r>    44.1093     0.2638   191.9312 </r>
       <r>    44.1261     0.2403   191.9353 </r>
       <r>    44.1429     0.2101   191.9388 </r>
       <r>    44.1597     0.1779   191.9418 </r>
       <r>    44.1765     0.1488   191.9443 </r>
       <r>    44.1933     0.1268   191.9464 </r>
       <r>    44.2101     0.1144   191.9483 </r>
       <r>    44.2269     0.1127   191.9502 </r>
       <r>    44.2437     0.1206   191.9523 </r>
       <r>    44.2605     0.1350   191.9545 </r>
       <r>    44.2773     0.1512   191.9571 </r>
       <r>    44.2941     0.1634   191.9598 </r>
       <r>    44.3109     0.1671   191.9626 </r>
       <r>    44.3278     0.1595   191.9653 </r>
       <r>    44.3446     0.1412   191.9677 </r>
       <r>    44.3614     0.1155   191.9696 </r>
       <r>    44.3782     0.0876   191.9711 </r>
       <r>    44.3950     0.0626   191.9722 </r>
       <r>    44.4118     0.0444   191.9729 </r>
       <r>    44.4286     0.0347   191.9735 </r>
       <r>    44.4454     0.0333   191.9740 </r>
       <r>    44.4622     0.0386   191.9747 </r>
       <r>    44.4790     0.0484   191.9755 </r>
       <r>    44.4958     0.0607   191.9765 </r>
       <r>    44.5126     0.0738   191.9778 </r>
       <r>    44.5294     0.0860   191.9792 </r>
       <r>    44.5462     0.0954   191.9808 </r>
       <r>    44.5630     0.1001   191.9825 </r>
       <r>    44.5799     0.0986   191.9842 </r>
       <r>    44.5967     0.0902   191.9857 </r>
       <r>    44.6135     0.0757   191.9869 </r>
       <r>    44.6303     0.0571   191.9879 </r>
       <r>    44.6471     0.0373   191.9885 </r>
       <r>    44.6639     0.0194   191.9889 </r>
       <r>    44.6807     0.0056   191.9890 </r>
       <r>    44.6975    -0.0021   191.9889 </r>
       <r>    44.7143    -0.0030   191.9889 </r>
       <r>    44.7311     0.0031   191.9889 </r>
       <r>    44.7479     0.0155   191.9892 </r>
       <r>    44.7647     0.0328   191.9897 </r>
       <r>    44.7815     0.0525   191.9906 </r>
       <r>    44.7983     0.0714   191.9918 </r>
       <r>    44.8152     0.0857   191.9933 </r>
       <r>    44.8320     0.0928   191.9948 </r>
       <r>    44.8488     0.0911   191.9963 </r>
       <r>    44.8656     0.0812   191.9977 </r>
       <r>    44.8824     0.0654   191.9988 </r>
       <r>    44.8992     0.0469   191.9996 </r>
       <r>    44.9160     0.0291   192.0001 </r>
       <r>    44.9328     0.0144   192.0003 </r>
       <r>    44.9496     0.0041   192.0004 </r>
       <r>    44.9664    -0.0020   192.0004 </r>
       <r>    44.9832    -0.0047   192.0003 </r>
       <r>    45.0000    -0.0050   192.0002 </r>
       <r>    45.0168    -0.0042   192.0001 </r>
       <r>    45.0336    -0.0031   192.0001 </r>
       <r>    45.0505    -0.0020   192.0000 </r>
       <r>    45.0673    -0.0012   192.0000 </r>
       <r>    45.0841    -0.0006   192.0000 </r>
       <r>    45.1009    -0.0003   192.0000 </r>
       <r>    45.1177    -0.0002   192.0000 </r>
       <r>    45.1345    -0.0001   192.0000 </r>
       <r>    45.1513    -0.0000   192.0000 </r>
       <r>    45.1681    -0.0000   192.0000 </r>
       <r>    45.1849    -0.0000   192.0000 </r>
       <r>    45.2017    -0.0000   192.0000 </r>
       <r>    45.2185    -0.0000   192.0000 </r>
       <r>    45.2353    -0.0000   192.0000 </r>
       <r>    45.2521    -0.0000   192.0000 </r>
       <r>    45.2689    -0.0000   192.0000 </r>
       <r>    45.2858    -0.0000   192.0000 </r>
       <r>    45.3026    -0.0000   192.0000 </r>
       <r>    45.3194    -0.0000   192.0000 </r>
       <r>    45.3362    -0.0000   192.0000 </r>
       <r>    45.3530    -0.0000   192.0000 </r>
       <r>    45.3698    -0.0000   192.0000 </r>
       <r>    45.3866    -0.0000   192.0000 </r>
       <r>    45.4034    -0.0000   192.0000 </r>
       <r>    45.4202    -0.0000   192.0000 </r>
       <r>    45.4370    -0.0000   192.0000 </r>
       <r>    45.4538    -0.0000   192.0000 </r>
       <r>    45.4706     0.0000   192.0000 </r>
       <r>    45.4874     0.0000   192.0000 </r>
       <r>    45.5042     0.0000   192.0000 </r>
       <r>    45.5211     0.0000   192.0000 </r>
       <r>    45.5379     0.0000   192.0000 </r>
       <r>    45.5547     0.0000   192.0000 </r>
       <r>    45.5715     0.0000   192.0000 </r>
       <r>    45.5883     0.0000   192.0000 </r>
       <r>    45.6051     0.0000   192.0000 </r>
       <r>    45.6219     0.0000   192.0000 </r>
       <r>    45.6387     0.0000   192.0000 </r>
       <r>    45.6555     0.0000   192.0000 </r>
       <r>    45.6723     0.0000   192.0000 </r>
       <r>    45.6891     0.0000   192.0000 </r>
       <r>    45.7059     0.0000   192.0000 </r>
       <r>    45.7227     0.0000   192.0000 </r>
       <r>    45.7395     0.0000   192.0000 </r>
       <r>    45.7564     0.0000   192.0000 </r>
       <r>    45.7732     0.0000   192.0000 </r>
       <r>    45.7900     0.0000   192.0000 </r>
       <r>    45.8068     0.0000   192.0000 </r>
       <r>    45.8236     0.0000   192.0000 </r>
       <r>    45.8404     0.0000   192.0000 </r>
       <r>    45.8572     0.0000   192.0000 </r>
       <r>    45.8740     0.0000   192.0000 </r>
       <r>    45.8908     0.0000   192.0000 </r>
       <r>    45.9076     0.0000   192.0000 </r>
       <r>    45.9244     0.0000   192.0000 </r>
       <r>    45.9412     0.0000   192.0000 </r>
       <r>    45.9580     0.0000   192.0000 </r>
       <r>    45.9748     0.0000   192.0000 </r>
       <r>    45.9917     0.0000   192.0000 </r>
       <r>    46.0085     0.0000   192.0000 </r>
       <r>    46.0253     0.0000   192.0000 </r>
       <r>    46.0421     0.0000   192.0000 </r>
       <r>    46.0589     0.0000   192.0000 </r>
       <r>    46.0757     0.0000   192.0000 </r>
       <r>    46.0925     0.0000   192.0000 </r>
       <r>    46.1093     0.0000   192.0000 </r>
       <r>    46.1261     0.0000   192.0000 </r>
       <r>    46.1429     0.0000   192.0000 </r>
       <r>    46.1597     0.0000   192.0000 </r>
       <r>    46.1765     0.0000   192.0000 </r>
       <r>    46.1933     0.0000   192.0000 </r>
       <r>    46.2101     0.0000   192.0000 </r>
       <r>    46.2270     0.0000   192.0000 </r>
       <r>    46.2438     0.0000   192.0000 </r>
       <r>    46.2606     0.0000   192.0000 </r>
       <r>    46.2774     0.0000   192.0000 </r>
       <r>    46.2942     0.0000   192.0000 </r>
       <r>    46.3110     0.0000   192.0000 </r>
       <r>    46.3278     0.0000   192.0000 </r>
       <r>    46.3446     0.0000   192.0000 </r>
       <r>    46.3614     0.0000   192.0000 </r>
       <r>    46.3782     0.0000   192.0000 </r>
       <r>    46.3950     0.0000   192.0000 </r>
       <r>    46.4118     0.0000   192.0000 </r>
       <r>    46.4286     0.0000   192.0000 </r>
       <r>    46.4454     0.0000   192.0000 </r>
       <r>    46.4623     0.0000   192.0000 </r>
       <r>    46.4791     0.0000   192.0000 </r>
       <r>    46.4959     0.0000   192.0000 </r>
       <r>    46.5127     0.0000   192.0000 </r>
       <r>    46.5295     0.0000   192.0000 </r>
       <r>    46.5463     0.0000   192.0000 </r>
       <r>    46.5631     0.0000   192.0000 </r>
       <r>    46.5799     0.0000   192.0000 </r>
       <r>    46.5967     0.0000   192.0000 </r>
       <r>    46.6135     0.0000   192.0000 </r>
       <r>    46.6303     0.0000   192.0000 </r>
       <r>    46.6471     0.0000   192.0000 </r>
       <r>    46.6639     0.0000   192.0000 </r>
       <r>    46.6807     0.0000   192.0000 </r>
       <r>    46.6976     0.0000   192.0000 </r>
       <r>    46.7144     0.0000   192.0000 </r>
       <r>    46.7312     0.0000   192.0000 </r>
       <r>    46.7480     0.0000   192.0000 </r>
       <r>    46.7648     0.0000   192.0000 </r>
       <r>    46.7816     0.0000   192.0000 </r>
       <r>    46.7984     0.0000   192.0000 </r>
       <r>    46.8152     0.0000   192.0000 </r>
       <r>    46.8320     0.0000   192.0000 </r>
       <r>    46.8488     0.0000   192.0000 </r>
       <r>    46.8656     0.0000   192.0000 </r>
       <r>    46.8824     0.0000   192.0000 </r>
       <r>    46.8992     0.0000   192.0000 </r>
       <r>    46.9160     0.0000   192.0000 </r>
       <r>    46.9329     0.0000   192.0000 </r>
       <r>    46.9497     0.0000   192.0000 </r>
       <r>    46.9665     0.0000   192.0000 </r>
       <r>    46.9833     0.0000   192.0000 </r>
       <r>    47.0001     0.0000   192.0000 </r>
       <r>    47.0169     0.0000   192.0000 </r>
       <r>    47.0337     0.0000   192.0000 </r>
       <r>    47.0505     0.0000   192.0000 </r>
       <r>    47.0673     0.0000   192.0000 </r>
       <r>    47.0841     0.0000   192.0000 </r>
       <r>    47.1009     0.0000   192.0000 </r>
       <r>    47.1177     0.0000   192.0000 </r>
       <r>    47.1345     0.0000   192.0000 </r>
       <r>    47.1513     0.0000   192.0000 </r>
       <r>    47.1682     0.0000   192.0000 </r>
       <r>    47.1850     0.0000   192.0000 </r>
       <r>    47.2018     0.0000   192.0000 </r>
       <r>    47.2186     0.0000   192.0000 </r>
       <r>    47.2354     0.0000   192.0000 </r>
       <r>    47.2522     0.0000   192.0000 </r>
       <r>    47.2690     0.0000   192.0000 </r>
       <r>    47.2858     0.0000   192.0000 </r>
       <r>    47.3026     0.0000   192.0000 </r>
       <r>    47.3194     0.0000   192.0000 </r>
       <r>    47.3362     0.0000   192.0000 </r>
       <r>    47.3530     0.0000   192.0000 </r>
       <r>    47.3698     0.0000   192.0000 </r>
       <r>    47.3866     0.0000   192.0000 </r>
       <r>    47.4035     0.0000   192.0000 </r>
       <r>    47.4203     0.0000   192.0000 </r>
       <r>    47.4371     0.0000   192.0000 </r>
       <r>    47.4539     0.0000   192.0000 </r>
       <r>    47.4707     0.0000   192.0000 </r>
       <r>    47.4875     0.0000   192.0000 </r>
       <r>    47.5043     0.0000   192.0000 </r>
       <r>    47.5211     0.0000   192.0000 </r>
       <r>    47.5379     0.0000   192.0000 </r>
       <r>    47.5547     0.0000   192.0000 </r>
       <r>    47.5715     0.0000   192.0000 </r>
       <r>    47.5883     0.0000   192.0000 </r>
       <r>    47.6051     0.0000   192.0000 </r>
       <r>    47.6219     0.0000   192.0000 </r>
       <r>    47.6388     0.0000   192.0000 </r>
       <r>    47.6556     0.0000   192.0000 </r>
       <r>    47.6724     0.0000   192.0000 </r>
       <r>    47.6892     0.0000   192.0000 </r>
       <r>    47.7060     0.0000   192.0000 </r>
       <r>    47.7228     0.0000   192.0000 </r>
       <r>    47.7396     0.0000   192.0000 </r>
       <r>    47.7564     0.0000   192.0000 </r>
       <r>    47.7732     0.0000   192.0000 </r>
       <r>    47.7900     0.0000   192.0000 </r>
       <r>    47.8068     0.0000   192.0000 </r>
       <r>    47.8236     0.0000   192.0000 </r>
       <r>    47.8404     0.0000   192.0000 </r>
       <r>    47.8572     0.0000   192.0000 </r>
       <r>    47.8741     0.0000   192.0000 </r>
       <r>    47.8909     0.0000   192.0000 </r>
       <r>    47.9077     0.0000   192.0000 </r>
       <r>    47.9245     0.0000   192.0000 </r>
       <r>    47.9413     0.0000   192.0000 </r>
       <r>    47.9581     0.0000   192.0000 </r>
       <r>    47.9749     0.0000   192.0000 </r>
       <r>    47.9917     0.0000   192.0000 </r>
       <r>    48.0085     0.0000   192.0000 </r>
       <r>    48.0253     0.0000   192.0000 </r>
       <r>    48.0421     0.0000   192.0000 </r>
       <r>    48.0589     0.0000   192.0000 </r>
       <r>    48.0757     0.0000   192.0000 </r>
       <r>    48.0925     0.0000   192.0000 </r>
       <r>    48.1094     0.0000   192.0000 </r>
       <r>    48.1262     0.0000   192.0000 </r>
       <r>    48.1430     0.0000   192.0000 </r>
       <r>    48.1598     0.0000   192.0000 </r>
       <r>    48.1766     0.0000   192.0000 </r>
       <r>    48.1934     0.0000   192.0000 </r>
       <r>    48.2102     0.0000   192.0000 </r>
       <r>    48.2270     0.0000   192.0000 </r>
       <r>    48.2438     0.0000   192.0000 </r>
       <r>    48.2606     0.0000   192.0000 </r>
       <r>    48.2774     0.0000   192.0000 </r>
       <r>    48.2942     0.0000   192.0000 </r>
       <r>    48.3110     0.0000   192.0000 </r>
       <r>    48.3278     0.0000   192.0000 </r>
       <r>    48.3447     0.0000   192.0000 </r>
       <r>    48.3615     0.0000   192.0000 </r>
       <r>    48.3783     0.0000   192.0000 </r>
       <r>    48.3951     0.0000   192.0000 </r>
       <r>    48.4119     0.0000   192.0000 </r>
       <r>    48.4287     0.0000   192.0000 </r>
       <r>    48.4455     0.0000   192.0000 </r>
       <r>    48.4623     0.0000   192.0000 </r>
       <r>    48.4791     0.0000   192.0000 </r>
       <r>    48.4959     0.0000   192.0000 </r>
       <r>    48.5127     0.0000   192.0000 </r>
       <r>    48.5295     0.0000   192.0000 </r>
       <r>    48.5463     0.0000   192.0000 </r>
       <r>    48.5631     0.0000   192.0000 </r>
       <r>    48.5800     0.0000   192.0000 </r>
       <r>    48.5968     0.0000   192.0000 </r>
       <r>    48.6136     0.0000   192.0000 </r>
       <r>    48.6304     0.0000   192.0000 </r>
       <r>    48.6472     0.0000   192.0000 </r>
      </set>
     </set>
    </array>
   </total>
  </dos>
 </calculation>
 <structure name="finalpos" >
  <crystal>
   <varray name="basis" >
    <v>       3.37346400       0.00000000       0.00000000 </v>
    <v>       0.00000000       3.94665100       0.00000000 </v>
    <v>       0.00000000       0.00000000       8.35562200 </v>
   </varray>
   <i name="volume">    111.24579099 </i>
   <varray name="rec_basis" >
    <v>       0.29643121       0.00000000       0.00000000 </v>
    <v>       0.00000000       0.25337938       0.00000000 </v>
    <v>       0.00000000       0.00000000       0.11967990 </v>
   </varray>
  </crystal>
  <varray name="positions" >
   <v>       0.00000000       0.50000000       0.90969900 </v>
   <v>       0.50000000       0.00000000       0.09030100 </v>
   <v>       0.50000000       0.50000000       0.67175600 </v>
   <v>       0.00000000       0.00000000       0.32824400 </v>
   <v>       0.00000000       0.00000000       0.95789800 </v>
   <v>       0.50000000       0.50000000       0.04210200 </v>
  </varray>
 </structure>
</modeling>
