<?xml version="1.0" encoding="ISO-8859-1"?>
<modeling>
 <generator>
  <i name="program" type="string">vasp </i>
  <i name="version" type="string">6.3.0  </i>
  <i name="subversion" type="string">20Jan22 (build Feb 02 2022 18:12:33) complex                          parallel </i>
  <i name="platform" type="string">LinuxIFC </i>
  <i name="date" type="string">2022 10 02 </i>
  <i name="time" type="string">21:46:43 </i>
 </generator>
 <incar>
  <i type="string" name="SYSTEM">WO3bulkRT</i>
  <i type="string" name="PREC">Normal</i>
  <i type="string" name="ALGO">Normal</i>
  <i type="int" name="NELMIN">     5</i>
  <i type="int" name="IBRION">    -1</i>
  <i name="EDIFF">     -0.00010000</i>
  <i name="EDIFFG">     -0.00500000</i>
  <i type="int" name="NSW">     0</i>
  <i type="int" name="ISYM">     0</i>
  <i name="ENCUT">    500.00000000</i>
  <i type="int" name="NBANDS">    32</i>
  <i type="int" name="NEDOS">  3000</i>
  <i type="int" name="ISMEAR">     0</i>
  <i name="SIGMA">      0.05000000</i>
  <i type="logical" name="LOPTICS"> T  </i>
 </incar>
 <primitive_cell>
  <structure name="primitive_cell" >
   <crystal>
    <varray name="basis" >
     <v>       3.78810744       0.00000000       0.00000000 </v>
     <v>       0.00000000       3.78810744       0.00000000 </v>
     <v>       0.00000000       0.00000000       3.78810744 </v>
    </varray>
    <i name="volume">     54.35842507 </i>
    <varray name="rec_basis" >
     <v>       0.26398406       0.00000000       0.00000000 </v>
     <v>       0.00000000       0.26398406       0.00000000 </v>
     <v>       0.00000000       0.00000000       0.26398406 </v>
    </varray>
   </crystal>
   <varray name="positions" >
    <v>       0.00000000       0.00000000       0.00000000 </v>
    <v>       0.50000000       0.00000000       0.00000000 </v>
    <v>       0.00000000       0.50000000       0.00000000 </v>
    <v>       0.00000000       0.00000000       0.50000000 </v>
   </varray>
  </structure>
  <varray name="primitive_index" >
   <v type="int" >        1 </v>
   <v type="int" >        2 </v>
   <v type="int" >        3 </v>
   <v type="int" >        4 </v>
  </varray>
 </primitive_cell>
 <kpoints>
  <generation param="Gamma">
   <v type="int" name="divisions">       4        4        4 </v>
   <v name="usershift">      0.00000000       0.00000000       0.00000000 </v>
   <v name="genvec1">      0.25000000       0.00000000       0.00000000 </v>
   <v name="genvec2">      0.00000000       0.25000000       0.00000000 </v>
   <v name="genvec3">      0.00000000       0.00000000       0.25000000 </v>
   <v name="shift">      0.00000000       0.00000000       0.00000000 </v>
  </generation>
  <varray name="kpointlist" >
   <v>       0.00000000       0.00000000       0.00000000 </v>
   <v>       0.25000000       0.00000000       0.00000000 </v>
   <v>       0.00000000       0.25000000       0.00000000 </v>
   <v>       0.00000000       0.00000000       0.25000000 </v>
   <v>       0.50000000       0.00000000       0.00000000 </v>
   <v>       0.00000000       0.50000000       0.00000000 </v>
   <v>       0.00000000       0.00000000       0.50000000 </v>
   <v>       0.25000000       0.25000000       0.00000000 </v>
   <v>       0.00000000       0.25000000       0.25000000 </v>
   <v>       0.25000000       0.00000000       0.25000000 </v>
   <v>      -0.25000000       0.25000000       0.00000000 </v>
   <v>      -0.25000000       0.00000000       0.25000000 </v>
   <v>       0.00000000      -0.25000000       0.25000000 </v>
   <v>       0.50000000       0.25000000       0.00000000 </v>
   <v>       0.00000000       0.50000000       0.25000000 </v>
   <v>       0.25000000       0.00000000       0.50000000 </v>
   <v>      -0.25000000       0.50000000       0.00000000 </v>
   <v>       0.50000000       0.00000000       0.25000000 </v>
   <v>       0.00000000       0.25000000       0.50000000 </v>
   <v>       0.50000000       0.50000000       0.00000000 </v>
   <v>       0.00000000       0.50000000       0.50000000 </v>
   <v>       0.50000000       0.00000000       0.50000000 </v>
   <v>       0.25000000       0.25000000       0.25000000 </v>
   <v>      -0.25000000       0.25000000       0.25000000 </v>
   <v>      -0.25000000      -0.25000000       0.25000000 </v>
   <v>       0.25000000      -0.25000000       0.25000000 </v>
   <v>       0.50000000       0.25000000       0.25000000 </v>
   <v>       0.25000000       0.50000000       0.25000000 </v>
   <v>       0.25000000       0.25000000       0.50000000 </v>
   <v>      -0.25000000       0.50000000       0.25000000 </v>
   <v>      -0.25000000       0.25000000       0.50000000 </v>
   <v>       0.50000000      -0.25000000       0.25000000 </v>
   <v>       0.50000000       0.50000000       0.25000000 </v>
   <v>       0.25000000       0.50000000       0.50000000 </v>
   <v>       0.50000000       0.25000000       0.50000000 </v>
   <v>       0.50000000       0.50000000       0.50000000 </v>
  </varray>
  <varray name="weights" >
   <v>       0.01562500 </v>
   <v>       0.03125000 </v>
   <v>       0.03125000 </v>
   <v>       0.03125000 </v>
   <v>       0.01562500 </v>
   <v>       0.01562500 </v>
   <v>       0.01562500 </v>
   <v>       0.03125000 </v>
   <v>       0.03125000 </v>
   <v>       0.03125000 </v>
   <v>       0.03125000 </v>
   <v>       0.03125000 </v>
   <v>       0.03125000 </v>
   <v>       0.03125000 </v>
   <v>       0.03125000 </v>
   <v>       0.03125000 </v>
   <v>       0.03125000 </v>
   <v>       0.03125000 </v>
   <v>       0.03125000 </v>
   <v>       0.01562500 </v>
   <v>       0.01562500 </v>
   <v>       0.01562500 </v>
   <v>       0.03125000 </v>
   <v>       0.03125000 </v>
   <v>       0.03125000 </v>
   <v>       0.03125000 </v>
   <v>       0.03125000 </v>
   <v>       0.03125000 </v>
   <v>       0.03125000 </v>
   <v>       0.03125000 </v>
   <v>       0.03125000 </v>
   <v>       0.03125000 </v>
   <v>       0.03125000 </v>
   <v>       0.03125000 </v>
   <v>       0.03125000 </v>
   <v>       0.01562500 </v>
  </varray>
 </kpoints>
 <parameters>
  <separator name="general" >
   <i type="string" name="SYSTEM">WO3bulkRT</i>
   <i type="logical" name="LCOMPAT"> F  </i>
  </separator>
  <separator name="electronic" >
   <i type="string" name="PREC">normal</i>
   <i name="ENMAX">    500.00000000</i>
   <i name="ENAUG">    605.39200000</i>
   <i name="EDIFF">      0.00010000</i>
   <i type="int" name="IALGO">    38</i>
   <i type="int" name="IWAVPR">    10</i>
   <i type="int" name="NBANDS">    36</i>
   <i type="int" name="NBANDSLOW">    -1</i>
   <i type="int" name="NBANDSHIGH">    -1</i>
   <i name="NELECT">     24.00000000</i>
   <i type="int" name="TURBO">     0</i>
   <i type="int" name="IRESTART">     0</i>
   <i type="int" name="NREBOOT">     0</i>
   <i type="int" name="NMIN">     0</i>
   <i name="EREF">      0.00000000</i>
   <separator name="electronic smearing" >
    <i type="int" name="ISMEAR">     0</i>
    <i name="SIGMA">      0.05000000</i>
    <i name="KSPACING">      0.50000000</i>
    <i type="logical" name="KGAMMA"> T  </i>
    <i type="logical" name="KBLOWUP"> T  </i>
   </separator>
   <separator name="electronic projectors" >
    <i type="logical" name="LREAL"> F  </i>
    <v name="ROPT">      0.00000000      0.00000000</v>
    <i type="int" name="LMAXPAW">  -100</i>
    <i type="int" name="LMAXMIX">     2</i>
    <i type="logical" name="NLSPLINE"> F  </i>
   </separator>
   <separator name="electronic startup" >
    <i type="int" name="ISTART">     0</i>
    <i type="int" name="ICHARG">     2</i>
    <i type="int" name="INIWAV">     1</i>
   </separator>
   <separator name="electronic spin" >
    <i type="int" name="ISPIN">     1</i>
    <i type="logical" name="LNONCOLLINEAR"> F  </i>
    <v name="MAGMOM">      1.00000000      1.00000000      1.00000000      1.00000000</v>
    <i name="NUPDOWN">     -1.00000000</i>
    <i type="logical" name="LSORBIT"> F  </i>
    <v name="SAXIS">      0.00000000      0.00000000      1.00000000</v>
    <i type="logical" name="LSPIRAL"> F  </i>
    <v name="QSPIRAL">      0.00000000      0.00000000      0.00000000</v>
    <i type="logical" name="LZEROZ"> F  </i>
   </separator>
   <separator name="electronic exchange-correlation" >
    <i type="logical" name="LASPH"> F  </i>
    <i type="logical" name="LMETAGGA"> F  </i>
   </separator>
   <separator name="electronic convergence" >
    <i type="int" name="NELM">    60</i>
    <i type="int" name="NELMDL">    -5</i>
    <i type="int" name="NELMIN">     5</i>
    <i name="ENINI">    500.00000000</i>
    <separator name="electronic convergence detail" >
     <i type="logical" name="LDIAG"> T  </i>
     <i type="logical" name="LSUBROT"> F  </i>
     <i name="WEIMIN">      0.00000000</i>
     <i name="EBREAK">      0.00000069</i>
     <i name="DEPER">      0.30000000</i>
     <i type="int" name="NRMM">     4</i>
     <i name="TIME">      0.40000000</i>
    </separator>
   </separator>
   <separator name="electronic mixer" >
    <i name="AMIX">      0.40000000</i>
    <i name="BMIX">      1.00000000</i>
    <i name="AMIN">      0.10000000</i>
    <i name="AMIX_MAG">      1.60000000</i>
    <i name="BMIX_MAG">      1.00000000</i>
    <separator name="electronic mixer details" >
     <i type="int" name="IMIX">     4</i>
     <i type="logical" name="MIXFIRST"> F  </i>
     <i type="int" name="MAXMIX">   -45</i>
     <i name="WC">    100.00000000</i>
     <i type="int" name="INIMIX">     1</i>
     <i type="int" name="MIXPRE">     1</i>
     <i type="int" name="MREMOVE">     5</i>
    </separator>
   </separator>
   <separator name="electronic dipolcorrection" >
    <i type="logical" name="LDIPOL"> F  </i>
    <i type="logical" name="LMONO"> F  </i>
    <i type="int" name="IDIPOL">     0</i>
    <i name="EPSILON">      1.00000000</i>
    <v name="DIPOL">   -100.00000000   -100.00000000   -100.00000000</v>
    <i name="EFIELD">      0.00000000</i>
   </separator>
  </separator>
  <separator name="grids" >
   <i type="int" name="NGX">    24</i>
   <i type="int" name="NGY">    24</i>
   <i type="int" name="NGZ">    24</i>
   <i type="int" name="NGXF">    48</i>
   <i type="int" name="NGYF">    48</i>
   <i type="int" name="NGZF">    48</i>
   <i type="logical" name="ADDGRID"> F  </i>
  </separator>
  <separator name="ionic" >
   <i type="int" name="NSW">     0</i>
   <i type="int" name="IBRION">    -1</i>
   <i type="int" name="MDALGO">     0</i>
   <i type="int" name="ISIF">     2</i>
   <i name="PSTRESS">      0.00000000</i>
   <i name="EDIFFG">     -0.00500000</i>
   <i type="int" name="NFREE">     0</i>
   <i name="POTIM">      0.50000000</i>
   <i name="SMASS">     -3.00000000</i>
   <i name="SCALEE">      1.00000000</i>
  </separator>
  <separator name="ionic md" >
   <i name="TEBEG">      0.00010000</i>
   <i name="TEEND">      0.00010000</i>
   <i type="int" name="NBLOCK">     1</i>
   <i type="int" name="KBLOCK">     1</i>
   <i type="int" name="NPACO">   256</i>
   <i name="APACO">     10.00000000</i>
  </separator>
  <separator name="symmetry" >
   <i type="int" name="ISYM">     0</i>
   <i name="SYMPREC">      0.00001000</i>
  </separator>
  <separator name="dos" >
   <i type="int" name="LORBIT">     0</i>
   <v name="RWIGS">     -1.00000000     -1.00000000</v>
   <i type="int" name="NEDOS">  3000</i>
   <i name="EMIN">     10.00000000</i>
   <i name="EMAX">    -10.00000000</i>
   <i name="EFERMI">      0.00000000</i>
  </separator>
  <separator name="writing" >
   <i type="int" name="NWRITE">     2</i>
   <i type="logical" name="LWAVE"> T  </i>
   <i type="logical" name="LDOWNSAMPLE"> F  </i>
   <i type="logical" name="LCHARG"> T  </i>
   <i type="logical" name="LPARD"> F  </i>
   <i type="logical" name="LVTOT"> F  </i>
   <i type="logical" name="LVHAR"> F  </i>
   <i type="logical" name="LELF"> F  </i>
   <i type="logical" name="LOPTICS"> T  </i>
   <v name="STM">      0.00000000      0.00000000      0.00000000      0.00000000      0.00000000      0.00000000      0.00000000</v>
  </separator>
  <separator name="performance" >
   <i type="int" name="NPAR">    36</i>
   <i type="int" name="NSIM">     4</i>
   <i type="int" name="NBLK">    -1</i>
   <i type="logical" name="LPLANE"> T  </i>
   <i type="logical" name="LSCALAPACK"> T  </i>
   <i type="logical" name="LSCAAWARE"> F  </i>
   <i type="logical" name="LSCALU"> F  </i>
   <i type="logical" name="LASYNC"> F  </i>
   <i type="logical" name="LORBITALREAL"> F  </i>
  </separator>
  <separator name="miscellaneous" >
   <i type="int" name="IDIOT">     3</i>
   <i type="int" name="PHON_NSTRUCT">    -1</i>
   <i type="logical" name="LMUSIC"> F  </i>
   <v name="POMASS">    183.85000000     16.00000000</v>
   <v name="DARWINR">      0.00000000      0.00000000</v>
   <v name="DARWINV">      1.00000000      1.00000000</v>
   <i type="logical" name="LCORR"> T  </i>
  </separator>
  <i type="logical" name="GGA_COMPAT"> T  </i>
  <i type="logical" name="LBERRY"> F  </i>
  <i type="int" name="ICORELEVEL">     0</i>
  <i type="logical" name="LDAU"> F  </i>
  <i type="int" name="I_CONSTRAINED_M">     0</i>
  <separator name="electronic exchange-correlation" >
   <i type="string" name="GGA">--</i>
   <i type="int" name="VOSKOWN">     0</i>
   <i type="logical" name="LHFCALC"> F  </i>
   <i type="string" name="PRECFOCK"></i>
   <i type="logical" name="LSYMGRAD"> F  </i>
   <i type="logical" name="LHFONE"> F  </i>
   <i type="logical" name="LRHFCALC"> F  </i>
   <i type="logical" name="LTHOMAS"> F  </i>
   <i type="logical" name="LMODELHF"> F  </i>
   <i type="logical" name="LFOCKACE"> F  </i>
   <i name="ENCUT4O">     -1.00000000</i>
   <i type="int" name="EXXOEP">     0</i>
   <i type="int" name="FOURORBIT">     0</i>
   <i name="AEXX">      0.00000000</i>
   <i name="HFALPHA">      0.00000000</i>
   <i name="MCALPHA">      0.00000000</i>
   <i name="ALDAX">      1.00000000</i>
   <i name="AGGAX">      1.00000000</i>
   <i name="ALDAC">      1.00000000</i>
   <i name="AGGAC">      1.00000000</i>
   <i type="int" name="NKREDX">     1</i>
   <i type="int" name="NKREDY">     1</i>
   <i type="int" name="NKREDZ">     1</i>
   <i type="logical" name="SHIFTRED"> F  </i>
   <i type="logical" name="ODDONLY"> F  </i>
   <i type="logical" name="EVENONLY"> F  </i>
   <i type="int" name="LMAXFOCK">     0</i>
   <i type="int" name="NMAXFOCKAE">     0</i>
   <i type="logical" name="LFOCKAEDFT"> F  </i>
   <i name="HFSCREEN">      0.00000000</i>
   <i name="HFSCREENC">      0.00000000</i>
   <i type="int" name="NBANDSGWLOW">     0</i>
  </separator>
  <separator name="vdW DFT" >
   <i type="logical" name="LUSE_VDW"> F  </i>
   <i name="Zab_VDW">     -0.84910000</i>
   <i name="PARAM1">      0.12340000</i>
   <i name="PARAM2">      1.00000000</i>
   <i name="PARAM3">      0.00000000</i>
  </separator>
  <separator name="model GW" >
   <i type="int" name="MODEL_GW">     0</i>
   <i name="MODEL_EPS0">      8.15376376</i>
   <i name="MODEL_ALPHA">      1.00000000</i>
  </separator>
  <separator name="linear response parameters" >
   <i type="logical" name="LEPSILON"> F  </i>
   <i type="logical" name="LRPA"> F  </i>
   <i type="logical" name="LNABLA"> F  </i>
   <i type="logical" name="LVEL"> F  </i>
   <i name="CSHIFT">      0.10000000</i>
   <i name="OMEGAMAX">     -1.00000000</i>
   <i name="DEG_THRESHOLD">      0.00200000</i>
   <i name="RTIME">     -0.10000000</i>
   <i name="WPLASMAI">      0.00000000</i>
   <v name="DFIELD">      0.00000000      0.00000000      0.00000000</v>
   <v name="WPLASMA">      0.00000000      0.00000000      0.00000000      0.00000000      0.00000000      0.00000000      0.00000000      0.00000000      0.00000000</v>
  </separator>
  <separator name="orbital magnetization" >
   <i type="logical" name="NUCIND"> F  </i>
   <v name="MAGPOS">      0.00000000      0.00000000      0.00000000</v>
   <i type="logical" name="LNICSALL"> T  </i>
   <i type="logical" name="ORBITALMAG"> F  </i>
   <i type="logical" name="LMAGBLOCH"> F  </i>
   <i type="logical" name="LCHIMAG"> F  </i>
   <i type="logical" name="LGAUGE"> T  </i>
   <i type="int" name="MAGATOM">     0</i>
   <v name="MAGDIPOL">      0.00000000      0.00000000      0.00000000</v>
   <v name="AVECCONST">      0.00000000      0.00000000      0.00000000</v>
  </separator>
  <separator name="response functions" >
   <i type="logical" name="LFINITE_TEMPERATURE"> F  </i>
   <i type="logical" name="LADDER"> F  </i>
   <i type="logical" name="LRPAFORCE"> F  </i>
   <i type="logical" name="LFXC"> F  </i>
   <i type="logical" name="LHARTREE"> T  </i>
   <i type="int" name="IBSE">     0</i>
   <v type="int" name="KPOINT">    -1     0     0     0</v>
   <i type="logical" name="LTCTC"> F  </i>
   <i type="logical" name="LTCTE"> F  </i>
   <i type="logical" name="LTETE"> F  </i>
   <i type="logical" name="LTRIPLET"> F  </i>
   <i type="logical" name="LFXCEPS"> F  </i>
   <i type="logical" name="LFXHEG"> F  </i>
   <i type="int" name="NATURALO">     2</i>
   <i type="logical" name="LHOLEGF"> F  </i>
   <i type="logical" name="L2ORDER"> F  </i>
   <i type="logical" name="LDMP1"> F  </i>
   <i type="logical" name="LMP2LT"> F  </i>
   <i type="logical" name="LSMP2LT"> F  </i>
   <i type="logical" name="LGWLF"> F  </i>
   <i name="ENCUTGW">     -2.00000000</i>
   <i name="ENCUTGWSOFT">     -2.00000000</i>
   <i name="ENCUTLF">     -1.00000000</i>
   <i type="logical" name="LESF_SPLINES"> F  </i>
   <i type="int" name="LMAXMP2">    -1</i>
   <i name="SCISSOR">      0.00000000</i>
   <i type="int" name="NOMEGA">     0</i>
   <i type="int" name="NOMEGAR">     0</i>
   <i type="int" name="NBANDSGW">    -1</i>
   <i type="int" name="NBANDSO">    -1</i>
   <i type="int" name="NBANDSV">    -1</i>
   <i type="int" name="NELMGW">     1</i>
   <i type="int" name="NELMHF">     1</i>
   <i type="int" name="DIM">     3</i>
   <i type="int" name="IESPILON">     4</i>
   <i type="int" name="ANTIRES">     0</i>
   <i name="OMEGAMAX">    -30.00000000</i>
   <i name="OMEGAMIN">    -30.00000000</i>
   <i name="OMEGATL">   -200.00000000</i>
   <i type="int" name="OMEGAGRID">     0</i>
   <i name="CSHIFT">     -0.10000000</i>
   <i type="logical" name="LSELFENERGY"> F  </i>
   <i type="logical" name="LSPECTRAL"> F  </i>
   <i type="logical" name="LSPECTRALGW"> F  </i>
   <i type="logical" name="LSINGLES"> F  </i>
   <i type="logical" name="LFERMIGW"> F  </i>
   <i type="logical" name="ODDONLYGW"> F  </i>
   <i type="logical" name="EVENONLYGW"> F  </i>
   <i type="int" name="NKREDLFX">     1</i>
   <i type="int" name="NKREDLFY">     1</i>
   <i type="int" name="NKREDLFZ">     1</i>
   <i type="int" name="MAXMEM">  2800</i>
   <i type="int" name="TELESCOPE">     0</i>
   <i type="int" name="NTAUPAR">    -1</i>
   <i type="int" name="NOMEGAPAR">    -1</i>
   <i name="DAMP_NEWTON">      0.80000001</i>
   <i name="LAMBDA">      1.00000000</i>
  </separator>
  <separator name="External order field" >
   <i name="OFIELD_KAPPA">      0.00000000</i>
   <v name="OFIELD_K">      0.00000000      0.00000000      0.00000000</v>
   <i name="OFIELD_Q6_NEAR">      0.00000000</i>
   <i name="OFIELD_Q6_FAR">      0.00000000</i>
   <i name="OFIELD_A">      0.00000000</i>
  </separator>
  <separator name="optional k-points parameters" >
   <i type="int" name="KPOINTS_OPT_MODE">     1</i>
   <i type="logical" name="LKPOINTS_OPT"> F  </i>
  </separator>
 </parameters>
 <atominfo>
  <atoms>       4 </atoms>
  <types>       2 </types>
  <array name="atoms" >
   <dimension dim="1">ion</dimension>
   <field type="string">element</field>
   <field type="int">atomtype</field>
   <set>
    <rc><c>W </c><c>   1</c></rc>
    <rc><c>O </c><c>   2</c></rc>
    <rc><c>O </c><c>   2</c></rc>
    <rc><c>O </c><c>   2</c></rc>
   </set>
  </array>
  <array name="atomtypes" >
   <dimension dim="1">type</dimension>
   <field type="int">atomspertype</field>
   <field type="string">element</field>
   <field>mass</field>
   <field>valence</field>
   <field type="string">pseudopotential</field>
   <set>
    <rc><c>   1</c><c>W </c><c>    183.85000000</c><c>      6.00000000</c><c>  PAW_PBE W 08Apr2002                   </c></rc>
    <rc><c>   3</c><c>O </c><c>     16.00000000</c><c>      6.00000000</c><c>  PAW_PBE O 08Apr2002                   </c></rc>
   </set>
  </array>
 </atominfo>
 <structure name="initialpos" >
  <crystal>
   <varray name="basis" >
    <v>       3.78810744       0.00000000       0.00000000 </v>
    <v>       0.00000000       3.78810744       0.00000000 </v>
    <v>       0.00000000       0.00000000       3.78810744 </v>
   </varray>
   <i name="volume">     54.35842507 </i>
   <varray name="rec_basis" >
    <v>       0.26398406       0.00000000       0.00000000 </v>
    <v>       0.00000000       0.26398406       0.00000000 </v>
    <v>       0.00000000       0.00000000       0.26398406 </v>
   </varray>
  </crystal>
  <varray name="positions" >
   <v>       0.00000000       0.00000000       0.00000000 </v>
   <v>       0.50000000       0.00000000       0.00000000 </v>
   <v>       0.00000000       0.50000000       0.00000000 </v>
   <v>       0.00000000       0.00000000       0.50000000 </v>
  </varray>
  <varray name="selective"  type="logical" >
   <v type="logical" >  T  T  T </v>
   <v type="logical" >  T  T  T </v>
   <v type="logical" >  T  T  T </v>
   <v type="logical" >  T  T  T </v>
  </varray>
  <nose>
   <v>      -3.00000000       0.00000000       0.00010000       0.00010000 </v>
  </nose>
 </structure>
 <calculation>
  <scstep>
   <time name="dav">    0.45    0.45</time>
   <time name="total">    0.46    0.46</time>
   <energy>
    <i name="alphaZ">     84.30679046 </i>
    <i name="ewald">  -1055.08688717 </i>
    <i name="hartreedc">   -468.06851619 </i>
    <i name="XCdc">     34.16888953 </i>
    <i name="pawpsdc">   1281.51274234 </i>
    <i name="pawaedc">  -1227.77094074 </i>
    <i name="eentropy">     -0.00000000 </i>
    <i name="bandstr">   -126.22888222 </i>
    <i name="atom">   1501.67793417 </i>
    <i name="e_fr_energy">     24.51113017 </i>
    <i name="e_wo_entrp">     24.51113017 </i>
    <i name="e_0_energy">     24.51113017 </i>
   </energy>
  </scstep>
  <scstep>
   <time name="dav">    0.91    0.92</time>
   <time name="total">    0.91    0.92</time>
   <energy>
    <i name="e_fr_energy">    -45.54764824 </i>
    <i name="e_wo_entrp">    -45.54764824 </i>
    <i name="e_0_energy">    -45.54764824 </i>
   </energy>
  </scstep>
  <scstep>
   <time name="dav">    0.46    0.47</time>
   <time name="total">    0.46    0.47</time>
   <energy>
    <i name="e_fr_energy">    -45.79933598 </i>
    <i name="e_wo_entrp">    -45.79933598 </i>
    <i name="e_0_energy">    -45.79933598 </i>
   </energy>
  </scstep>
  <scstep>
   <time name="dav">    1.24    1.25</time>
   <time name="total">    1.24    1.25</time>
   <energy>
    <i name="e_fr_energy">    -45.79979320 </i>
    <i name="e_wo_entrp">    -45.79979320 </i>
    <i name="e_0_energy">    -45.79979320 </i>
   </energy>
  </scstep>
  <scstep>
   <time name="dav">    0.53    0.54</time>
   <time name="total">    0.54    0.55</time>
   <energy>
    <i name="e_fr_energy">    -45.79979321 </i>
    <i name="e_wo_entrp">    -45.79979321 </i>
    <i name="e_0_energy">    -45.79979321 </i>
   </energy>
  </scstep>
  <scstep>
   <time name="dav">    0.80    0.80</time>
   <time name="total">    0.82    0.83</time>
   <energy>
    <i name="e_fr_energy">    -36.68146785 </i>
    <i name="e_wo_entrp">    -36.68114453 </i>
    <i name="e_0_energy">    -36.68130619 </i>
   </energy>
  </scstep>
  <scstep>
   <time name="dav">    0.46    0.46</time>
   <time name="total">    0.48    0.49</time>
   <energy>
    <i name="e_fr_energy">    -36.48858649 </i>
    <i name="e_wo_entrp">    -36.48858649 </i>
    <i name="e_0_energy">    -36.48858649 </i>
   </energy>
  </scstep>
  <scstep>
   <time name="dav">    1.19    1.19</time>
   <time name="total">    1.20    1.21</time>
   <energy>
    <i name="e_fr_energy">    -36.13140632 </i>
    <i name="e_wo_entrp">    -36.12151180 </i>
    <i name="e_0_energy">    -36.12645906 </i>
   </energy>
  </scstep>
  <scstep>
   <time name="dav">    0.54    0.54</time>
   <time name="total">    0.55    0.57</time>
   <energy>
    <i name="e_fr_energy">    -36.03761522 </i>
    <i name="e_wo_entrp">    -36.03761522 </i>
    <i name="e_0_energy">    -36.03761522 </i>
   </energy>
  </scstep>
  <scstep>
   <time name="dav">    0.79    0.79</time>
   <time name="total">    0.81    0.82</time>
   <energy>
    <i name="e_fr_energy">    -36.03586276 </i>
    <i name="e_wo_entrp">    -36.03586276 </i>
    <i name="e_0_energy">    -36.03586276 </i>
   </energy>
  </scstep>
  <scstep>
   <time name="dav">    0.60    0.60</time>
   <time name="total">    0.62    0.63</time>
   <energy>
    <i name="e_fr_energy">    -36.03564458 </i>
    <i name="e_wo_entrp">    -36.03564458 </i>
    <i name="e_0_energy">    -36.03564458 </i>
   </energy>
  </scstep>
  <scstep>
   <time name="dav">    0.69    0.69</time>
   <time name="total">    0.70    0.72</time>
   <energy>
    <i name="alphaZ">     84.30679046 </i>
    <i name="ewald">  -1055.08688717 </i>
    <i name="hartreedc">   -510.68172634 </i>
    <i name="XCdc">     38.81034152 </i>
    <i name="pawpsdc">   3108.68127051 </i>
    <i name="pawaedc">  -3058.08180375 </i>
    <i name="eentropy">     -0.00000000 </i>
    <i name="bandstr">   -145.66156274 </i>
    <i name="atom">   1501.67793417 </i>
    <i name="e_fr_energy">    -36.03564334 </i>
    <i name="e_wo_entrp">    -36.03564334 </i>
    <i name="e_0_energy">    -36.03564334 </i>
   </energy>
  </scstep>
  <structure>
   <crystal>
    <varray name="basis" >
     <v>       3.78810744       0.00000000       0.00000000 </v>
     <v>       0.00000000       3.78810744       0.00000000 </v>
     <v>       0.00000000       0.00000000       3.78810744 </v>
    </varray>
    <i name="volume">     54.35842507 </i>
    <varray name="rec_basis" >
     <v>       0.26398406       0.00000000       0.00000000 </v>
     <v>       0.00000000       0.26398406       0.00000000 </v>
     <v>       0.00000000       0.00000000       0.26398406 </v>
    </varray>
   </crystal>
   <varray name="positions" >
    <v>       0.00000000       0.00000000       0.00000000 </v>
    <v>       0.50000000       0.00000000       0.00000000 </v>
    <v>       0.00000000       0.50000000       0.00000000 </v>
    <v>       0.00000000       0.00000000       0.50000000 </v>
   </varray>
  </structure>
  <varray name="forces" >
   <v>      -0.00000027      -0.00000089      -0.00000026 </v>
   <v>       0.00000042       0.00000189       0.00000214 </v>
   <v>      -0.00000034       0.00000079      -0.00000138 </v>
   <v>       0.00000019      -0.00000178      -0.00000049 </v>
  </varray>
  <varray name="stress" >
   <v>      92.83518845       0.00013300       0.00026967 </v>
   <v>       0.00013292      92.86981954      -0.00034783 </v>
   <v>       0.00026947      -0.00034790      92.84809599 </v>
  </varray>
  <energy>
   <i name="e_fr_energy">    -36.03564334 </i>
   <i name="e_wo_entrp">    -36.03564334 </i>
   <i name="e_0_energy">    -36.03564334 </i>
  </energy>
  <time name="totalsc">    9.61    9.77</time>
  <eigenvalues>
   <array>
    <dimension dim="1">band</dimension>
    <dimension dim="2">kpoint</dimension>
    <dimension dim="3">spin</dimension>
    <field>eigene</field>
    <field>occ</field>
    <set>
     <set comment="spin 1">
      <set comment="kpoint 1">
       <r>  -17.8132    1.0000 </r>
       <r>  -17.0011    1.0000 </r>
       <r>  -17.0010    1.0000 </r>
       <r>   -2.4469    1.0000 </r>
       <r>   -2.4469    1.0000 </r>
       <r>   -2.4468    1.0000 </r>
       <r>   -0.4666    1.0000 </r>
       <r>   -0.4665    1.0000 </r>
       <r>   -0.4665    1.0000 </r>
       <r>   -0.2982    1.0000 </r>
       <r>   -0.2982    1.0000 </r>
       <r>   -0.2982    1.0000 </r>
       <r>    1.1913    0.0000 </r>
       <r>    1.1913    0.0000 </r>
       <r>    1.1913    0.0000 </r>
       <r>    6.2803    0.0000 </r>
       <r>    6.2803    0.0000 </r>
       <r>    7.5726    0.0000 </r>
       <r>   15.1923    0.0000 </r>
       <r>   15.1923    0.0000 </r>
       <r>   15.2226    0.0000 </r>
       <r>   17.7208    0.0000 </r>
       <r>   17.7208    0.0000 </r>
       <r>   17.7208    0.0000 </r>
       <r>   22.7545    0.0000 </r>
       <r>   22.7545    0.0000 </r>
       <r>   22.7545    0.0000 </r>
       <r>   25.7361    0.0000 </r>
       <r>   26.3013    0.0000 </r>
       <r>   26.7936    0.0000 </r>
       <r>   26.7936    0.0000 </r>
       <r>   26.7936    0.0000 </r>
       <r>   27.8034    0.0000 </r>
       <r>   27.8034    0.0000 </r>
       <r>   27.8034    0.0000 </r>
       <r>   30.3817    0.0000 </r>
      </set>
      <set comment="kpoint 2">
       <r>  -17.6145    1.0000 </r>
       <r>  -16.9902    1.0000 </r>
       <r>  -16.5658    1.0000 </r>
       <r>   -4.4002    1.0000 </r>
       <r>   -2.5988    1.0000 </r>
       <r>   -2.5988    1.0000 </r>
       <r>   -1.6473    1.0000 </r>
       <r>   -1.6473    1.0000 </r>
       <r>   -1.3706    1.0000 </r>
       <r>   -0.6195    1.0000 </r>
       <r>   -0.3455    1.0000 </r>
       <r>   -0.3455    1.0000 </r>
       <r>    1.2187    0.0000 </r>
       <r>    3.2684    0.0000 </r>
       <r>    3.2684    0.0000 </r>
       <r>    6.2866    0.0000 </r>
       <r>    8.1462    0.0000 </r>
       <r>    8.9765    0.0000 </r>
       <r>   13.6295    0.0000 </r>
       <r>   16.0905    0.0000 </r>
       <r>   16.1596    0.0000 </r>
       <r>   17.5951    0.0000 </r>
       <r>   17.5951    0.0000 </r>
       <r>   19.9836    0.0000 </r>
       <r>   20.5821    0.0000 </r>
       <r>   20.5821    0.0000 </r>
       <r>   21.4087    0.0000 </r>
       <r>   23.5967    0.0000 </r>
       <r>   26.5175    0.0000 </r>
       <r>   26.7902    0.0000 </r>
       <r>   27.1512    0.0000 </r>
       <r>   27.1512    0.0000 </r>
       <r>   29.4675    0.0000 </r>
       <r>   29.4675    0.0000 </r>
       <r>   29.9742    0.0000 </r>
       <r>   29.9742    0.0000 </r>
      </set>
      <set comment="kpoint 3">
       <r>  -17.6145    1.0000 </r>
       <r>  -16.9903    1.0000 </r>
       <r>  -16.5656    1.0000 </r>
       <r>   -4.4001    1.0000 </r>
       <r>   -2.5988    1.0000 </r>
       <r>   -2.5988    1.0000 </r>
       <r>   -1.6473    1.0000 </r>
       <r>   -1.6473    1.0000 </r>
       <r>   -1.3706    1.0000 </r>
       <r>   -0.6196    1.0000 </r>
       <r>   -0.3456    1.0000 </r>
       <r>   -0.3456    1.0000 </r>
       <r>    1.2187    0.0000 </r>
       <r>    3.2684    0.0000 </r>
       <r>    3.2684    0.0000 </r>
       <r>    6.2866    0.0000 </r>
       <r>    8.1462    0.0000 </r>
       <r>    8.9765    0.0000 </r>
       <r>   13.6294    0.0000 </r>
       <r>   16.0905    0.0000 </r>
       <r>   16.1597    0.0000 </r>
       <r>   17.5951    0.0000 </r>
       <r>   17.5951    0.0000 </r>
       <r>   19.9836    0.0000 </r>
       <r>   20.5821    0.0000 </r>
       <r>   20.5821    0.0000 </r>
       <r>   21.4087    0.0000 </r>
       <r>   23.5967    0.0000 </r>
       <r>   26.5175    0.0000 </r>
       <r>   26.7902    0.0000 </r>
       <r>   27.1512    0.0000 </r>
       <r>   27.1512    0.0000 </r>
       <r>   29.4675    0.0000 </r>
       <r>   29.4675    0.0000 </r>
       <r>   29.9742    0.0000 </r>
       <r>   29.9742    0.0000 </r>
      </set>
      <set comment="kpoint 4">
       <r>  -17.6145    1.0000 </r>
       <r>  -16.9902    1.0000 </r>
       <r>  -16.5657    1.0000 </r>
       <r>   -4.4001    1.0000 </r>
       <r>   -2.5988    1.0000 </r>
       <r>   -2.5988    1.0000 </r>
       <r>   -1.6473    1.0000 </r>
       <r>   -1.6473    1.0000 </r>
       <r>   -1.3706    1.0000 </r>
       <r>   -0.6196    1.0000 </r>
       <r>   -0.3456    1.0000 </r>
       <r>   -0.3455    1.0000 </r>
       <r>    1.2187    0.0000 </r>
       <r>    3.2684    0.0000 </r>
       <r>    3.2684    0.0000 </r>
       <r>    6.2866    0.0000 </r>
       <r>    8.1462    0.0000 </r>
       <r>    8.9765    0.0000 </r>
       <r>   13.6295    0.0000 </r>
       <r>   16.0905    0.0000 </r>
       <r>   16.1596    0.0000 </r>
       <r>   17.5951    0.0000 </r>
       <r>   17.5951    0.0000 </r>
       <r>   19.9836    0.0000 </r>
       <r>   20.5821    0.0000 </r>
       <r>   20.5821    0.0000 </r>
       <r>   21.4087    0.0000 </r>
       <r>   23.5967    0.0000 </r>
       <r>   26.5175    0.0000 </r>
       <r>   26.7902    0.0000 </r>
       <r>   27.1512    0.0000 </r>
       <r>   27.1512    0.0000 </r>
       <r>   29.4675    0.0000 </r>
       <r>   29.4675    0.0000 </r>
       <r>   29.9742    0.0000 </r>
       <r>   29.9742    0.0000 </r>
      </set>
      <set comment="kpoint 5">
       <r>  -17.5161    1.0000 </r>
       <r>  -16.9792    1.0000 </r>
       <r>  -15.8786    1.0000 </r>
       <r>   -6.4117    1.0000 </r>
       <r>   -2.9358    1.0000 </r>
       <r>   -2.9358    1.0000 </r>
       <r>   -2.0069    1.0000 </r>
       <r>   -2.0069    1.0000 </r>
       <r>   -1.7652    1.0000 </r>
       <r>   -0.7669    1.0000 </r>
       <r>   -0.3358    1.0000 </r>
       <r>   -0.3357    1.0000 </r>
       <r>    1.2463    0.0000 </r>
       <r>    4.7742    0.0000 </r>
       <r>    4.7742    0.0000 </r>
       <r>    6.2928    0.0000 </r>
       <r>    9.3404    0.0000 </r>
       <r>   10.4578    0.0000 </r>
       <r>   12.0578    0.0000 </r>
       <r>   17.2118    0.0000 </r>
       <r>   17.6815    0.0000 </r>
       <r>   17.9108    0.0000 </r>
       <r>   17.9108    0.0000 </r>
       <r>   18.4010    0.0000 </r>
       <r>   18.4010    0.0000 </r>
       <r>   20.5723    0.0000 </r>
       <r>   22.0021    0.0000 </r>
       <r>   24.5450    0.0000 </r>
       <r>   25.0335    0.0000 </r>
       <r>   25.7285    0.0000 </r>
       <r>   26.5921    0.0000 </r>
       <r>   26.5922    0.0000 </r>
       <r>   27.2302    0.0000 </r>
       <r>   28.5991    0.0000 </r>
       <r>   28.5991    0.0000 </r>
       <r>   30.3988    0.0000 </r>
      </set>
      <set comment="kpoint 6">
       <r>  -17.5161    1.0000 </r>
       <r>  -16.9793    1.0000 </r>
       <r>  -15.8785    1.0000 </r>
       <r>   -6.4116    1.0000 </r>
       <r>   -2.9357    1.0000 </r>
       <r>   -2.9357    1.0000 </r>
       <r>   -2.0070    1.0000 </r>
       <r>   -2.0070    1.0000 </r>
       <r>   -1.7652    1.0000 </r>
       <r>   -0.7669    1.0000 </r>
       <r>   -0.3358    1.0000 </r>
       <r>   -0.3358    1.0000 </r>
       <r>    1.2463    0.0000 </r>
       <r>    4.7742    0.0000 </r>
       <r>    4.7742    0.0000 </r>
       <r>    6.2928    0.0000 </r>
       <r>    9.3404    0.0000 </r>
       <r>   10.4578    0.0000 </r>
       <r>   12.0578    0.0000 </r>
       <r>   17.2118    0.0000 </r>
       <r>   17.6815    0.0000 </r>
       <r>   17.9108    0.0000 </r>
       <r>   17.9108    0.0000 </r>
       <r>   18.4010    0.0000 </r>
       <r>   18.4010    0.0000 </r>
       <r>   20.5723    0.0000 </r>
       <r>   22.0022    0.0000 </r>
       <r>   24.5450    0.0000 </r>
       <r>   25.0334    0.0000 </r>
       <r>   25.7285    0.0000 </r>
       <r>   26.5921    0.0000 </r>
       <r>   26.5921    0.0000 </r>
       <r>   27.2302    0.0000 </r>
       <r>   28.5991    0.0000 </r>
       <r>   28.5991    0.0000 </r>
       <r>   30.3988    0.0000 </r>
      </set>
      <set comment="kpoint 7">
       <r>  -17.5161    1.0000 </r>
       <r>  -16.9792    1.0000 </r>
       <r>  -15.8786    1.0000 </r>
       <r>   -6.4117    1.0000 </r>
       <r>   -2.9358    1.0000 </r>
       <r>   -2.9358    1.0000 </r>
       <r>   -2.0070    1.0000 </r>
       <r>   -2.0069    1.0000 </r>
       <r>   -1.7652    1.0000 </r>
       <r>   -0.7669    1.0000 </r>
       <r>   -0.3358    1.0000 </r>
       <r>   -0.3358    1.0000 </r>
       <r>    1.2463    0.0000 </r>
       <r>    4.7742    0.0000 </r>
       <r>    4.7742    0.0000 </r>
       <r>    6.2928    0.0000 </r>
       <r>    9.3404    0.0000 </r>
       <r>   10.4578    0.0000 </r>
       <r>   12.0578    0.0000 </r>
       <r>   17.2118    0.0000 </r>
       <r>   17.6815    0.0000 </r>
       <r>   17.9108    0.0000 </r>
       <r>   17.9108    0.0000 </r>
       <r>   18.4010    0.0000 </r>
       <r>   18.4010    0.0000 </r>
       <r>   20.5723    0.0000 </r>
       <r>   22.0022    0.0000 </r>
       <r>   24.5450    0.0000 </r>
       <r>   25.0334    0.0000 </r>
       <r>   25.7285    0.0000 </r>
       <r>   26.5921    0.0000 </r>
       <r>   26.5922    0.0000 </r>
       <r>   27.2302    0.0000 </r>
       <r>   28.5991    0.0000 </r>
       <r>   28.5991    0.0000 </r>
       <r>   30.3988    0.0000 </r>
      </set>
      <set comment="kpoint 8">
       <r>  -17.3844    1.0000 </r>
       <r>  -16.6518    1.0000 </r>
       <r>  -16.4830    1.0000 </r>
       <r>   -4.5229    1.0000 </r>
       <r>   -4.2413    1.0000 </r>
       <r>   -3.3950    1.0000 </r>
       <r>   -2.6453    1.0000 </r>
       <r>   -2.0711    1.0000 </r>
       <r>   -1.2257    1.0000 </r>
       <r>   -1.0467    1.0000 </r>
       <r>   -0.9825    1.0000 </r>
       <r>   -0.0341    1.0000 </r>
       <r>    3.1983    0.0000 </r>
       <r>    3.3609    0.0000 </r>
       <r>    4.1404    0.0000 </r>
       <r>    7.2888    0.0000 </r>
       <r>    9.4752    0.0000 </r>
       <r>   10.0626    0.0000 </r>
       <r>   14.0953    0.0000 </r>
       <r>   14.3384    0.0000 </r>
       <r>   16.8127    0.0000 </r>
       <r>   16.9308    0.0000 </r>
       <r>   18.4981    0.0000 </r>
       <r>   19.0202    0.0000 </r>
       <r>   19.3497    0.0000 </r>
       <r>   20.5567    0.0000 </r>
       <r>   23.2850    0.0000 </r>
       <r>   24.4166    0.0000 </r>
       <r>   25.7114    0.0000 </r>
       <r>   25.8003    0.0000 </r>
       <r>   26.6605    0.0000 </r>
       <r>   27.1841    0.0000 </r>
       <r>   27.3234    0.0000 </r>
       <r>   28.1563    0.0000 </r>
       <r>   30.3585    0.0000 </r>
       <r>   30.4996    0.0000 </r>
      </set>
      <set comment="kpoint 9">
       <r>  -17.3844    1.0000 </r>
       <r>  -16.6517    1.0000 </r>
       <r>  -16.4830    1.0000 </r>
       <r>   -4.5228    1.0000 </r>
       <r>   -4.2413    1.0000 </r>
       <r>   -3.3950    1.0000 </r>
       <r>   -2.6453    1.0000 </r>
       <r>   -2.0710    1.0000 </r>
       <r>   -1.2257    1.0000 </r>
       <r>   -1.0467    1.0000 </r>
       <r>   -0.9825    1.0000 </r>
       <r>   -0.0341    1.0000 </r>
       <r>    3.1983    0.0000 </r>
       <r>    3.3609    0.0000 </r>
       <r>    4.1404    0.0000 </r>
       <r>    7.2888    0.0000 </r>
       <r>    9.4752    0.0000 </r>
       <r>   10.0626    0.0000 </r>
       <r>   14.0953    0.0000 </r>
       <r>   14.3384    0.0000 </r>
       <r>   16.8127    0.0000 </r>
       <r>   16.9308    0.0000 </r>
       <r>   18.4981    0.0000 </r>
       <r>   19.0202    0.0000 </r>
       <r>   19.3497    0.0000 </r>
       <r>   20.5567    0.0000 </r>
       <r>   23.2850    0.0000 </r>
       <r>   24.4166    0.0000 </r>
       <r>   25.7114    0.0000 </r>
       <r>   25.8003    0.0000 </r>
       <r>   26.6605    0.0000 </r>
       <r>   27.1841    0.0000 </r>
       <r>   27.3234    0.0000 </r>
       <r>   28.1563    0.0000 </r>
       <r>   30.3585    0.0000 </r>
       <r>   30.4996    0.0000 </r>
      </set>
      <set comment="kpoint 10">
       <r>  -17.3843    1.0000 </r>
       <r>  -16.6518    1.0000 </r>
       <r>  -16.4830    1.0000 </r>
       <r>   -4.5229    1.0000 </r>
       <r>   -4.2413    1.0000 </r>
       <r>   -3.3950    1.0000 </r>
       <r>   -2.6453    1.0000 </r>
       <r>   -2.0711    1.0000 </r>
       <r>   -1.2256    1.0000 </r>
       <r>   -1.0466    1.0000 </r>
       <r>   -0.9824    1.0000 </r>
       <r>   -0.0342    1.0000 </r>
       <r>    3.1983    0.0000 </r>
       <r>    3.3608    0.0000 </r>
       <r>    4.1404    0.0000 </r>
       <r>    7.2888    0.0000 </r>
       <r>    9.4752    0.0000 </r>
       <r>   10.0626    0.0000 </r>
       <r>   14.0953    0.0000 </r>
       <r>   14.3383    0.0000 </r>
       <r>   16.8127    0.0000 </r>
       <r>   16.9308    0.0000 </r>
       <r>   18.4981    0.0000 </r>
       <r>   19.0202    0.0000 </r>
       <r>   19.3497    0.0000 </r>
       <r>   20.5567    0.0000 </r>
       <r>   23.2850    0.0000 </r>
       <r>   24.4166    0.0000 </r>
       <r>   25.7114    0.0000 </r>
       <r>   25.8003    0.0000 </r>
       <r>   26.6605    0.0000 </r>
       <r>   27.1841    0.0000 </r>
       <r>   27.3234    0.0000 </r>
       <r>   28.1564    0.0000 </r>
       <r>   30.3585    0.0000 </r>
       <r>   30.4996    0.0000 </r>
      </set>
      <set comment="kpoint 11">
       <r>  -17.3844    1.0000 </r>
       <r>  -16.6518    1.0000 </r>
       <r>  -16.4830    1.0000 </r>
       <r>   -4.5229    1.0000 </r>
       <r>   -4.2413    1.0000 </r>
       <r>   -3.3950    1.0000 </r>
       <r>   -2.6453    1.0000 </r>
       <r>   -2.0711    1.0000 </r>
       <r>   -1.2257    1.0000 </r>
       <r>   -1.0467    1.0000 </r>
       <r>   -0.9825    1.0000 </r>
       <r>   -0.0341    1.0000 </r>
       <r>    3.1983    0.0000 </r>
       <r>    3.3609    0.0000 </r>
       <r>    4.1404    0.0000 </r>
       <r>    7.2888    0.0000 </r>
       <r>    9.4752    0.0000 </r>
       <r>   10.0626    0.0000 </r>
       <r>   14.0953    0.0000 </r>
       <r>   14.3384    0.0000 </r>
       <r>   16.8127    0.0000 </r>
       <r>   16.9308    0.0000 </r>
       <r>   18.4981    0.0000 </r>
       <r>   19.0202    0.0000 </r>
       <r>   19.3497    0.0000 </r>
       <r>   20.5567    0.0000 </r>
       <r>   23.2850    0.0000 </r>
       <r>   24.4166    0.0000 </r>
       <r>   25.7114    0.0000 </r>
       <r>   25.8003    0.0000 </r>
       <r>   26.6605    0.0000 </r>
       <r>   27.1841    0.0000 </r>
       <r>   27.3234    0.0000 </r>
       <r>   28.1563    0.0000 </r>
       <r>   30.3585    0.0000 </r>
       <r>   30.4996    0.0000 </r>
      </set>
      <set comment="kpoint 12">
       <r>  -17.3843    1.0000 </r>
       <r>  -16.6518    1.0000 </r>
       <r>  -16.4830    1.0000 </r>
       <r>   -4.5229    1.0000 </r>
       <r>   -4.2413    1.0000 </r>
       <r>   -3.3950    1.0000 </r>
       <r>   -2.6453    1.0000 </r>
       <r>   -2.0711    1.0000 </r>
       <r>   -1.2256    1.0000 </r>
       <r>   -1.0466    1.0000 </r>
       <r>   -0.9824    1.0000 </r>
       <r>   -0.0342    1.0000 </r>
       <r>    3.1983    0.0000 </r>
       <r>    3.3608    0.0000 </r>
       <r>    4.1404    0.0000 </r>
       <r>    7.2888    0.0000 </r>
       <r>    9.4752    0.0000 </r>
       <r>   10.0626    0.0000 </r>
       <r>   14.0953    0.0000 </r>
       <r>   14.3383    0.0000 </r>
       <r>   16.8127    0.0000 </r>
       <r>   16.9308    0.0000 </r>
       <r>   18.4981    0.0000 </r>
       <r>   19.0202    0.0000 </r>
       <r>   19.3497    0.0000 </r>
       <r>   20.5567    0.0000 </r>
       <r>   23.2850    0.0000 </r>
       <r>   24.4166    0.0000 </r>
       <r>   25.7114    0.0000 </r>
       <r>   25.8003    0.0000 </r>
       <r>   26.6605    0.0000 </r>
       <r>   27.1841    0.0000 </r>
       <r>   27.3234    0.0000 </r>
       <r>   28.1564    0.0000 </r>
       <r>   30.3585    0.0000 </r>
       <r>   30.4996    0.0000 </r>
      </set>
      <set comment="kpoint 13">
       <r>  -17.3844    1.0000 </r>
       <r>  -16.6517    1.0000 </r>
       <r>  -16.4830    1.0000 </r>
       <r>   -4.5228    1.0000 </r>
       <r>   -4.2413    1.0000 </r>
       <r>   -3.3950    1.0000 </r>
       <r>   -2.6453    1.0000 </r>
       <r>   -2.0710    1.0000 </r>
       <r>   -1.2257    1.0000 </r>
       <r>   -1.0467    1.0000 </r>
       <r>   -0.9825    1.0000 </r>
       <r>   -0.0341    1.0000 </r>
       <r>    3.1983    0.0000 </r>
       <r>    3.3609    0.0000 </r>
       <r>    4.1404    0.0000 </r>
       <r>    7.2888    0.0000 </r>
       <r>    9.4752    0.0000 </r>
       <r>   10.0626    0.0000 </r>
       <r>   14.0953    0.0000 </r>
       <r>   14.3384    0.0000 </r>
       <r>   16.8127    0.0000 </r>
       <r>   16.9308    0.0000 </r>
       <r>   18.4981    0.0000 </r>
       <r>   19.0202    0.0000 </r>
       <r>   19.3497    0.0000 </r>
       <r>   20.5567    0.0000 </r>
       <r>   23.2850    0.0000 </r>
       <r>   24.4166    0.0000 </r>
       <r>   25.7114    0.0000 </r>
       <r>   25.8003    0.0000 </r>
       <r>   26.6605    0.0000 </r>
       <r>   27.1841    0.0000 </r>
       <r>   27.3234    0.0000 </r>
       <r>   28.1563    0.0000 </r>
       <r>   30.3585    0.0000 </r>
       <r>   30.4996    0.0000 </r>
      </set>
      <set comment="kpoint 14">
       <r>  -17.2956    1.0000 </r>
       <r>  -16.5605    1.0000 </r>
       <r>  -15.8581    1.0000 </r>
       <r>   -6.4098    1.0000 </r>
       <r>   -4.2660    1.0000 </r>
       <r>   -4.2045    1.0000 </r>
       <r>   -2.9073    1.0000 </r>
       <r>   -2.3789    1.0000 </r>
       <r>   -1.3291    1.0000 </r>
       <r>   -1.2921    1.0000 </r>
       <r>   -0.9616    1.0000 </r>
       <r>    0.1326    1.0000 </r>
       <r>    3.2927    0.0000 </r>
       <r>    4.7845    0.0000 </r>
       <r>    5.3019    0.0000 </r>
       <r>    7.4843    0.0000 </r>
       <r>   10.8231    0.0000 </r>
       <r>   11.1831    0.0000 </r>
       <r>   12.6907    0.0000 </r>
       <r>   15.1344    0.0000 </r>
       <r>   16.3684    0.0000 </r>
       <r>   17.0939    0.0000 </r>
       <r>   18.0891    0.0000 </r>
       <r>   18.4415    0.0000 </r>
       <r>   18.6349    0.0000 </r>
       <r>   22.5282    0.0000 </r>
       <r>   23.0417    0.0000 </r>
       <r>   24.3219    0.0000 </r>
       <r>   24.8226    0.0000 </r>
       <r>   25.0677    0.0000 </r>
       <r>   25.7599    0.0000 </r>
       <r>   26.6524    0.0000 </r>
       <r>   27.6670    0.0000 </r>
       <r>   29.1787    0.0000 </r>
       <r>   29.7869    0.0000 </r>
       <r>   30.3399    0.0000 </r>
      </set>
      <set comment="kpoint 15">
       <r>  -17.2956    1.0000 </r>
       <r>  -16.5606    1.0000 </r>
       <r>  -15.8580    1.0000 </r>
       <r>   -6.4096    1.0000 </r>
       <r>   -4.2661    1.0000 </r>
       <r>   -4.2045    1.0000 </r>
       <r>   -2.9072    1.0000 </r>
       <r>   -2.3789    1.0000 </r>
       <r>   -1.3292    1.0000 </r>
       <r>   -1.2921    1.0000 </r>
       <r>   -0.9616    1.0000 </r>
       <r>    0.1326    1.0000 </r>
       <r>    3.2927    0.0000 </r>
       <r>    4.7845    0.0000 </r>
       <r>    5.3019    0.0000 </r>
       <r>    7.4843    0.0000 </r>
       <r>   10.8231    0.0000 </r>
       <r>   11.1831    0.0000 </r>
       <r>   12.6907    0.0000 </r>
       <r>   15.1345    0.0000 </r>
       <r>   16.3684    0.0000 </r>
       <r>   17.0939    0.0000 </r>
       <r>   18.0891    0.0000 </r>
       <r>   18.4415    0.0000 </r>
       <r>   18.6349    0.0000 </r>
       <r>   22.5282    0.0000 </r>
       <r>   23.0417    0.0000 </r>
       <r>   24.3219    0.0000 </r>
       <r>   24.8226    0.0000 </r>
       <r>   25.0677    0.0000 </r>
       <r>   25.7599    0.0000 </r>
       <r>   26.6524    0.0000 </r>
       <r>   27.6670    0.0000 </r>
       <r>   29.1788    0.0000 </r>
       <r>   29.7869    0.0000 </r>
       <r>   30.3399    0.0000 </r>
      </set>
      <set comment="kpoint 16">
       <r>  -17.2955    1.0000 </r>
       <r>  -16.5607    1.0000 </r>
       <r>  -15.8581    1.0000 </r>
       <r>   -6.4097    1.0000 </r>
       <r>   -4.2661    1.0000 </r>
       <r>   -4.2046    1.0000 </r>
       <r>   -2.9073    1.0000 </r>
       <r>   -2.3789    1.0000 </r>
       <r>   -1.3290    1.0000 </r>
       <r>   -1.2920    1.0000 </r>
       <r>   -0.9615    1.0000 </r>
       <r>    0.1325    1.0000 </r>
       <r>    3.2927    0.0000 </r>
       <r>    4.7845    0.0000 </r>
       <r>    5.3019    0.0000 </r>
       <r>    7.4843    0.0000 </r>
       <r>   10.8231    0.0000 </r>
       <r>   11.1831    0.0000 </r>
       <r>   12.6907    0.0000 </r>
       <r>   15.1345    0.0000 </r>
       <r>   16.3684    0.0000 </r>
       <r>   17.0939    0.0000 </r>
       <r>   18.0891    0.0000 </r>
       <r>   18.4415    0.0000 </r>
       <r>   18.6349    0.0000 </r>
       <r>   22.5282    0.0000 </r>
       <r>   23.0417    0.0000 </r>
       <r>   24.3219    0.0000 </r>
       <r>   24.8226    0.0000 </r>
       <r>   25.0677    0.0000 </r>
       <r>   25.7599    0.0000 </r>
       <r>   26.6524    0.0000 </r>
       <r>   27.6670    0.0000 </r>
       <r>   29.1788    0.0000 </r>
       <r>   29.7869    0.0000 </r>
       <r>   30.3399    0.0000 </r>
      </set>
      <set comment="kpoint 17">
       <r>  -17.2956    1.0000 </r>
       <r>  -16.5607    1.0000 </r>
       <r>  -15.8580    1.0000 </r>
       <r>   -6.4096    1.0000 </r>
       <r>   -4.2662    1.0000 </r>
       <r>   -4.2045    1.0000 </r>
       <r>   -2.9072    1.0000 </r>
       <r>   -2.3790    1.0000 </r>
       <r>   -1.3291    1.0000 </r>
       <r>   -1.2921    1.0000 </r>
       <r>   -0.9616    1.0000 </r>
       <r>    0.1326    1.0000 </r>
       <r>    3.2926    0.0000 </r>
       <r>    4.7845    0.0000 </r>
       <r>    5.3019    0.0000 </r>
       <r>    7.4843    0.0000 </r>
       <r>   10.8231    0.0000 </r>
       <r>   11.1831    0.0000 </r>
       <r>   12.6907    0.0000 </r>
       <r>   15.1345    0.0000 </r>
       <r>   16.3684    0.0000 </r>
       <r>   17.0939    0.0000 </r>
       <r>   18.0891    0.0000 </r>
       <r>   18.4415    0.0000 </r>
       <r>   18.6349    0.0000 </r>
       <r>   22.5282    0.0000 </r>
       <r>   23.0417    0.0000 </r>
       <r>   24.3219    0.0000 </r>
       <r>   24.8226    0.0000 </r>
       <r>   25.0677    0.0000 </r>
       <r>   25.7599    0.0000 </r>
       <r>   26.6524    0.0000 </r>
       <r>   27.6670    0.0000 </r>
       <r>   29.1788    0.0000 </r>
       <r>   29.7869    0.0000 </r>
       <r>   30.3399    0.0000 </r>
      </set>
      <set comment="kpoint 18">
       <r>  -17.2955    1.0000 </r>
       <r>  -16.5606    1.0000 </r>
       <r>  -15.8581    1.0000 </r>
       <r>   -6.4098    1.0000 </r>
       <r>   -4.2661    1.0000 </r>
       <r>   -4.2046    1.0000 </r>
       <r>   -2.9073    1.0000 </r>
       <r>   -2.3789    1.0000 </r>
       <r>   -1.3290    1.0000 </r>
       <r>   -1.2920    1.0000 </r>
       <r>   -0.9615    1.0000 </r>
       <r>    0.1326    1.0000 </r>
       <r>    3.2927    0.0000 </r>
       <r>    4.7845    0.0000 </r>
       <r>    5.3019    0.0000 </r>
       <r>    7.4843    0.0000 </r>
       <r>   10.8231    0.0000 </r>
       <r>   11.1831    0.0000 </r>
       <r>   12.6907    0.0000 </r>
       <r>   15.1345    0.0000 </r>
       <r>   16.3684    0.0000 </r>
       <r>   17.0939    0.0000 </r>
       <r>   18.0891    0.0000 </r>
       <r>   18.4415    0.0000 </r>
       <r>   18.6349    0.0000 </r>
       <r>   22.5282    0.0000 </r>
       <r>   23.0417    0.0000 </r>
       <r>   24.3219    0.0000 </r>
       <r>   24.8226    0.0000 </r>
       <r>   25.0677    0.0000 </r>
       <r>   25.7599    0.0000 </r>
       <r>   26.6524    0.0000 </r>
       <r>   27.6670    0.0000 </r>
       <r>   29.1788    0.0000 </r>
       <r>   29.7869    0.0000 </r>
       <r>   30.3399    0.0000 </r>
      </set>
      <set comment="kpoint 19">
       <r>  -17.2956    1.0000 </r>
       <r>  -16.5605    1.0000 </r>
       <r>  -15.8581    1.0000 </r>
       <r>   -6.4097    1.0000 </r>
       <r>   -4.2660    1.0000 </r>
       <r>   -4.2045    1.0000 </r>
       <r>   -2.9073    1.0000 </r>
       <r>   -2.3789    1.0000 </r>
       <r>   -1.3291    1.0000 </r>
       <r>   -1.2921    1.0000 </r>
       <r>   -0.9616    1.0000 </r>
       <r>    0.1326    1.0000 </r>
       <r>    3.2927    0.0000 </r>
       <r>    4.7845    0.0000 </r>
       <r>    5.3019    0.0000 </r>
       <r>    7.4843    0.0000 </r>
       <r>   10.8231    0.0000 </r>
       <r>   11.1831    0.0000 </r>
       <r>   12.6907    0.0000 </r>
       <r>   15.1344    0.0000 </r>
       <r>   16.3684    0.0000 </r>
       <r>   17.0939    0.0000 </r>
       <r>   18.0891    0.0000 </r>
       <r>   18.4416    0.0000 </r>
       <r>   18.6349    0.0000 </r>
       <r>   22.5282    0.0000 </r>
       <r>   23.0417    0.0000 </r>
       <r>   24.3219    0.0000 </r>
       <r>   24.8226    0.0000 </r>
       <r>   25.0677    0.0000 </r>
       <r>   25.7599    0.0000 </r>
       <r>   26.6524    0.0000 </r>
       <r>   27.6670    0.0000 </r>
       <r>   29.1788    0.0000 </r>
       <r>   29.7869    0.0000 </r>
       <r>   30.3399    0.0000 </r>
      </set>
      <set comment="kpoint 20">
       <r>  -17.2240    1.0000 </r>
       <r>  -15.8377    1.0000 </r>
       <r>  -15.8375    1.0000 </r>
       <r>   -6.5599    1.0000 </r>
       <r>   -6.1946    1.0000 </r>
       <r>   -4.8864    1.0000 </r>
       <r>   -2.8785    1.0000 </r>
       <r>   -2.8784    1.0000 </r>
       <r>   -1.5261    1.0000 </r>
       <r>   -1.2141    1.0000 </r>
       <r>   -1.2141    1.0000 </r>
       <r>    0.7091    1.0000 </r>
       <r>    4.7948    0.0000 </r>
       <r>    4.7949    0.0000 </r>
       <r>    6.1519    0.0000 </r>
       <r>    7.8043    0.0000 </r>
       <r>   11.5103    0.0000 </r>
       <r>   13.2557    0.0000 </r>
       <r>   13.2558    0.0000 </r>
       <r>   13.3824    0.0000 </r>
       <r>   15.4919    0.0000 </r>
       <r>   16.4056    0.0000 </r>
       <r>   17.5260    0.0000 </r>
       <r>   19.1544    0.0000 </r>
       <r>   19.1544    0.0000 </r>
       <r>   20.7861    0.0000 </r>
       <r>   23.6764    0.0000 </r>
       <r>   23.6764    0.0000 </r>
       <r>   24.4372    0.0000 </r>
       <r>   25.8950    0.0000 </r>
       <r>   26.4925    0.0000 </r>
       <r>   28.1818    0.0000 </r>
       <r>   28.1818    0.0000 </r>
       <r>   30.0744    0.0000 </r>
       <r>   30.3221    0.0000 </r>
       <r>   31.6589    0.0000 </r>
      </set>
      <set comment="kpoint 21">
       <r>  -17.2241    1.0000 </r>
       <r>  -15.8376    1.0000 </r>
       <r>  -15.8375    1.0000 </r>
       <r>   -6.5599    1.0000 </r>
       <r>   -6.1945    1.0000 </r>
       <r>   -4.8864    1.0000 </r>
       <r>   -2.8784    1.0000 </r>
       <r>   -2.8784    1.0000 </r>
       <r>   -1.5261    1.0000 </r>
       <r>   -1.2141    1.0000 </r>
       <r>   -1.2141    1.0000 </r>
       <r>    0.7091    1.0000 </r>
       <r>    4.7948    0.0000 </r>
       <r>    4.7949    0.0000 </r>
       <r>    6.1519    0.0000 </r>
       <r>    7.8043    0.0000 </r>
       <r>   11.5103    0.0000 </r>
       <r>   13.2557    0.0000 </r>
       <r>   13.2558    0.0000 </r>
       <r>   13.3824    0.0000 </r>
       <r>   15.4919    0.0000 </r>
       <r>   16.4056    0.0000 </r>
       <r>   17.5260    0.0000 </r>
       <r>   19.1544    0.0000 </r>
       <r>   19.1544    0.0000 </r>
       <r>   20.7861    0.0000 </r>
       <r>   23.6764    0.0000 </r>
       <r>   23.6764    0.0000 </r>
       <r>   24.4372    0.0000 </r>
       <r>   25.8950    0.0000 </r>
       <r>   26.4925    0.0000 </r>
       <r>   28.1818    0.0000 </r>
       <r>   28.1818    0.0000 </r>
       <r>   30.0744    0.0000 </r>
       <r>   30.3221    0.0000 </r>
       <r>   31.6589    0.0000 </r>
      </set>
      <set comment="kpoint 22">
       <r>  -17.2239    1.0000 </r>
       <r>  -15.8377    1.0000 </r>
       <r>  -15.8376    1.0000 </r>
       <r>   -6.5599    1.0000 </r>
       <r>   -6.1946    1.0000 </r>
       <r>   -4.8865    1.0000 </r>
       <r>   -2.8785    1.0000 </r>
       <r>   -2.8784    1.0000 </r>
       <r>   -1.5260    1.0000 </r>
       <r>   -1.2140    1.0000 </r>
       <r>   -1.2140    1.0000 </r>
       <r>    0.7090    1.0000 </r>
       <r>    4.7948    0.0000 </r>
       <r>    4.7948    0.0000 </r>
       <r>    6.1519    0.0000 </r>
       <r>    7.8043    0.0000 </r>
       <r>   11.5103    0.0000 </r>
       <r>   13.2558    0.0000 </r>
       <r>   13.2558    0.0000 </r>
       <r>   13.3824    0.0000 </r>
       <r>   15.4919    0.0000 </r>
       <r>   16.4056    0.0000 </r>
       <r>   17.5260    0.0000 </r>
       <r>   19.1544    0.0000 </r>
       <r>   19.1544    0.0000 </r>
       <r>   20.7861    0.0000 </r>
       <r>   23.6764    0.0000 </r>
       <r>   23.6764    0.0000 </r>
       <r>   24.4372    0.0000 </r>
       <r>   25.8950    0.0000 </r>
       <r>   26.4925    0.0000 </r>
       <r>   28.1818    0.0000 </r>
       <r>   28.1818    0.0000 </r>
       <r>   30.0744    0.0000 </r>
       <r>   30.3221    0.0000 </r>
       <r>   31.6589    0.0000 </r>
      </set>
      <set comment="kpoint 23">
       <r>  -16.9258    1.0000 </r>
       <r>  -16.4689    1.0000 </r>
       <r>  -16.4688    1.0000 </r>
       <r>   -4.5010    1.0000 </r>
       <r>   -4.5009    1.0000 </r>
       <r>   -4.1098    1.0000 </r>
       <r>   -3.3666    1.0000 </r>
       <r>   -3.3665    1.0000 </r>
       <r>   -3.3014    1.0000 </r>
       <r>   -0.1999    1.0000 </r>
       <r>   -0.1999    1.0000 </r>
       <r>    0.0932    1.0000 </r>
       <r>    3.9617    0.0000 </r>
       <r>    4.2478    0.0000 </r>
       <r>    4.2478    0.0000 </r>
       <r>   10.0088    0.0000 </r>
       <r>   10.0572    0.0000 </r>
       <r>   10.0573    0.0000 </r>
       <r>   13.9278    0.0000 </r>
       <r>   14.7127    0.0000 </r>
       <r>   14.7127    0.0000 </r>
       <r>   17.2643    0.0000 </r>
       <r>   18.8077    0.0000 </r>
       <r>   18.8078    0.0000 </r>
       <r>   20.6495    0.0000 </r>
       <r>   21.2312    0.0000 </r>
       <r>   21.2313    0.0000 </r>
       <r>   23.0700    0.0000 </r>
       <r>   24.8177    0.0000 </r>
       <r>   26.2294    0.0000 </r>
       <r>   27.4125    0.0000 </r>
       <r>   27.4125    0.0000 </r>
       <r>   28.1308    0.0000 </r>
       <r>   28.1308    0.0000 </r>
       <r>   30.1414    0.0000 </r>
       <r>   30.4943    0.0000 </r>
      </set>
      <set comment="kpoint 24">
       <r>  -16.9258    1.0000 </r>
       <r>  -16.4689    1.0000 </r>
       <r>  -16.4688    1.0000 </r>
       <r>   -4.5010    1.0000 </r>
       <r>   -4.5009    1.0000 </r>
       <r>   -4.1098    1.0000 </r>
       <r>   -3.3666    1.0000 </r>
       <r>   -3.3665    1.0000 </r>
       <r>   -3.3014    1.0000 </r>
       <r>   -0.1999    1.0000 </r>
       <r>   -0.1999    1.0000 </r>
       <r>    0.0932    1.0000 </r>
       <r>    3.9617    0.0000 </r>
       <r>    4.2478    0.0000 </r>
       <r>    4.2478    0.0000 </r>
       <r>   10.0088    0.0000 </r>
       <r>   10.0572    0.0000 </r>
       <r>   10.0573    0.0000 </r>
       <r>   13.9277    0.0000 </r>
       <r>   14.7127    0.0000 </r>
       <r>   14.7127    0.0000 </r>
       <r>   17.2643    0.0000 </r>
       <r>   18.8077    0.0000 </r>
       <r>   18.8078    0.0000 </r>
       <r>   20.6495    0.0000 </r>
       <r>   21.2312    0.0000 </r>
       <r>   21.2313    0.0000 </r>
       <r>   23.0700    0.0000 </r>
       <r>   24.8177    0.0000 </r>
       <r>   26.2294    0.0000 </r>
       <r>   27.4125    0.0000 </r>
       <r>   27.4125    0.0000 </r>
       <r>   28.1308    0.0000 </r>
       <r>   28.1308    0.0000 </r>
       <r>   30.1414    0.0000 </r>
       <r>   30.4943    0.0000 </r>
      </set>
      <set comment="kpoint 25">
       <r>  -16.9258    1.0000 </r>
       <r>  -16.4689    1.0000 </r>
       <r>  -16.4688    1.0000 </r>
       <r>   -4.5010    1.0000 </r>
       <r>   -4.5009    1.0000 </r>
       <r>   -4.1098    1.0000 </r>
       <r>   -3.3666    1.0000 </r>
       <r>   -3.3665    1.0000 </r>
       <r>   -3.3014    1.0000 </r>
       <r>   -0.1999    1.0000 </r>
       <r>   -0.1999    1.0000 </r>
       <r>    0.0932    1.0000 </r>
       <r>    3.9617    0.0000 </r>
       <r>    4.2478    0.0000 </r>
       <r>    4.2478    0.0000 </r>
       <r>   10.0088    0.0000 </r>
       <r>   10.0572    0.0000 </r>
       <r>   10.0573    0.0000 </r>
       <r>   13.9277    0.0000 </r>
       <r>   14.7127    0.0000 </r>
       <r>   14.7127    0.0000 </r>
       <r>   17.2643    0.0000 </r>
       <r>   18.8077    0.0000 </r>
       <r>   18.8078    0.0000 </r>
       <r>   20.6495    0.0000 </r>
       <r>   21.2312    0.0000 </r>
       <r>   21.2313    0.0000 </r>
       <r>   23.0700    0.0000 </r>
       <r>   24.8177    0.0000 </r>
       <r>   26.2294    0.0000 </r>
       <r>   27.4125    0.0000 </r>
       <r>   27.4125    0.0000 </r>
       <r>   28.1308    0.0000 </r>
       <r>   28.1308    0.0000 </r>
       <r>   30.1414    0.0000 </r>
       <r>   30.4943    0.0000 </r>
      </set>
      <set comment="kpoint 26">
       <r>  -16.9258    1.0000 </r>
       <r>  -16.4689    1.0000 </r>
       <r>  -16.4688    1.0000 </r>
       <r>   -4.5010    1.0000 </r>
       <r>   -4.5009    1.0000 </r>
       <r>   -4.1098    1.0000 </r>
       <r>   -3.3666    1.0000 </r>
       <r>   -3.3665    1.0000 </r>
       <r>   -3.3014    1.0000 </r>
       <r>   -0.1999    1.0000 </r>
       <r>   -0.1999    1.0000 </r>
       <r>    0.0932    1.0000 </r>
       <r>    3.9617    0.0000 </r>
       <r>    4.2478    0.0000 </r>
       <r>    4.2478    0.0000 </r>
       <r>   10.0088    0.0000 </r>
       <r>   10.0572    0.0000 </r>
       <r>   10.0573    0.0000 </r>
       <r>   13.9277    0.0000 </r>
       <r>   14.7127    0.0000 </r>
       <r>   14.7127    0.0000 </r>
       <r>   17.2643    0.0000 </r>
       <r>   18.8077    0.0000 </r>
       <r>   18.8078    0.0000 </r>
       <r>   20.6495    0.0000 </r>
       <r>   21.2312    0.0000 </r>
       <r>   21.2313    0.0000 </r>
       <r>   23.0700    0.0000 </r>
       <r>   24.8177    0.0000 </r>
       <r>   26.2294    0.0000 </r>
       <r>   27.4125    0.0000 </r>
       <r>   27.4125    0.0000 </r>
       <r>   28.1308    0.0000 </r>
       <r>   28.1308    0.0000 </r>
       <r>   30.1414    0.0000 </r>
       <r>   30.4943    0.0000 </r>
      </set>
      <set comment="kpoint 27">
       <r>  -16.7581    1.0000 </r>
       <r>  -16.4543    1.0000 </r>
       <r>  -15.8387    1.0000 </r>
       <r>   -6.4076    1.0000 </r>
       <r>   -4.4406    1.0000 </r>
       <r>   -4.2211    1.0000 </r>
       <r>   -4.0855    1.0000 </r>
       <r>   -4.0601    1.0000 </r>
       <r>   -3.3137    1.0000 </r>
       <r>   -0.0943    1.0000 </r>
       <r>   -0.0814    1.0000 </r>
       <r>    0.2499    1.0000 </r>
       <r>    4.1655    0.0000 </r>
       <r>    5.2375    0.0000 </r>
       <r>    5.3912    0.0000 </r>
       <r>   10.0407    0.0000 </r>
       <r>   10.7590    0.0000 </r>
       <r>   11.6842    0.0000 </r>
       <r>   13.1668    0.0000 </r>
       <r>   14.1757    0.0000 </r>
       <r>   16.1013    0.0000 </r>
       <r>   16.5654    0.0000 </r>
       <r>   17.5473    0.0000 </r>
       <r>   18.8543    0.0000 </r>
       <r>   19.4442    0.0000 </r>
       <r>   20.9684    0.0000 </r>
       <r>   23.3387    0.0000 </r>
       <r>   24.0164    0.0000 </r>
       <r>   24.2365    0.0000 </r>
       <r>   25.0890    0.0000 </r>
       <r>   26.2474    0.0000 </r>
       <r>   27.4500    0.0000 </r>
       <r>   27.7429    0.0000 </r>
       <r>   29.7335    0.0000 </r>
       <r>   29.9116    0.0000 </r>
       <r>   30.4947    0.0000 </r>
      </set>
      <set comment="kpoint 28">
       <r>  -16.7582    1.0000 </r>
       <r>  -16.4544    1.0000 </r>
       <r>  -15.8385    1.0000 </r>
       <r>   -6.4075    1.0000 </r>
       <r>   -4.4406    1.0000 </r>
       <r>   -4.2211    1.0000 </r>
       <r>   -4.0855    1.0000 </r>
       <r>   -4.0601    1.0000 </r>
       <r>   -3.3138    1.0000 </r>
       <r>   -0.0944    1.0000 </r>
       <r>   -0.0814    1.0000 </r>
       <r>    0.2499    1.0000 </r>
       <r>    4.1655    0.0000 </r>
       <r>    5.2376    0.0000 </r>
       <r>    5.3913    0.0000 </r>
       <r>   10.0407    0.0000 </r>
       <r>   10.7590    0.0000 </r>
       <r>   11.6842    0.0000 </r>
       <r>   13.1668    0.0000 </r>
       <r>   14.1757    0.0000 </r>
       <r>   16.1013    0.0000 </r>
       <r>   16.5654    0.0000 </r>
       <r>   17.5473    0.0000 </r>
       <r>   18.8543    0.0000 </r>
       <r>   19.4442    0.0000 </r>
       <r>   20.9684    0.0000 </r>
       <r>   23.3386    0.0000 </r>
       <r>   24.0164    0.0000 </r>
       <r>   24.2365    0.0000 </r>
       <r>   25.0890    0.0000 </r>
       <r>   26.2474    0.0000 </r>
       <r>   27.4500    0.0000 </r>
       <r>   27.7429    0.0000 </r>
       <r>   29.7335    0.0000 </r>
       <r>   29.9115    0.0000 </r>
       <r>   30.4947    0.0000 </r>
      </set>
      <set comment="kpoint 29">
       <r>  -16.7582    1.0000 </r>
       <r>  -16.4543    1.0000 </r>
       <r>  -15.8386    1.0000 </r>
       <r>   -6.4075    1.0000 </r>
       <r>   -4.4406    1.0000 </r>
       <r>   -4.2211    1.0000 </r>
       <r>   -4.0855    1.0000 </r>
       <r>   -4.0601    1.0000 </r>
       <r>   -3.3137    1.0000 </r>
       <r>   -0.0943    1.0000 </r>
       <r>   -0.0814    1.0000 </r>
       <r>    0.2499    1.0000 </r>
       <r>    4.1655    0.0000 </r>
       <r>    5.2375    0.0000 </r>
       <r>    5.3913    0.0000 </r>
       <r>   10.0407    0.0000 </r>
       <r>   10.7590    0.0000 </r>
       <r>   11.6842    0.0000 </r>
       <r>   13.1668    0.0000 </r>
       <r>   14.1757    0.0000 </r>
       <r>   16.1013    0.0000 </r>
       <r>   16.5654    0.0000 </r>
       <r>   17.5473    0.0000 </r>
       <r>   18.8543    0.0000 </r>
       <r>   19.4442    0.0000 </r>
       <r>   20.9684    0.0000 </r>
       <r>   23.3387    0.0000 </r>
       <r>   24.0164    0.0000 </r>
       <r>   24.2365    0.0000 </r>
       <r>   25.0890    0.0000 </r>
       <r>   26.2474    0.0000 </r>
       <r>   27.4500    0.0000 </r>
       <r>   27.7429    0.0000 </r>
       <r>   29.7335    0.0000 </r>
       <r>   29.9115    0.0000 </r>
       <r>   30.4947    0.0000 </r>
      </set>
      <set comment="kpoint 30">
       <r>  -16.7582    1.0000 </r>
       <r>  -16.4544    1.0000 </r>
       <r>  -15.8385    1.0000 </r>
       <r>   -6.4075    1.0000 </r>
       <r>   -4.4406    1.0000 </r>
       <r>   -4.2211    1.0000 </r>
       <r>   -4.0855    1.0000 </r>
       <r>   -4.0601    1.0000 </r>
       <r>   -3.3138    1.0000 </r>
       <r>   -0.0944    1.0000 </r>
       <r>   -0.0814    1.0000 </r>
       <r>    0.2499    1.0000 </r>
       <r>    4.1655    0.0000 </r>
       <r>    5.2376    0.0000 </r>
       <r>    5.3913    0.0000 </r>
       <r>   10.0407    0.0000 </r>
       <r>   10.7590    0.0000 </r>
       <r>   11.6842    0.0000 </r>
       <r>   13.1668    0.0000 </r>
       <r>   14.1757    0.0000 </r>
       <r>   16.1013    0.0000 </r>
       <r>   16.5654    0.0000 </r>
       <r>   17.5473    0.0000 </r>
       <r>   18.8543    0.0000 </r>
       <r>   19.4442    0.0000 </r>
       <r>   20.9684    0.0000 </r>
       <r>   23.3386    0.0000 </r>
       <r>   24.0164    0.0000 </r>
       <r>   24.2365    0.0000 </r>
       <r>   25.0890    0.0000 </r>
       <r>   26.2474    0.0000 </r>
       <r>   27.4500    0.0000 </r>
       <r>   27.7429    0.0000 </r>
       <r>   29.7335    0.0000 </r>
       <r>   29.9115    0.0000 </r>
       <r>   30.4947    0.0000 </r>
      </set>
      <set comment="kpoint 31">
       <r>  -16.7582    1.0000 </r>
       <r>  -16.4543    1.0000 </r>
       <r>  -15.8386    1.0000 </r>
       <r>   -6.4075    1.0000 </r>
       <r>   -4.4406    1.0000 </r>
       <r>   -4.2211    1.0000 </r>
       <r>   -4.0855    1.0000 </r>
       <r>   -4.0601    1.0000 </r>
       <r>   -3.3137    1.0000 </r>
       <r>   -0.0943    1.0000 </r>
       <r>   -0.0814    1.0000 </r>
       <r>    0.2499    1.0000 </r>
       <r>    4.1655    0.0000 </r>
       <r>    5.2375    0.0000 </r>
       <r>    5.3913    0.0000 </r>
       <r>   10.0407    0.0000 </r>
       <r>   10.7590    0.0000 </r>
       <r>   11.6842    0.0000 </r>
       <r>   13.1668    0.0000 </r>
       <r>   14.1757    0.0000 </r>
       <r>   16.1013    0.0000 </r>
       <r>   16.5654    0.0000 </r>
       <r>   17.5473    0.0000 </r>
       <r>   18.8543    0.0000 </r>
       <r>   19.4442    0.0000 </r>
       <r>   20.9684    0.0000 </r>
       <r>   23.3387    0.0000 </r>
       <r>   24.0164    0.0000 </r>
       <r>   24.2365    0.0000 </r>
       <r>   25.0890    0.0000 </r>
       <r>   26.2474    0.0000 </r>
       <r>   27.4500    0.0000 </r>
       <r>   27.7429    0.0000 </r>
       <r>   29.7335    0.0000 </r>
       <r>   29.9115    0.0000 </r>
       <r>   30.4947    0.0000 </r>
      </set>
      <set comment="kpoint 32">
       <r>  -16.7581    1.0000 </r>
       <r>  -16.4543    1.0000 </r>
       <r>  -15.8387    1.0000 </r>
       <r>   -6.4076    1.0000 </r>
       <r>   -4.4406    1.0000 </r>
       <r>   -4.2211    1.0000 </r>
       <r>   -4.0855    1.0000 </r>
       <r>   -4.0601    1.0000 </r>
       <r>   -3.3137    1.0000 </r>
       <r>   -0.0943    1.0000 </r>
       <r>   -0.0814    1.0000 </r>
       <r>    0.2499    1.0000 </r>
       <r>    4.1655    0.0000 </r>
       <r>    5.2375    0.0000 </r>
       <r>    5.3912    0.0000 </r>
       <r>   10.0407    0.0000 </r>
       <r>   10.7590    0.0000 </r>
       <r>   11.6842    0.0000 </r>
       <r>   13.1668    0.0000 </r>
       <r>   14.1757    0.0000 </r>
       <r>   16.1013    0.0000 </r>
       <r>   16.5654    0.0000 </r>
       <r>   17.5473    0.0000 </r>
       <r>   18.8543    0.0000 </r>
       <r>   19.4442    0.0000 </r>
       <r>   20.9684    0.0000 </r>
       <r>   23.3387    0.0000 </r>
       <r>   24.0164    0.0000 </r>
       <r>   24.2365    0.0000 </r>
       <r>   25.0890    0.0000 </r>
       <r>   26.2474    0.0000 </r>
       <r>   27.4500    0.0000 </r>
       <r>   27.7429    0.0000 </r>
       <r>   29.7335    0.0000 </r>
       <r>   29.9116    0.0000 </r>
       <r>   30.4947    0.0000 </r>
      </set>
      <set comment="kpoint 33">
       <r>  -16.5921    1.0000 </r>
       <r>  -15.8191    1.0000 </r>
       <r>  -15.8190    1.0000 </r>
       <r>   -6.5528    1.0000 </r>
       <r>   -6.2054    1.0000 </r>
       <r>   -4.8370    1.0000 </r>
       <r>   -4.1319    1.0000 </r>
       <r>   -4.1071    1.0000 </r>
       <r>   -4.1070    1.0000 </r>
       <r>    0.0935    1.0000 </r>
       <r>    0.0935    1.0000 </r>
       <r>    0.7149    1.0000 </r>
       <r>    5.3258    0.0000 </r>
       <r>    5.3259    0.0000 </r>
       <r>    6.1640    0.0000 </r>
       <r>   10.5947    0.0000 </r>
       <r>   10.8201    0.0000 </r>
       <r>   13.3897    0.0000 </r>
       <r>   13.7793    0.0000 </r>
       <r>   13.7794    0.0000 </r>
       <r>   15.4901    0.0000 </r>
       <r>   15.7616    0.0000 </r>
       <r>   18.0143    0.0000 </r>
       <r>   18.0144    0.0000 </r>
       <r>   18.0372    0.0000 </r>
       <r>   22.6317    0.0000 </r>
       <r>   22.6317    0.0000 </r>
       <r>   23.1819    0.0000 </r>
       <r>   23.2423    0.0000 </r>
       <r>   26.2007    0.0000 </r>
       <r>   28.1484    0.0000 </r>
       <r>   28.4967    0.0000 </r>
       <r>   28.4967    0.0000 </r>
       <r>   29.6797    0.0000 </r>
       <r>   30.2779    0.0000 </r>
       <r>   30.8905    0.0000 </r>
      </set>
      <set comment="kpoint 34">
       <r>  -16.5922    1.0000 </r>
       <r>  -15.8190    1.0000 </r>
       <r>  -15.8190    1.0000 </r>
       <r>   -6.5528    1.0000 </r>
       <r>   -6.2054    1.0000 </r>
       <r>   -4.8370    1.0000 </r>
       <r>   -4.1319    1.0000 </r>
       <r>   -4.1070    1.0000 </r>
       <r>   -4.1070    1.0000 </r>
       <r>    0.0935    1.0000 </r>
       <r>    0.0935    1.0000 </r>
       <r>    0.7150    1.0000 </r>
       <r>    5.3258    0.0000 </r>
       <r>    5.3259    0.0000 </r>
       <r>    6.1641    0.0000 </r>
       <r>   10.5947    0.0000 </r>
       <r>   10.8200    0.0000 </r>
       <r>   13.3897    0.0000 </r>
       <r>   13.7793    0.0000 </r>
       <r>   13.7793    0.0000 </r>
       <r>   15.4901    0.0000 </r>
       <r>   15.7616    0.0000 </r>
       <r>   18.0143    0.0000 </r>
       <r>   18.0143    0.0000 </r>
       <r>   18.0372    0.0000 </r>
       <r>   22.6317    0.0000 </r>
       <r>   22.6317    0.0000 </r>
       <r>   23.1819    0.0000 </r>
       <r>   23.2423    0.0000 </r>
       <r>   26.2007    0.0000 </r>
       <r>   28.1484    0.0000 </r>
       <r>   28.4967    0.0000 </r>
       <r>   28.4967    0.0000 </r>
       <r>   29.6797    0.0000 </r>
       <r>   30.2779    0.0000 </r>
       <r>   30.8905    0.0000 </r>
      </set>
      <set comment="kpoint 35">
       <r>  -16.5921    1.0000 </r>
       <r>  -15.8191    1.0000 </r>
       <r>  -15.8190    1.0000 </r>
       <r>   -6.5529    1.0000 </r>
       <r>   -6.2055    1.0000 </r>
       <r>   -4.8371    1.0000 </r>
       <r>   -4.1318    1.0000 </r>
       <r>   -4.1070    1.0000 </r>
       <r>   -4.1070    1.0000 </r>
       <r>    0.0935    1.0000 </r>
       <r>    0.0936    1.0000 </r>
       <r>    0.7149    1.0000 </r>
       <r>    5.3258    0.0000 </r>
       <r>    5.3259    0.0000 </r>
       <r>    6.1640    0.0000 </r>
       <r>   10.5947    0.0000 </r>
       <r>   10.8201    0.0000 </r>
       <r>   13.3897    0.0000 </r>
       <r>   13.7793    0.0000 </r>
       <r>   13.7794    0.0000 </r>
       <r>   15.4901    0.0000 </r>
       <r>   15.7616    0.0000 </r>
       <r>   18.0143    0.0000 </r>
       <r>   18.0143    0.0000 </r>
       <r>   18.0372    0.0000 </r>
       <r>   22.6317    0.0000 </r>
       <r>   22.6317    0.0000 </r>
       <r>   23.1819    0.0000 </r>
       <r>   23.2423    0.0000 </r>
       <r>   26.2007    0.0000 </r>
       <r>   28.1484    0.0000 </r>
       <r>   28.4967    0.0000 </r>
       <r>   28.4967    0.0000 </r>
       <r>   29.6797    0.0000 </r>
       <r>   30.2779    0.0000 </r>
       <r>   30.8905    0.0000 </r>
      </set>
      <set comment="kpoint 36">
       <r>  -15.7998    1.0000 </r>
       <r>  -15.7997    1.0000 </r>
       <r>  -15.7996    1.0000 </r>
       <r>   -6.5457    1.0000 </r>
       <r>   -6.5457    1.0000 </r>
       <r>   -5.9293    1.0000 </r>
       <r>   -4.7865    1.0000 </r>
       <r>   -4.7865    1.0000 </r>
       <r>   -4.7865    1.0000 </r>
       <r>    0.7208    1.0000 </r>
       <r>    0.7209    1.0000 </r>
       <r>    0.7209    1.0000 </r>
       <r>    6.1769    0.0000 </r>
       <r>    6.1769    0.0000 </r>
       <r>    6.1770    0.0000 </r>
       <r>    9.8939    0.0000 </r>
       <r>   13.3988    0.0000 </r>
       <r>   13.3988    0.0000 </r>
       <r>   14.7708    0.0000 </r>
       <r>   14.7708    0.0000 </r>
       <r>   14.7708    0.0000 </r>
       <r>   15.9295    0.0000 </r>
       <r>   15.9295    0.0000 </r>
       <r>   15.9295    0.0000 </r>
       <r>   18.4185    0.0000 </r>
       <r>   22.2393    0.0000 </r>
       <r>   22.2393    0.0000 </r>
       <r>   22.2393    0.0000 </r>
       <r>   26.6161    0.0000 </r>
       <r>   28.8277    0.0000 </r>
       <r>   28.8277    0.0000 </r>
       <r>   28.9723    0.0000 </r>
       <r>   28.9723    0.0000 </r>
       <r>   28.9723    0.0000 </r>
       <r>   29.7421    0.0000 </r>
       <r>   29.7421    0.0000 </r>
      </set>
     </set>
    </set>
   </array>
  </eigenvalues>
  <separator name="orbital magnetization" >
   <v name="MAGDIPOLOUT">      0.00000000      0.00000000      0.00000000</v>
  </separator>
  <dielectricfunction comment="density-density">
   <imag>
    <array>
     <dimension dim="1">gridpoints</dimension>
     <field>energy</field>
     <field>xx</field>
     <field>yy</field>
     <field>zz</field>
     <field>xy</field>
     <field>yz</field>
     <field>zx</field>
     <set>
      <r>     0.0000     0.0000     0.0000     0.0000     0.0000     0.0000     0.0000 </r>
      <r>     0.0198     0.0227     0.0227     0.0227    -0.0004     0.0010    -0.0004 </r>
      <r>     0.0396     0.0454     0.0454     0.0454    -0.0007     0.0018    -0.0007 </r>
      <r>     0.0594     0.0682     0.0682     0.0682    -0.0009     0.0023    -0.0009 </r>
      <r>     0.0792     0.0911     0.0911     0.0911    -0.0010     0.0025    -0.0010 </r>
      <r>     0.0990     0.1142     0.1142     0.1142    -0.0010     0.0026    -0.0010 </r>
      <r>     0.1188     0.1375     0.1375     0.1375    -0.0010     0.0025    -0.0010 </r>
      <r>     0.1386     0.1610     0.1611     0.1610    -0.0009     0.0024    -0.0010 </r>
      <r>     0.1584     0.1849     0.1849     0.1849    -0.0009     0.0023    -0.0009 </r>
      <r>     0.1782     0.2091     0.2092     0.2091    -0.0008     0.0022    -0.0009 </r>
      <r>     0.1980     0.2337     0.2338     0.2337    -0.0008     0.0021    -0.0008 </r>
      <r>     0.2177     0.2588     0.2588     0.2588    -0.0007     0.0020    -0.0008 </r>
      <r>     0.2375     0.2843     0.2844     0.2844    -0.0007     0.0018    -0.0007 </r>
      <r>     0.2573     0.3104     0.3105     0.3105    -0.0007     0.0017    -0.0007 </r>
      <r>     0.2771     0.3372     0.3373     0.3372    -0.0006     0.0016    -0.0006 </r>
      <r>     0.2969     0.3646     0.3647     0.3647    -0.0006     0.0016    -0.0006 </r>
      <r>     0.3167     0.3928     0.3929     0.3928    -0.0006     0.0015    -0.0006 </r>
      <r>     0.3365     0.4218     0.4219     0.4218    -0.0005     0.0014    -0.0006 </r>
      <r>     0.3563     0.4517     0.4518     0.4517    -0.0005     0.0013    -0.0005 </r>
      <r>     0.3761     0.4825     0.4827     0.4826    -0.0005     0.0013    -0.0005 </r>
      <r>     0.3959     0.5144     0.5146     0.5145    -0.0005     0.0012    -0.0005 </r>
      <r>     0.4157     0.5475     0.5477     0.5475    -0.0004     0.0012    -0.0005 </r>
      <r>     0.4355     0.5818     0.5820     0.5819    -0.0004     0.0011    -0.0004 </r>
      <r>     0.4553     0.6174     0.6176     0.6175    -0.0004     0.0011    -0.0004 </r>
      <r>     0.4751     0.6546     0.6548     0.6547    -0.0004     0.0010    -0.0004 </r>
      <r>     0.4949     0.6933     0.6935     0.6934    -0.0004     0.0010    -0.0004 </r>
      <r>     0.5147     0.7337     0.7340     0.7338    -0.0004     0.0010    -0.0004 </r>
      <r>     0.5345     0.7761     0.7763     0.7762    -0.0004     0.0009    -0.0004 </r>
      <r>     0.5543     0.8204     0.8207     0.8206    -0.0003     0.0009    -0.0004 </r>
      <r>     0.5741     0.8670     0.8673     0.8671    -0.0003     0.0009    -0.0003 </r>
      <r>     0.5939     0.9160     0.9164     0.9162    -0.0003     0.0008    -0.0003 </r>
      <r>     0.6137     0.9677     0.9680     0.9678    -0.0003     0.0008    -0.0003 </r>
      <r>     0.6335     1.0222     1.0225     1.0223    -0.0003     0.0008    -0.0003 </r>
      <r>     0.6532     1.0798     1.0802     1.0799    -0.0003     0.0008    -0.0003 </r>
      <r>     0.6730     1.1408     1.1412     1.1410    -0.0003     0.0007    -0.0003 </r>
      <r>     0.6928     1.2056     1.2060     1.2057    -0.0003     0.0007    -0.0003 </r>
      <r>     0.7126     1.2744     1.2749     1.2746    -0.0003     0.0007    -0.0003 </r>
      <r>     0.7324     1.3478     1.3483     1.3480    -0.0003     0.0007    -0.0003 </r>
      <r>     0.7522     1.4261     1.4266     1.4263    -0.0003     0.0007    -0.0003 </r>
      <r>     0.7720     1.5099     1.5104     1.5101    -0.0002     0.0007    -0.0003 </r>
[...]
       <r>    27.2189     5.2357    62.5269 </r>
       <r>    27.2371     3.5490    62.5913 </r>
       <r>    27.2552     2.4041    62.6349 </r>
       <r>    27.2733     2.0991    62.6730 </r>
       <r>    27.2915     2.6398    62.7209 </r>
       <r>    27.3096     3.6296    62.7868 </r>
       <r>    27.3278     4.3859    62.8664 </r>
       <r>    27.3459     4.5328    62.9486 </r>
       <r>    27.3641     4.4844    63.0300 </r>
       <r>    27.3822     5.0466    63.1216 </r>
       <r>    27.4004     6.4540    63.2387 </r>
       <r>    27.4185     7.9879    63.3836 </r>
       <r>    27.4367     8.6014    63.5397 </r>
       <r>    27.4548     7.7889    63.6811 </r>
       <r>    27.4730     5.8699    63.7876 </r>
       <r>    27.4911     3.6448    63.8537 </r>
       <r>    27.5092     1.8397    63.8871 </r>
       <r>    27.5274     0.7448    63.9006 </r>
       <r>    27.5455     0.2436    63.9050 </r>
       <r>    27.5637     0.0897    63.9067 </r>
       <r>    27.5818     0.1412    63.9092 </r>
       <r>    27.6000     0.4362    63.9171 </r>
       <r>    27.6181     1.1284    63.9376 </r>
       <r>    27.6363     2.2736    63.9789 </r>
       <r>    27.6544     3.5843    64.0439 </r>
       <r>    27.6726     4.5203    64.1259 </r>
       <r>    27.6907     4.8155    64.2133 </r>
       <r>    27.7088     4.7862    64.3002 </r>
       <r>    27.7270     4.8559    64.3883 </r>
       <r>    27.7451     4.9341    64.4778 </r>
       <r>    27.7633     4.6000    64.5613 </r>
       <r>    27.7814     3.7520    64.6294 </r>
       <r>    27.7996     2.7151    64.6786 </r>
       <r>    27.8177     1.8076    64.7114 </r>
       <r>    27.8359     1.1112    64.7316 </r>
       <r>    27.8540     0.6038    64.7425 </r>
       <r>    27.8722     0.2743    64.7475 </r>
       <r>    27.8903     0.1001    64.7493 </r>
       <r>    27.9085     0.0287    64.7499 </r>
       <r>    27.9266     0.0064    64.7500 </r>
       <r>    27.9447     0.0011    64.7500 </r>
       <r>    27.9629     0.0002    64.7500 </r>
       <r>    27.9810     0.0003    64.7500 </r>
       <r>    27.9992     0.0026    64.7501 </r>
       <r>    28.0173     0.0174    64.7504 </r>
       <r>    28.0355     0.0903    64.7520 </r>
       <r>    28.0536     0.3669    64.7587 </r>
       <r>    28.0718     1.1698    64.7799 </r>
       <r>    28.0899     2.9401    64.8332 </r>
       <r>    28.1081     5.8581    64.9395 </r>
       <r>    28.1262     9.3147    65.1086 </r>
       <r>    28.1443    11.9083    65.3246 </r>
       <r>    28.1625    12.3381    65.5485 </r>
       <r>    28.1806    10.4395    65.7380 </r>
       <r>    28.1988     7.2570    65.8697 </r>
       <r>    28.2169     4.1569    65.9451 </r>
       <r>    28.2351     1.9597    65.9806 </r>
       <r>    28.2532     0.7562    65.9944 </r>
       <r>    28.2714     0.2369    65.9987 </r>
       <r>    28.2895     0.0596    65.9997 </r>
       <r>    28.3077     0.0120    66.0000 </r>
       <r>    28.3258     0.0019    66.0000 </r>
       <r>    28.3440     0.0004    66.0000 </r>
       <r>    28.3621     0.0013    66.0000 </r>
       <r>    28.3802     0.0087    66.0002 </r>
       <r>    28.3984     0.0458    66.0010 </r>
       <r>    28.4165     0.1852    66.0044 </r>
       <r>    28.4347     0.5786    66.0149 </r>
       <r>    28.4528     1.3968    66.0402 </r>
       <r>    28.4710     2.6061    66.0875 </r>
       <r>    28.4891     3.7625    66.1558 </r>
       <r>    28.5073     4.2208    66.2324 </r>
       <r>    28.5254     3.7435    66.3003 </r>
       <r>    28.5436     2.8037    66.3512 </r>
       <r>    28.5617     2.1307    66.3898 </r>
       <r>    28.5798     2.0185    66.4265 </r>
       <r>    28.5980     2.1600    66.4657 </r>
       <r>    28.6161     2.0768    66.5033 </r>
       <r>    28.6343     1.6086    66.5325 </r>
       <r>    28.6524     0.9727    66.5502 </r>
       <r>    28.6706     0.4556    66.5585 </r>
       <r>    28.6887     0.1651    66.5614 </r>
       <r>    28.7069     0.0471    66.5623 </r>
       <r>    28.7250     0.0152    66.5626 </r>
       <r>    28.7432     0.0242    66.5630 </r>
       <r>    28.7613     0.0753    66.5644 </r>
       <r>    28.7795     0.1928    66.5679 </r>
       <r>    28.7976     0.3826    66.5748 </r>
       <r>    28.8157     0.5867    66.5855 </r>
       <r>    28.8339     0.6955    66.5981 </r>
       <r>    28.8520     0.6383    66.6097 </r>
       <r>    28.8702     0.4590    66.6180 </r>
       <r>    28.8883     0.2819    66.6231 </r>
       <r>    28.9065     0.2207    66.6271 </r>
       <r>    28.9246     0.3307    66.6331 </r>
       <r>    28.9428     0.5925    66.6439 </r>
       <r>    28.9609     0.8899    66.6600 </r>
       <r>    28.9791     1.0444    66.6790 </r>
       <r>    28.9972     0.9487    66.6962 </r>
       <r>    29.0153     0.6661    66.7083 </r>
       <r>    29.0335     0.3618    66.7148 </r>
       <r>    29.0516     0.1545    66.7176 </r>
       <r>    29.0698     0.0670    66.7189 </r>
       <r>    29.0879     0.0965    66.7206 </r>
       <r>    29.1061     0.3083    66.7262 </r>
       <r>    29.1242     0.8596    66.7418 </r>
       <r>    29.1424     1.8643    66.7756 </r>
       <r>    29.1605     3.1257    66.8324 </r>
       <r>    29.1787     4.0500    66.9058 </r>
       <r>    29.1968     4.0555    66.9794 </r>
       <r>    29.2150     3.1386    67.0364 </r>
       <r>    29.2331     1.8771    67.0704 </r>
       <r>    29.2512     0.8675    67.0862 </r>
       <r>    29.2694     0.3098    67.0918 </r>
       <r>    29.2875     0.0855    67.0934 </r>
       <r>    29.3057     0.0183    67.0937 </r>
       <r>    29.3238     0.0034    67.0938 </r>
       <r>    29.3420     0.0039    67.0938 </r>
       <r>    29.3601     0.0207    67.0942 </r>
       <r>    29.3783     0.0952    67.0959 </r>
       <r>    29.3964     0.3383    67.1021 </r>
       <r>    29.4146     0.9287    67.1189 </r>
       <r>    29.4327     1.9703    67.1547 </r>
       <r>    29.4508     3.2301    67.2133 </r>
       <r>    29.4690     4.0922    67.2875 </r>
       <r>    29.4871     4.0068    67.3602 </r>
       <r>    29.5053     3.0319    67.4153 </r>
       <r>    29.5234     1.7730    67.4474 </r>
       <r>    29.5416     0.8016    67.4620 </r>
       <r>    29.5597     0.2828    67.4671 </r>
       <r>    29.5779     0.0925    67.4688 </r>
       <r>    29.5960     0.0889    67.4704 </r>
       <r>    29.6142     0.2466    67.4749 </r>
       <r>    29.6323     0.6403    67.4865 </r>
       <r>    29.6505     1.3439    67.5109 </r>
       <r>    29.6686     2.3327    67.5532 </r>
       <r>    29.6867     3.5030    67.6168 </r>
       <r>    29.7049     4.7570    67.7031 </r>
       <r>    29.7230     5.9608    67.8113 </r>
       <r>    29.7412     6.8597    67.9357 </r>
       <r>    29.7593     7.2014    68.0664 </r>
       <r>    29.7775     6.8875    68.1914 </r>
       <r>    29.7956     5.9308    68.2990 </r>
       <r>    29.8138     4.4764    68.3802 </r>
       <r>    29.8319     2.9570    68.4339 </r>
       <r>    29.8501     1.9935    68.4701 </r>
       <r>    29.8682     2.0068    68.5065 </r>
       <r>    29.8863     2.9217    68.5595 </r>
       <r>    29.9045     4.1903    68.6355 </r>
       <r>    29.9226     5.1778    68.7295 </r>
       <r>    29.9408     5.6338    68.8317 </r>
       <r>    29.9589     5.6762    68.9347 </r>
       <r>    29.9771     5.3371    69.0316 </r>
       <r>    29.9952     4.4833    69.1129 </r>
       <r>    30.0134     3.2382    69.1717 </r>
       <r>    30.0315     2.0949    69.2097 </r>
       <r>    30.0497     1.4748    69.2365 </r>
       <r>    30.0678     1.3993    69.2618 </r>
       <r>    30.0860     1.6574    69.2919 </r>
       <r>    30.1041     2.1000    69.3300 </r>
       <r>    30.1222     2.6235    69.3776 </r>
       <r>    30.1404     2.9754    69.4316 </r>
       <r>    30.1585     2.8396    69.4831 </r>
       <r>    30.1767     2.1877    69.5228 </r>
       <r>    30.1948     1.3792    69.5479 </r>
       <r>    30.2130     0.8617    69.5635 </r>
       <r>    30.2311     0.8799    69.5795 </r>
       <r>    30.2493     1.4409    69.6056 </r>
       <r>    30.2674     2.4214    69.6496 </r>
       <r>    30.2856     3.7299    69.7172 </r>
       <r>    30.3037     5.4072    69.8154 </r>
       <r>    30.3218     7.4030    69.9497 </r>
       <r>    30.3400     9.1713    70.1161 </r>
       <r>    30.3581     9.7985    70.2939 </r>
       <r>    30.3763     8.8034    70.4537 </r>
       <r>    30.3944     6.6800    70.5749 </r>
       <r>    30.4126     4.5521    70.6575 </r>
       <r>    30.4307     3.5094    70.7212 </r>
       <r>    30.4489     4.2323    70.7980 </r>
       <r>    30.4670     6.6623    70.9188 </r>
       <r>    30.4852     9.6116    71.0933 </r>
       <r>    30.5033    11.1493    71.2956 </r>
       <r>    30.5215    10.0911    71.4787 </r>
       <r>    30.5396     7.0804    71.6072 </r>
       <r>    30.5577     3.8457    71.6769 </r>
       <r>    30.5759     1.6162    71.7063 </r>
       <r>    30.5940     0.5255    71.7158 </r>
       <r>    30.6122     0.1322    71.7182 </r>
       <r>    30.6303     0.0257    71.7187 </r>
       <r>    30.6485     0.0039    71.7187 </r>
       <r>    30.6666     0.0004    71.7187 </r>
       <r>    30.6848     0.0000    71.7187 </r>
       <r>    30.7029     0.0000    71.7188 </r>
       <r>    30.7211     0.0000    71.7188 </r>
       <r>    30.7392     0.0001    71.7188 </r>
       <r>    30.7573     0.0008    71.7188 </r>
       <r>    30.7755     0.0050    71.7189 </r>
       <r>    30.7936     0.0259    71.7193 </r>
       <r>    30.8118     0.1025    71.7212 </r>
       <r>    30.8299     0.3135    71.7269 </r>
       <r>    30.8481     0.7412    71.7403 </r>
       <r>    30.8662     1.3541    71.7649 </r>
       <r>    30.8844     1.9116    71.7996 </r>
       <r>    30.9025     2.0857    71.8374 </r>
       <r>    30.9207     1.7586    71.8693 </r>
       <r>    30.9388     1.1460    71.8901 </r>
       <r>    30.9570     0.5771    71.9006 </r>
       <r>    30.9751     0.2245    71.9047 </r>
       <r>    30.9932     0.0675    71.9059 </r>
       <r>    31.0114     0.0157    71.9062 </r>
       <r>    31.0295     0.0028    71.9062 </r>
       <r>    31.0477     0.0004    71.9062 </r>
       <r>    31.0658     0.0000    71.9062 </r>
       <r>    31.0840     0.0000    71.9062 </r>
       <r>    31.1021     0.0000    71.9062 </r>
       <r>    31.1203     0.0000    71.9062 </r>
       <r>    31.1384     0.0000    71.9062 </r>
       <r>    31.1566     0.0000    71.9062 </r>
       <r>    31.1747     0.0000    71.9062 </r>
       <r>    31.1928     0.0000    71.9062 </r>
       <r>    31.2110     0.0000    71.9062 </r>
       <r>    31.2291     0.0000    71.9062 </r>
       <r>    31.2473     0.0000    71.9062 </r>
       <r>    31.2654     0.0000    71.9062 </r>
       <r>    31.2836     0.0000    71.9062 </r>
       <r>    31.3017     0.0000    71.9062 </r>
       <r>    31.3199     0.0000    71.9062 </r>
       <r>    31.3380     0.0000    71.9062 </r>
       <r>    31.3562     0.0000    71.9062 </r>
       <r>    31.3743     0.0000    71.9062 </r>
       <r>    31.3924     0.0000    71.9062 </r>
       <r>    31.4106     0.0000    71.9063 </r>
       <r>    31.4287     0.0000    71.9063 </r>
       <r>    31.4469     0.0000    71.9063 </r>
       <r>    31.4650     0.0000    71.9063 </r>
       <r>    31.4832     0.0000    71.9063 </r>
       <r>    31.5013     0.0000    71.9063 </r>
       <r>    31.5195     0.0002    71.9063 </r>
       <r>    31.5376     0.0014    71.9063 </r>
       <r>    31.5558     0.0076    71.9064 </r>
       <r>    31.5739     0.0329    71.9070 </r>
       <r>    31.5921     0.1099    71.9090 </r>
       <r>    31.6102     0.2839    71.9142 </r>
       <r>    31.6283     0.5667    71.9244 </r>
       <r>    31.6465     0.8741    71.9403 </r>
       <r>    31.6646     1.0419    71.9592 </r>
       <r>    31.6828     0.9598    71.9766 </r>
       <r>    31.7009     0.6834    71.9890 </r>
       <r>    31.7191     0.3760    71.9958 </r>
       <r>    31.7372     0.1598    71.9988 </r>
       <r>    31.7554     0.0525    71.9997 </r>
       <r>    31.7735     0.0133    71.9999 </r>
       <r>    31.7917     0.0026    72.0000 </r>
       <r>    31.8098     0.0004    72.0000 </r>
       <r>    31.8279     0.0000    72.0000 </r>
       <r>    31.8461     0.0000    72.0000 </r>
       <r>    31.8642     0.0000    72.0000 </r>
       <r>    31.8824     0.0000    72.0000 </r>
       <r>    31.9005     0.0000    72.0000 </r>
       <r>    31.9187     0.0000    72.0000 </r>
       <r>    31.9368     0.0000    72.0000 </r>
       <r>    31.9550     0.0000    72.0000 </r>
       <r>    31.9731     0.0000    72.0000 </r>
       <r>    31.9913     0.0000    72.0000 </r>
       <r>    32.0094     0.0000    72.0000 </r>
       <r>    32.0276     0.0000    72.0000 </r>
       <r>    32.0457     0.0000    72.0000 </r>
       <r>    32.0638     0.0000    72.0000 </r>
       <r>    32.0820     0.0000    72.0000 </r>
       <r>    32.1001     0.0000    72.0000 </r>
       <r>    32.1183     0.0000    72.0000 </r>
       <r>    32.1364     0.0000    72.0000 </r>
       <r>    32.1546     0.0000    72.0000 </r>
       <r>    32.1727     0.0000    72.0000 </r>
       <r>    32.1909     0.0000    72.0000 </r>
       <r>    32.2090     0.0000    72.0000 </r>
       <r>    32.2272     0.0000    72.0000 </r>
       <r>    32.2453     0.0000    72.0000 </r>
       <r>    32.2634     0.0000    72.0000 </r>
       <r>    32.2816     0.0000    72.0000 </r>
       <r>    32.2997     0.0000    72.0000 </r>
       <r>    32.3179     0.0000    72.0000 </r>
       <r>    32.3360     0.0000    72.0000 </r>
       <r>    32.3542     0.0000    72.0000 </r>
       <r>    32.3723     0.0000    72.0000 </r>
       <r>    32.3905     0.0000    72.0000 </r>
       <r>    32.4086     0.0000    72.0000 </r>
       <r>    32.4268     0.0000    72.0000 </r>
       <r>    32.4449     0.0000    72.0000 </r>
       <r>    32.4631     0.0000    72.0000 </r>
       <r>    32.4812     0.0000    72.0000 </r>
       <r>    32.4993     0.0000    72.0000 </r>
       <r>    32.5175     0.0000    72.0000 </r>
       <r>    32.5356     0.0000    72.0000 </r>
       <r>    32.5538     0.0000    72.0000 </r>
       <r>    32.5719     0.0000    72.0000 </r>
       <r>    32.5901     0.0000    72.0000 </r>
       <r>    32.6082     0.0000    72.0000 </r>
       <r>    32.6264     0.0000    72.0000 </r>
       <r>    32.6445     0.0000    72.0000 </r>
       <r>    32.6627     0.0000    72.0000 </r>
       <r>    32.6808     0.0000    72.0000 </r>
       <r>    32.6989     0.0000    72.0000 </r>
       <r>    32.7171     0.0000    72.0000 </r>
       <r>    32.7352     0.0000    72.0000 </r>
       <r>    32.7534     0.0000    72.0000 </r>
       <r>    32.7715     0.0000    72.0000 </r>
       <r>    32.7897     0.0000    72.0000 </r>
       <r>    32.8078     0.0000    72.0000 </r>
       <r>    32.8260     0.0000    72.0000 </r>
       <r>    32.8441     0.0000    72.0000 </r>
       <r>    32.8623     0.0000    72.0000 </r>
       <r>    32.8804     0.0000    72.0000 </r>
       <r>    32.8986     0.0000    72.0000 </r>
       <r>    32.9167     0.0000    72.0000 </r>
       <r>    32.9348     0.0000    72.0000 </r>
       <r>    32.9530     0.0000    72.0000 </r>
       <r>    32.9711     0.0000    72.0000 </r>
       <r>    32.9893     0.0000    72.0000 </r>
       <r>    33.0074     0.0000    72.0000 </r>
       <r>    33.0256     0.0000    72.0000 </r>
       <r>    33.0437     0.0000    72.0000 </r>
       <r>    33.0619     0.0000    72.0000 </r>
       <r>    33.0800     0.0000    72.0000 </r>
       <r>    33.0982     0.0000    72.0000 </r>
       <r>    33.1163     0.0000    72.0000 </r>
       <r>    33.1344     0.0000    72.0000 </r>
       <r>    33.1526     0.0000    72.0000 </r>
       <r>    33.1707     0.0000    72.0000 </r>
       <r>    33.1889     0.0000    72.0000 </r>
       <r>    33.2070     0.0000    72.0000 </r>
       <r>    33.2252     0.0000    72.0000 </r>
       <r>    33.2433     0.0000    72.0000 </r>
       <r>    33.2615     0.0000    72.0000 </r>
       <r>    33.2796     0.0000    72.0000 </r>
       <r>    33.2978     0.0000    72.0000 </r>
       <r>    33.3159     0.0000    72.0000 </r>
       <r>    33.3341     0.0000    72.0000 </r>
       <r>    33.3522     0.0000    72.0000 </r>
       <r>    33.3703     0.0000    72.0000 </r>
       <r>    33.3885     0.0000    72.0000 </r>
       <r>    33.4066     0.0000    72.0000 </r>
       <r>    33.4248     0.0000    72.0000 </r>
       <r>    33.4429     0.0000    72.0000 </r>
       <r>    33.4611     0.0000    72.0000 </r>
       <r>    33.4792     0.0000    72.0000 </r>
       <r>    33.4974     0.0000    72.0000 </r>
       <r>    33.5155     0.0000    72.0000 </r>
       <r>    33.5337     0.0000    72.0000 </r>
       <r>    33.5518     0.0000    72.0000 </r>
       <r>    33.5699     0.0000    72.0000 </r>
       <r>    33.5881     0.0000    72.0000 </r>
       <r>    33.6062     0.0000    72.0000 </r>
       <r>    33.6244     0.0000    72.0000 </r>
       <r>    33.6425     0.0000    72.0000 </r>
       <r>    33.6607     0.0000    72.0000 </r>
       <r>    33.6788     0.0000    72.0000 </r>
       <r>    33.6970     0.0000    72.0000 </r>
       <r>    33.7151     0.0000    72.0000 </r>
       <r>    33.7333     0.0000    72.0000 </r>
       <r>    33.7514     0.0000    72.0000 </r>
       <r>    33.7696     0.0000    72.0000 </r>
       <r>    33.7877     0.0000    72.0000 </r>
       <r>    33.8058     0.0000    72.0000 </r>
       <r>    33.8240     0.0000    72.0000 </r>
       <r>    33.8421     0.0000    72.0000 </r>
       <r>    33.8603     0.0000    72.0000 </r>
       <r>    33.8784     0.0000    72.0000 </r>
       <r>    33.8966     0.0000    72.0000 </r>
       <r>    33.9147     0.0000    72.0000 </r>
       <r>    33.9329     0.0000    72.0000 </r>
       <r>    33.9510     0.0000    72.0000 </r>
       <r>    33.9692     0.0000    72.0000 </r>
       <r>    33.9873     0.0000    72.0000 </r>
       <r>    34.0054     0.0000    72.0000 </r>
       <r>    34.0236     0.0000    72.0000 </r>
       <r>    34.0417     0.0000    72.0000 </r>
       <r>    34.0599     0.0000    72.0000 </r>
       <r>    34.0780     0.0000    72.0000 </r>
       <r>    34.0962     0.0000    72.0000 </r>
       <r>    34.1143     0.0000    72.0000 </r>
       <r>    34.1325     0.0000    72.0000 </r>
      </set>
     </set>
    </array>
   </total>
  </dos>
 </calculation>
 <structure name="finalpos" >
  <crystal>
   <varray name="basis" >
    <v>       3.78810744       0.00000000       0.00000000 </v>
    <v>       0.00000000       3.78810744       0.00000000 </v>
    <v>       0.00000000       0.00000000       3.78810744 </v>
   </varray>
   <i name="volume">     54.35842507 </i>
   <varray name="rec_basis" >
    <v>       0.26398406       0.00000000       0.00000000 </v>
    <v>       0.00000000       0.26398406       0.00000000 </v>
    <v>       0.00000000       0.00000000       0.26398406 </v>
   </varray>
  </crystal>
  <varray name="positions" >
   <v>       0.00000000       0.00000000       0.00000000 </v>
   <v>       0.50000000       0.00000000       0.00000000 </v>
   <v>       0.00000000       0.50000000       0.00000000 </v>
   <v>       0.00000000       0.00000000       0.50000000 </v>
  </varray>
  <varray name="selective"  type="logical" >
   <v type="logical" >  T  T  T </v>
   <v type="logical" >  T  T  T </v>
   <v type="logical" >  T  T  T </v>
   <v type="logical" >  T  T  T </v>
  </varray>
  <nose>
   <v>      -3.00000000       0.00000000       0.00010000       0.00010000 </v>
  </nose>
 </structure>
</modeling>
