<?xml version="1.0" encoding="ISO-8859-1"?>
<modeling>
 <generator>
  <i name="program" type="string">vasp </i>
  <i name="version" type="string">5.4.1  </i>
  <i name="subversion" type="string">24Jun15 (build Feb 01 2016 23:58:10) complex                          parallel </i>
  <i name="platform" type="string">IFC91_impi </i>
  <i name="date" type="string">2016 04 25 </i>
  <i name="time" type="string">10:57:11 </i>
 </generator>
 <incar>
  <i type="string" name="PREC">accurate</i>
  <i type="string" name="ALGO"> Fast</i>
  <i type="int" name="ISPIN">     2</i>
  <i type="int" name="NELM">   100</i>
  <i type="int" name="IBRION">     2</i>
  <i name="EDIFF">      0.00005000</i>
  <i type="int" name="NSW">    99</i>
  <i type="int" name="ISIF">     2</i>
  <i name="ENCUT">    520.00000000</i>
  <i type="string" name="LREAL"> Auto</i>
  <i type="int" name="ISMEAR">    -5</i>
  <i name="SIGMA">      0.05000000</i>
  <i type="logical" name="LWAVE"> F  </i>
  <i type="logical" name="LCHARG"> T  </i>
  <i type="logical" name="LORBIT"> F  </i>
  <v type="int" name="KPOINT_BSE">    -1     0     0     0</v>
  <i type="int" name="NELM">   100</i>
 </incar>
 <kpoints>
  <generation param="Gamma">
   <v type="int" name="divisions">       9        9        1 </v>
   <v name="usershift">      0.00000000       0.00000000       0.00000000 </v>
   <v name="genvec1">      0.11111111       0.00000000       0.00000000 </v>
   <v name="genvec2">      0.00000000       0.11111111       0.00000000 </v>
   <v name="genvec3">      0.00000000       0.00000000       1.00000000 </v>
   <v name="shift">      0.00000000       0.00000000       0.00000000 </v>
  </generation>
  <varray name="kpointlist" >
   <v>       0.00000000       0.00000000       0.00000000 </v>
   <v>       0.11111111       0.00000000       0.00000000 </v>
   <v>       0.22222222       0.00000000       0.00000000 </v>
   <v>       0.33333333       0.00000000       0.00000000 </v>
   <v>       0.44444444       0.00000000       0.00000000 </v>
   <v>       0.11111111       0.11111111       0.00000000 </v>
   <v>       0.22222222       0.11111111       0.00000000 </v>
   <v>       0.33333333       0.11111111       0.00000000 </v>
   <v>       0.44444444       0.11111111       0.00000000 </v>
   <v>       0.22222222       0.22222222       0.00000000 </v>
   <v>       0.33333333       0.22222222       0.00000000 </v>
   <v>       0.44444444       0.22222222       0.00000000 </v>
   <v>       0.33333333       0.33333333       0.00000000 </v>
   <v>       0.44444444       0.33333333       0.00000000 </v>
   <v>       0.44444444       0.44444444       0.00000000 </v>
  </varray>
  <varray name="weights" >
   <v>       0.01234568 </v>
   <v>       0.04938272 </v>
   <v>       0.04938272 </v>
   <v>       0.04938272 </v>
   <v>       0.04938272 </v>
   <v>       0.04938272 </v>
   <v>       0.09876543 </v>
   <v>       0.09876543 </v>
   <v>       0.09876543 </v>
   <v>       0.04938272 </v>
   <v>       0.09876543 </v>
   <v>       0.09876543 </v>
   <v>       0.04938272 </v>
   <v>       0.09876543 </v>
   <v>       0.04938272 </v>
  </varray>
  <varray name="tetrahedronlist"  type="int" >
   <v type="int" >        4        2        2        2        6 </v>
   <v type="int" >        4        1        2        2        2 </v>
   <v type="int" >        2        1        1        2        2 </v>
   <v type="int" >        2        2        2        6        6 </v>
   <v type="int" >        4        3        6        6        7 </v>
   <v type="int" >        4        2        3        6        6 </v>
   <v type="int" >        4        2        2        3        6 </v>
   <v type="int" >        4        3        6        7        7 </v>
   <v type="int" >        4        3        3        6        7 </v>
   <v type="int" >        4        2        3        3        6 </v>
   <v type="int" >        4        4        7        7        8 </v>
   <v type="int" >        4        3        4        7        7 </v>
   <v type="int" >        4        3        3        4        7 </v>
   <v type="int" >        4        4        7        8        8 </v>
   <v type="int" >        4        4        4        7        8 </v>
   <v type="int" >        4        3        4        4        7 </v>
   <v type="int" >        4        5        8        8        9 </v>
   <v type="int" >        4        4        5        8        8 </v>
   <v type="int" >        4        4        4        5        8 </v>
   <v type="int" >        4        5        8        9        9 </v>
   <v type="int" >        4        5        5        8        9 </v>
   <v type="int" >        4        4        5        5        8 </v>
   <v type="int" >        8        5        9        9        9 </v>
   <v type="int" >        8        5        5        9        9 </v>
   <v type="int" >        8        5        5        5        9 </v>
   <v type="int" >        4        4        8        9        9 </v>
   <v type="int" >        4        4        5        9        9 </v>
   <v type="int" >        4        4        5        5        9 </v>
   <v type="int" >        4        4        8        8        9 </v>
   <v type="int" >        4        4        4        8        9 </v>
   <v type="int" >        4        4        4        5        9 </v>
   <v type="int" >        4        3        7        8        8 </v>
   <v type="int" >        4        3        4        8        8 </v>
   <v type="int" >        4        3        4        4        8 </v>
   <v type="int" >        4        3        7        7        8 </v>
   <v type="int" >        4        3        3        7        8 </v>
   <v type="int" >        4        3        3        4        8 </v>
   <v type="int" >        4        2        6        7        7 </v>
   <v type="int" >        4        2        3        7        7 </v>
   <v type="int" >        4        2        3        3        7 </v>
   <v type="int" >        4        2        6        6        7 </v>
   <v type="int" >        4        2        2        6        7 </v>
   <v type="int" >        4        2        2        3        7 </v>
   <v type="int" >        4        1        2        6        6 </v>
   <v type="int" >        4        1        2        2        6 </v>
   <v type="int" >        4        1        1        2        6 </v>
   <v type="int" >        4        7        7        7       10 </v>
   <v type="int" >        4        6        7        7        7 </v>
   <v type="int" >        2        6        6        7        7 </v>
   <v type="int" >        2        7        7       10       10 </v>
   <v type="int" >        4        8       10       10       11 </v>
   <v type="int" >        4        7        8       10       10 </v>
   <v type="int" >        4        7        7        8       10 </v>
   <v type="int" >        4        8       10       11       11 </v>
   <v type="int" >        4        8        8       10       11 </v>
   <v type="int" >        4        7        8        8       10 </v>
   <v type="int" >        4        9       11       11       12 </v>
   <v type="int" >        4        8        9       11       11 </v>
   <v type="int" >        4        8        8        9       11 </v>
   <v type="int" >        4        9       11       12       12 </v>
   <v type="int" >        4        9        9       11       12 </v>
   <v type="int" >        4        8        9        9       11 </v>
   <v type="int" >        8        9       12       12       12 </v>
   <v type="int" >        8        9        9       12       12 </v>
   <v type="int" >        8        9        9        9       12 </v>
   <v type="int" >        4        8       11       12       12 </v>
   <v type="int" >        4        8        9       12       12 </v>
   <v type="int" >        4        8        9        9       12 </v>
   <v type="int" >        4        8       11       11       12 </v>
   <v type="int" >        4        8        8       11       12 </v>
   <v type="int" >        4        8        8        9       12 </v>
   <v type="int" >        4        7       10       11       11 </v>
   <v type="int" >        4        7        8       11       11 </v>
   <v type="int" >        4        7        8        8       11 </v>
   <v type="int" >        4        7       10       10       11 </v>
   <v type="int" >        4        7        7       10       11 </v>
   <v type="int" >        4        7        7        8       11 </v>
   <v type="int" >        4        6        7       10       10 </v>
   <v type="int" >        4        6        7        7       10 </v>
   <v type="int" >        4        6        6        7       10 </v>
   <v type="int" >        4       11       11       11       13 </v>
   <v type="int" >        4       10       11       11       11 </v>
   <v type="int" >        2       10       10       11       11 </v>
   <v type="int" >        2       11       11       13       13 </v>
   <v type="int" >        4       12       13       13       14 </v>
   <v type="int" >        4       11       12       13       13 </v>
   <v type="int" >        4       11       11       12       13 </v>
   <v type="int" >        4       12       13       14       14 </v>
   <v type="int" >        4       12       12       13       14 </v>
   <v type="int" >        4       11       12       12       13 </v>
   <v type="int" >        8       12       14       14       14 </v>
   <v type="int" >        8       12       12       14       14 </v>
   <v type="int" >        8       12       12       12       14 </v>
   <v type="int" >        4       11       13       14       14 </v>
   <v type="int" >        4       11       12       14       14 </v>
   <v type="int" >        4       11       12       12       14 </v>
   <v type="int" >        4       11       13       13       14 </v>
   <v type="int" >        4       11       11       13       14 </v>
   <v type="int" >        4       11       11       12       14 </v>
   <v type="int" >        4       10       11       13       13 </v>
   <v type="int" >        4       10       11       11       13 </v>
   <v type="int" >        4       10       10       11       13 </v>
   <v type="int" >       12       14       14       14       15 </v>
   <v type="int" >        4       13       14       14       14 </v>
   <v type="int" >        2       13       13       14       14 </v>
   <v type="int" >       10       14       14       15       15 </v>
   <v type="int" >        8       14       15       15       15 </v>
   <v type="int" >        4       13       14       15       15 </v>
   <v type="int" >        4       13       14       14       15 </v>
   <v type="int" >        4       13       13       14       15 </v>
   <v type="int" >        6       15       15       15       15 </v>
  </varray>
  <i name="volumeweight">      0.00205761 </i>
 </kpoints>
 <parameters>
  <separator name="general" >
   <i type="string" name="SYSTEM">unknown system</i>
   <i type="logical" name="LCOMPAT"> F  </i>
  </separator>
  <separator name="electronic" >
   <i type="string" name="PREC">accura</i>
   <i name="ENMAX">    520.00000000</i>
   <i name="ENAUG">    578.34200000</i>
   <i name="EDIFF">      0.00005000</i>
   <i type="int" name="IALGO">    68</i>
   <i type="int" name="IWAVPR">    11</i>
   <i type="int" name="NBANDS">    16</i>
   <i name="NELECT">     14.00000000</i>
   <i type="int" name="TURBO">     0</i>
   <i type="int" name="IRESTART">     0</i>
   <i type="int" name="NREBOOT">     0</i>
   <i type="int" name="NMIN">     0</i>
   <i name="EREF">      0.00000000</i>
   <separator name="electronic smearing" >
    <i type="int" name="ISMEAR">    -5</i>
    <i name="SIGMA">      0.05000000</i>
    <i name="KSPACING">      0.50000000</i>
    <i type="logical" name="KGAMMA"> T  </i>
   </separator>
   <separator name="electronic projectors" >
    <i type="logical" name="LREAL"> T  </i>
    <v name="ROPT">     -0.00025000</v>
    <i type="int" name="LMAXPAW">  -100</i>
    <i type="int" name="LMAXMIX">     2</i>
    <i type="logical" name="NLSPLINE"> F  </i>
   </separator>
   <separator name="electronic startup" >
    <i type="int" name="ISTART">     0</i>
    <i type="int" name="ICHARG">     2</i>
    <i type="int" name="INIWAV">     1</i>
   </separator>
   <separator name="electronic spin" >
    <i type="int" name="ISPIN">     2</i>
    <i type="logical" name="LNONCOLLINEAR"> F  </i>
    <v name="MAGMOM">      1.00000000</v>
    <i name="NUPDOWN">     -1.00000000</i>
    <i type="logical" name="LSORBIT"> F  </i>
    <v name="SAXIS">      0.00000000      0.00000000      1.00000000</v>
    <i type="logical" name="LSPIRAL"> F  </i>
    <v name="QSPIRAL">      0.00000000      0.00000000      0.00000000</v>
    <i type="logical" name="LZEROZ"> F  </i>
   </separator>
   <separator name="electronic exchange-correlation" >
    <i type="logical" name="LASPH"> F  </i>
    <i type="logical" name="LMETAGGA"> F  </i>
   </separator>
   <separator name="electronic convergence" >
    <i type="int" name="NELM">   100</i>
    <i type="int" name="NELMDL">    -5</i>
    <i type="int" name="NELMIN">     2</i>
    <i name="ENINI">    520.00000000</i>
    <separator name="electronic convergence detail" >
     <i type="logical" name="LDIAG"> T  </i>
     <i type="logical" name="LSUBROT"> F  </i>
     <i name="WEIMIN">      0.00100000</i>
     <i name="EBREAK">      0.00000078</i>
     <i name="DEPER">      0.30000000</i>
     <i type="int" name="NRMM">     4</i>
     <i name="TIME">      0.40000000</i>
    </separator>
   </separator>
   <separator name="electronic mixer" >
    <i name="AMIX">      0.40000000</i>
    <i name="BMIX">      1.00000000</i>
    <i name="AMIN">      0.10000000</i>
    <i name="AMIX_MAG">      1.60000000</i>
    <i name="BMIX_MAG">      1.00000000</i>
    <separator name="electronic mixer details" >
     <i type="int" name="IMIX">     4</i>
     <i type="logical" name="MIXFIRST"> F  </i>
     <i type="int" name="MAXMIX">   -45</i>
     <i name="WC">    100.00000000</i>
     <i type="int" name="INIMIX">     1</i>
     <i type="int" name="MIXPRE">     1</i>
     <i type="int" name="MREMOVE">     5</i>
    </separator>
   </separator>
   <separator name="electronic dipolcorrection" >
    <i type="logical" name="LDIPOL"> F  </i>
    <i type="logical" name="LMONO"> F  </i>
    <i type="int" name="IDIPOL">     0</i>
    <i name="EPSILON">      1.00000000</i>
    <v name="DIPOL">   -100.00000000   -100.00000000   -100.00000000</v>
    <i name="EFIELD">      0.00000000</i>
   </separator>
  </separator>
  <separator name="grids" >
   <i type="int" name="NGX">    18</i>
   <i type="int" name="NGY">    18</i>
   <i type="int" name="NGZ">    14</i>
   <i type="int" name="NGXF">    36</i>
   <i type="int" name="NGYF">    36</i>
   <i type="int" name="NGZF">    28</i>
   <i type="logical" name="ADDGRID"> F  </i>
  </separator>
  <separator name="ionic" >
   <i type="int" name="NSW">    99</i>
   <i type="int" name="IBRION">     2</i>
   <i type="int" name="ISIF">     2</i>
   <i name="PSTRESS">      0.00000000</i>
   <i name="EDIFFG">      0.00050000</i>
   <i type="int" name="NFREE">     1</i>
   <i name="POTIM">      0.50000000</i>
   <i name="SMASS">     -3.00000000</i>
   <i name="SCALEE">      1.00000000</i>
  </separator>
  <separator name="ionic md" >
   <i name="TEBEG">      0.00010000</i>
   <i name="TEEND">      0.00010000</i>
   <i type="int" name="NBLOCK">     1</i>
   <i type="int" name="KBLOCK">    99</i>
   <i type="int" name="NPACO">   256</i>
   <i name="APACO">     16.00000000</i>
  </separator>
  <separator name="symmetry" >
   <i type="int" name="ISYM">     2</i>
   <i name="SYMPREC">      0.00001000</i>
  </separator>
  <separator name="dos" >
   <i type="logical" name="LORBIT"> F  </i>
   <v name="RWIGS">     -1.00000000</v>
   <i type="int" name="NEDOS">   301</i>
   <i name="EMIN">     10.00000000</i>
   <i name="EMAX">    -10.00000000</i>
   <i name="EFERMI">      0.00000000</i>
  </separator>
  <separator name="writing" >
   <i type="int" name="NWRITE">     2</i>
   <i type="logical" name="LWAVE"> F  </i>
   <i type="logical" name="LCHARG"> T  </i>
   <i type="logical" name="LPARD"> F  </i>
   <i type="logical" name="LVTOT"> F  </i>
   <i type="logical" name="LVHAR"> F  </i>
   <i type="logical" name="LELF"> F  </i>
   <i type="logical" name="LOPTICS"> F  </i>
   <v name="STM">      0.00000000      0.00000000      0.00000000      0.00000000      0.00000000      0.00000000      0.00000000</v>
  </separator>
  <separator name="performance" >
   <i type="int" name="NPAR">    16</i>
   <i type="int" name="NSIM">     4</i>
   <i type="int" name="NBLK">    -1</i>
   <i type="logical" name="LPLANE"> T  </i>
   <i type="logical" name="LSCALAPACK"> F  </i>
   <i type="logical" name="LSCAAWARE"> F  </i>
   <i type="logical" name="LSCALU"> F  </i>
   <i type="logical" name="LASYNC"> F  </i>
   <i type="logical" name="LORBITALREAL"> F  </i>
  </separator>
  <separator name="miscellaneous" >
   <i type="int" name="IDIOT">     3</i>
   <i type="logical" name="LMUSIC"> F  </i>
   <v name="POMASS">     55.84700000</v>
   <v name="DARWINR">      0.00000000</v>
   <v name="DARWINV">      1.00000000</v>
   <i type="logical" name="LCORR"> T  </i>
  </separator>
  <i type="logical" name="GGA_COMPAT"> T  </i>
  <i type="logical" name="LBERRY"> F  </i>
  <i type="int" name="ICORELEVEL">     0</i>
  <i type="logical" name="LDAU"> F  </i>
  <i type="int" name="I_CONSTRAINED_M">     0</i>
  <separator name="electronic exchange-correlation" >
   <i type="string" name="GGA">--</i>
   <i type="int" name="VOSKOWN">     0</i>
   <i type="logical" name="LHFCALC"> F  </i>
   <i type="string" name="PRECFOCK"></i>
   <i type="logical" name="LSYMGRAD"> F  </i>
   <i type="logical" name="LHFONE"> F  </i>
   <i type="logical" name="LRHFCALC"> F  </i>
   <i type="logical" name="LTHOMAS"> F  </i>
   <i type="logical" name="LMODELHF"> F  </i>
   <i name="ENCUT4O">     -1.00000000</i>
   <i type="int" name="EXXOEP">     0</i>
   <i type="int" name="FOURORBIT">     0</i>
   <i name="AEXX">      0.00000000</i>
   <i name="HFALPHA">      0.00000000</i>
   <i name="MCALPHA">      0.00000000</i>
   <i name="ALDAX">      1.00000000</i>
   <i name="AGGAX">      1.00000000</i>
   <i name="ALDAC">      1.00000000</i>
   <i name="AGGAC">      1.00000000</i>
   <i type="int" name="NKREDX">     1</i>
   <i type="int" name="NKREDY">     1</i>
   <i type="int" name="NKREDZ">     1</i>
   <i type="logical" name="SHIFTRED"> F  </i>
   <i type="logical" name="ODDONLY"> F  </i>
   <i type="logical" name="EVENONLY"> F  </i>
   <i type="int" name="LMAXFOCK">     0</i>
   <i type="int" name="NMAXFOCKAE">     0</i>
   <i type="logical" name="LFOCKAEDFT"> F  </i>
   <i name="HFSCREEN">      0.00000000</i>
   <i name="HFSCREENC">      0.00000000</i>
   <i type="int" name="NBANDSGWLOW">     0</i>
  </separator>
  <separator name="vdW DFT" >
   <i type="logical" name="LUSE_VDW"> F  </i>
   <i name="Zab_VDW">     -0.84910000</i>
   <i name="PARAM1">      0.12340000</i>
   <i name="PARAM2">      1.00000000</i>
   <i name="PARAM3">      0.00000000</i>
  </separator>
  <separator name="model GW" >
   <i type="int" name="MODEL_GW">     0</i>
   <i name="MODEL_EPS0">      6.21326040</i>
   <i name="MODEL_ALPHA">      1.00000000</i>
  </separator>
  <separator name="linear response parameters" >
   <i type="logical" name="LEPSILON"> F  </i>
   <i type="logical" name="LRPA"> F  </i>
   <i type="logical" name="LNABLA"> F  </i>
   <i type="logical" name="LVEL"> F  </i>
   <i type="int" name="KINTER">     0</i>
   <i name="CSHIFT">      0.10000000</i>
   <i name="OMEGAMAX">     -1.00000000</i>
   <i name="DEG_THRESHOLD">      0.00200000</i>
  </separator>
  <separator name="orbital magnetization" >
   <i type="logical" name="NUCIND"> F  </i>
   <v name="MAGPOS">      0.00000000      0.00000000      0.00000000</v>
   <i type="logical" name="LNICSALL"> T  </i>
   <i type="logical" name="ORBITALMAG"> F  </i>
   <i type="logical" name="LMAGBLOCH"> F  </i>
   <i type="logical" name="LCHIMAG"> F  </i>
   <i type="logical" name="LGAUGE"> T  </i>
   <i type="int" name="MAGATOM">     0</i>
   <v name="MAGDIPOL">      0.00000000      0.00000000      0.00000000</v>
   <v name="AVECCONST">      0.00000000      0.00000000      0.00000000</v>
  </separator>
  <separator name="response functions" >
   <i type="logical" name="LADDER"> F  </i>
   <i type="logical" name="LFXC"> F  </i>
   <i type="logical" name="LHARTREE"> T  </i>
   <i type="int" name="IBSE">     0</i>
   <v type="int" name="KPOINT">    -1     0     0     0</v>
   <i type="logical" name="LTCTE"> F  </i>
   <i type="logical" name="LTETE"> F  </i>
   <i type="logical" name="LTRIPLET"> F  </i>
   <i type="logical" name="LFXCEPS"> F  </i>
   <i type="logical" name="LFXHEG"> F  </i>
   <i type="int" name="NATURALO">     0</i>
   <i type="logical" name="L2ORDER"> F  </i>
   <i type="logical" name="LUSEW"> F  </i>
   <i name="ENCUTGW">     -2.00000000</i>
   <i name="ENCUTGWSOFT">     -2.00000000</i>
   <i name="ENCUTLF">     -1.00000000</i>
   <i type="int" name="LMAXMP2">    -1</i>
   <i name="SCISSOR">      0.00000000</i>
   <i type="int" name="NOMEGA">     0</i>
   <i type="int" name="NOMEGAR">     0</i>
   <i type="int" name="NBANDSGW">    -1</i>
   <i type="int" name="NBANDSO">    -1</i>
   <i type="int" name="NBANDSV">    -1</i>
   <i type="int" name="NELM">   100</i>
   <i type="int" name="NELMHF">     1</i>
   <i type="int" name="DIM">     3</i>
   <i type="int" name="ANTIRES">     0</i>
   <i name="OMEGAMAX">    -30.00000000</i>
   <i name="OMEGAMIN">    -30.00000000</i>
   <i name="OMEGATL">   -200.00000000</i>
   <i type="int" name="OMEGAGRID">     0</i>
   <i name="CSHIFT">     -0.10000000</i>
   <i type="logical" name="SELFENERGY"> F  </i>
   <i type="logical" name="LSPECTRAL"> F  </i>
   <i type="logical" name="LSPECTRALGW"> F  </i>
   <i type="logical" name="LSINGLES"> F  </i>
   <i type="logical" name="LFERMIGW"> F  </i>
   <i type="logical" name="ODDONLYGW"> F  </i>
   <i type="logical" name="EVENONLYGW"> F  </i>
   <i type="int" name="NKREDLFX">     1</i>
   <i type="int" name="NKREDLFY">     1</i>
   <i type="int" name="NKREDLFZ">     1</i>
   <i type="int" name="MAXMEM">  1800</i>
   <i type="int" name="TELESCOPE">     0</i>
   <i type="int" name="TAUPAR">     1</i>
   <i type="int" name="OMEGAPAR">    -1</i>
   <i name="LAMBDA">      1.00000000</i>
  </separator>
  <separator name="External order field" >
   <i name="OFIELD_KAPPA">      0.00000000</i>
   <v name="OFIELD_K">      0.00000000      0.00000000      0.00000000</v>
   <i name="OFIELD_Q6_NEAR">      0.00000000</i>
   <i name="OFIELD_Q6_FAR">      0.00000000</i>
   <i name="OFIELD_A">      0.00000000</i>
  </separator>
 </parameters>
 <atominfo>
  <atoms>       1 </atoms>
  <types>       1 </types>
  <array name="atoms" >
   <dimension dim="1">ion</dimension>
   <field type="string">element</field>
   <field type="int">atomtype</field>
   <set>
    <rc><c>Fe</c><c>   1</c></rc>
   </set>
  </array>
  <array name="atomtypes" >
   <dimension dim="1">type</dimension>
   <field type="int">atomspertype</field>
   <field type="string">element</field>
   <field>mass</field>
   <field>valence</field>
   <field type="string">pseudopotential</field>
   <set>
    <rc><c>   1</c><c>Fe</c><c>     55.84700000</c><c>     14.00000000</c><c> PAW_PBE Fe_pv 06Sep2000                </c></rc>
   </set>
  </array>
 </atominfo>
 <structure name="initialpos" >
  <crystal>
   <varray name="basis" >
    <v>       1.73000000       1.73000000       0.00000000 </v>
    <v>      -1.73000000       1.73000000       0.00000000 </v>
    <v>       0.00000000       0.00000000       1.73000000 </v>
   </varray>
   <i name="volume">     10.35543400 </i>
   <varray name="rec_basis" >
    <v>       0.28901734       0.28901734       0.00000000 </v>
    <v>      -0.28901734       0.28901734       0.00000000 </v>
    <v>       0.00000000       0.00000000       0.57803468 </v>
   </varray>
  </crystal>
  <varray name="positions" >
   <v>       0.00000000       0.00000000       0.00000000 </v>
  </varray>
 </structure>
 <calculation>
  <scstep>
   <time name="dav">    0.16    0.22</time>
   <time name="total">    0.21    0.34</time>
   <energy>
    <i name="alphaZ">    189.69386121 </i>
    <i name="ewald">  -1760.99142016 </i>
    <i name="hartreedc">   -637.64543708 </i>
    <i name="XCdc">     72.41695295 </i>
    <i name="pawpsdc">   1836.16430293 </i>
    <i name="pawaedc">  -1924.46259819 </i>
    <i name="eentropy">      0.00000000 </i>
    <i name="bandstr">    223.50625954 </i>
    <i name="atom">   2456.89122314 </i>
    <i name="e_fr_energy">    455.57314435 </i>
    <i name="e_wo_entrp">    455.57314435 </i>
    <i name="e_0_energy">    455.57314435 </i>
   </energy>
  </scstep>
  <scstep>
   <time name="dav">    0.21    0.22</time>
   <time name="total">    0.22    0.23</time>
   <energy>
    <i name="e_fr_energy">    436.24866494 </i>
    <i name="e_wo_entrp">    436.24866494 </i>
    <i name="e_0_energy">    436.24866494 </i>
   </energy>
  </scstep>
  <scstep>
   <time name="dav">    0.17    0.17</time>
   <time name="total">    0.18    0.18</time>
   <energy>
    <i name="e_fr_energy">    436.22741786 </i>
    <i name="e_wo_entrp">    436.22741786 </i>
    <i name="e_0_energy">    436.22741786 </i>
   </energy>
  </scstep>
  <scstep>
   <time name="dav">    0.27    0.28</time>
   <time name="total">    0.28    0.28</time>
   <energy>
    <i name="e_fr_energy">    436.22741730 </i>
    <i name="e_wo_entrp">    436.22741730 </i>
    <i name="e_0_energy">    436.22741730 </i>
   </energy>
  </scstep>
  <scstep>
   <time name="dav">    0.17    0.17</time>
   <time name="total">    0.20    0.26</time>
   <energy>
    <i name="e_fr_energy">    436.22741730 </i>
    <i name="e_wo_entrp">    436.22741730 </i>
    <i name="e_0_energy">    436.22741730 </i>
   </energy>
  </scstep>
  <scstep>
   <time name="diag">    0.04    0.07</time>
   <time name="diis">    0.08    0.08</time>
   <time name="orth">    0.00    0.00</time>
   <time name="total">    0.14    0.19</time>
   <energy>
    <i name="e_fr_energy">    665.93959829 </i>
    <i name="e_wo_entrp">    665.93959829 </i>
    <i name="e_0_energy">    665.93959829 </i>
   </energy>
  </scstep>
  <scstep>
   <time name="diag">    0.01    0.01</time>
   <time name="diis">    0.06    0.06</time>
   <time name="orth">    0.00    0.00</time>
   <time name="total">    0.10    0.10</time>
   <energy>
    <i name="e_fr_energy">    709.48344555 </i>
    <i name="e_wo_entrp">    709.48344555 </i>
    <i name="e_0_energy">    709.48344555 </i>
   </energy>
  </scstep>
  <scstep>
   <time name="diag">    0.01    0.01</time>
   <time name="diis">    0.06    0.06</time>
   <time name="orth">    0.00    0.00</time>
   <time name="total">    0.10    0.10</time>
   <energy>
    <i name="e_fr_energy">    710.82538884 </i>
    <i name="e_wo_entrp">    710.82538884 </i>
    <i name="e_0_energy">    710.82538884 </i>
   </energy>
  </scstep>
  <scstep>
   <time name="diag">    0.01    0.01</time>
   <time name="diis">    0.06    0.06</time>
   <time name="orth">    0.00    0.00</time>
   <time name="total">    0.10    0.10</time>
   <energy>
    <i name="e_fr_energy">    711.32765015 </i>
    <i name="e_wo_entrp">    711.32765015 </i>
    <i name="e_0_energy">    711.32765015 </i>
   </energy>
  </scstep>
  <scstep>
   <time name="diag">    0.01    0.02</time>
   <time name="diis">    0.06    0.06</time>
   <time name="orth">    0.00    0.00</time>
   <time name="total">    0.10    0.10</time>
   <energy>
    <i name="e_fr_energy">    711.33726186 </i>
    <i name="e_wo_entrp">    711.33726186 </i>
    <i name="e_0_energy">    711.33726186 </i>
   </energy>
  </scstep>
  <scstep>
   <time name="diag">    0.01    0.02</time>
   <time name="diis">    0.05    0.05</time>
   <time name="orth">    0.00    0.00</time>
   <time name="total">    0.09    0.09</time>
   <energy>
    <i name="e_fr_energy">    711.33734846 </i>
    <i name="e_wo_entrp">    711.33734846 </i>
    <i name="e_0_energy">    711.33734846 </i>
   </energy>
  </scstep>
  <scstep>
   <time name="diag">    0.01    0.01</time>
   <time name="diis">    0.05    0.05</time>
   <time name="orth">    0.00    0.00</time>
   <time name="total">    0.09    0.09</time>
   <energy>
    <i name="e_fr_energy">    711.33750671 </i>
    <i name="e_wo_entrp">    711.33750671 </i>
    <i name="e_0_energy">    711.33750671 </i>
   </energy>
  </scstep>
  <scstep>
   <time name="diag">    0.01    0.01</time>
   <time name="diis">    0.05    0.05</time>
   <time name="orth">    0.00    0.00</time>
   <time name="total">    0.09    0.09</time>
   <energy>
    <i name="alphaZ">    189.69386121 </i>
    <i name="ewald">  -1760.99142016 </i>
    <i name="hartreedc">   -123.14321667 </i>
    <i name="XCdc">     52.13045949 </i>
    <i name="pawpsdc">    540.45182790 </i>
    <i name="pawaedc">   -588.60268255 </i>
    <i name="eentropy">      0.00000000 </i>
    <i name="bandstr">    -55.09253865 </i>
    <i name="atom">   2456.89122314 </i>
    <i name="e_fr_energy">    711.33751372 </i>
    <i name="e_wo_entrp">    711.33751372 </i>
    <i name="e_0_energy">    711.33751372 </i>
   </energy>
  </scstep>
  <structure>
   <crystal>
    <varray name="basis" >
     <v>       1.73000000       1.73000000       0.00000000 </v>
     <v>      -1.73000000       1.73000000       0.00000000 </v>
     <v>       0.00000000       0.00000000       1.73000000 </v>
    </varray>
    <i name="volume">     10.35543400 </i>
    <varray name="rec_basis" >
     <v>       0.28901734       0.28901734       0.00000000 </v>
     <v>      -0.28901734       0.28901734       0.00000000 </v>
     <v>       0.00000000       0.00000000       0.57803468 </v>
    </varray>
   </crystal>
   <varray name="positions" >
    <v>       0.00000000       0.00000000       0.00000000 </v>
   </varray>
  </structure>
  <varray name="forces" >
   <v>       0.00000000      -0.00000000       0.00000000 </v>
  </varray>
  <varray name="stress" >
   <v>  -12353.08821444       0.00000000      -0.00000000 </v>
   <v>       0.00000000  -12353.08821444      -0.00000000 </v>
   <v>      -0.00000000      -0.00000000   62213.36307316 </v>
  </varray>
  <energy>
   <i name="e_fr_energy">    711.33751372 </i>
   <i name="e_wo_entrp">    711.33751372 </i>
   <i name="e_0_energy">      0.00000000 </i>
  </energy>
  <time name="totalsc">    2.20    2.60</time>
  <eigenvalues>
   <array>
    <dimension dim="1">band</dimension>
    <dimension dim="2">kpoint</dimension>
    <dimension dim="3">spin</dimension>
    <field>eigene</field>
    <field>occ</field>
    <set>
     <set comment="spin 1">
      <set comment="kpoint 1">
       <r>  -25.4595    1.0000 </r>
       <r>  -10.1455    1.0000 </r>
       <r>   -4.0837    1.0000 </r>
       <r>    0.3645    1.0000 </r>
       <r>    3.8512    1.0000 </r>
       <r>    6.2744    1.0000 </r>
       <r>    7.8508    1.0000 </r>
       <r>   11.9801    0.2508 </r>
       <r>   30.2667    0.0000 </r>
       <r>   30.7910    0.0000 </r>
       <r>   31.7972    0.0000 </r>
       <r>   32.6114    0.0000 </r>
       <r>   32.8139    0.0000 </r>
       <r>   36.3776    0.0000 </r>
       <r>   47.3276    0.0000 </r>
       <r>   52.5326    0.0000 </r>
      </set>
      <set comment="kpoint 2">
       <r>  -27.3751    1.0000 </r>
       <r>   -9.7310    1.0000 </r>
       <r>   -3.7501    1.0000 </r>
       <r>    0.0789    1.0000 </r>
       <r>    4.7749    1.0000 </r>
       <r>    5.3400    1.0000 </r>
       <r>    9.4878    1.0000 </r>
       <r>   10.8407    0.5905 </r>
       <r>   25.5690    0.0000 </r>
       <r>   27.5647    0.0000 </r>
       <r>   30.5079    0.0000 </r>
       <r>   36.5886    0.0000 </r>
       <r>   38.4184    0.0000 </r>
       <r>   39.4211    0.0000 </r>
       <r>   45.8938    0.0000 </r>
       <r>   52.5492    0.0000 </r>
      </set>
      <set comment="kpoint 3">
       <r>  -28.0554    1.0000 </r>
       <r>   -9.4637    1.0000 </r>
       <r>   -2.7528    1.0000 </r>
       <r>   -2.1024    1.0000 </r>
       <r>    3.6141    1.0000 </r>
       <r>    6.6105    1.0000 </r>
       <r>    9.8982    1.0000 </r>
       <r>   15.3062   -0.0301 </r>
       <r>   20.9816    0.0000 </r>
       <r>   22.9979    0.0000 </r>
       <r>   31.3387    0.0000 </r>
       <r>   40.7711    0.0000 </r>
       <r>   42.2764    0.0000 </r>
       <r>   45.4783    0.0000 </r>
       <r>   45.7477    0.0000 </r>
       <r>   51.3777    0.0000 </r>
      </set>
      <set comment="kpoint 4">
       <r>  -28.6307    1.0000 </r>
       <r>   -9.7463    1.0000 </r>
       <r>   -4.6840    1.0000 </r>
       <r>   -1.1760    1.0000 </r>
       <r>    3.4721    1.0000 </r>
       <r>    8.2700    1.0000 </r>
       <r>   10.7596    1.0005 </r>
       <r>   16.8468    0.0000 </r>
       <r>   18.9594    0.0000 </r>
       <r>   20.8380    0.0000 </r>
       <r>   32.8229    0.0000 </r>
       <r>   39.8935    0.0000 </r>
       <r>   45.3696    0.0000 </r>
       <r>   48.9198    0.0000 </r>
       <r>   51.6029    0.0000 </r>
       <r>   52.6314    0.0000 </r>
      </set>
      <set comment="kpoint 5">
       <r>  -29.1453    1.0000 </r>
       <r>  -11.2303    1.0000 </r>
       <r>   -6.3450    1.0000 </r>
       <r>    0.5652    1.0000 </r>
       <r>    3.8377    1.0000 </r>
       <r>   10.4140    1.0000 </r>
       <r>   12.4251    0.3614 </r>
       <r>   13.5920    0.0000 </r>
       <r>   15.6196    0.0000 </r>
       <r>   25.3252    0.0000 </r>
       <r>   35.1932    0.0000 </r>
       <r>   37.6702    0.0000 </r>
       <r>   42.7134    0.0000 </r>
       <r>   47.9582    0.0000 </r>
       <r>   49.9133    0.0000 </r>
       <r>   60.3673    0.0000 </r>
      </set>
      <set comment="kpoint 6">
       <r>  -27.4094    1.0000 </r>
       <r>   -9.5725    1.0000 </r>
       <r>   -3.4255    1.0000 </r>
       <r>   -0.8805    1.0000 </r>
       <r>    2.5766    1.0000 </r>
       <r>    6.4522    1.0000 </r>
       <r>    9.2106    1.0000 </r>
       <r>   12.6888   -0.0074 </r>
       <r>   20.5052    0.0000 </r>
       <r>   30.7974    0.0000 </r>
       <r>   32.4060    0.0000 </r>
       <r>   33.4956    0.0000 </r>
       <r>   38.9217    0.0000 </r>
       <r>   44.7980    0.0000 </r>
       <r>   45.8598    0.0000 </r>
       <r>   52.3495    0.0000 </r>
      </set>
      <set comment="kpoint 7">
       <r>  -28.0591    1.0000 </r>
       <r>   -9.3546    1.0000 </r>
       <r>   -2.4606    1.0000 </r>
       <r>   -1.9990    1.0000 </r>
       <r>    1.0015    1.0000 </r>
       <r>    7.5878    1.0000 </r>
       <r>   10.5935    1.0000 </r>
       <r>   15.5940   -0.0158 </r>
       <r>   16.0128    0.0000 </r>
       <r>   28.8294    0.0000 </r>
       <r>   31.6302    0.0000 </r>
       <r>   37.6918    0.0000 </r>
       <r>   42.4291    0.0000 </r>
       <r>   47.3640    0.0000 </r>
       <r>   51.3389    0.0000 </r>
       <r>   52.8235    0.0000 </r>
      </set>
      <set comment="kpoint 8">
       <r>  -28.6266    1.0000 </r>
       <r>   -9.7826    1.0000 </r>
       <r>   -4.6216    1.0000 </r>
       <r>   -0.9911    1.0000 </r>
       <r>    1.6066    1.0000 </r>
       <r>    7.7876    1.0000 </r>
       <r>   11.3448    0.9625 </r>
       <r>   13.5483    0.0000 </r>
       <r>   19.9874    0.0000 </r>
       <r>   24.8723    0.0000 </r>
       <r>   33.1081    0.0000 </r>
       <r>   40.2125    0.0000 </r>
       <r>   42.8297    0.0000 </r>
       <r>   49.0125    0.0000 </r>
       <r>   51.9572    0.0000 </r>
       <r>   54.5495    0.0000 </r>
      </set>
      <set comment="kpoint 9">
       <r>  -29.0175    1.0000 </r>
       <r>  -10.9913    1.0000 </r>
       <r>   -6.4630    1.0000 </r>
       <r>    0.4337    1.0000 </r>
       <r>    3.1750    1.0000 </r>
       <r>    8.2364    1.0000 </r>
       <r>    8.7986    1.0644 </r>
       <r>   15.8889    0.0000 </r>
       <r>   21.4461    0.0000 </r>
       <r>   24.1208    0.0000 </r>
       <r>   35.4804    0.0000 </r>
       <r>   38.1309    0.0000 </r>
       <r>   43.1567    0.0000 </r>
       <r>   46.6022    0.0000 </r>
       <r>   49.2646    0.0000 </r>
       <r>   54.2501    0.0000 </r>
      </set>
      <set comment="kpoint 10">
       <r>  -27.8532    1.0000 </r>
       <r>   -9.4346    1.0000 </r>
       <r>   -3.6859    1.0000 </r>
       <r>   -1.3813    1.0000 </r>
       <r>   -0.6396    1.0000 </r>
       <r>    6.4631    1.0000 </r>
       <r>   10.9477    1.0000 </r>
       <r>   13.2652    0.0000 </r>
       <r>   19.3474    0.0000 </r>
       <r>   32.4814    0.0000 </r>
       <r>   34.1129    0.0000 </r>
       <r>   35.3712    0.0000 </r>
       <r>   41.1025    0.0000 </r>
       <r>   43.8473    0.0000 </r>
       <r>   49.4638    0.0000 </r>
       <r>   57.7558    0.0000 </r>
      </set>
      <set comment="kpoint 11">
       <r>  -28.3065    1.0000 </r>
       <r>   -9.7063    1.0000 </r>
       <r>   -4.1993    1.0000 </r>
       <r>   -2.1229    1.0000 </r>
       <r>    0.2547    1.0000 </r>
       <r>    6.1706    1.0000 </r>
       <r>    7.2962    1.0000 </r>
       <r>   17.2091    0.0000 </r>
       <r>   21.7843    0.0000 </r>
       <r>   31.3096    0.0000 </r>
       <r>   34.0300    0.0000 </r>
       <r>   39.4372    0.0000 </r>
       <r>   41.6678    0.0000 </r>
       <r>   45.1354    0.0000 </r>
       <r>   50.5286    0.0000 </r>
       <r>   53.0457    0.0000 </r>
      </set>
      <set comment="kpoint 12">
       <r>  -28.6834    1.0000 </r>
       <r>  -10.5604    1.0000 </r>
       <r>   -6.4676    1.0000 </r>
       <r>   -0.9373    1.0000 </r>
       <r>    2.3082    1.0000 </r>
       <r>    3.8510    1.0000 </r>
       <r>    6.8380    1.0000 </r>
       <r>   20.8517    0.0000 </r>
       <r>   24.5915    0.0000 </r>
       <r>   27.9651    0.0000 </r>
       <r>   36.2863    0.0000 </r>
       <r>   39.0927    0.0000 </r>
       <r>   44.1098    0.0000 </r>
       <r>   44.3566    0.0000 </r>
       <r>   48.6524    0.0000 </r>
       <r>   50.4202    0.0000 </r>
      </set>
      <set comment="kpoint 13">
       <r>  -27.4661    1.0000 </r>
       <r>   -8.6139    1.0000 </r>
       <r>   -5.1473    1.0000 </r>
       <r>   -2.6037    1.0000 </r>
       <r>    1.2065    1.0000 </r>
       <r>    3.2634    1.0000 </r>
       <r>    6.3642    1.0000 </r>
       <r>   18.7846    0.0000 </r>
       <r>   27.0896    0.0000 </r>
       <r>   35.5199    0.0000 </r>
       <r>   36.9185    0.0000 </r>
       <r>   38.4229    0.0000 </r>
       <r>   41.4694    0.0000 </r>
       <r>   43.8530    0.0000 </r>
       <r>   46.2703    0.0000 </r>
       <r>   47.6079    0.0000 </r>
      </set>
      <set comment="kpoint 14">
       <r>  -27.7792    1.0000 </r>
       <r>   -9.1878    1.0000 </r>
       <r>   -5.7100    1.0000 </r>
       <r>   -2.9518    1.0000 </r>
       <r>   -0.2092    1.0000 </r>
       <r>    2.6384    1.0000 </r>
       <r>    7.2246    1.0000 </r>
       <r>   22.9847    0.0000 </r>
       <r>   30.0586    0.0000 </r>
       <r>   34.9932    0.0000 </r>
       <r>   37.5748    0.0000 </r>
       <r>   40.9887    0.0000 </r>
       <r>   42.4961    0.0000 </r>
       <r>   45.6324    0.0000 </r>
       <r>   45.8383    0.0000 </r>
       <r>   48.2210    0.0000 </r>
      </set>
      <set comment="kpoint 15">
       <r>  -27.1450    1.0000 </r>
       <r>   -9.7674    1.0000 </r>
       <r>   -5.9315    1.0000 </r>
       <r>   -4.2595    1.0000 </r>
       <r>   -3.0981    1.0000 </r>
       <r>    2.0779    1.0000 </r>
       <r>    7.5598    1.0000 </r>
       <r>   23.4367    0.0000 </r>
       <r>   35.2190    0.0000 </r>
       <r>   39.3285    0.0000 </r>
       <r>   41.3692    0.0000 </r>
       <r>   42.1447    0.0000 </r>
       <r>   42.7341    0.0000 </r>
       <r>   43.5895    0.0000 </r>
       <r>   45.8541    0.0000 </r>
       <r>   46.0886    0.0000 </r>
      </set>
     </set>
     <set comment="spin 2">
      <set comment="kpoint 1">
       <r>  -25.4603    1.0000 </r>
       <r>  -10.1460    1.0000 </r>
       <r>   -4.0838    1.0000 </r>
       <r>    0.3642    1.0000 </r>
       <r>    3.8511    1.0000 </r>
       <r>    6.2745    1.0000 </r>
       <r>    7.8506    1.0000 </r>
       <r>   11.9799    0.2510 </r>
       <r>   30.2667    0.0000 </r>
       <r>   30.7910    0.0000 </r>
       <r>   31.7971    0.0000 </r>
       <r>   32.6115    0.0000 </r>
       <r>   32.8138    0.0000 </r>
       <r>   36.3775    0.0000 </r>
       <r>   47.3329    0.0000 </r>
       <r>   52.5376    0.0000 </r>
      </set>
      <set comment="kpoint 2">
       <r>  -27.3759    1.0000 </r>
       <r>   -9.7315    1.0000 </r>
       <r>   -3.7502    1.0000 </r>
       <r>    0.0786    1.0000 </r>
       <r>    4.7748    1.0000 </r>
       <r>    5.3400    1.0000 </r>
       <r>    9.4877    1.0000 </r>
       <r>   10.8405    0.5906 </r>
       <r>   25.5690    0.0000 </r>
       <r>   27.5646    0.0000 </r>
       <r>   30.5079    0.0000 </r>
       <r>   36.5885    0.0000 </r>
       <r>   38.4184    0.0000 </r>
       <r>   39.4210    0.0000 </r>
       <r>   45.8959    0.0000 </r>
       <r>   52.5470    0.0000 </r>
      </set>
      <set comment="kpoint 3">
       <r>  -28.0562    1.0000 </r>
       <r>   -9.4642    1.0000 </r>
       <r>   -2.7529    1.0000 </r>
       <r>   -2.1026    1.0000 </r>
       <r>    3.6138    1.0000 </r>
       <r>    6.6105    1.0000 </r>
       <r>    9.8980    1.0000 </r>
       <r>   15.3061   -0.0301 </r>
       <r>   20.9816    0.0000 </r>
       <r>   22.9978    0.0000 </r>
       <r>   31.3387    0.0000 </r>
       <r>   40.7711    0.0000 </r>
       <r>   42.2763    0.0000 </r>
       <r>   45.4783    0.0000 </r>
       <r>   45.7480    0.0000 </r>
       <r>   51.3790    0.0000 </r>
      </set>
      <set comment="kpoint 4">
       <r>  -28.6315    1.0000 </r>
       <r>   -9.7466    1.0000 </r>
       <r>   -4.6843    1.0000 </r>
       <r>   -1.1761    1.0000 </r>
       <r>    3.4718    1.0000 </r>
       <r>    8.2700    1.0000 </r>
       <r>   10.7594    1.0005 </r>
       <r>   16.8467    0.0000 </r>
       <r>   18.9594    0.0000 </r>
       <r>   20.8379    0.0000 </r>
       <r>   32.8228    0.0000 </r>
       <r>   39.8935    0.0000 </r>
       <r>   45.3692    0.0000 </r>
       <r>   48.9186    0.0000 </r>
       <r>   51.6028    0.0000 </r>
       <r>   52.6317    0.0000 </r>
      </set>
      <set comment="kpoint 5">
       <r>  -29.1460    1.0000 </r>
       <r>  -11.2305    1.0000 </r>
       <r>   -6.3454    1.0000 </r>
       <r>    0.5651    1.0000 </r>
       <r>    3.8374    1.0000 </r>
       <r>   10.4140    1.0000 </r>
       <r>   12.4250    0.3615 </r>
       <r>   13.5920    0.0000 </r>
       <r>   15.6196    0.0000 </r>
       <r>   25.3250    0.0000 </r>
       <r>   35.1932    0.0000 </r>
       <r>   37.6702    0.0000 </r>
       <r>   42.7134    0.0000 </r>
       <r>   47.9579    0.0000 </r>
       <r>   49.9132    0.0000 </r>
       <r>   60.3669    0.0000 </r>
      </set>
      <set comment="kpoint 6">
       <r>  -27.4101    1.0000 </r>
       <r>   -9.5730    1.0000 </r>
       <r>   -3.4256    1.0000 </r>
       <r>   -0.8807    1.0000 </r>
       <r>    2.5766    1.0000 </r>
       <r>    6.4521    1.0000 </r>
       <r>    9.2104    1.0000 </r>
       <r>   12.6887   -0.0073 </r>
       <r>   20.5051    0.0000 </r>
       <r>   30.7974    0.0000 </r>
       <r>   32.4060    0.0000 </r>
       <r>   33.4955    0.0000 </r>
       <r>   38.9218    0.0000 </r>
       <r>   44.7979    0.0000 </r>
       <r>   45.8637    0.0000 </r>
       <r>   52.3573    0.0000 </r>
      </set>
      <set comment="kpoint 7">
       <r>  -28.0599    1.0000 </r>
       <r>   -9.3550    1.0000 </r>
       <r>   -2.4607    1.0000 </r>
       <r>   -1.9992    1.0000 </r>
       <r>    1.0014    1.0000 </r>
       <r>    7.5876    1.0000 </r>
       <r>   10.5933    1.0000 </r>
       <r>   15.5939   -0.0158 </r>
       <r>   16.0128    0.0000 </r>
       <r>   28.8293    0.0000 </r>
       <r>   31.6302    0.0000 </r>
       <r>   37.6918    0.0000 </r>
       <r>   42.4329    0.0000 </r>
       <r>   47.4776    0.0000 </r>
       <r>   51.3390    0.0000 </r>
       <r>   52.8353    0.0000 </r>
      </set>
      <set comment="kpoint 8">
       <r>  -28.6273    1.0000 </r>
       <r>   -9.7830    1.0000 </r>
       <r>   -4.6218    1.0000 </r>
       <r>   -0.9912    1.0000 </r>
       <r>    1.6064    1.0000 </r>
       <r>    7.7874    1.0000 </r>
       <r>   11.3448    0.9625 </r>
       <r>   13.5482    0.0000 </r>
       <r>   19.9872    0.0000 </r>
       <r>   24.8723    0.0000 </r>
       <r>   33.1081    0.0000 </r>
       <r>   40.2124    0.0000 </r>
       <r>   42.8298    0.0000 </r>
       <r>   49.0176    0.0000 </r>
       <r>   51.9575    0.0000 </r>
       <r>   54.5644    0.0000 </r>
      </set>
      <set comment="kpoint 9">
       <r>  -29.0183    1.0000 </r>
       <r>  -10.9915    1.0000 </r>
       <r>   -6.4633    1.0000 </r>
       <r>    0.4335    1.0000 </r>
       <r>    3.1748    1.0000 </r>
       <r>    8.2364    1.0000 </r>
       <r>    8.7985    1.0644 </r>
       <r>   15.8888    0.0000 </r>
       <r>   21.4461    0.0000 </r>
       <r>   24.1205    0.0000 </r>
       <r>   35.4804    0.0000 </r>
       <r>   38.1309    0.0000 </r>
       <r>   43.1567    0.0000 </r>
       <r>   46.6020    0.0000 </r>
       <r>   49.2648    0.0000 </r>
       <r>   54.2517    0.0000 </r>
      </set>
      <set comment="kpoint 10">
       <r>  -27.8540    1.0000 </r>
       <r>   -9.4350    1.0000 </r>
       <r>   -3.6860    1.0000 </r>
       <r>   -1.3814    1.0000 </r>
       <r>   -0.6397    1.0000 </r>
       <r>    6.4628    1.0000 </r>
       <r>   10.9477    1.0000 </r>
       <r>   13.2650    0.0000 </r>
       <r>   19.3473    0.0000 </r>
       <r>   32.4814    0.0000 </r>
       <r>   34.1129    0.0000 </r>
       <r>   35.3712    0.0000 </r>
       <r>   41.1053    0.0000 </r>
       <r>   43.8517    0.0000 </r>
       <r>   49.4741    0.0000 </r>
       <r>   57.7640    0.0000 </r>
      </set>
      <set comment="kpoint 11">
       <r>  -28.3073    1.0000 </r>
       <r>   -9.7067    1.0000 </r>
       <r>   -4.1995    1.0000 </r>
       <r>   -2.1230    1.0000 </r>
       <r>    0.2546    1.0000 </r>
       <r>    6.1703    1.0000 </r>
       <r>    7.2961    1.0000 </r>
       <r>   17.2089    0.0000 </r>
       <r>   21.7842    0.0000 </r>
       <r>   31.3096    0.0000 </r>
       <r>   34.0300    0.0000 </r>
       <r>   39.4372    0.0000 </r>
       <r>   41.6677    0.0000 </r>
       <r>   45.1395    0.0000 </r>
       <r>   50.5235    0.0000 </r>
       <r>   53.0451    0.0000 </r>
      </set>
      <set comment="kpoint 12">
       <r>  -28.6842    1.0000 </r>
       <r>  -10.5607    1.0000 </r>
       <r>   -6.4679    1.0000 </r>
       <r>   -0.9375    1.0000 </r>
       <r>    2.3081    1.0000 </r>
       <r>    3.8510    1.0000 </r>
       <r>    6.8377    1.0000 </r>
       <r>   20.8516    0.0000 </r>
       <r>   24.5913    0.0000 </r>
       <r>   27.9650    0.0000 </r>
       <r>   36.2863    0.0000 </r>
       <r>   39.0927    0.0000 </r>
       <r>   44.1098    0.0000 </r>
       <r>   44.3565    0.0000 </r>
       <r>   48.6527    0.0000 </r>
       <r>   50.4226    0.0000 </r>
      </set>
      <set comment="kpoint 13">
       <r>  -27.4668    1.0000 </r>
       <r>   -8.6143    1.0000 </r>
       <r>   -5.1474    1.0000 </r>
       <r>   -2.6039    1.0000 </r>
       <r>    1.2064    1.0000 </r>
       <r>    3.2634    1.0000 </r>
       <r>    6.3639    1.0000 </r>
       <r>   18.7843    0.0000 </r>
       <r>   27.0895    0.0000 </r>
       <r>   35.5199    0.0000 </r>
       <r>   36.9184    0.0000 </r>
       <r>   38.4229    0.0000 </r>
       <r>   41.4693    0.0000 </r>
       <r>   43.8529    0.0000 </r>
       <r>   46.2701    0.0000 </r>
       <r>   47.6078    0.0000 </r>
      </set>
      <set comment="kpoint 14">
       <r>  -27.7800    1.0000 </r>
       <r>   -9.1881    1.0000 </r>
       <r>   -5.7102    1.0000 </r>
       <r>   -2.9520    1.0000 </r>
       <r>   -0.2093    1.0000 </r>
       <r>    2.6383    1.0000 </r>
       <r>    7.2244    1.0000 </r>
       <r>   22.9844    0.0000 </r>
       <r>   30.0585    0.0000 </r>
       <r>   34.9932    0.0000 </r>
       <r>   37.5748    0.0000 </r>
       <r>   40.9887    0.0000 </r>
       <r>   42.4960    0.0000 </r>
       <r>   45.6323    0.0000 </r>
       <r>   45.8384    0.0000 </r>
       <r>   48.2211    0.0000 </r>
      </set>
      <set comment="kpoint 15">
       <r>  -27.1458    1.0000 </r>
       <r>   -9.7677    1.0000 </r>
       <r>   -5.9316    1.0000 </r>
       <r>   -4.2596    1.0000 </r>
       <r>   -3.0982    1.0000 </r>
       <r>    2.0776    1.0000 </r>
       <r>    7.5596    1.0000 </r>
       <r>   23.4364    0.0000 </r>
       <r>   35.2189    0.0000 </r>
       <r>   39.3284    0.0000 </r>
       <r>   41.3692    0.0000 </r>
       <r>   42.1446    0.0000 </r>
       <r>   42.7344    0.0000 </r>
       <r>   43.5892    0.0000 </r>
       <r>   45.8554    0.0000 </r>
       <r>   46.0917    0.0000 </r>
      </set>
     </set>
    </set>
   </array>
  </eigenvalues>
  <separator name="orbital magnetization" >
   <v name="MAGDIPOLOUT">      0.00000000      0.00000000      0.00000000</v>
  </separator>
  <dos>
   <i name="efermi">     11.57777542 </i>
   <total>
    <array>
     <dimension dim="1">gridpoints</dimension>
     <dimension dim="2">spin</dimension>
     <field>energy</field>
     <field>total</field>
     <field>integrated</field>
     <set>
      <set comment="spin 1">
       <r>   -33.6217     0.0000     0.0000 </r>
       <r>   -33.2935     0.0000     0.0000 </r>
       <r>   -32.9653     0.0000     0.0000 </r>
       <r>   -32.6371     0.0000     0.0000 </r>
       <r>   -32.3088     0.0000     0.0000 </r>
       <r>   -31.9806     0.0000     0.0000 </r>
       <r>   -31.6524     0.0000     0.0000 </r>
       <r>   -31.3242     0.0000     0.0000 </r>
       <r>   -30.9960     0.0000     0.0000 </r>
       <r>   -30.6678     0.0000     0.0000 </r>
       <r>   -30.3395     0.0000     0.0000 </r>
       <r>   -30.0113     0.0000     0.0000 </r>
       <r>   -29.6831     0.0000     0.0000 </r>
       <r>   -29.3549     0.0000     0.0000 </r>
       <r>   -29.0267     0.5858     0.0576 </r>
       <r>   -28.6985     0.6126     0.2187 </r>
       <r>   -28.3703     0.5220     0.3902 </r>
       <r>   -28.0420     0.7319     0.5885 </r>
       <r>   -27.7138     0.5467     0.7768 </r>
       <r>   -27.3856     0.7138     0.9166 </r>
       <r>   -27.0574     0.0319     0.9745 </r>
       <r>   -26.7292     0.0253     0.9839 </r>
       <r>   -26.4010     0.0188     0.9912 </r>
       <r>   -26.0727     0.0122     0.9962 </r>
       <r>   -25.7445     0.0057     0.9992 </r>
       <r>   -25.4163     0.0000     1.0000 </r>
       <r>   -25.0881     0.0000     1.0000 </r>
       <r>   -24.7599     0.0000     1.0000 </r>
       <r>   -24.4317     0.0000     1.0000 </r>
       <r>   -24.1035     0.0000     1.0000 </r>
       <r>   -23.7752     0.0000     1.0000 </r>
       <r>   -23.4470     0.0000     1.0000 </r>
       <r>   -23.1188     0.0000     1.0000 </r>
       <r>   -22.7906     0.0000     1.0000 </r>
       <r>   -22.4624     0.0000     1.0000 </r>
       <r>   -22.1342     0.0000     1.0000 </r>
       <r>   -21.8059     0.0000     1.0000 </r>
       <r>   -21.4777     0.0000     1.0000 </r>
       <r>   -21.1495     0.0000     1.0000 </r>
       <r>   -20.8213     0.0000     1.0000 </r>
       <r>   -20.4931     0.0000     1.0000 </r>
       <r>   -20.1649     0.0000     1.0000 </r>
       <r>   -19.8367     0.0000     1.0000 </r>
       <r>   -19.5084     0.0000     1.0000 </r>
       <r>   -19.1802     0.0000     1.0000 </r>
       <r>   -18.8520     0.0000     1.0000 </r>
       <r>   -18.5238     0.0000     1.0000 </r>
       <r>   -18.1956     0.0000     1.0000 </r>
       <r>   -17.8674     0.0000     1.0000 </r>
       <r>   -17.5391     0.0000     1.0000 </r>
       <r>   -17.2109     0.0000     1.0000 </r>
       <r>   -16.8827     0.0000     1.0000 </r>
       <r>   -16.5545     0.0000     1.0000 </r>
       <r>   -16.2263     0.0000     1.0000 </r>
       <r>   -15.8981     0.0000     1.0000 </r>
       <r>   -15.5698     0.0000     1.0000 </r>
       <r>   -15.2416     0.0000     1.0000 </r>
       <r>   -14.9134     0.0000     1.0000 </r>
       <r>   -14.5852     0.0000     1.0000 </r>
       <r>   -14.2570     0.0000     1.0000 </r>
       <r>   -13.9288     0.0000     1.0000 </r>
       <r>   -13.6006     0.0000     1.0000 </r>
       <r>   -13.2723     0.0000     1.0000 </r>
       <r>   -12.9441     0.0000     1.0000 </r>
       <r>   -12.6159     0.0000     1.0000 </r>
       <r>   -12.2877     0.0000     1.0000 </r>
       <r>   -11.9595     0.0000     1.0000 </r>
       <r>   -11.6313     0.0000     1.0000 </r>
       <r>   -11.3030     0.0000     1.0000 </r>
       <r>   -10.9748     0.1911     1.0612 </r>
       <r>   -10.6466     0.2622     1.1356 </r>
       <r>   -10.3184     0.2264     1.2109 </r>
       <r>    -9.9902     0.3137     1.2948 </r>
       <r>    -9.6620     1.1905     1.4934 </r>
       <r>    -9.3338     0.3216     1.8910 </r>
       <r>    -9.0055     0.1455     1.9715 </r>
       <r>    -8.6773     0.0236     1.9993 </r>
       <r>    -8.3491     0.0000     2.0000 </r>
       <r>    -8.0209     0.0000     2.0000 </r>
       <r>    -7.6927     0.0000     2.0000 </r>
       <r>    -7.3645     0.0000     2.0000 </r>
       <r>    -7.0362     0.0000     2.0000 </r>
       <r>    -6.7080     0.0000     2.0000 </r>
       <r>    -6.3798     0.5804     2.0961 </r>
       <r>    -6.0516     0.2093     2.1740 </r>
       <r>    -5.7234     0.6272     2.3236 </r>
       <r>    -5.3952     0.2212     2.4114 </r>
       <r>    -5.0670     0.1717     2.4740 </r>
       <r>    -4.7387     0.1687     2.5299 </r>
       <r>    -4.4105     0.1769     2.5848 </r>
       <r>    -4.0823     0.2383     2.6676 </r>
       <r>    -3.7541     0.3328     2.7614 </r>
       <r>    -3.4259     0.3150     2.8656 </r>
       <r>    -3.0977     0.3269     2.9805 </r>
       <r>    -2.7694     0.3528     3.0935 </r>
       <r>    -2.4412     0.1638     3.1824 </r>
       <r>    -2.1130     0.2022     3.2441 </r>
       <r>    -1.7848     0.5055     3.3924 </r>
       <r>    -1.4566     0.4671     3.5520 </r>
       <r>    -1.1284     0.3520     3.6903 </r>
       <r>    -0.8001     0.2542     3.7826 </r>
       <r>    -0.4719     0.2674     3.8662 </r>
       <r>    -0.1437     0.3231     3.9611 </r>
       <r>     0.1845     0.4077     4.0828 </r>
       <r>     0.5127     0.6286     4.2246 </r>
       <r>     0.8409     0.2215     4.3188 </r>
       <r>     1.1691     0.2056     4.3897 </r>
       <r>     1.4974     0.1892     4.4543 </r>
       <r>     1.8256     0.1859     4.5152 </r>
       <r>     2.1538     0.2883     4.5961 </r>
       <r>     2.4820     0.3740     4.7055 </r>
       <r>     2.8102     0.3396     4.8245 </r>
       <r>     3.1384     0.3302     4.9344 </r>
       <r>     3.4667     0.3872     5.0534 </r>
       <r>     3.7949     0.2399     5.1533 </r>
       <r>     4.1231     0.1146     5.1973 </r>
       <r>     4.4513     0.1068     5.2337 </r>
       <r>     4.7795     0.0612     5.2673 </r>
       <r>     5.1077     0.0622     5.2875 </r>
       <r>     5.4359     0.1187     5.3131 </r>
       <r>     5.7642     0.1432     5.3561 </r>
       <r>     6.0924     0.1676     5.4071 </r>
       <r>     6.4206     0.2284     5.4799 </r>
       <r>     6.7488     0.4059     5.5881 </r>
       <r>     7.0770     0.6690     5.7774 </r>
       <r>     7.4052     0.5392     5.9892 </r>
       <r>     7.7335     0.2659     6.1317 </r>
       <r>     8.0617     0.2523     6.2149 </r>
       <r>     8.3899     0.1783     6.2878 </r>
       <r>     8.7181     0.1796     6.3465 </r>
       <r>     9.0463     0.1733     6.4033 </r>
       <r>     9.3745     0.2887     6.4702 </r>
       <r>     9.7027     0.2568     6.5631 </r>
       <r>    10.0310     0.2581     6.6467 </r>
       <r>    10.3592     0.2730     6.7338 </r>
       <r>    10.6874     0.3092     6.8249 </r>
       <r>    11.0156     0.2428     6.9187 </r>
       <r>    11.3438     0.1068     6.9761 </r>
       <r>    11.6720     0.0942     7.0090 </r>
       <r>    12.0003     0.0812     7.0380 </r>
       <r>    12.3285     0.0552     7.0603 </r>
       <r>    12.6567     0.0267     7.0723 </r>
       <r>    12.9849     0.0356     7.0823 </r>
       <r>    13.3131     0.0512     7.0959 </r>
       <r>    13.6413     0.1435     7.1229 </r>
       <r>    13.9696     0.1575     7.1723 </r>
       <r>    14.2978     0.1715     7.2263 </r>
       <r>    14.6260     0.1854     7.2849 </r>
       <r>    14.9542     0.1994     7.3480 </r>
       <r>    15.2824     0.2133     7.4158 </r>
       <r>    15.6106     0.1766     7.4829 </r>
       <r>    15.9388     0.1562     7.5405 </r>
       <r>    16.2671     0.1442     7.5907 </r>
       <r>    16.5953     0.1211     7.6343 </r>
       <r>    16.9235     0.1043     7.6705 </r>
       <r>    17.2517     0.1185     7.7058 </r>
       <r>    17.5799     0.1268     7.7460 </r>
       <r>    17.9081     0.1352     7.7890 </r>
       <r>    18.2364     0.1435     7.8348 </r>
       <r>    18.5646     0.1519     7.8833 </r>
       <r>    18.8928     0.1605     7.9345 </r>
       <r>    19.2210     0.1693     7.9886 </r>
       <r>    19.5492     0.1776     8.0456 </r>
       <r>    19.8774     0.1858     8.1052 </r>
       <r>    20.2056     0.1772     8.1657 </r>
       <r>    20.5339     0.1604     8.2211 </r>
       <r>    20.8621     0.1596     8.2715 </r>
       <r>    21.1903     0.1575     8.3231 </r>
       <r>    21.5185     0.1638     8.3755 </r>
       <r>    21.8467     0.1491     8.4271 </r>
       <r>    22.1749     0.1496     8.4762 </r>
       <r>    22.5032     0.1502     8.5254 </r>
       <r>    22.8314     0.1507     8.5747 </r>
       <r>    23.1596     0.2610     8.6457 </r>
       <r>    23.4878     0.1124     8.7306 </r>
       <r>    23.8160     0.1130     8.7676 </r>
       <r>    24.1442     0.1687     8.8061 </r>
       <r>    24.4724     0.1857     8.8642 </r>
       <r>    24.8007     0.1974     8.9267 </r>
       <r>    25.1289     0.1695     8.9886 </r>
       <r>    25.4571     0.1037     9.0332 </r>
       <r>    25.7853     0.1037     9.0672 </r>
       <r>    26.1135     0.1033     9.1012 </r>
       <r>    26.4417     0.1029     9.1351 </r>
       <r>    26.7700     0.1026     9.1688 </r>
       <r>    27.0982     0.1022     9.2024 </r>
       <r>    27.4264     0.1021     9.2359 </r>
       <r>    27.7546     0.1173     9.2723 </r>
       <r>    28.0828     0.1115     9.3101 </r>
       <r>    28.4110     0.1117     9.3468 </r>
       <r>    28.7393     0.1118     9.3834 </r>
       <r>    29.0675     0.1272     9.4243 </r>
       <r>    29.3957     0.1217     9.4651 </r>
       <r>    29.7239     0.1163     9.5042 </r>
       <r>    30.0521     0.1108     9.5414 </r>
       <r>    30.3803     0.1024     9.5759 </r>
       <r>    30.7085     0.1508     9.6173 </r>
       <r>    31.0368     0.1663     9.6681 </r>
       <r>    31.3650     0.2262     9.7293 </r>
       <r>    31.6932     0.3105     9.8160 </r>
       <r>    32.0214     0.2531     9.9090 </r>
       <r>    32.3496     0.1906     9.9818 </r>
       <r>    32.6778     0.1820    10.0411 </r>
       <r>    33.0061     0.1759    10.1010 </r>
       <r>    33.3343     0.1838    10.1586 </r>
       <r>    33.6625     0.2038    10.2222 </r>
       <r>    33.9907     0.2238    10.2924 </r>
       <r>    34.3189     0.1863    10.3688 </r>
       <r>    34.6471     0.1932    10.4311 </r>
       <r>    34.9753     0.2000    10.4956 </r>
       <r>    35.3036     0.3776    10.6046 </r>
       <r>    35.6318     0.2207    10.7017 </r>
       <r>    35.9600     0.2143    10.7730 </r>
       <r>    36.2882     0.1850    10.8423 </r>
       <r>    36.6164     0.1857    10.9050 </r>
       <r>    36.9446     0.1978    10.9681 </r>
       <r>    37.2729     0.1994    11.0333 </r>
       <r>    37.6011     0.1449    11.0976 </r>
       <r>    37.9293     0.2677    11.1733 </r>
       <r>    38.2575     0.2492    11.2604 </r>
       <r>    38.5857     0.3396    11.3562 </r>
       <r>    38.9139     0.3981    11.4773 </r>
       <r>    39.2421     0.4168    11.6145 </r>
       <r>    39.5704     0.3511    11.7551 </r>
       <r>    39.8986     0.2980    11.8617 </r>
       <r>    40.2268     0.2247    11.9474 </r>
       <r>    40.5550     0.1656    12.0114 </r>
       <r>    40.8832     0.1239    12.0571 </r>
       <r>    41.2114     0.1933    12.1054 </r>
       <r>    41.5397     0.3466    12.2029 </r>
       <r>    41.8679     0.2962    12.3115 </r>
       <r>    42.1961     0.2810    12.4232 </r>
       <r>    42.5243     0.6375    12.5401 </r>
       <r>    42.8525     0.4433    12.7177 </r>
       <r>    43.1807     0.2947    12.8466 </r>
       <r>    43.5090     0.2454    12.9353 </r>
       <r>    43.8372     0.2444    13.0291 </r>
       <r>    44.1654     0.2186    13.1188 </r>
       <r>    44.4936     0.3140    13.2059 </r>
       <r>    44.8218     0.3282    13.3113 </r>
       <r>    45.1500     0.2997    13.4206 </r>
       <r>    45.4782     0.2427    13.5091 </r>
       <r>    45.8065     0.3150    13.5727 </r>
       <r>    46.1347     0.3167    13.7959 </r>
       <r>    46.4629     0.2672    13.8872 </r>
       <r>    46.7911     0.2844    13.9777 </r>
       <r>    47.1193     0.2917    14.0722 </r>
       <r>    47.4475     0.2854    14.1679 </r>
       <r>    47.7758     0.3101    14.2648 </r>
       <r>    48.1040     0.3047    14.3667 </r>
       <r>    48.4322     0.2615    14.4582 </r>
       <r>    48.7604     0.3312    14.5512 </r>
       <r>    49.0886     0.2361    14.6490 </r>
       <r>    49.4168     0.2525    14.7294 </r>
       <r>    49.7450     0.2886    14.8178 </r>
       <r>    50.0733     0.2406    14.9059 </r>
       <r>    50.4015     0.2573    14.9876 </r>
       <r>    50.7297     0.2230    15.0649 </r>
       <r>    51.0579     0.2185    15.1373 </r>
       <r>    51.3861     0.2046    15.2076 </r>
       <r>    51.7143     0.2282    15.2865 </r>
       <r>    52.0426     0.1554    15.3440 </r>
       <r>    52.3708     0.2570    15.4043 </r>
       <r>    52.6990     0.2325    15.5386 </r>
       <r>    53.0272     0.1634    15.5937 </r>
       <r>    53.3554     0.1640    15.6481 </r>
       <r>    53.6836     0.1605    15.7013 </r>
       <r>    54.0118     0.1571    15.7534 </r>
       <r>    54.3401     0.1264    15.8030 </r>
       <r>    54.6683     0.0700    15.8322 </r>
       <r>    54.9965     0.0644    15.8542 </r>
       <r>    55.3247     0.0588    15.8744 </r>
       <r>    55.6529     0.0532    15.8928 </r>
       <r>    55.9811     0.0476    15.9093 </r>
       <r>    56.3094     0.0420    15.9240 </r>
       <r>    56.6376     0.0364    15.9369 </r>
       <r>    56.9658     0.0308    15.9479 </r>
       <r>    57.2940     0.0252    15.9571 </r>
       <r>    57.6222     0.0196    15.9644 </r>
       <r>    57.9504     0.0166    15.9702 </r>
       <r>    58.2786     0.0154    15.9754 </r>
       <r>    58.6069     0.0143    15.9803 </r>
       <r>    58.9351     0.0131    15.9848 </r>
       <r>    59.2633     0.0120    15.9889 </r>
       <r>    59.5915     0.0108    15.9927 </r>
       <r>    59.9197     0.0097    15.9960 </r>
       <r>    60.2479     0.0085    15.9990 </r>
       <r>    60.5762     0.0000    16.0000 </r>
       <r>    60.9044     0.0000    16.0000 </r>
       <r>    61.2326     0.0000    16.0000 </r>
       <r>    61.5608     0.0000    16.0000 </r>
       <r>    61.8890     0.0000    16.0000 </r>
       <r>    62.2172     0.0000    16.0000 </r>
       <r>    62.5455     0.0000    16.0000 </r>
       <r>    62.8737     0.0000    16.0000 </r>
       <r>    63.2019     0.0000    16.0000 </r>
       <r>    63.5301     0.0000    16.0000 </r>
       <r>    63.8583     0.0000    16.0000 </r>
       <r>    64.1865     0.0000    16.0000 </r>
       <r>    64.5147     0.0000    16.0000 </r>
       <r>    64.8430     0.0000    16.0000 </r>
      </set>
      <set comment="spin 2">
       <r>   -33.6217     0.0000     0.0000 </r>
       <r>   -33.2935     0.0000     0.0000 </r>
       <r>   -32.9653     0.0000     0.0000 </r>
       <r>   -32.6371     0.0000     0.0000 </r>
       <r>   -32.3088     0.0000     0.0000 </r>
       <r>   -31.9806     0.0000     0.0000 </r>
       <r>   -31.6524     0.0000     0.0000 </r>
       <r>   -31.3242     0.0000     0.0000 </r>
       <r>   -30.9960     0.0000     0.0000 </r>
       <r>   -30.6678     0.0000     0.0000 </r>
       <r>   -30.3395     0.0000     0.0000 </r>
       <r>   -30.0113     0.0000     0.0000 </r>
       <r>   -29.6831     0.0000     0.0000 </r>
       <r>   -29.3549     0.0000     0.0000 </r>
       <r>   -29.0267     0.5871     0.0581 </r>
       <r>   -28.6985     0.6132     0.2191 </r>
       <r>   -28.3703     0.5220     0.3906 </r>
       <r>   -28.0420     0.7309     0.5891 </r>
       <r>   -27.7138     0.5460     0.7772 </r>
       <r>   -27.3856     0.7268     0.9172 </r>
       <r>   -27.0574     0.0319     0.9746 </r>
       <r>   -26.7292     0.0253     0.9839 </r>
       <r>   -26.4010     0.0188     0.9912 </r>
       <r>   -26.0727     0.0122     0.9963 </r>
       <r>   -25.7445     0.0057     0.9992 </r>
       <r>   -25.4163     0.0000     1.0000 </r>
       <r>   -25.0881     0.0000     1.0000 </r>
       <r>   -24.7599     0.0000     1.0000 </r>
       <r>   -24.4317     0.0000     1.0000 </r>
       <r>   -24.1035     0.0000     1.0000 </r>
       <r>   -23.7752     0.0000     1.0000 </r>
       <r>   -23.4470     0.0000     1.0000 </r>
       <r>   -23.1188     0.0000     1.0000 </r>
       <r>   -22.7906     0.0000     1.0000 </r>
       <r>   -22.4624     0.0000     1.0000 </r>
       <r>   -22.1342     0.0000     1.0000 </r>
       <r>   -21.8059     0.0000     1.0000 </r>
       <r>   -21.4777     0.0000     1.0000 </r>
       <r>   -21.1495     0.0000     1.0000 </r>
       <r>   -20.8213     0.0000     1.0000 </r>
       <r>   -20.4931     0.0000     1.0000 </r>
       <r>   -20.1649     0.0000     1.0000 </r>
       <r>   -19.8367     0.0000     1.0000 </r>
       <r>   -19.5084     0.0000     1.0000 </r>
       <r>   -19.1802     0.0000     1.0000 </r>
       <r>   -18.8520     0.0000     1.0000 </r>
       <r>   -18.5238     0.0000     1.0000 </r>
       <r>   -18.1956     0.0000     1.0000 </r>
       <r>   -17.8674     0.0000     1.0000 </r>
       <r>   -17.5391     0.0000     1.0000 </r>
       <r>   -17.2109     0.0000     1.0000 </r>
       <r>   -16.8827     0.0000     1.0000 </r>
       <r>   -16.5545     0.0000     1.0000 </r>
       <r>   -16.2263     0.0000     1.0000 </r>
       <r>   -15.8981     0.0000     1.0000 </r>
       <r>   -15.5698     0.0000     1.0000 </r>
       <r>   -15.2416     0.0000     1.0000 </r>
       <r>   -14.9134     0.0000     1.0000 </r>
       <r>   -14.5852     0.0000     1.0000 </r>
       <r>   -14.2570     0.0000     1.0000 </r>
       <r>   -13.9288     0.0000     1.0000 </r>
       <r>   -13.6006     0.0000     1.0000 </r>
       <r>   -13.2723     0.0000     1.0000 </r>
       <r>   -12.9441     0.0000     1.0000 </r>
       <r>   -12.6159     0.0000     1.0000 </r>
       <r>   -12.2877     0.0000     1.0000 </r>
       <r>   -11.9595     0.0000     1.0000 </r>
       <r>   -11.6313     0.0000     1.0000 </r>
       <r>   -11.3030     0.0000     1.0000 </r>
       <r>   -10.9748     0.1911     1.0612 </r>
       <r>   -10.6466     0.2623     1.1357 </r>
       <r>   -10.3184     0.2264     1.2109 </r>
       <r>    -9.9902     0.3140     1.2949 </r>
       <r>    -9.6620     1.1911     1.4939 </r>
       <r>    -9.3338     0.3216     1.8911 </r>
       <r>    -9.0055     0.1454     1.9716 </r>
       <r>    -8.6773     0.0234     1.9993 </r>
       <r>    -8.3491     0.0000     2.0000 </r>
       <r>    -8.0209     0.0000     2.0000 </r>
       <r>    -7.6927     0.0000     2.0000 </r>
       <r>    -7.3645     0.0000     2.0000 </r>
       <r>    -7.0362     0.0000     2.0000 </r>
       <r>    -6.7080     0.0000     2.0000 </r>
       <r>    -6.3798     0.5806     2.0963 </r>
       <r>    -6.0516     0.2093     2.1740 </r>
       <r>    -5.7234     0.6274     2.3237 </r>
       <r>    -5.3952     0.2211     2.4114 </r>
       <r>    -5.0670     0.1717     2.4740 </r>
       <r>    -4.7387     0.1687     2.5299 </r>
       <r>    -4.4105     0.1769     2.5849 </r>
       <r>    -4.0823     0.2383     2.6677 </r>
       <r>    -3.7541     0.3329     2.7614 </r>
       <r>    -3.4259     0.3149     2.8657 </r>
       <r>    -3.0977     0.3269     2.9805 </r>
       <r>    -2.7694     0.3528     3.0935 </r>
       <r>    -2.4412     0.1639     3.1824 </r>
       <r>    -2.1130     0.2023     3.2441 </r>
       <r>    -1.7848     0.5055     3.3925 </r>
       <r>    -1.4566     0.4670     3.5521 </r>
       <r>    -1.1284     0.3519     3.6904 </r>
       <r>    -0.8001     0.2542     3.7827 </r>
       <r>    -0.4719     0.2674     3.8663 </r>
       <r>    -0.1437     0.3231     3.9611 </r>
       <r>     0.1845     0.4076     4.0828 </r>
       <r>     0.5127     0.6284     4.2247 </r>
       <r>     0.8409     0.2215     4.3188 </r>
       <r>     1.1691     0.2056     4.3897 </r>
       <r>     1.4974     0.1892     4.4543 </r>
       <r>     1.8256     0.1859     4.5152 </r>
       <r>     2.1538     0.2883     4.5962 </r>
       <r>     2.4820     0.3740     4.7056 </r>
       <r>     2.8102     0.3396     4.8245 </r>
       <r>     3.1384     0.3302     4.9344 </r>
       <r>     3.4667     0.3873     5.0535 </r>
       <r>     3.7949     0.2398     5.1534 </r>
       <r>     4.1231     0.1146     5.1973 </r>
       <r>     4.4513     0.1068     5.2337 </r>
       <r>     4.7795     0.0612     5.2673 </r>
       <r>     5.1077     0.0622     5.2875 </r>
       <r>     5.4359     0.1187     5.3131 </r>
       <r>     5.7642     0.1432     5.3561 </r>
       <r>     6.0924     0.1676     5.4071 </r>
       <r>     6.4206     0.2284     5.4800 </r>
       <r>     6.7488     0.4060     5.5882 </r>
       <r>     7.0770     0.6690     5.7775 </r>
       <r>     7.4052     0.5391     5.9893 </r>
       <r>     7.7335     0.2658     6.1317 </r>
       <r>     8.0617     0.2522     6.2149 </r>
       <r>     8.3899     0.1783     6.2878 </r>
       <r>     8.7181     0.1796     6.3465 </r>
       <r>     9.0463     0.1734     6.4033 </r>
       <r>     9.3745     0.2888     6.4702 </r>
       <r>     9.7027     0.2568     6.5631 </r>
       <r>    10.0310     0.2581     6.6467 </r>
       <r>    10.3592     0.2730     6.7339 </r>
       <r>    10.6874     0.3092     6.8249 </r>
       <r>    11.0156     0.2428     6.9188 </r>
       <r>    11.3438     0.1067     6.9761 </r>
       <r>    11.6720     0.0942     7.0091 </r>
       <r>    12.0003     0.0812     7.0380 </r>
       <r>    12.3285     0.0552     7.0604 </r>
       <r>    12.6567     0.0267     7.0723 </r>
       <r>    12.9849     0.0357     7.0823 </r>
       <r>    13.3131     0.0512     7.0959 </r>
       <r>    13.6413     0.1435     7.1230 </r>
       <r>    13.9696     0.1575     7.1724 </r>
       <r>    14.2978     0.1715     7.2263 </r>
       <r>    14.6260     0.1854     7.2849 </r>
       <r>    14.9542     0.1994     7.3481 </r>
       <r>    15.2824     0.2133     7.4158 </r>
       <r>    15.6106     0.1766     7.4829 </r>
       <r>    15.9388     0.1562     7.5405 </r>
       <r>    16.2671     0.1442     7.5907 </r>
       <r>    16.5953     0.1211     7.6343 </r>
       <r>    16.9235     0.1043     7.6705 </r>
       <r>    17.2517     0.1185     7.7058 </r>
       <r>    17.5799     0.1268     7.7461 </r>
       <r>    17.9081     0.1352     7.7891 </r>
       <r>    18.2364     0.1435     7.8348 </r>
       <r>    18.5646     0.1519     7.8833 </r>
       <r>    18.8928     0.1605     7.9345 </r>
       <r>    19.2210     0.1693     7.9887 </r>
       <r>    19.5492     0.1776     8.0456 </r>
       <r>    19.8774     0.1858     8.1052 </r>
       <r>    20.2056     0.1772     8.1657 </r>
       <r>    20.5339     0.1604     8.2211 </r>
       <r>    20.8621     0.1596     8.2715 </r>
       <r>    21.1903     0.1575     8.3231 </r>
       <r>    21.5185     0.1638     8.3755 </r>
       <r>    21.8467     0.1491     8.4272 </r>
       <r>    22.1749     0.1496     8.4762 </r>
       <r>    22.5032     0.1502     8.5254 </r>
       <r>    22.8314     0.1507     8.5748 </r>
       <r>    23.1596     0.2609     8.6457 </r>
       <r>    23.4878     0.1124     8.7306 </r>
       <r>    23.8160     0.1130     8.7676 </r>
       <r>    24.1442     0.1687     8.8061 </r>
       <r>    24.4724     0.1857     8.8643 </r>
       <r>    24.8007     0.1974     8.9268 </r>
       <r>    25.1289     0.1694     8.9887 </r>
       <r>    25.4571     0.1037     9.0332 </r>
       <r>    25.7853     0.1037     9.0672 </r>
       <r>    26.1135     0.1033     9.1012 </r>
       <r>    26.4417     0.1029     9.1351 </r>
       <r>    26.7700     0.1026     9.1688 </r>
       <r>    27.0982     0.1022     9.2024 </r>
       <r>    27.4264     0.1021     9.2359 </r>
       <r>    27.7546     0.1173     9.2723 </r>
       <r>    28.0828     0.1115     9.3101 </r>
       <r>    28.4110     0.1117     9.3468 </r>
       <r>    28.7393     0.1118     9.3834 </r>
       <r>    29.0675     0.1272     9.4243 </r>
       <r>    29.3957     0.1217     9.4651 </r>
       <r>    29.7239     0.1163     9.5042 </r>
       <r>    30.0521     0.1108     9.5415 </r>
       <r>    30.3803     0.1024     9.5759 </r>
       <r>    30.7085     0.1508     9.6173 </r>
       <r>    31.0368     0.1663     9.6681 </r>
       <r>    31.3650     0.2262     9.7293 </r>
       <r>    31.6932     0.3105     9.8160 </r>
       <r>    32.0214     0.2531     9.9090 </r>
       <r>    32.3496     0.1906     9.9818 </r>
       <r>    32.6778     0.1820    10.0411 </r>
       <r>    33.0061     0.1759    10.1010 </r>
       <r>    33.3343     0.1839    10.1586 </r>
       <r>    33.6625     0.2038    10.2223 </r>
       <r>    33.9907     0.2238    10.2924 </r>
       <r>    34.3189     0.1863    10.3688 </r>
       <r>    34.6471     0.1932    10.4311 </r>
       <r>    34.9753     0.2000    10.4956 </r>
       <r>    35.3036     0.3776    10.6047 </r>
       <r>    35.6318     0.2207    10.7017 </r>
       <r>    35.9600     0.2143    10.7730 </r>
       <r>    36.2882     0.1850    10.8423 </r>
       <r>    36.6164     0.1857    10.9050 </r>
       <r>    36.9446     0.1978    10.9681 </r>
       <r>    37.2729     0.1994    11.0333 </r>
       <r>    37.6011     0.1449    11.0976 </r>
       <r>    37.9293     0.2677    11.1733 </r>
       <r>    38.2575     0.2492    11.2605 </r>
       <r>    38.5857     0.3396    11.3562 </r>
       <r>    38.9139     0.3981    11.4773 </r>
       <r>    39.2421     0.4168    11.6145 </r>
       <r>    39.5704     0.3510    11.7551 </r>
       <r>    39.8986     0.2979    11.8617 </r>
       <r>    40.2268     0.2246    11.9473 </r>
       <r>    40.5550     0.1655    12.0114 </r>
       <r>    40.8832     0.1238    12.0570 </r>
       <r>    41.2114     0.1924    12.1052 </r>
       <r>    41.5397     0.3468    12.2026 </r>
       <r>    41.8679     0.2961    12.3112 </r>
       <r>    42.1961     0.2808    12.4228 </r>
       <r>    42.5243     0.6381    12.5397 </r>
       <r>    42.8525     0.4433    12.7174 </r>
       <r>    43.1807     0.2947    12.8464 </r>
       <r>    43.5090     0.2453    12.9350 </r>
       <r>    43.8372     0.2443    13.0288 </r>
       <r>    44.1654     0.2179    13.1182 </r>
       <r>    44.4936     0.3128    13.2051 </r>
       <r>    44.8218     0.3267    13.3100 </r>
       <r>    45.1500     0.2986    13.4189 </r>
       <r>    45.4782     0.2409    13.5069 </r>
       <r>    45.8065     0.3047    13.5696 </r>
       <r>    46.1347     0.3152    13.7923 </r>
       <r>    46.4629     0.2659    13.8832 </r>
       <r>    46.7911     0.2834    13.9732 </r>
       <r>    47.1193     0.2909    14.0675 </r>
       <r>    47.4475     0.3024    14.1644 </r>
       <r>    47.7758     0.3117    14.2623 </r>
       <r>    48.1040     0.3065    14.3647 </r>
       <r>    48.4322     0.2635    14.4568 </r>
       <r>    48.7604     0.3333    14.5504 </r>
       <r>    49.0886     0.2361    14.6490 </r>
       <r>    49.4168     0.2525    14.7293 </r>
       <r>    49.7450     0.2884    14.8176 </r>
       <r>    50.0733     0.2408    14.9057 </r>
       <r>    50.4015     0.2580    14.9876 </r>
       <r>    50.7297     0.2231    15.0648 </r>
       <r>    51.0579     0.2185    15.1373 </r>
       <r>    51.3861     0.2043    15.2076 </r>
       <r>    51.7143     0.2276    15.2863 </r>
       <r>    52.0426     0.1544    15.3436 </r>
       <r>    52.3708     0.2402    15.4032 </r>
       <r>    52.6990     0.2333    15.5370 </r>
       <r>    53.0272     0.1631    15.5928 </r>
       <r>    53.3554     0.1638    15.6471 </r>
       <r>    53.6836     0.1604    15.7003 </r>
       <r>    54.0118     0.1570    15.7524 </r>
       <r>    54.3401     0.1277    15.8020 </r>
       <r>    54.6683     0.0701    15.8317 </r>
       <r>    54.9965     0.0645    15.8538 </r>
       <r>    55.3247     0.0589    15.8741 </r>
       <r>    55.6529     0.0533    15.8925 </r>
       <r>    55.9811     0.0477    15.9091 </r>
       <r>    56.3094     0.0421    15.9238 </r>
       <r>    56.6376     0.0365    15.9367 </r>
       <r>    56.9658     0.0309    15.9478 </r>
       <r>    57.2940     0.0253    15.9570 </r>
       <r>    57.6222     0.0197    15.9644 </r>
       <r>    57.9504     0.0166    15.9702 </r>
       <r>    58.2786     0.0155    15.9754 </r>
       <r>    58.6069     0.0143    15.9803 </r>
       <r>    58.9351     0.0131    15.9848 </r>
       <r>    59.2633     0.0120    15.9889 </r>
       <r>    59.5915     0.0108    15.9927 </r>
       <r>    59.9197     0.0097    15.9960 </r>
       <r>    60.2479     0.0085    15.9990 </r>
       <r>    60.5762     0.0000    16.0000 </r>
       <r>    60.9044     0.0000    16.0000 </r>
       <r>    61.2326     0.0000    16.0000 </r>
       <r>    61.5608     0.0000    16.0000 </r>
       <r>    61.8890     0.0000    16.0000 </r>
       <r>    62.2172     0.0000    16.0000 </r>
       <r>    62.5455     0.0000    16.0000 </r>
       <r>    62.8737     0.0000    16.0000 </r>
       <r>    63.2019     0.0000    16.0000 </r>
       <r>    63.5301     0.0000    16.0000 </r>
       <r>    63.8583     0.0000    16.0000 </r>
       <r>    64.1865     0.0000    16.0000 </r>
       <r>    64.5147     0.0000    16.0000 </r>
       <r>    64.8430     0.0000    16.0000 </r>
      </set>
     </set>
    </array>
   </total>
   <partial>
    <array>
     <dimension dim="1">gridpoints</dimension>
     <dimension dim="2">spin</dimension>
     <dimension dim="3">ion</dimension>
     <field>energy</field>
     <field>  s</field>
     <field> py</field>
     <field> pz</field>
     <field> px</field>
     <field>dxy</field>
     <field>dyz</field>
     <field>dz2</field>
     <field>dxz</field>
     <field>dx2</field>
     <set>
[...]
       </set>
       <set comment="band 4">
        <r>  0.0171  0.0092  0.0211  0.0039  0.0709  0.0265  0.1518  0.0508  0.0012 </r>
       </set>
       <set comment="band 5">
        <r>  0.0156  0.0120  0.0492  0.0047  0.0050  0.0031  0.0290  0.0036  0.0023 </r>
       </set>
       <set comment="band 6">
        <r>  0.0440  0.0286  0.1471  0.0158  0.0856  0.0179  0.1499  0.0205  0.0188 </r>
       </set>
       <set comment="band 7">
        <r>  0.0047  0.0045  0.0176  0.0013  0.1113  0.0212  0.0031  0.0892  0.0818 </r>
       </set>
       <set comment="band 8">
        <r>  0.0019  0.0010  0.0007  0.0002  0.0704  0.0135  0.0375  0.0022  0.0045 </r>
       </set>
       <set comment="band 9">
        <r>  0.0005  0.0008  0.0001  0.0002  0.0040  0.0064  0.0045  0.0066  0.0014 </r>
       </set>
       <set comment="band 10">
        <r>  0.0001  0.0001  0.0002  0.0001  0.0012  0.0001  0.0006  0.0002  0.0008 </r>
       </set>
       <set comment="band 11">
        <r>  0.0015  0.0016  0.0006  0.0006  0.0333  0.0004  0.0116  0.0014  0.0123 </r>
       </set>
       <set comment="band 12">
        <r>  0.0005  0.0035  0.0020  0.0027  0.0230  0.0081  0.0221  0.0015  0.0123 </r>
       </set>
       <set comment="band 13">
        <r>  0.0009  0.0042  0.0005  0.0035  0.0876  0.0026  0.0010  0.0036  0.0066 </r>
       </set>
       <set comment="band 14">
        <r>  0.0007  0.0030  0.0011  0.0012  0.0121  0.0443  0.0487  0.0223  0.0016 </r>
       </set>
       <set comment="band 15">
        <r>  0.0000  0.0000  0.0000  0.0000  0.0005  0.0001  0.0001  0.0001  0.0001 </r>
       </set>
       <set comment="band 16">
        <r>  0.0033  0.0024  0.0018  0.0028  0.0054  0.0047  0.0012  0.0043  0.0282 </r>
       </set>
      </set>
      <set comment="kpoint 8">
       <set comment="band 1">
        <r>  0.0118  0.0008  0.0168  0.0009  0.0018  0.7498  0.1558  0.4031  0.0072 </r>
       </set>
       <set comment="band 2">
        <r>  0.0211  0.0339  0.1490  0.0226  0.1222  0.0123  0.2487  0.0906  0.0022 </r>
       </set>
       <set comment="band 3">
        <r>  0.0109  0.0093  0.0190  0.0078  0.0857  0.0250  0.1828  0.0744  0.0003 </r>
       </set>
       <set comment="band 4">
        <r>  0.2815  0.0953  0.0109  0.0247  0.0117  0.0050  0.0369  0.0097  0.0015 </r>
       </set>
       <set comment="band 5">
        <r>  0.0452  0.0386  0.1044  0.0121  0.0199  0.0080  0.0848  0.0143  0.0033 </r>
       </set>
       <set comment="band 6">
        <r>  0.0438  0.0340  0.1379  0.0175  0.0912  0.0106  0.1068  0.0369  0.0054 </r>
       </set>
       <set comment="band 7">
        <r>  0.0005  0.0006  0.0020  0.0004  0.0348  0.0045  0.0052  0.0112  0.0282 </r>
       </set>
       <set comment="band 8">
        <r>  0.0003  0.0006  0.0016  0.0001  0.0283  0.0137  0.0043  0.0453  0.0558 </r>
       </set>
       <set comment="band 9">
        <r>  0.0025  0.0008  0.0017  0.0002  0.1398  0.0413  0.0901  0.0168  0.0021 </r>
       </set>
       <set comment="band 10">
        <r>  0.0001  0.0000  0.0001  0.0000  0.0002  0.0001  0.0001  0.0003  0.0007 </r>
       </set>
       <set comment="band 11">
        <r>  0.0011  0.0019  0.0003  0.0007  0.0325  0.0001  0.0094  0.0022  0.0129 </r>
       </set>
       <set comment="band 12">
        <r>  0.0003  0.0026  0.0016  0.0007  0.0699  0.0047  0.0249  0.0016  0.0086 </r>
       </set>
       <set comment="band 13">
        <r>  0.0008  0.0032  0.0024  0.0037  0.0214  0.0180  0.0407  0.0036  0.0194 </r>
       </set>
       <set comment="band 14">
        <r>  0.0005  0.0081  0.0015  0.0039  0.0334  0.0293  0.0468  0.0108  0.0019 </r>
       </set>
       <set comment="band 15">
        <r>  0.0001  0.0001  0.0001  0.0000  0.0014  0.0000  0.0000  0.0001  0.0023 </r>
       </set>
       <set comment="band 16">
        <r>  0.0049  0.0018  0.0023  0.0021  0.0092  0.0020  0.0027  0.0040  0.0205 </r>
       </set>
      </set>
      <set comment="kpoint 9">
       <set comment="band 1">
        <r>  0.0127  0.0009  0.0086  0.0005  0.0016  0.7572  0.1424  0.4201  0.0086 </r>
       </set>
       <set comment="band 2">
        <r>  0.0093  0.0163  0.0855  0.0102  0.0788  0.0112  0.1171  0.0404  0.0018 </r>
       </set>
       <set comment="band 3">
        <r>  0.0276  0.0180  0.0774  0.0139  0.1576  0.0190  0.2907  0.1066  0.0008 </r>
       </set>
       <set comment="band 4">
        <r>  0.1833  0.0946  0.0551  0.0387  0.0354  0.0106  0.1130  0.0298  0.0028 </r>
       </set>
       <set comment="band 5">
        <r>  0.1171  0.0965  0.1170  0.0314  0.0196  0.0065  0.0682  0.0158  0.0036 </r>
       </set>
       <set comment="band 6">
        <r>  0.0020  0.0024  0.0035  0.0013  0.0072  0.0009  0.0041  0.0021  0.0072 </r>
       </set>
       <set comment="band 7">
        <r>  0.0367  0.0292  0.0989  0.0148  0.0706  0.0060  0.0569  0.0314  0.0019 </r>
       </set>
       <set comment="band 8">
        <r>  0.0003  0.0005  0.0007  0.0002  0.0290  0.0131  0.0101  0.0376  0.0650 </r>
       </set>
       <set comment="band 9">
        <r>  0.0000  0.0000  0.0001  0.0000  0.0044  0.0009  0.0027  0.0001  0.0009 </r>
       </set>
       <set comment="band 10">
        <r>  0.0038  0.0007  0.0009  0.0005  0.2375  0.0592  0.1546  0.0229  0.0020 </r>
       </set>
       <set comment="band 11">
        <r>  0.0012  0.0018  0.0001  0.0008  0.0167  0.0038  0.0019  0.0065  0.0129 </r>
       </set>
       <set comment="band 12">
        <r>  0.0004  0.0014  0.0003  0.0005  0.0159  0.0007  0.0031  0.0044  0.0077 </r>
       </set>
       <set comment="band 13">
        <r>  0.0000  0.0000  0.0000  0.0000  0.0003  0.0000  0.0000  0.0001  0.0010 </r>
       </set>
       <set comment="band 14">
        <r>  0.0007  0.0002  0.0016  0.0016  0.0648  0.0283  0.0777  0.0015  0.0264 </r>
       </set>
       <set comment="band 15">
        <r>  0.0024  0.0068  0.0006  0.0029  0.1619  0.0048  0.0086  0.0169  0.0076 </r>
       </set>
       <set comment="band 16">
        <r>  0.0001  0.0041  0.0013  0.0031  0.0050  0.0083  0.0066  0.0042  0.0016 </r>
       </set>
      </set>
      <set comment="kpoint 10">
       <set comment="band 1">
        <r>  0.0103  0.0008  0.0244  0.0017  0.0016  0.7787  0.1626  0.3648  0.0062 </r>
       </set>
       <set comment="band 2">
        <r>  0.0260  0.0455  0.1762  0.0327  0.1265  0.0139  0.3135  0.1685  0.0094 </r>
       </set>
       <set comment="band 3">
        <r>  0.0131  0.0102  0.0379  0.0033  0.0259  0.0150  0.1246  0.0284  0.0010 </r>
       </set>
       <set comment="band 4">
        <r>  0.3033  0.1092  0.0001  0.0001  0.0008  0.0001  0.0022  0.0001  0.0027 </r>
       </set>
       <set comment="band 5">
        <r>  0.0028  0.0045  0.0072  0.0030  0.0504  0.0133  0.0444  0.0373  0.0011 </r>
       </set>
       <set comment="band 6">
        <r>  0.0454  0.0306  0.1661  0.0179  0.0875  0.0199  0.2047  0.0326  0.0129 </r>
       </set>
       <set comment="band 7">
        <r>  0.0030  0.0015  0.0053  0.0007  0.0612  0.0076  0.0101  0.0107  0.0168 </r>
       </set>
       <set comment="band 8">
        <r>  0.0064  0.0056  0.0055  0.0016  0.1226  0.0440  0.0506  0.0601  0.0285 </r>
       </set>
       <set comment="band 9">
        <r>  0.0001  0.0001  0.0031  0.0000  0.0244  0.0020  0.0129  0.0059  0.0551 </r>
       </set>
       <set comment="band 10">
        <r>  0.0011  0.0011  0.0004  0.0003  0.0416  0.0003  0.0125  0.0014  0.0085 </r>
       </set>
       <set comment="band 11">
        <r>  0.0010  0.0042  0.0011  0.0035  0.0211  0.0029  0.0046  0.0007  0.0190 </r>
       </set>
       <set comment="band 12">
        <r>  0.0004  0.0007  0.0003  0.0005  0.0002  0.0001  0.0001  0.0002  0.0000 </r>
       </set>
       <set comment="band 13">
        <r>  0.0039  0.0013  0.0035  0.0015  0.0029  0.0354  0.0477  0.0004  0.0164 </r>
       </set>
       <set comment="band 14">
        <r>  0.0009  0.0062  0.0018  0.0028  0.1126  0.0061  0.0285  0.0050  0.0122 </r>
       </set>
       <set comment="band 15">
        <r>  0.0072  0.0019  0.0031  0.0029  0.0033  0.0022  0.0029  0.0049  0.0215 </r>
       </set>
       <set comment="band 16">
        <r>  0.0000  0.0000  0.0000  0.0000  0.0000  0.0001  0.0001  0.0001  0.0004 </r>
       </set>
      </set>
      <set comment="kpoint 11">
       <set comment="band 1">
        <r>  0.0117  0.0008  0.0143  0.0012  0.0015  0.7859  0.1492  0.3832  0.0082 </r>
       </set>
       <set comment="band 2">
        <r>  0.0248  0.0342  0.1645  0.0252  0.1397  0.0106  0.2623  0.1221  0.0081 </r>
       </set>
       <set comment="band 3">
        <r>  0.0037  0.0058  0.0088  0.0043  0.0784  0.0187  0.1616  0.0713  0.0006 </r>
       </set>
       <set comment="band 4">
        <r>  0.0387  0.0192  0.0569  0.0065  0.0048  0.0055  0.0574  0.0152  0.0030 </r>
       </set>
       <set comment="band 5">
        <r>  0.2497  0.1491  0.0008  0.0052  0.0061  0.0013  0.0063  0.0048  0.0061 </r>
       </set>
       <set comment="band 6">
        <r>  0.0523  0.0450  0.1595  0.0204  0.0750  0.0127  0.1608  0.0435  0.0115 </r>
       </set>
       <set comment="band 7">
        <r>  0.0063  0.0040  0.0209  0.0023  0.0418  0.0027  0.0143  0.0055  0.0028 </r>
       </set>
       <set comment="band 8">
        <r>  0.0057  0.0038  0.0045  0.0013  0.1451  0.0569  0.0860  0.0666  0.0507 </r>
       </set>
       <set comment="band 9">
        <r>  0.0007  0.0002  0.0016  0.0001  0.0700  0.0126  0.0411  0.0002  0.0325 </r>
       </set>
       <set comment="band 10">
        <r>  0.0001  0.0000  0.0001  0.0000  0.0004  0.0000  0.0001  0.0002  0.0011 </r>
       </set>
       <set comment="band 11">
        <r>  0.0011  0.0018  0.0002  0.0006  0.0288  0.0007  0.0072  0.0025  0.0142 </r>
       </set>
       <set comment="band 12">
        <r>  0.0004  0.0016  0.0014  0.0017  0.0328  0.0120  0.0278  0.0008  0.0299 </r>
       </set>
       <set comment="band 13">
        <r>  0.0003  0.0054  0.0006  0.0035  0.0396  0.0021  0.0020  0.0038  0.0038 </r>
       </set>
       <set comment="band 14">
        <r>  0.0009  0.0020  0.0009  0.0014  0.0027  0.0321  0.0358  0.0061  0.0086 </r>
       </set>
       <set comment="band 15">
        <r>  0.0052  0.0028  0.0033  0.0026  0.0262  0.0015  0.0018  0.0031  0.0205 </r>
       </set>
       <set comment="band 16">
        <r>  0.0001  0.0000  0.0000  0.0000  0.0001  0.0000  0.0000  0.0001  0.0001 </r>
       </set>
      </set>
      <set comment="kpoint 12">
       <set comment="band 1">
        <r>  0.0127  0.0009  0.0068  0.0007  0.0015  0.7865  0.1386  0.4023  0.0102 </r>
       </set>
       <set comment="band 2">
        <r>  0.0150  0.0203  0.1152  0.0144  0.1086  0.0144  0.1603  0.0656  0.0057 </r>
       </set>
       <set comment="band 3">
        <r>  0.0209  0.0121  0.0554  0.0101  0.1250  0.0095  0.2194  0.0948  0.0029 </r>
       </set>
       <set comment="band 4">
        <r>  0.0471  0.0343  0.0876  0.0117  0.0295  0.0117  0.1429  0.0413  0.0047 </r>
       </set>
       <set comment="band 5">
        <r>  0.1792  0.1547  0.0011  0.0150  0.0128  0.0009  0.0079  0.0060  0.0076 </r>
       </set>
       <set comment="band 6">
        <r>  0.0124  0.0127  0.0007  0.0017  0.0097  0.0010  0.0028  0.0002  0.0079 </r>
       </set>
       <set comment="band 7">
        <r>  0.0790  0.0733  0.1652  0.0248  0.0796  0.0083  0.1166  0.0464  0.0061 </r>
       </set>
       <set comment="band 8">
        <r>  0.0050  0.0030  0.0048  0.0014  0.1331  0.0511  0.0952  0.0581  0.0501 </r>
       </set>
       <set comment="band 9">
        <r>  0.0023  0.0004  0.0005  0.0004  0.1552  0.0323  0.0953  0.0037  0.0226 </r>
       </set>
       <set comment="band 10">
        <r>  0.0002  0.0000  0.0001  0.0000  0.0009  0.0003  0.0007  0.0003  0.0005 </r>
       </set>
       <set comment="band 11">
        <r>  0.0012  0.0022  0.0001  0.0009  0.0154  0.0059  0.0011  0.0068  0.0188 </r>
       </set>
       <set comment="band 12">
        <r>  0.0005  0.0013  0.0004  0.0003  0.0123  0.0010  0.0021  0.0047  0.0049 </r>
       </set>
       <set comment="band 13">
        <r>  0.0001  0.0002  0.0001  0.0003  0.0012  0.0022  0.0020  0.0002  0.0087 </r>
       </set>
       <set comment="band 14">
        <r>  0.0005  0.0013  0.0008  0.0021  0.0148  0.0209  0.0320  0.0010  0.0359 </r>
       </set>
       <set comment="band 15">
        <r>  0.0018  0.0034  0.0011  0.0026  0.0846  0.0086  0.0074  0.0224  0.0051 </r>
       </set>
       <set comment="band 16">
        <r>  0.0008  0.0016  0.0008  0.0007  0.0272  0.0034  0.0079  0.0004  0.0015 </r>
       </set>
      </set>
      <set comment="kpoint 13">
       <set comment="band 1">
        <r>  0.0101  0.0008  0.0078  0.0020  0.0011  0.8268  0.1375  0.3859  0.0086 </r>
       </set>
       <set comment="band 2">
        <r>  0.0301  0.0216  0.1325  0.0208  0.1644  0.0211  0.2910  0.1213  0.0147 </r>
       </set>
       <set comment="band 3">
        <r>  0.0057  0.0089  0.0317  0.0052  0.0083  0.0032  0.0952  0.0311  0.0037 </r>
       </set>
       <set comment="band 4">
        <r>  0.0091  0.0062  0.0180  0.0050  0.0608  0.0068  0.0794  0.0568  0.0035 </r>
       </set>
       <set comment="band 5">
        <r>  0.2130  0.1717  0.0141  0.0028  0.0176  0.0064  0.0513  0.0204  0.0121 </r>
       </set>
       <set comment="band 6">
        <r>  0.0150  0.0161  0.0023  0.0003  0.0032  0.0011  0.0054  0.0006  0.0100 </r>
       </set>
       <set comment="band 7">
        <r>  0.0930  0.0751  0.1718  0.0241  0.0854  0.0270  0.1725  0.0521  0.0148 </r>
       </set>
       <set comment="band 8">
        <r>  0.0125  0.0076  0.0106  0.0045  0.2325  0.0654  0.1524  0.0502  0.0110 </r>
       </set>
       <set comment="band 9">
        <r>  0.0007  0.0003  0.0065  0.0002  0.0244  0.0027  0.0051  0.0094  0.0905 </r>
       </set>
       <set comment="band 10">
        <r>  0.0010  0.0021  0.0001  0.0005  0.0264  0.0021  0.0055  0.0044  0.0160 </r>
       </set>
       <set comment="band 11">
        <r>  0.0004  0.0031  0.0010  0.0034  0.0189  0.0032  0.0054  0.0010  0.0305 </r>
       </set>
       <set comment="band 12">
        <r>  0.0003  0.0005  0.0002  0.0004  0.0001  0.0000  0.0001  0.0002  0.0000 </r>
       </set>
       <set comment="band 13">
        <r>  0.0007  0.0025  0.0006  0.0019  0.0047  0.0285  0.0215  0.0096  0.0148 </r>
       </set>
       <set comment="band 14">
        <r>  0.0020  0.0018  0.0011  0.0006  0.0475  0.0047  0.0099  0.0011  0.0138 </r>
       </set>
       <set comment="band 15">
        <r>  0.0178  0.0013  0.0070  0.0022  0.0130  0.0013  0.0097  0.0278  0.0041 </r>
       </set>
       <set comment="band 16">
        <r>  0.0031  0.0010  0.0016  0.0015  0.0113  0.0021  0.0047  0.0031  0.0094 </r>
       </set>
      </set>
      <set comment="kpoint 14">
       <set comment="band 1">
        <r>  0.0117  0.0009  0.0032  0.0015  0.0014  0.8132  0.1316  0.4062  0.0110 </r>
       </set>
       <set comment="band 2">
        <r>  0.0237  0.0163  0.1126  0.0158  0.1509  0.0314  0.2245  0.0888  0.0123 </r>
       </set>
       <set comment="band 3">
        <r>  0.0126  0.0044  0.0195  0.0039  0.0639  0.0026  0.1629  0.0464  0.0029 </r>
       </set>
       <set comment="band 4">
        <r>  0.0166  0.0129  0.0578  0.0084  0.0409  0.0048  0.0889  0.0537  0.0062 </r>
       </set>
       <set comment="band 5">
        <r>  0.0031  0.0025  0.0011  0.0003  0.0043  0.0010  0.0045  0.0028  0.0053 </r>
       </set>
       <set comment="band 6">
        <r>  0.1468  0.1604  0.0295  0.0076  0.0520  0.0090  0.0886  0.0355  0.0182 </r>
       </set>
       <set comment="band 7">
        <r>  0.1542  0.1546  0.1604  0.0243  0.0535  0.0197  0.1082  0.0474  0.0205 </r>
       </set>
       <set comment="band 8">
        <r>  0.0134  0.0065  0.0102  0.0055  0.2804  0.0768  0.2071  0.0463  0.0042 </r>
       </set>
       <set comment="band 9">
        <r>  0.0010  0.0003  0.0052  0.0002  0.0239  0.0040  0.0045  0.0102  0.0856 </r>
       </set>
       <set comment="band 10">
        <r>  0.0002  0.0000  0.0001  0.0000  0.0000  0.0000  0.0001  0.0001  0.0010 </r>
       </set>
       <set comment="band 11">
        <r>  0.0010  0.0032  0.0000  0.0011  0.0161  0.0090  0.0008  0.0088  0.0302 </r>
       </set>
       <set comment="band 12">
        <r>  0.0006  0.0009  0.0004  0.0001  0.0094  0.0026  0.0023  0.0047  0.0066 </r>
       </set>
       <set comment="band 13">
        <r>  0.0006  0.0024  0.0009  0.0026  0.0068  0.0105  0.0085  0.0006  0.0479 </r>
       </set>
       <set comment="band 14">
        <r>  0.0003  0.0007  0.0007  0.0007  0.0065  0.0047  0.0024  0.0062  0.0006 </r>
       </set>
       <set comment="band 15">
        <r>  0.0001  0.0010  0.0009  0.0012  0.0073  0.0074  0.0014  0.0092  0.0005 </r>
       </set>
       <set comment="band 16">
        <r>  0.0018  0.0002  0.0004  0.0001  0.0136  0.0006  0.0041  0.0046  0.0038 </r>
       </set>
      </set>
      <set comment="kpoint 15">
       <set comment="band 1">
        <r>  0.0121  0.0008  0.0020  0.0022  0.0014  0.8314  0.1264  0.4024  0.0119 </r>
       </set>
       <set comment="band 2">
        <r>  0.0364  0.0193  0.1534  0.0224  0.1399  0.0448  0.2283  0.0853  0.0243 </r>
       </set>
       <set comment="band 3">
        <r>  0.0050  0.0068  0.0271  0.0044  0.0207  0.0032  0.0931  0.0379  0.0060 </r>
       </set>
       <set comment="band 4">
        <r>  0.0093  0.0053  0.0249  0.0046  0.0356  0.0007  0.0496  0.0333  0.0086 </r>
       </set>
       <set comment="band 5">
        <r>  0.0029  0.0014  0.0065  0.0013  0.0241  0.0023  0.0214  0.0240  0.0031 </r>
       </set>
       <set comment="band 6">
        <r>  0.0632  0.0790  0.0745  0.0120  0.1170  0.0214  0.2213  0.0988  0.0181 </r>
       </set>
       <set comment="band 7">
        <r>  0.2185  0.2784  0.0729  0.0082  0.0275  0.0146  0.0792  0.0223  0.0366 </r>
       </set>
       <set comment="band 8">
        <r>  0.0142  0.0091  0.0124  0.0082  0.3170  0.0735  0.2117  0.0351  0.0118 </r>
       </set>
       <set comment="band 9">
        <r>  0.0039  0.0024  0.0109  0.0009  0.0280  0.0096  0.0068  0.0095  0.2029 </r>
       </set>
       <set comment="band 10">
        <r>  0.0017  0.0037  0.0029  0.0007  0.0286  0.0146  0.0007  0.0310  0.0135 </r>
       </set>
       <set comment="band 11">
        <r>  0.0008  0.0009  0.0004  0.0012  0.0019  0.0006  0.0005  0.0007  0.0140 </r>
       </set>
       <set comment="band 12">
        <r>  0.0002  0.0020  0.0004  0.0013  0.0005  0.0009  0.0002  0.0007  0.0008 </r>
       </set>
       <set comment="band 13">
        <r>  0.0000  0.0010  0.0004  0.0010  0.0033  0.0041  0.0011  0.0040  0.0011 </r>
       </set>
       <set comment="band 14">
        <r>  0.0000  0.0001  0.0001  0.0002  0.0005  0.0024  0.0008  0.0015  0.0024 </r>
       </set>
       <set comment="band 15">
        <r>  0.0023  0.0002  0.0005  0.0001  0.0054  0.0007  0.0026  0.0021  0.0014 </r>
       </set>
       <set comment="band 16">
        <r>  0.0004  0.0009  0.0001  0.0003  0.0039  0.0003  0.0018  0.0008  0.0029 </r>
       </set>
      </set>
     </set>
    </set>
   </array>
  </projected>
 </calculation>
 <structure name="finalpos" >
  <crystal>
   <varray name="basis" >
    <v>       1.73000000       1.73000000       0.00000000 </v>
    <v>      -1.73000000       1.73000000       0.00000000 </v>
    <v>       0.00000000       0.00000000       1.73000000 </v>
   </varray>
   <i name="volume">     10.35543400 </i>
   <varray name="rec_basis" >
    <v>       0.28901734       0.28901734       0.00000000 </v>
    <v>      -0.28901734       0.28901734       0.00000000 </v>
    <v>       0.00000000       0.00000000       0.57803468 </v>
   </varray>
  </crystal>
  <varray name="positions" >
   <v>       0.00000000       0.00000000       0.00000000 </v>
  </varray>
 </structure>
</modeling>
