
Running Job 1 of 1 mol.qin
qchem mol.qin_8258.0 /tmp/qchem8258/ 1
srun -n 1 /global/common/edison/software/qchem/5.1beta/exe/qcprog.exe mol.qin_8258.0 /tmp/qchem8258/

Process 0 of 1 is on nid04191 - thread support 0
initial socket setup ...start
initial socket setup ...done 
now start server 0 ... 
Check license passed

                  Welcome to Q-Chem
     A Quantum Leap Into The Future Of Chemistry


 Q-Chem 5.1, Q-Chem, Inc., Pleasanton, CA (2018)

 Yihan Shao,  Zhengting Gan,  E. Epifanovsky,  A. T. B. Gilbert,  M. Wormit,  
 J. Kussmann,  A. W. Lange,  A. Behn,  Jia Deng,  Xintian Feng,  D. Ghosh,  
 M. Goldey,  P. R. Horn,  L. D. Jacobson,  I. Kaliman,  T. Kus,  A. Landau,  
 Jie Liu,  E. I. Proynov,  R. M. Richard,  R. P. Steele,  E. J. Sundstrom,  
 H. L. Woodcock III,  P. M. Zimmerman,  D. Zuev,  B. Albrecht,  E. Alguire,  
 S. A. Baeppler,  D. Barton,  Z. Benda,  Y. A. Bernard,  E. J. Berquist,  
 K. B. Bravaya,  H. Burton,  D. Casanova,  Chun-Min Chang,  Yunqing Chen,  
 A. Chien,  K. D. Closser,  M. P. Coons,  S. Coriani,  S. Dasgupta,  
 A. L. Dempwolff,  M. Diedenhofen,  Hainam Do,  R. G. Edgar,  Po-Tung Fang,  
 S. Faraji,  S. Fatehi,  Qingguo Feng,  K. D. Fenk,  J. Fosso-Tande,  
 Qinghui Ge,  A. Ghysels,  G. Gidofalvi,  J. Gomes,  J. Gonthier,  A. Gunina,  
 D. Hait,  M. W. D. Hanson-Heine,  P. H. P. Harbach,  A. W. Hauser,  
 J. E. Herr,  E. G. Hohenstein,  Z. C. Holden,  Kerwin Hui,  B. C. Huynh,  
 T.-C. Jagau,  Hyunjun Ji,  B. Kaduk,  K. Khistyaev,  Jaehoon Kim,  
 P. Klunzinger,  K. Koh,  D. Kosenkov,  L. Koulias,  T. Kowalczyk,  
 C. M. Krauter,  A. Kunitsa,  Ka Un Lao,  A. Laurent,  K. V. Lawler,  
 Joonho Lee,  D. Lefrancois,  S. Lehtola,  D. S. Levine,  Yi-Pei Li,  
 You-Sheng Lin,  Fenglai Liu,  E. Livshits,  A. Luenser,  P. Manohar,  
 E. Mansoor,  S. F. Manzer,  Shan-Ping Mao,  Yuezhi Mao,  N. Mardirossian,  
 A. V. Marenich,  T. Markovich,  L. A. Martinez-Martinez,  S. A. Maurer,  
 N. J. Mayhall,  S. C. McKenzie,  J.-M. Mewes,  A. F. Morrison,  
 J. W. Mullinax,  K. Nanda,  T. S. Nguyen-Beck,  R. Olivares-Amaya,  
 J. A. Parkhill,  T. M. Perrine,  F. Plasser,  P. Pokhilko,  S. Prager,  
 A. Prociuk,  E. Ramos,  D. R. Rehn,  F. Rob,  M. Schneider,  N. Sergueev,  
 S. M. Sharada,  S. Sharma,  D. W. Small,  T. Stauch,  T. Stein,  
 Yu-Chuan Su,  A. J. W. Thom,  A. Tkatchenko,  T. Tsuchimochi,  N. M. Tubman,  
 L. Vogt,  M. L. Vidal,  O. Vydrov,  M. A. Watson,  J. Wenzel,  
 M. de Wergifosse,  T. A. Wesolowski,  A. White,  J. Witte,  A. Yamada,  
 Jun Yang,  K. Yao,  S. Yeganeh,  S. R. Yost,  Zhi-Qiang You,  A. Zech,  
 Igor Ying Zhang,  Xing Zhang,  Yan Zhao,  Ying Zhu,  B. R. Brooks,  
 G. K. L. Chan,  C. J. Cramer,  M. S. Gordon,  W. J. Hehre,  A. Klamt,  
 M. W. Schmidt,  C. D. Sherrill,  D. G. Truhlar,  A. Aspuru-Guzik,  R. Baer,  
 A. T. Bell,  N. A. Besley,  Jeng-Da Chai,  R. A. DiStasio Jr.,  A. Dreuw,  
 B. D. Dunietz,  T. R. Furlani,  Chao-Ping Hsu,  Yousung Jung,  Jing Kong,  
 D. S. Lambrecht,  WanZhen Liang,  C. Ochsenfeld,  V. A. Rassolov,  
 L. V. Slipchenko,  J. E. Subotnik,  T. Van Voorhis,  J. M. Herbert,  
 A. I. Krylov,  P. M. W. Gill,  M. Head-Gordon

 Contributors to earlier versions of Q-Chem not listed above: 
 R. D. Adamson,  B. Austin,  J. Baker,  G. J. O. Beran,  K. Brandhorst,  
 S. T. Brown,  E. F. C. Byrd,  A. K. Chakraborty,  C.-L. Cheng,  
 Siu Hung Chien,  D. M. Chipman,  D. L. Crittenden,  H. Dachsel,  
 R. J. Doerksen,  A. D. Dutoi,  L. Fusti-Molnar,  W. A. Goddard III,  
 A. Golubeva-Zadorozhnaya,  S. R. Gwaltney,  G. Hawkins,  A. Heyden,  
 S. Hirata,  G. Kedziora,  F. J. Keil,  C. Kelley,  Jihan Kim,  R. A. King,  
 R. Z. Khaliullin,  P. P. Korambath,  W. Kurlancheek,  A. M. Lee,  M. S. Lee,  
 S. V. Levchenko,  Ching Yeh Lin,  D. Liotard,  R. C. Lochan,  I. Lotan,  
 P. E. Maslen,  N. Nair,  D. P. O'Neill,  D. Neuhauser,  E. Neuscamman,  
 C. M. Oana,  R. Olson,  B. Peters,  R. Peverati,  P. A. Pieniazek,  
 Y. M. Rhee,  J. Ritchie,  M. A. Rohrdanz,  E. Rosta,  N. J. Russ,  
 H. F. Schaefer III,  N. E. Schultz,  N. Shenvi,  A. C. Simmonett,  A. Sodt,  
 D. Stuck,  K. S. Thanthiriwatte,  V. Vanovschi,  Tao Wang,  A. Warshel,  
 C. F. Williams,  Q. Wu,  X. Xu,  W. Zhang

 Please cite Q-Chem as follows:
 Y. Shao et al., Mol. Phys. 113, 184-215 (2015)
 DOI: 10.1080/00268976.2014.952696

 Q-Chem 5.1.0 for Intel X86 EM64T Linux

 Parts of Q-Chem use Armadillo 8.300.2 (Tropical Shenanigans).
 http://arma.sourceforge.net/

 Q-Chem begins on Fri Sep 14 12:42:18 2018  

Host: edison10
0

     Scratch files written to /tmp/qchem8258//
 Apr1918  _RNUM -1
 Parallel job on  1  processors
Processing $rem in /global/common/edison/software/qchem/5.1beta/config/preferences.
 MEM_TOTAL  2000 
Symmetry turned off for PCM/SM12/SMD calculation

Checking the input file for inconsistencies... 	...done.

--------------------------------------------------------------
User input:
--------------------------------------------------------------
$molecule
0 1
O     -0.0830603836     -0.9423007722      0.1451829449
O     -0.9164136736      1.0941798209     -0.0427974386
O     -2.2906717332     -0.6735579407     -0.1390285315
C      1.0377531023     -0.0688669034      0.4296983589
C      0.5077018851      1.2799807583     -0.0538015950
C      2.2790325299     -0.5599763122     -0.2694628990
C     -1.1901233878     -0.2154342673     -0.0220712075
H      1.1656183545     -0.0727364579      1.5145293522
H      0.7543443163      2.1059559850      0.6081251267
H      0.8150745587      1.5083730214     -1.0763900773
H      2.5743798595     -1.5412543129      0.1046623834
H      3.0996293794      0.1363044755     -0.0803422393
H      2.1176471923     -0.6226740944     -1.3479771778
$end

$rem
job_type = freq
basis = 6-311++g*
max_scf_cycles = 200
gen_scfman = true
scf_algorithm = gdm
method = wb97xd
geom_opt_max_cycles = 200
solvent_method = pcm
$end

$pcm
heavypoints 194
hpoints 194
radii uff
theory cpcm
vdwscale 1.1
$end

$solvent
dielectric 65.0
$end
--------------------------------------------------------------
 ----------------------------------------------------------------
             Standard Nuclear Orientation (Angstroms)
    I     Atom           X                Y                Z
 ----------------------------------------------------------------
    1      O      -0.0830603836    -0.9423007722     0.1451829449
    2      O      -0.9164136736     1.0941798209    -0.0427974386
    3      O      -2.2906717332    -0.6735579407    -0.1390285315
    4      C       1.0377531023    -0.0688669034     0.4296983589
    5      C       0.5077018851     1.2799807583    -0.0538015950
    6      C       2.2790325299    -0.5599763122    -0.2694628990
    7      C      -1.1901233878    -0.2154342673    -0.0220712075
    8      H       1.1656183545    -0.0727364579     1.5145293522
    9      H       0.7543443163     2.1059559850     0.6081251267
   10      H       0.8150745587     1.5083730214    -1.0763900773
   11      H       2.5743798595    -1.5412543129     0.1046623834
   12      H       3.0996293794     0.1363044755    -0.0803422393
   13      H       2.1176471923    -0.6226740944    -1.3479771778
 ----------------------------------------------------------------
 Nuclear Repulsion Energy =   320.2421272338 hartrees
 There are       27 alpha and       27 beta electrons
 Requested basis set is 6-311++G(d)
 There are 66 shells and 178 basis functions

 Total QAlloc Memory Limit   2000 MB
 Mega-Array Size       188 MB
 MEM_STATIC part       192 MB
 Discretize the solute cavity surface with Lebedev spheres
	Using 194 Lebedev grid points for each H atom
	Using 194 Lebedev grid points for other atoms
	Atomic van der Waals radii will be scaled by 1.10
 Remove points where switching function is < 1.0e-08
 Keep 1138 surface tesserae and discard 1384 interior tesserae
 Molecular Surface Area = 151.169 Angst**2

                       Distance Matrix (Angstroms)
             O (  1)   O (  2)   O (  3)   C (  4)   C (  5)   C (  6)
   O (  2)  2.208408
   O (  3)  2.241996  2.241148
   C (  4)  1.449158  2.322649  3.430381
   C (  5)  2.308058  1.436227  3.413865  1.527782
   C (  6)  2.428495  3.605341  4.572976  1.506914  2.563116
   C (  7)  1.334877  1.338072  1.197816  2.277940  2.262716  3.494990
   H (  8)  2.047059  2.849880  3.878296  1.092347  2.173099  2.158639
   H (  9)  3.194907  2.058840  4.189995  2.200457  1.086837  3.194062
   H ( 10)  2.881786  2.058621  3.909620  2.192162  1.091938  2.659393
   H ( 11)  2.724404  4.376402  4.947829  2.152857  3.500805  1.090920
   H ( 12)  3.368051  4.128866  5.451116  2.133910  2.833159  1.092681
   H ( 13)  2.678582  3.722446  4.571370  2.152441  2.808364  1.092323
             C (  7)   H (  8)   H (  9)   H ( 10)   H ( 11)   H ( 12)
   H (  8)  2.816207
   H (  9)  3.093049  2.395290
   H ( 10)  2.846738  3.055430  1.788403
   H ( 11)  3.993162  2.475657  4.107085  3.713525
   H ( 12)  4.304543  2.515494  3.139088  2.844973  1.767574
   H ( 13)  3.586812  3.066388  3.623583  2.512333  1.778358  1.774045

 
 A cutoff of  1.0D-12 yielded   2115 shell pairs
 There are     15688 function pairs (     16955 Cartesian)
 
 -------------------------------------------------------
 OpenMP Integral Computing Module                       
 Release: version 1.0, May 2013, Q-Chem Inc. Pittsburgh 
 -------------------------------------------------------
 Integral Job Info:
 Integral job number is                      11
 Integral operator is                         1
 short-range coefficients              22203600
 long-range coefficients              100000000
 Omega coefficients                         200
 if combine SR and LR in K                    1
 Integral screening is                        0
 Integral computing path is                   2
 max size of driver memory is            800000
 size of driver memory is                593474
 size of scratch memory is              2428936
 max col of scratch BK array               1296
 max len of scratch array in speh3          155
 max len of scratch index in speh4           18
 max int batch size is                      520
 min int batch size is                       52
 fixed nKL is                                52
 max L of basis functions is                  2
 order of int derivative is                   0
 number of shells is                         66
 number of basis is                         185
 number of cartesian basis is               185
 number of contracted shell pairs          2115
 number of primitive shell pairs           5759
 maxK2 (contraction) of shell pair           36
 max number of K2 of shell pair               1
 max number of CS2 of shell pair            397
 max number of PS2 of shell pair            864
 mem total for path MDJ                  537110
 -------------------------------------------------------
 Smallest overlap matrix eigenvalue = 3.09E-05
 Guess from superposition of atomic densities
 Warning:  Energy on first SCF cycle will be non-variational
 SAD guess density has 54.000000 electrons

 -----------------------------------------------------------------------
  General SCF calculation program by
  Eric Jon Sundstrom, Paul Horn, Yuezhi Mao, Dmitri Zuev, Alec White,
  David Stuck, Shaama M.S., Shane Yost, Joonho Lee, David Small,
  Daniel Levine, Susi Lehtola, Hugh Burton, Evgeny Epifanovsky
 -----------------------------------------------------------------------
 Exchange:     0.2220 Hartree-Fock + 1.0000 wB97X-D + LR-HF
 Correlation:  1.0000 wB97X-D
 Using SG-2 standard quadrature grid
 Dispersion:   Grimme D
 using 24 threads for integral computing
 -------------------------------------------------------
 OpenMP Integral computing Module                
 Release: version 1.0, May 2013, Q-Chem Inc. Pittsburgh 
 -------------------------------------------------------
 using 24 threads for integral computing
 -------------------------------------------------------
 OpenMP Integral computing Module                
 Release: version 1.0, May 2013, Q-Chem Inc. Pittsburgh 
 -------------------------------------------------------
 -------------------------------------------------------
 OpenMP BLAS3 based DFT computing Module                
 Release: version 1.0, May 2013, Q-Chem Inc. Pittsburgh 
 -------------------------------------------------------
 A restricted SCF calculation will be
 performed using Roothaan-Hall, GDM
 SCF converges when RMS gradient is below 1.0e-08
 ---------------------------------------
  Cycle       Energy         DIIS error
 ---------------------------------------
    1    -383.4776426769      5.12e-02  Roothaan Step
 ---------------------------------------
  Cycle       Energy        RMS Gradient
 ---------------------------------------
    1    -381.5605977822      1.73e-01   Descent step
    2    -381.6856552104      4.43e-02   Normal BFGS step
    3    -381.7079967762      2.57e-02   Normal BFGS step
    4    -381.7101730258      8.67e-03   Normal BFGS step
    5    -381.7116028670      1.21e-03   Normal BFGS step
    6    -381.7116325655      8.61e-04   Normal BFGS step
    7    -381.7116512779      7.84e-05   Normal BFGS step
    8    -381.7116514699      3.82e-05   Normal BFGS step
    9    -381.7116515083      2.23e-05   Normal BFGS step
   10    -381.7116515169      5.37e-06   Normal BFGS step
   11    -381.7116515185      1.55e-06   Normal BFGS step
   12    -381.7116515186      5.63e-07   Normal BFGS step
   13    -381.7116515186      8.96e-08   Normal BFGS step
   14    -381.7116515186      9.56e-08   Normal BFGS step
   15    -381.7116515186      2.39e-08   Normal BFGS step
   16    -381.7116515186      3.10e-08   Normal BFGS step
   17    -381.7116515186      2.93e-09  Convergence criterion met
 ---------------------------------------
 SCF time:   CPU 400.02s  wall 22.00s 
 SCF   energy in the final basis set =     -381.7116515186

************** Final PCM Free Energy Summary **************
 G_electrostatic  =      -0.01756441 hartree =     -11.02183343 kcal/mol
 G_cavitation     =       0.00000000 hartree =       0.00000000 kcal/mol
 G_dispersion     =       0.00000000 hartree =       0.00000000 kcal/mol
 G_repulsion      =       0.00000000 hartree =       0.00000000 kcal/mol
 --------------------------------------------------
 Non-electrostatic Free Energy =       0.00000000 hartree =       0.00000000 kcal/mol
 Total                         =      -0.01756441 hartree =     -11.02183343 kcal/mol
 --------------------------------------------------
 SCF Energy (H0 + V/2)                       =    -381.71165152 
 Solute Internal Energy (H0)                 =    -381.69408711 
 Total Free Energy (H0 + V/2 + non-elec)     =    -381.71165152 hartree
                                             = -239527.67651896 kcal/mol
***********************************************************

 
 --------------------------------------------------------------
 
                    Orbital Energies (a.u.)
 --------------------------------------------------------------
 
 Alpha MOs
 -- Occupied --
-19.317 -19.315 -19.249 -10.476 -10.369 -10.359 -10.287  -1.285
 -1.167  -1.159  -0.915  -0.823  -0.750  -0.714  -0.650  -0.616
 -0.589  -0.551  -0.539  -0.536  -0.501  -0.484  -0.475  -0.449
 -0.411  -0.403  -0.400
 -- Virtual --
  0.046   0.061   0.063   0.070   0.091   0.092   0.094   0.099
  0.110   0.121   0.128   0.145   0.161   0.165   0.170   0.173
  0.183   0.187   0.192   0.196   0.201   0.215   0.218   0.234
  0.245   0.265   0.272   0.278   0.287   0.311   0.320   0.326
  0.337   0.347   0.349   0.363   0.365   0.373   0.379   0.386
  0.389   0.403   0.423   0.433   0.451   0.475   0.488   0.518
  0.545   0.571   0.576   0.626   0.655   0.674   0.684   0.708
  0.714   0.731   0.743   0.759   0.775   0.796   0.817   0.818
  0.836   0.863   0.955   0.990   1.045   1.100   1.126   1.152
  1.191   1.216   1.227   1.236   1.262   1.274   1.285   1.348
  1.388   1.462   1.480   1.504   1.589   1.609   1.638   1.680
  1.695   1.729   1.731   1.777   1.790   1.818   1.856   1.911
  1.933   1.956   1.989   2.072   2.159   2.202   2.545   2.558
  2.580   2.614   2.640   2.650   2.712   2.866   2.886   2.951
  2.968   2.991   3.013   3.043   3.085   3.099   3.171   3.223
  3.247   3.292   3.301   3.332   3.352   3.470   3.556   3.641
  3.727   3.756   3.922   4.072   4.129   4.160   4.212   5.100
  5.116   5.154   5.229   5.377   5.473   5.497   5.946   6.001
 23.599  23.758  23.838  23.951  49.957  50.052  50.162
 --------------------------------------------------------------
 
          Ground-State Mulliken Net Atomic Charges

     Atom                 Charge (a.u.)
  ----------------------------------------
      1 O                    -0.087110
      2 O                    -0.061689
      3 O                    -0.422085
      4 C                     0.137312
      5 C                    -0.819605
      6 C                    -0.984879
      7 C                     0.399429
      8 H                     0.345546
      9 H                     0.303199
     10 H                     0.342765
     11 H                     0.289628
     12 H                     0.275934
     13 H                     0.281556
  ----------------------------------------
  Sum of atomic charges =     0.000000

 -----------------------------------------------------------------
                    Cartesian Multipole Moments
 -----------------------------------------------------------------
    Charge (ESU x 10^10)
                 0.0000
    Dipole Moment (Debye)
         X       7.1963      Y       2.7093      Z       0.6942
       Tot       7.7207
    Quadrupole Moments (Debye-Ang)
        XX     -47.9492     XY      -0.9292     YY     -42.1509
        XZ      -0.3337     YZ       0.0708     ZZ     -38.1498
    Octopole Moments (Debye-Ang^2)
       XXX      32.1900    XXY       5.7679    XYY       7.7263
       YYY       7.2044    XXZ       3.3299    XYZ       0.2095
       YYZ       1.3375    XZZ      -0.4544    YZZ       1.1424
       ZZZ       0.9207
    Hexadecapole Moments (Debye-Ang^3)
      XXXX    -644.2212   XXXY     -16.6958   XXYY    -140.3851
      XYYY       2.2246   YYYY    -216.3236   XXXZ      -2.5726
      XXYZ      -1.3119   XYYZ       1.5714   YYYZ       2.1724
      XXZZ    -108.9904   XYZZ       1.0479   YYZZ     -47.0540
      XZZZ       0.3049   YZZZ      -0.3947   ZZZZ     -64.1948
 -----------------------------------------------------------------
 Calculating MO derivatives via CPSCF
 Computing fast CPCM-SWIG hessian.
 D1JvT checksum  = 731640 34550.1938849033
 D1KAT checksum  = 1481064 3072.4832843939
 D1JvT checksum  = 731640 21273.9606734012
 D1KAT checksum  = 1481064 1325.1422159704
   1         3          39      0.218586    0.031376
   2         3          39      0.039239    0.007097
   3         3          39      0.005144    0.000920
   4         3          39      0.000680    0.000139
   5        21          21      0.000072    0.000018
   6        40           2      0.000004    0.000002
   7        42           0      0.000000    0.000000    Roots Converged
 Time for AOints: 57.4 s (CPU) 3.4 s (wall)
 ------------------------------------------------------------------------------
                     AOints        : Timing summary (seconds)
 ------------------------------------------------------------------------------
     job step          cpu (% of tot)      sys (% of tot)     wall (% of tot)
 ------------------------------------------------------------------------------
  cpscf_lag         0.4419E+03 (24.9)   0.2576E-02 ( 7.8)   0.3913E+02 ( 3.7)
  iterzp            0.1275E+04 (71.8)   0.2993E-01 (90.7)   0.1028E+04 (96.0)
  make_fx           0.0000E+00 ( 0.0)   0.0000E+00 ( 0.0)   0.0000E+00 ( 0.0)
  AOints            0.5735E+02 ( 3.2)   0.4770E-03 ( 1.4)   0.3351E+01 ( 0.3)
 ------------------------------------------------------------------------------
   Grand Totals     0.1775E+04          0.3299E-01          0.1071E+04
 ------------------------------------------------------------------------------
 Calculating analytic Hessian of the SCF energy
 Polarizability Matrix (a.u.)
            1           2           3
    1 -80.9891091  -5.3300767  -2.1329947
    2  -5.3300767 -64.9831846   0.1598063
    3  -2.1329947   0.1598063 -54.3684946
atom: 0 element: 8
atom: 1 element: 8
atom: 2 element: 8
atom: 3 element: 6
atom: 4 element: 6
atom: 5 element: 6
atom: 6 element: 6
atom: 7 element: 1
atom: 8 element: 1
atom: 9 element: 1
atom: 10 element: 1
atom: 11 element: 1
atom: 12 element: 1
 
 Direct stationary perturbation theory relativistic correction:
 
 rels  =       0.126578174281
 relv  =      -0.577091809188
 rel2e =       0.000000000000
 E_rel =      -0.450513634907
 
 Computing fast CPCM-SWIG hessian
 Hessian of the SCF Energy
            1           2           3           4           5           6
    1   0.4659316  -0.0434312   0.0773153  -0.0045396   0.0455388  -0.0042890
    2  -0.0434312   0.3989941   0.0022454   0.0274918  -0.0792244   0.0079515
    3   0.0773153   0.0022454   0.0867636  -0.0058003   0.0096893   0.0247380
    4  -0.0045396   0.0274918  -0.0058003   0.4206314   0.0464412   0.0051339
    5   0.0455388  -0.0792244   0.0096893   0.0464412   0.4762233  -0.0195103
    6  -0.0042890   0.0079515   0.0247380   0.0051339  -0.0195103   0.0692273
    7  -0.1094415  -0.0011837  -0.0170464  -0.0324721  -0.0584035  -0.0034020
    8   0.0169621   0.0268143   0.0029154  -0.0761516  -0.0497638  -0.0048878
    9  -0.0168529   0.0003004   0.0153257  -0.0034361  -0.0034456   0.0172045
   10  -0.1043531  -0.0229362  -0.0183146  -0.0438814   0.0106755  -0.0121741
   11  -0.0490772  -0.1340864  -0.0145204   0.0116093  -0.0163930  -0.0016916
   12  -0.0212772  -0.0126365  -0.0769794   0.0007258  -0.0032314   0.0042114
   13  -0.0197023  -0.0124199   0.0040735  -0.1904166  -0.0156875   0.0032225
   14  -0.0175154  -0.0458666   0.0013388   0.0156035  -0.0890288   0.0057611
   15  -0.0035741  -0.0092759   0.0051677   0.0051595   0.0034058  -0.0684435
   16  -0.0379701   0.0039655   0.0102292   0.0008629   0.0019882   0.0003547
   17  -0.0321383   0.0105691   0.0084623   0.0071411  -0.0014671   0.0011001
   18  -0.0085099   0.0041526   0.0074558  -0.0046842   0.0019501  -0.0006569
   19  -0.1734389   0.0515373  -0.0193362  -0.1006231   0.0220715  -0.0033541
   20   0.0941764  -0.1728712   0.0156643  -0.0262622  -0.2450987   0.0066658
   21  -0.0200505   0.0071757  -0.0634036   0.0010027   0.0091162  -0.0613353
   22  -0.0193346  -0.0077079  -0.0316251   0.0007360   0.0009553   0.0013394
   23  -0.0180819  -0.0013012  -0.0254752   0.0013292   0.0018894  -0.0003280
   24  -0.0091950  -0.0042168  -0.0006838  -0.0013957   0.0003102  -0.0005266
   25   0.0023301   0.0023595  -0.0001894  -0.0192843  -0.0360190  -0.0197105
   26  -0.0013352  -0.0043273   0.0005672  -0.0025808   0.0009556   0.0005542
   27   0.0015740   0.0035639   0.0001520  -0.0017935   0.0021373   0.0056621
   28   0.0024042  -0.0006427  -0.0002573  -0.0292655  -0.0181070   0.0334868
   29  -0.0006901   0.0001317  -0.0009352  -0.0045283   0.0022841   0.0040443
   30   0.0011596   0.0011002  -0.0001660   0.0033818   0.0004105   0.0094643
   31   0.0023002  -0.0003493  -0.0003240  -0.0022389   0.0002265  -0.0003336
   32   0.0012178   0.0010540   0.0000597   0.0009393  -0.0000738   0.0000869
   33  -0.0011776   0.0006382   0.0001645   0.0015273  -0.0005414   0.0005690
   34  -0.0073093   0.0034960   0.0023427   0.0004631   0.0006809  -0.0000668
   35   0.0040275  -0.0001658  -0.0011935  -0.0008317  -0.0001620  -0.0000644
   36   0.0044844  -0.0015747  -0.0002693  -0.0001180  -0.0002363  -0.0001890
   37   0.0031234  -0.0001791  -0.0010672   0.0000280  -0.0003609  -0.0002070
   38   0.0003468   0.0002797   0.0011821  -0.0002009  -0.0001408   0.0003182
   39   0.0003929   0.0005761   0.0017346   0.0002968  -0.0000542   0.0000748
            7           8           9          10          11          12
    1  -0.1094415   0.0169621  -0.0168529  -0.1043531  -0.0490772  -0.0212772
    2  -0.0011837   0.0268143   0.0003004  -0.0229362  -0.1340864  -0.0126365
    3  -0.0170464   0.0029154   0.0153257  -0.0183146  -0.0145204  -0.0769794
    4  -0.0324721  -0.0761516  -0.0034361  -0.0438814   0.0116093   0.0007258
    5  -0.0584035  -0.0497638  -0.0034456   0.0106755  -0.0163930  -0.0032314
    6  -0.0034020  -0.0048878   0.0172045  -0.0121741  -0.0016916   0.0042114
    7   0.7389065   0.2781332   0.0786866   0.0114851   0.0165794   0.0029861
    8   0.2781332   0.1896598   0.0261756   0.0012533  -0.0034848   0.0005648
    9   0.0786866   0.0261756   0.0205832   0.0006084   0.0024760   0.0068840
   10   0.0114851   0.0012533   0.0006084   0.5317298  -0.0705764   0.0026756
   11   0.0165794  -0.0034848   0.0024760  -0.0705764   0.4733000  -0.0106032
   12   0.0029861   0.0005648   0.0068840   0.0026756  -0.0106032   0.6390401
   13   0.0116637   0.0123950   0.0006846  -0.0782085   0.0498822  -0.0147363
   14  -0.0011445  -0.0055707   0.0001902   0.0211713  -0.1626761   0.0357682
   15  -0.0007951  -0.0000623   0.0064931  -0.0083356   0.0422220  -0.1114005
   16  -0.0018077   0.0009881  -0.0012103  -0.1659349   0.0380519   0.0518099
   17  -0.0033121   0.0017093  -0.0013997   0.0500239  -0.1077199  -0.0245558
   18  -0.0022781  -0.0003976  -0.0004773   0.0601816  -0.0257226  -0.1267921
   19  -0.6106557  -0.2276972  -0.0586709  -0.0746299  -0.0201199  -0.0111967
   20  -0.2284458  -0.1591578  -0.0245865   0.0095845   0.0340189  -0.0015332
   21  -0.0587299  -0.0244032  -0.0645816  -0.0139144  -0.0023539  -0.0072840
   22  -0.0026327   0.0003319   0.0010487  -0.0616240   0.0048839  -0.0201508
   23  -0.0024434   0.0003776   0.0005815   0.0065291  -0.0593428   0.0082424
   24  -0.0013058   0.0000266  -0.0004771  -0.0239020   0.0064183  -0.3176271
   25  -0.0019577  -0.0034408   0.0011480   0.0061973   0.0060863   0.0100622
   26  -0.0011123  -0.0002976  -0.0001485  -0.0065955  -0.0148720  -0.0163278
   27  -0.0002040  -0.0004142  -0.0002321   0.0028268   0.0098649   0.0082226
   28  -0.0020211  -0.0028575  -0.0016532   0.0029313   0.0025233  -0.0134457
   29   0.0001281   0.0000370  -0.0003280  -0.0043367  -0.0044100   0.0290872
   30   0.0006749   0.0004650  -0.0006007  -0.0003665   0.0015595  -0.0093225
   31  -0.0000199  -0.0003192   0.0000758  -0.0089568   0.0276004  -0.0114238
   32   0.0008057   0.0001392   0.0000866   0.0007540  -0.0094397   0.0035263
   33   0.0000664   0.0001943  -0.0000887   0.0040256  -0.0184317   0.0060121
   34  -0.0016914   0.0003006  -0.0005131  -0.0175074  -0.0198955  -0.0080395
   35   0.0001526  -0.0003425   0.0001794   0.0080557   0.0077440   0.0035665
   36   0.0007555  -0.0002031   0.0001372   0.0093982   0.0121888   0.0027583
   37   0.0006444   0.0001021   0.0000845   0.0027527   0.0024523   0.0320104
   38   0.0002461  -0.0001199  -0.0000814  -0.0036026  -0.0026382  -0.0118675
   39   0.0005918   0.0000264  -0.0001702  -0.0027088  -0.0014061  -0.0177227
           13          14          15          16          17          18
    1  -0.0197023  -0.0175154  -0.0035741  -0.0379701  -0.0321383  -0.0085099
    2  -0.0124199  -0.0458666  -0.0092759   0.0039655   0.0105691   0.0041526
    3   0.0040735   0.0013388   0.0051677   0.0102292   0.0084623   0.0074558
    4  -0.1904166   0.0156035   0.0051595   0.0008629   0.0071411  -0.0046842
    5  -0.0156875  -0.0890288   0.0034058   0.0019882  -0.0014671   0.0019501
    6   0.0032225   0.0057611  -0.0684435   0.0003547   0.0011001  -0.0006569
    7   0.0116637  -0.0011445  -0.0007951  -0.0018077  -0.0033121  -0.0022781
    8   0.0123950  -0.0055707  -0.0000623   0.0009881   0.0017093  -0.0003976
    9   0.0006846   0.0001902   0.0064931  -0.0012103  -0.0013997  -0.0004773
   10  -0.0782085   0.0211713  -0.0083356  -0.1659349   0.0500239   0.0601816
   11   0.0498822  -0.1626761   0.0422220   0.0380519  -0.1077199  -0.0257226
   12  -0.0147363   0.0357682  -0.1114005   0.0518099  -0.0245558  -0.1267921
   13   0.4528701   0.0590907  -0.0175759  -0.0104972   0.0236747  -0.0070963
   14   0.0590907   0.6172573   0.0382301   0.0090790  -0.0053079   0.0007771
   15  -0.0175759   0.0382301   0.6437990   0.0025533  -0.0150692   0.0052185
   16  -0.0104972   0.0090790   0.0025533   0.5508151   0.0135296   0.0323972
   17   0.0236747  -0.0053079  -0.0150692   0.0135296   0.6046875  -0.0115414
   18  -0.0070963   0.0007771   0.0052185   0.0323972  -0.0115414   0.5974829
   19  -0.0293773  -0.0414031   0.0012811  -0.0008208   0.0013071   0.0003658
   20  -0.0629439  -0.0146462  -0.0057735  -0.0059135  -0.0105106   0.0000084
   21   0.0012171   0.0000075  -0.0044912   0.0026000   0.0026639   0.0004794
   22   0.0014809   0.0011159  -0.0104099   0.0044667   0.0011714   0.0302388
   23   0.0009037  -0.0027602   0.0320121   0.0005226   0.0017178  -0.0116860
   24   0.0009056   0.0016078  -0.0069935  -0.0001103   0.0003072  -0.0132507
   25  -0.0679980  -0.0327235  -0.0293505  -0.0006204  -0.0000326  -0.0002390
   26  -0.0420493  -0.2179017  -0.1278117   0.0002885  -0.0012691   0.0011166
   27  -0.0346589  -0.1329266  -0.1722958   0.0000805   0.0002191  -0.0003397
   28  -0.0690350  -0.0118121   0.0567865   0.0011544   0.0000866  -0.0008447
   29  -0.0129809  -0.0755503   0.0447314  -0.0010624   0.0021517   0.0003124
   30   0.0621311   0.0469615  -0.2971811   0.0008173  -0.0011473   0.0013010
   31  -0.0025044  -0.0003665   0.0034701  -0.0719850   0.0635908  -0.0235311
   32   0.0003459   0.0014341  -0.0013045   0.0649010  -0.2720210   0.0834111
   33   0.0024199   0.0012214  -0.0012543  -0.0240951   0.0864897  -0.0906115
   34   0.0006740   0.0001684  -0.0001767  -0.2052844  -0.1235488  -0.0324961
   35   0.0001236   0.0002176   0.0002779  -0.1266210  -0.1652977  -0.0301088
   36   0.0000706  -0.0000092   0.0003897  -0.0344074  -0.0308379  -0.0669718
   37   0.0010505  -0.0012636   0.0009673  -0.0623786  -0.0014937  -0.0435040
   38  -0.0003343   0.0003994  -0.0015824   0.0002825  -0.0572421  -0.0122718
   39  -0.0006574   0.0010722   0.0009919  -0.0410190  -0.0146910  -0.3128376
           19          20          21          22          23          24
    1  -0.1734389   0.0941764  -0.0200505  -0.0193346  -0.0180819  -0.0091950
    2   0.0515373  -0.1728712   0.0071757  -0.0077079  -0.0013012  -0.0042168
    3  -0.0193362   0.0156643  -0.0634036  -0.0316251  -0.0254752  -0.0006838
    4  -0.1006231  -0.0262622   0.0010027   0.0007360   0.0013292  -0.0013957
    5   0.0220715  -0.2450987   0.0091162   0.0009553   0.0018894   0.0003102
    6  -0.0033541   0.0066658  -0.0613353   0.0013394  -0.0003280  -0.0005266
    7  -0.6106557  -0.2284458  -0.0587299  -0.0026327  -0.0024434  -0.0013058
    8  -0.2276972  -0.1591578  -0.0244032   0.0003319   0.0003776   0.0000266
    9  -0.0586709  -0.0245865  -0.0645816   0.0010487   0.0005815  -0.0004771
   10  -0.0746299   0.0095845  -0.0139144  -0.0616240   0.0065291  -0.0239020
   11  -0.0201199   0.0340189  -0.0023539   0.0048839  -0.0593428   0.0064183
   12  -0.0111967  -0.0015332  -0.0072840  -0.0201508   0.0082424  -0.3176271
   13  -0.0293773  -0.0629439   0.0012171   0.0014809   0.0009037   0.0009056
   14  -0.0414031  -0.0146462   0.0000075   0.0011159  -0.0027602   0.0016078
   15   0.0012811  -0.0057735  -0.0044912  -0.0104099   0.0320121  -0.0069935
   16  -0.0008208  -0.0059135   0.0026000   0.0044667   0.0005226  -0.0001103
   17   0.0013071  -0.0105106   0.0026639   0.0011714   0.0017178   0.0003072
   18   0.0003658   0.0000084   0.0004794   0.0302388  -0.0116860  -0.0132507
   19   0.9901611   0.2087483   0.0903391   0.0044683   0.0049353   0.0023496
   20   0.2087483   0.5741257   0.0087162  -0.0055769  -0.0056907  -0.0018789
   21   0.0903391   0.0087162   0.2003768  -0.0032749  -0.0017487   0.0001431
   22   0.0044683  -0.0055769  -0.0032749   0.0744582   0.0024241   0.0313403
   23   0.0049353  -0.0056907  -0.0017487   0.0024241   0.0666596  -0.0023350
   24   0.0023496  -0.0018789   0.0001431   0.0313403  -0.0023350   0.3361231
   25  -0.0053408   0.0072827  -0.0042218   0.0009916  -0.0002158  -0.0001100
   26   0.0020707  -0.0007946   0.0001170  -0.0004511   0.0013070  -0.0004853
   27   0.0004470   0.0033936  -0.0002672   0.0003457   0.0003296   0.0010254
   28  -0.0015757   0.0102579   0.0040853  -0.0004903   0.0027220  -0.0006855
   29  -0.0006261  -0.0008997   0.0009507   0.0012748  -0.0040177   0.0010744
   30  -0.0009621  -0.0014646   0.0005744  -0.0002004   0.0016924   0.0010786
   31   0.0003163   0.0017249  -0.0002412   0.0010720  -0.0007100  -0.0002423
   32  -0.0007028  -0.0004295  -0.0001129   0.0000987   0.0004092  -0.0000844
   33  -0.0004133  -0.0008216   0.0000072  -0.0007571  -0.0003311   0.0006993
   34   0.0019668  -0.0031857   0.0012504   0.0008487   0.0000939   0.0000702
   35   0.0002818   0.0014140  -0.0001449  -0.0005781   0.0004772  -0.0000979
   36  -0.0003011   0.0013881  -0.0001409  -0.0008132   0.0002224   0.0000797
   37  -0.0004502   0.0005534  -0.0000619  -0.0044408   0.0019913   0.0022809
   38  -0.0004027   0.0005405   0.0000164   0.0020580   0.0002750  -0.0006461
   39  -0.0005482   0.0002218  -0.0000770   0.0029184  -0.0011764   0.0004096
           25          26          27          28          29          30
    1   0.0023301  -0.0013352   0.0015740   0.0024042  -0.0006901   0.0011596
    2   0.0023595  -0.0043273   0.0035639  -0.0006427   0.0001317   0.0011002
    3  -0.0001894   0.0005672   0.0001520  -0.0002573  -0.0009352  -0.0001660
    4  -0.0192843  -0.0025808  -0.0017935  -0.0292655  -0.0045283   0.0033818
    5  -0.0360190   0.0009556   0.0021373  -0.0181070   0.0022841   0.0004105
    6  -0.0197105   0.0005542   0.0056621   0.0334868   0.0040443   0.0094643
    7  -0.0019577  -0.0011123  -0.0002040  -0.0020211   0.0001281   0.0006749
    8  -0.0034408  -0.0002976  -0.0004142  -0.0028575   0.0000370   0.0004650
    9   0.0011480  -0.0001485  -0.0002321  -0.0016532  -0.0003280  -0.0006007
   10   0.0061973  -0.0065955   0.0028268   0.0029313  -0.0043367  -0.0003665
   11   0.0060863  -0.0148720   0.0098649   0.0025233  -0.0044100   0.0015595
   12   0.0100622  -0.0163278   0.0082226  -0.0134457   0.0290872  -0.0093225
   13  -0.0679980  -0.0420493  -0.0346589  -0.0690350  -0.0129809   0.0621311
   14  -0.0327235  -0.2179017  -0.1329266  -0.0118121  -0.0755503   0.0469615
   15  -0.0293505  -0.1278117  -0.1722958   0.0567865   0.0447314  -0.2971811
   16  -0.0006204   0.0002885   0.0000805   0.0011544  -0.0010624   0.0008173
   17  -0.0000326  -0.0012691   0.0002191   0.0000866   0.0021517  -0.0011473
   18  -0.0002390   0.0011166  -0.0003397  -0.0008447   0.0003124   0.0013010
   19  -0.0053408   0.0020707   0.0004470  -0.0015757  -0.0006261  -0.0009621
   20   0.0072827  -0.0007946   0.0033936   0.0102579  -0.0008997  -0.0014646
   21  -0.0042218   0.0001170  -0.0002672   0.0040853   0.0009507   0.0005744
   22   0.0009916  -0.0004511   0.0003457  -0.0004903   0.0012748  -0.0002004
   23  -0.0002158   0.0013070   0.0003296   0.0027220  -0.0040177   0.0016924
   24  -0.0001100  -0.0004853   0.0010254  -0.0006855   0.0010744   0.0010786
   25   0.0806608   0.0494928   0.0381874   0.0053203   0.0069543   0.0047610
   26   0.0494928   0.2294325   0.1370276   0.0019090   0.0076894   0.0053782
   27   0.0381874   0.1370276   0.1728415  -0.0063422  -0.0232943  -0.0152868
   28   0.0053203   0.0019090  -0.0063422   0.0902516   0.0160106  -0.0711429
   29   0.0069543   0.0076894  -0.0232943   0.0160106   0.0722749  -0.0550259
   30   0.0047610   0.0053782  -0.0152868  -0.0711429  -0.0550259   0.3092127
   31  -0.0002478   0.0005670  -0.0000963  -0.0001354  -0.0002869   0.0001263
   32   0.0000077  -0.0000271   0.0000542   0.0000042   0.0002845  -0.0001798
   33  -0.0001856  -0.0001199   0.0000903   0.0000550  -0.0002481   0.0003396
   34  -0.0001813  -0.0000975  -0.0003017   0.0000706   0.0000998   0.0000905
   35   0.0002333  -0.0000609  -0.0000869  -0.0000706   0.0000392   0.0003136
   36   0.0000765  -0.0001218   0.0000824  -0.0002332  -0.0000689   0.0001604
   37   0.0001302  -0.0001065  -0.0000647   0.0003906   0.0000437  -0.0004706
   38   0.0000151   0.0001658   0.0001316  -0.0000236  -0.0000146  -0.0000633
   39  -0.0002283   0.0002541   0.0003453   0.0001912  -0.0002999   0.0004260
           31          32          33          34          35          36
    1   0.0023002   0.0012178  -0.0011776  -0.0073093   0.0040275   0.0044844
    2  -0.0003493   0.0010540   0.0006382   0.0034960  -0.0001658  -0.0015747
    3  -0.0003240   0.0000597   0.0001645   0.0023427  -0.0011935  -0.0002693
    4  -0.0022389   0.0009393   0.0015273   0.0004631  -0.0008317  -0.0001180
    5   0.0002265  -0.0000738  -0.0005414   0.0006809  -0.0001620  -0.0002363
    6  -0.0003336   0.0000869   0.0005690  -0.0000668  -0.0000644  -0.0001890
    7  -0.0000199   0.0008057   0.0000664  -0.0016914   0.0001526   0.0007555
    8  -0.0003192   0.0001392   0.0001943   0.0003006  -0.0003425  -0.0002031
    9   0.0000758   0.0000866  -0.0000887  -0.0005131   0.0001794   0.0001372
   10  -0.0089568   0.0007540   0.0040256  -0.0175074   0.0080557   0.0093982
   11   0.0276004  -0.0094397  -0.0184317  -0.0198955   0.0077440   0.0121888
   12  -0.0114238   0.0035263   0.0060121  -0.0080395   0.0035665   0.0027583
   13  -0.0025044   0.0003459   0.0024199   0.0006740   0.0001236   0.0000706
   14  -0.0003665   0.0014341   0.0012214   0.0001684   0.0002176  -0.0000092
   15   0.0034701  -0.0013045  -0.0012543  -0.0001767   0.0002779   0.0003897
   16  -0.0719850   0.0649010  -0.0240951  -0.2052844  -0.1266210  -0.0344074
   17   0.0635908  -0.2720210   0.0864897  -0.1235488  -0.1652977  -0.0308379
   18  -0.0235311   0.0834111  -0.0906115  -0.0324961  -0.0301088  -0.0669718
   19   0.0003163  -0.0007028  -0.0004133   0.0019668   0.0002818  -0.0003011
   20   0.0017249  -0.0004295  -0.0008216  -0.0031857   0.0014140   0.0013881
   21  -0.0002412  -0.0001129   0.0000072   0.0012504  -0.0001449  -0.0001409
   22   0.0010720   0.0000987  -0.0007571   0.0008487  -0.0005781  -0.0008132
   23  -0.0007100   0.0004092  -0.0003311   0.0000939   0.0004772   0.0002224
   24  -0.0002423  -0.0000844   0.0006993   0.0000702  -0.0000979   0.0000797
   25  -0.0002478   0.0000077  -0.0001856  -0.0001813   0.0002333   0.0000765
   26   0.0005670  -0.0000271  -0.0001199  -0.0000975  -0.0000609  -0.0001218
   27  -0.0000963   0.0000542   0.0000903  -0.0003017  -0.0000869   0.0000824
   28  -0.0001354   0.0000042   0.0000550   0.0000706  -0.0000706  -0.0002332
   29  -0.0002869   0.0002845  -0.0002481   0.0000998   0.0000392  -0.0000689
   30   0.0001263  -0.0001798   0.0003396   0.0000905   0.0003136   0.0001604
   31   0.0760840  -0.0729661   0.0237843   0.0085470  -0.0226613   0.0098717
   32  -0.0729661   0.2909703  -0.0911755   0.0062147  -0.0165220   0.0068623
   33   0.0237843  -0.0911755   0.0909735   0.0023500  -0.0060198   0.0014228
   34   0.0085470   0.0062147   0.0023500   0.2220062   0.1370947   0.0357534
   35  -0.0226613  -0.0165220  -0.0060198   0.1370947   0.1734088   0.0332065
   36   0.0098717   0.0068623   0.0014228   0.0357534   0.0332065   0.0652067
   37  -0.0022314  -0.0016202  -0.0075998  -0.0026024   0.0007936  -0.0245376
   38   0.0039496   0.0042219   0.0291455  -0.0014215  -0.0007498  -0.0208162
   39  -0.0011359  -0.0012300  -0.0083238  -0.0002633   0.0001721  -0.0026663
           37          38          39
    1   0.0031234   0.0003468   0.0003929
    2  -0.0001791   0.0002797   0.0005761
    3  -0.0010672   0.0011821   0.0017346
    4   0.0000280  -0.0002009   0.0002968
    5  -0.0003609  -0.0001408  -0.0000542
    6  -0.0002070   0.0003182   0.0000748
    7   0.0006444   0.0002461   0.0005918
    8   0.0001021  -0.0001199   0.0000264
    9   0.0000845  -0.0000814  -0.0001702
   10   0.0027527  -0.0036026  -0.0027088
   11   0.0024523  -0.0026382  -0.0014061
   12   0.0320104  -0.0118675  -0.0177227
   13   0.0010505  -0.0003343  -0.0006574
   14  -0.0012636   0.0003994   0.0010722
   15   0.0009673  -0.0015824   0.0009919
   16  -0.0623786   0.0002825  -0.0410190
   17  -0.0014937  -0.0572421  -0.0146910
   18  -0.0435040  -0.0122718  -0.3128376
   19  -0.0004502  -0.0004027  -0.0005482
   20   0.0005534   0.0005405   0.0002218
   21  -0.0000619   0.0000164  -0.0000770
   22  -0.0044408   0.0020580   0.0029184
   23   0.0019913   0.0002750  -0.0011764
   24   0.0022809  -0.0006461   0.0004096
   25   0.0001302   0.0000151  -0.0002283
   26  -0.0001065   0.0001658   0.0002541
   27  -0.0000647   0.0001316   0.0003453
   28   0.0003906  -0.0000236   0.0001912
   29   0.0000437  -0.0000146  -0.0002999
   30  -0.0004706  -0.0000633   0.0004260
   31  -0.0022314   0.0039496  -0.0011359
   32  -0.0016202   0.0042219  -0.0012300
   33  -0.0075998   0.0291455  -0.0083238
   34  -0.0026024  -0.0014215  -0.0002633
   35   0.0007936  -0.0007498   0.0001721
   36  -0.0245376  -0.0208162  -0.0026663
   37   0.0639836  -0.0009124   0.0421698
   38  -0.0009124   0.0550232   0.0165349
   39   0.0421698   0.0165349   0.3378156
 Gradient time:  CPU 2038.28 s  wall 1154.36 s
 **********************************************************************
 **                                                                  **
 **                       VIBRATIONAL ANALYSIS                       **
 **                       --------------------                       **
 **                                                                  **
 **        VIBRATIONAL FREQUENCIES (CM**-1) AND NORMAL MODES         **
 **     FORCE CONSTANTS (mDYN/ANGSTROM) AND REDUCED MASSES (AMU)     **
 **                  INFRARED INTENSITIES (KM/MOL)                   **
 **                                                                  **
 **********************************************************************
 

 Mode:                 1                      2                      3
 Frequency:       101.15                 186.10                 230.58
 Force Cnst:      0.0242                 0.0723                 0.0363
 Red. Mass:       4.0101                 3.5433                 1.1600
 IR Active:          YES                    YES                    YES
 IR Intens:        1.799                  1.052                  0.267
 Raman Active:       YES                    YES                    YES
               X      Y      Z        X      Y      Z        X      Y      Z
 O         -0.014  0.013  0.295    0.003  0.021  0.111   -0.017 -0.027 -0.028
 O          0.020 -0.013 -0.143   -0.025  0.024  0.279    0.019 -0.006 -0.023
 O          0.046 -0.027 -0.141    0.045 -0.016 -0.226   -0.025  0.036  0.017
 C          0.039  0.004  0.073    0.019  0.051 -0.016   -0.011 -0.041  0.012
 C          0.008  0.045  0.154   -0.019 -0.028 -0.152    0.017 -0.028  0.033
 C         -0.124 -0.015 -0.213   -0.024 -0.052 -0.021    0.020  0.050  0.002
 C          0.025 -0.007 -0.007    0.006  0.007  0.038   -0.007  0.001 -0.010
 H          0.267 -0.012  0.043    0.057  0.187 -0.020   -0.029 -0.066  0.013
 H         -0.155 -0.033  0.314    0.203  0.113 -0.412    0.010 -0.052  0.067
 H          0.186  0.213  0.247   -0.291 -0.284 -0.294    0.061 -0.003  0.051
 H         -0.052 -0.023 -0.290    0.088  0.070  0.210    0.432  0.301  0.332
 H         -0.067 -0.029 -0.407   -0.048  0.054 -0.308   -0.182  0.407 -0.426
 H         -0.383 -0.006 -0.175   -0.151 -0.357  0.016   -0.158 -0.416  0.056
 TransDip  -0.001  0.015  0.040   -0.008 -0.000 -0.032    0.008 -0.013  0.007

 Mode:                 4                      5                      6
 Frequency:       310.43                 457.86                 553.36
 Force Cnst:      0.1430                 0.3290                 1.2300
 Red. Mass:       2.5185                 2.6635                 6.8181
 IR Active:          YES                    YES                    YES
 IR Intens:        2.130                  6.244                  1.677
 Raman Active:       YES                    YES                    YES
               X      Y      Z        X      Y      Z        X      Y      Z
 O         -0.065 -0.085  0.109   -0.042 -0.009  0.102    0.185 -0.180 -0.033
 O          0.047 -0.033  0.002   -0.063 -0.023  0.003    0.045 -0.262  0.022
 O         -0.070  0.103 -0.039   -0.081  0.046 -0.036   -0.113  0.358 -0.017
 C         -0.009 -0.088  0.021    0.079 -0.001 -0.192    0.047  0.197  0.046
 C          0.036 -0.126 -0.069   -0.070  0.067  0.033   -0.138  0.095 -0.022
 C          0.074  0.199 -0.034    0.225 -0.077 -0.006   -0.101  0.018  0.028
 C         -0.028 -0.012  0.021   -0.055 -0.014  0.029    0.125 -0.220 -0.014
 H          0.026 -0.067  0.015    0.191  0.041 -0.205   -0.049  0.265  0.054
 H          0.133 -0.058 -0.191   -0.150 -0.100  0.275   -0.318  0.141 -0.008
 H          0.012 -0.279 -0.112   -0.099  0.404  0.102   -0.146  0.175 -0.011
 H          0.193  0.114 -0.353    0.167 -0.006  0.233   -0.352 -0.044  0.064
 H         -0.052  0.261  0.304    0.154 -0.033  0.157    0.126 -0.202 -0.177
 H          0.214  0.579 -0.077    0.551 -0.225 -0.045   -0.313 -0.068  0.064
 TransDip   0.030 -0.032 -0.017    0.078  0.008 -0.014    0.010 -0.038  0.014

 Mode:                 7                      8                      9
 Frequency:       651.68                 729.14                 796.57
 Force Cnst:      0.8570                 2.7961                 4.5424
 Red. Mass:       3.4248                 8.9263                12.1501
 IR Active:          YES                    YES                    YES
 IR Intens:        5.890                 15.218                 44.747
 Raman Active:       YES                    YES                    YES
               X      Y      Z        X      Y      Z        X      Y      Z
 O          0.061  0.132 -0.055    0.104 -0.120  0.018    0.072  0.045 -0.202
 O         -0.125 -0.013 -0.039   -0.282  0.155 -0.088    0.020 -0.053 -0.196
 O         -0.118  0.022 -0.009    0.345  0.214  0.021   -0.001  0.001 -0.256
 C          0.185  0.014  0.215   -0.092 -0.229  0.003   -0.007  0.003 -0.026
 C         -0.054 -0.102  0.056   -0.370 -0.137  0.018    0.052 -0.026 -0.015
 C          0.175 -0.054 -0.056    0.017 -0.059 -0.016   -0.042  0.016  0.015
 C         -0.089  0.017 -0.027    0.250  0.146  0.063   -0.119  0.014  0.884
 H          0.178 -0.144  0.216    0.041 -0.243 -0.005   -0.036 -0.010 -0.021
 H         -0.135  0.185 -0.281   -0.220 -0.117 -0.073   -0.009 -0.084  0.083
 H         -0.057 -0.485 -0.029   -0.343 -0.270 -0.004    0.115  0.059  0.027
 H          0.147 -0.124 -0.211    0.143 -0.029 -0.027   -0.052  0.017  0.023
 H          0.328 -0.172 -0.292   -0.105  0.050  0.113   -0.049  0.020  0.021
 H         -0.163 -0.007 -0.009    0.142 -0.033 -0.036   -0.045  0.020  0.016
 TransDip   0.067 -0.017  0.035   -0.109 -0.059  0.015   -0.021 -0.010  0.213

 Mode:                10                     11                     12
 Frequency:       882.63                 946.67                 974.99
 Force Cnst:      1.8121                 1.0803                 0.7733
 Red. Mass:       3.9480                 2.0459                 1.3807
 IR Active:          YES                    YES                    YES
 IR Intens:        7.953                  3.712                 11.542
 Raman Active:       YES                    YES                    YES
               X      Y      Z        X      Y      Z        X      Y      Z
 O          0.110  0.279  0.028   -0.016  0.125 -0.005   -0.066 -0.015 -0.015
 O          0.024 -0.147  0.009    0.041 -0.118  0.022    0.054 -0.027 -0.017
 O         -0.004  0.044  0.009    0.023  0.018  0.002    0.019 -0.005  0.002
 C         -0.022 -0.002 -0.124   -0.031 -0.099  0.046    0.008  0.013  0.009
 C         -0.025 -0.257  0.060   -0.036  0.121 -0.067   -0.031  0.090  0.083
 C         -0.141  0.042 -0.006   -0.001 -0.126  0.017   -0.031  0.002 -0.059
 C          0.008  0.017 -0.049    0.026  0.000  0.002    0.020 -0.014  0.013
 H          0.292 -0.021 -0.154   -0.112 -0.032  0.061    0.204 -0.333 -0.018
 H         -0.009 -0.338  0.138   -0.266  0.175 -0.047   -0.069  0.460 -0.360
 H         -0.019 -0.180  0.084   -0.097  0.219 -0.068   -0.024 -0.418 -0.035
 H         -0.237  0.149  0.352    0.577 -0.078 -0.331   -0.095  0.097  0.247
 H         -0.255  0.089  0.323   -0.352  0.278  0.102   -0.087  0.006  0.199
 H          0.306 -0.127 -0.057   -0.016  0.271 -0.006    0.361 -0.163 -0.103
 TransDip  -0.068 -0.059 -0.007    0.004  0.057 -0.024    0.093  0.013  0.054

 Mode:                13                     14                     15
 Frequency:       991.28                1106.34                1118.19
 Force Cnst:      2.1715                 3.9367                 2.9752
 Red. Mass:       3.7508                 5.4589                 4.0386
 IR Active:          YES                    YES                    YES
 IR Intens:       12.061                136.914                303.350
 Raman Active:       YES                    YES                    YES
               X      Y      Z        X      Y      Z        X      Y      Z
 O          0.240 -0.053  0.028   -0.075  0.069  0.029   -0.196 -0.058 -0.064
 O         -0.170  0.124 -0.010   -0.290 -0.226 -0.003   -0.132 -0.063  0.014
 O         -0.129  0.004 -0.011    0.097  0.082  0.010    0.077  0.017  0.009
 C          0.035 -0.089 -0.009   -0.166 -0.038 -0.048    0.348  0.062  0.030
 C          0.165  0.110  0.002    0.348  0.094  0.047    0.096 -0.049 -0.082
 C         -0.137 -0.062  0.003    0.089  0.070 -0.016   -0.142  0.008  0.062
 C         -0.040 -0.097 -0.021    0.084  0.011  0.004    0.044  0.070 -0.002
 H          0.321 -0.095 -0.036   -0.398 -0.145 -0.027    0.545 -0.055 -0.004
 H          0.289  0.147 -0.087    0.325  0.214 -0.098   -0.268 -0.121  0.135
 H          0.107 -0.046 -0.049    0.072 -0.139 -0.073    0.028  0.321 -0.012
 H          0.219  0.073  0.066   -0.234 -0.031 -0.016   -0.011  0.095  0.158
 H         -0.485  0.265  0.360    0.337 -0.182 -0.221   -0.296  0.160  0.214
 H          0.219  0.098 -0.055   -0.070 -0.163  0.015   -0.115  0.179  0.062
 TransDip  -0.058 -0.094 -0.014    0.345  0.144 -0.030    0.514  0.208  0.056

 Mode:                16                     17                     18
 Frequency:      1157.52                1181.92                1219.94
 Force Cnst:      1.8352                 1.5943                 2.2147
 Red. Mass:       2.3248                 1.9370                 2.5258
 IR Active:          YES                    YES                    YES
 IR Intens:      119.650                  2.760                353.156
 Raman Active:       YES                    YES                    YES
               X      Y      Z        X      Y      Z        X      Y      Z
 O         -0.085  0.011 -0.024    0.006 -0.014 -0.023    0.067 -0.117 -0.010
 O         -0.036  0.042 -0.022   -0.019 -0.002  0.036    0.006 -0.085 -0.011
 O          0.026  0.024  0.004    0.009  0.004  0.001    0.012 -0.025  0.003
 C         -0.017  0.211 -0.012   -0.081  0.028  0.190   -0.038  0.055 -0.026
 C          0.001 -0.072  0.093    0.033 -0.021 -0.113    0.062 -0.041  0.107
 C          0.010 -0.122 -0.036    0.008 -0.005 -0.152   -0.007 -0.052 -0.015
 C          0.077 -0.144  0.015   -0.003  0.013  0.002   -0.104  0.256 -0.025
 H         -0.240  0.393  0.009   -0.059  0.168  0.196    0.049  0.756 -0.028
 H          0.416 -0.145  0.030   -0.285 -0.177  0.195   -0.237  0.232 -0.131
 H          0.110 -0.296  0.081    0.347  0.241  0.042   -0.278 -0.141 -0.007
 H          0.417 -0.029 -0.135    0.007  0.129  0.226    0.175 -0.012 -0.062
 H         -0.241  0.169  0.061    0.021 -0.105  0.211   -0.118  0.073  0.041
 H          0.196  0.206 -0.084    0.539 -0.238 -0.212    0.093  0.079 -0.040
 TransDip   0.273 -0.205  0.080   -0.029  0.034  0.029   -0.241  0.550 -0.044

 Mode:                19                     20                     21
 Frequency:      1272.30                1392.69                1393.31
 Force Cnst:      1.1157                 1.7936                 1.3783
 Red. Mass:       1.1699                 1.5695                 1.2050
 IR Active:          YES                    YES                    YES
 IR Intens:       15.034                 92.925                 12.438
 Raman Active:       YES                    YES                    YES
               X      Y      Z        X      Y      Z        X      Y      Z
 O          0.011 -0.005  0.012   -0.044  0.045 -0.020   -0.020  0.002 -0.029
 O         -0.016  0.027  0.038    0.001  0.041 -0.002   -0.003 -0.032  0.008
 O          0.003  0.004 -0.002   -0.003  0.010 -0.000    0.013  0.005  0.002
 C         -0.019  0.028 -0.081    0.049 -0.151 -0.003   -0.069 -0.023  0.020
 C          0.017 -0.032 -0.013    0.005  0.008  0.039   -0.046  0.061 -0.021
 C          0.010 -0.012  0.036    0.027  0.044 -0.037    0.004  0.017  0.046
 C          0.000 -0.011  0.006    0.039 -0.101  0.008   -0.010  0.001 -0.003
 H         -0.035 -0.062 -0.088   -0.064  0.809  0.018    0.765  0.261 -0.070
 H         -0.612  0.169 -0.044   -0.156  0.196 -0.126    0.292 -0.131  0.094
 H          0.675 -0.239  0.131    0.007 -0.003  0.031    0.317 -0.172  0.034
 H          0.020 -0.056 -0.098   -0.242  0.006  0.085    0.088 -0.055 -0.189
 H         -0.018  0.053 -0.087   -0.050  0.042  0.248    0.110 -0.067 -0.107
 H         -0.092  0.066  0.041   -0.221 -0.180  0.019    0.019 -0.077  0.044
 TransDip  -0.071 -0.075 -0.068    0.064 -0.296  0.059   -0.109 -0.026  0.018

 Mode:                22                     23                     24
 Frequency:      1435.45                1453.31                1501.00
 Force Cnst:      1.6331                 2.0029                 1.4109
 Red. Mass:       1.3452                 1.6095                 1.0629
 IR Active:          YES                    YES                    YES
 IR Intens:       47.440                 22.630                 11.768
 Raman Active:       YES                    YES                    YES
               X      Y      Z        X      Y      Z        X      Y      Z
 O         -0.014  0.016 -0.003   -0.016  0.004 -0.015    0.002 -0.005  0.002
 O          0.002  0.036 -0.005    0.009  0.055 -0.007    0.001  0.004 -0.001
 O         -0.004  0.004 -0.001    0.002  0.009  0.001    0.002  0.001  0.000
 C          0.015 -0.033 -0.016   -0.130  0.059  0.030   -0.028  0.042 -0.019
 C          0.038 -0.035  0.021    0.090 -0.084  0.012    0.013 -0.016  0.004
 C         -0.118  0.049  0.062    0.076 -0.028  0.008   -0.000  0.022 -0.032
 C          0.022 -0.053  0.004    0.028 -0.076  0.005   -0.000 -0.001  0.000
 H         -0.005  0.114 -0.018    0.557 -0.122 -0.050    0.081 -0.123 -0.037
 H         -0.229  0.122 -0.076   -0.368  0.142 -0.105   -0.055  0.008 -0.004
 H         -0.221  0.103 -0.024   -0.463  0.306 -0.066   -0.052  0.014 -0.008
 H          0.404  0.084 -0.244   -0.198 -0.127 -0.042    0.445  0.131 -0.063
 H          0.341 -0.385 -0.319   -0.121  0.226 -0.075    0.144 -0.316  0.583
 H          0.469 -0.087 -0.023   -0.093  0.045  0.025   -0.454 -0.275  0.063
 TransDip   0.158 -0.149 -0.038   -0.053 -0.141  0.022    0.008 -0.062  0.090

 Mode:                25                     26                     27
 Frequency:      1506.84                1530.50                1843.71
 Force Cnst:      1.4114                 1.5109                25.3793
 Red. Mass:       1.0550                 1.0948                12.6720
 IR Active:          YES                    YES                    YES
 IR Intens:        5.186                 16.520               1237.340
 Raman Active:       YES                    YES                    YES
               X      Y      Z        X      Y      Z        X      Y      Z
 O         -0.002  0.007 -0.002    0.006 -0.003  0.001   -0.035 -0.008 -0.007
 O          0.000  0.001  0.002   -0.010 -0.016  0.003   -0.031 -0.017 -0.000
 O          0.002  0.002  0.000    0.007  0.001  0.001   -0.463 -0.193 -0.049
 C         -0.030 -0.028 -0.006    0.001  0.010  0.001   -0.057 -0.005 -0.003
 C         -0.004 -0.006  0.004   -0.041 -0.068  0.018   -0.036 -0.024 -0.000
 C         -0.001 -0.039 -0.027   -0.002  0.005  0.007    0.008 -0.002  0.002
 C          0.000 -0.012  0.000   -0.014  0.016 -0.002    0.773  0.318  0.082
 H          0.118  0.062 -0.024   -0.012 -0.035  0.003    0.097  0.058 -0.035
 H          0.029  0.072 -0.103    0.321  0.283 -0.532    0.014 -0.014 -0.066
 H          0.065  0.092  0.041    0.308  0.581  0.253    0.087  0.019  0.063
 H          0.156  0.247  0.586   -0.004 -0.041 -0.110    0.018 -0.002 -0.014
 H          0.203 -0.240 -0.117   -0.027  0.029  0.016    0.017 -0.018 -0.012
 H         -0.159  0.616 -0.033    0.035 -0.107  0.007   -0.013  0.004  0.006
 TransDip   0.023  0.041  0.056   -0.066  0.096 -0.058    1.042  0.416  0.099

 Mode:                28                     29                     30
 Frequency:      3059.89                3093.00                3100.28
 Force Cnst:      5.7175                 6.0321                 6.1284
 Red. Mass:       1.0364                 1.0702                 1.0822
 IR Active:          YES                    YES                    YES
 IR Intens:       13.830                 23.606                 32.490
 Raman Active:       YES                    YES                    YES
               X      Y      Z        X      Y      Z        X      Y      Z
 O          0.000 -0.000  0.000    0.001  0.000 -0.000   -0.001 -0.001  0.000
 O          0.000 -0.000  0.000    0.001  0.000  0.001    0.000  0.000  0.000
 O          0.000  0.000  0.000    0.001  0.000  0.000   -0.000  0.000 -0.000
 C         -0.002  0.001  0.000    0.003 -0.002  0.035   -0.007  0.001 -0.074
 C         -0.001 -0.001  0.001    0.024  0.037 -0.050    0.013  0.022 -0.016
 C          0.042 -0.010 -0.027   -0.002 -0.000 -0.006    0.009 -0.001  0.016
 C         -0.001  0.000 -0.000   -0.002 -0.002 -0.000    0.001 -0.001  0.000
 H          0.003 -0.001  0.002   -0.046  0.003 -0.411    0.100 -0.009  0.871
 H          0.003  0.008  0.008   -0.070 -0.244 -0.212   -0.055 -0.176 -0.152
 H          0.007  0.003 -0.021   -0.230 -0.169  0.792   -0.097 -0.074  0.342
 H         -0.133  0.464 -0.182    0.000 -0.010  0.005   -0.020  0.082 -0.028
 H         -0.447 -0.382 -0.106    0.011  0.012  0.003   -0.062 -0.057 -0.013
 H          0.097  0.034  0.602    0.009  0.004  0.063   -0.025 -0.007 -0.140
 TransDip   0.096 -0.037 -0.059    0.109  0.103 -0.042    0.022  0.037 -0.177

 Mode:                31                     32                     33
 Frequency:      3139.82                3149.92                3183.74
 Force Cnst:      6.4044                 6.4548                 6.6049
 Red. Mass:       1.1026                 1.1042                 1.1060
 IR Active:          YES                    YES                    YES
 IR Intens:       26.864                 31.641                 19.115
 Raman Active:       YES                    YES                    YES
               X      Y      Z        X      Y      Z        X      Y      Z
 O          0.000  0.000  0.000    0.000  0.000 -0.000    0.000  0.000  0.000
 O          0.000  0.000 -0.000   -0.000  0.000 -0.000   -0.000  0.000  0.001
 O         -0.000 -0.000 -0.000    0.000  0.000  0.000   -0.000 -0.000 -0.000
 C         -0.002 -0.001 -0.012    0.001 -0.001  0.013   -0.001  0.001 -0.008
 C          0.001  0.002  0.002   -0.002 -0.004 -0.003   -0.008 -0.053 -0.077
 C         -0.049 -0.061 -0.049    0.015 -0.066  0.064   -0.002  0.002 -0.003
 C          0.000 -0.000  0.000   -0.000  0.000 -0.000    0.001  0.001 -0.000
 H          0.014  0.000  0.134   -0.013  0.002 -0.140    0.012 -0.004  0.092
 H         -0.007 -0.022 -0.018    0.014  0.045  0.036    0.198  0.695  0.560
 H          0.000 -0.001  0.001   -0.002  0.001  0.001   -0.104 -0.087  0.356
 H         -0.075  0.213 -0.094   -0.219  0.734 -0.276    0.009 -0.029  0.011
 H          0.587  0.492  0.129    0.119  0.089  0.037    0.005  0.005  0.000
 H          0.078  0.022  0.551   -0.080 -0.041 -0.523    0.003  0.003  0.030
 TransDip  -0.070 -0.096 -0.116    0.041 -0.116  0.131   -0.035 -0.069 -0.117

 STANDARD THERMODYNAMIC QUANTITIES AT   298.15 K  AND     1.00 ATM

   This Molecule has  0 Imaginary Frequencies
   Zero point vibrational energy:       65.263 kcal/mol

   Atom    1 Element O  Has Mass   15.99491
   Atom    2 Element O  Has Mass   15.99491
   Atom    3 Element O  Has Mass   15.99491
   Atom    4 Element C  Has Mass   12.00000
   Atom    5 Element C  Has Mass   12.00000
   Atom    6 Element C  Has Mass   12.00000
   Atom    7 Element C  Has Mass   12.00000
   Atom    8 Element H  Has Mass    1.00783
   Atom    9 Element H  Has Mass    1.00783
   Atom   10 Element H  Has Mass    1.00783
   Atom   11 Element H  Has Mass    1.00783
   Atom   12 Element H  Has Mass    1.00783
   Atom   13 Element H  Has Mass    1.00783
   Molecular Mass:   102.031710 amu
   Principal axes and moments of inertia in amu*Bohr^2:
                             1           2           3
    Eigenvalues --      298.68305   802.70885  1033.68841
          X               0.99982    -0.01607    -0.00988
          Y               0.01616     0.99983     0.00862
          Z               0.00974    -0.00878     0.99991
   Rotational Symmetry Number is   1
   The Molecule is an Asymmetric Top
   Translational Enthalpy:        0.889 kcal/mol
   Rotational Enthalpy:           0.889 kcal/mol
   Vibrational Enthalpy:         67.355 kcal/mol
   gas constant (RT):             0.592 kcal/mol
   Translational Entropy:        39.778  cal/mol.K
   Rotational Entropy:           27.007  cal/mol.K
   Vibrational Entropy:          11.945  cal/mol.K

   Total Enthalpy:               69.725 kcal/mol
   Total Entropy:                78.730  cal/mol.K
Archival summary:
1\1\nid04191\FREQ\ProcedureUnspecified\BasisUnspecified\346\sblau\FriSep1413:01:552018FriSep1413:01:552018\0\\#,FREQ,ProcedureUnspecified,BasisUnspecified,\\0,1\O\C,1,1.33488\O,2,1.19782,1,124.469\O,2,1.33807,1,111.422,3,179.994,0\C,4,1.43623,2,109.242,1,7.53997,0\H,5,1.08684,4,108.583,2,-139.038,0\H,5,1.09194,4,108.261,2,101.16,0\C,1,1.44916,2,109.745,3,-172.38,0\H,8,1.09235,1,106.462,2,98.1336,0\C,8,1.50691,1,110.461,2,-140.904,0\H,10,1.09092,8,110.919,1,-63.5192,0\H,10,1.09232,8,110.8,1,57.7899,0\H,10,1.09268,8,109.307,1,177.394,0\\\@

 Total job time:  1176.96s(wall), 2448.86s(cpu) 
 Fri Sep 14 13:01:55 2018

        *************************************************************
        *                                                           *
        *  Thank you very much for using Q-Chem.  Have a nice day.  *
        *                                                           *
        *************************************************************


0 sent ACK to 0 
now end server 0 ... 
cleanup process ... done
