<?xml version="1.0" encoding="ISO-8859-1"?>
<modeling>
 <generator>
  <i name="program" type="string">vasp </i>
  <i name="version" type="string">5.2.2  </i>
  <i name="subversion" type="string">15Apr09 complex  parallel </i>
  <i name="platform" type="string">unknown </i>
  <i name="date" type="string">2013 09 23 </i>
  <i name="time" type="string">16:15:27 </i>
 </generator>
 <incar>
  <i type="string" name="PREC">accurate</i>
  <i type="string" name="ALGO"> Fast</i>
  <i type="int" name="ISPIN">     1</i>
  <i type="int" name="ICHARG">    11</i>
  <i type="int" name="NELM">   100</i>
  <i type="int" name="IBRION">    -1</i>
  <i name="EDIFF">      0.00010000</i>
  <i type="int" name="NSW">     0</i>
  <i type="int" name="ISIF">     3</i>
  <i type="int" name="ISYM">     0</i>
  <i name="ENCUT">    520.00000000</i>
  <i type="int" name="NBANDS">    20</i>
  <i type="int" name="NEDOS">   601</i>
  <i type="string" name="LREAL"> Auto</i>
  <i type="int" name="ISMEAR">     0</i>
  <i name="SIGMA">      0.00100000</i>
  <i type="logical" name="LWAVE"> F  </i>
  <i type="logical" name="LCHARG"> F  </i>
  <i type="logical" name="LORBIT"> F  </i>
  <i type="int" name="NELM">   100</i>
  <i type="logical" name="LPEAD"> F  </i>
  <i type="logical" name="LCALCPOL"> F  </i>
  <i type="logical" name="LCALCEPS"> F  </i>
  <v name="EFIELD_PEAD">      0.00000000      0.00000000      0.00000000</v>
  <i type="logical" name="LEFG"> F  </i>
 </incar>
 <kpoints>
  <varray name="kpointlist" >
   <v>       0.00000000       0.00000000       0.00000000 </v>
   <v>       0.06666667       0.00000000       0.00000000 </v>
   <v>       0.13333333       0.00000000       0.00000000 </v>
   <v>       0.20000000       0.00000000       0.00000000 </v>
   <v>       0.26666667       0.00000000       0.00000000 </v>
   <v>       0.33333333       0.00000000       0.00000000 </v>
   <v>       0.40000000       0.00000000       0.00000000 </v>
   <v>       0.46666667       0.00000000       0.00000000 </v>
   <v>       0.06666667       0.06666667       0.00000000 </v>
   <v>       0.13333333       0.06666667       0.00000000 </v>
   <v>       0.20000000       0.06666667       0.00000000 </v>
   <v>       0.26666667       0.06666667       0.00000000 </v>
   <v>       0.33333333       0.06666667       0.00000000 </v>
   <v>       0.40000000       0.06666667       0.00000000 </v>
   <v>       0.46666667       0.06666667       0.00000000 </v>
   <v>      -0.46666667       0.06666667       0.00000000 </v>
   <v>      -0.40000000       0.06666667       0.00000000 </v>
   <v>      -0.33333333       0.06666667       0.00000000 </v>
   <v>      -0.26666667       0.06666667       0.00000000 </v>
   <v>      -0.20000000       0.06666667       0.00000000 </v>
   <v>      -0.13333333       0.06666667       0.00000000 </v>
   <v>      -0.06666667       0.06666667       0.00000000 </v>
   <v>       0.13333333       0.13333333       0.00000000 </v>
   <v>       0.20000000       0.13333333       0.00000000 </v>
   <v>       0.26666667       0.13333333       0.00000000 </v>
   <v>       0.33333333       0.13333333       0.00000000 </v>
   <v>       0.40000000       0.13333333       0.00000000 </v>
   <v>       0.46666667       0.13333333       0.00000000 </v>
   <v>      -0.46666667       0.13333333       0.00000000 </v>
   <v>      -0.40000000       0.13333333       0.00000000 </v>
   <v>      -0.33333333       0.13333333       0.00000000 </v>
   <v>      -0.26666667       0.13333333       0.00000000 </v>
   <v>      -0.20000000       0.13333333       0.00000000 </v>
   <v>      -0.13333333       0.13333333       0.00000000 </v>
   <v>       0.20000000       0.20000000       0.00000000 </v>
   <v>       0.26666667       0.20000000       0.00000000 </v>
   <v>       0.33333333       0.20000000       0.00000000 </v>
   <v>       0.40000000       0.20000000       0.00000000 </v>
   <v>       0.46666667       0.20000000       0.00000000 </v>
   <v>      -0.46666667       0.20000000       0.00000000 </v>
   <v>      -0.40000000       0.20000000       0.00000000 </v>
   <v>      -0.33333333       0.20000000       0.00000000 </v>
   <v>      -0.26666667       0.20000000       0.00000000 </v>
   <v>      -0.20000000       0.20000000       0.00000000 </v>
   <v>       0.26666667       0.26666667       0.00000000 </v>
   <v>       0.33333333       0.26666667       0.00000000 </v>
   <v>       0.40000000       0.26666667       0.00000000 </v>
   <v>       0.46666667       0.26666667       0.00000000 </v>
   <v>      -0.46666667       0.26666667       0.00000000 </v>
   <v>      -0.40000000       0.26666667       0.00000000 </v>
   <v>      -0.33333333       0.26666667       0.00000000 </v>
   <v>      -0.26666667       0.26666667       0.00000000 </v>
   <v>       0.33333333       0.33333333       0.00000000 </v>
   <v>       0.40000000       0.33333333       0.00000000 </v>
   <v>       0.46666667       0.33333333       0.00000000 </v>
   <v>      -0.46666667       0.33333333       0.00000000 </v>
   <v>      -0.40000000       0.33333333       0.00000000 </v>
   <v>      -0.33333333       0.33333333       0.00000000 </v>
   <v>       0.40000000       0.40000000       0.00000000 </v>
   <v>       0.46666667       0.40000000       0.00000000 </v>
   <v>      -0.46666667       0.40000000       0.00000000 </v>
   <v>      -0.40000000       0.40000000       0.00000000 </v>
   <v>       0.46666667       0.46666667       0.00000000 </v>
   <v>      -0.46666667       0.46666667       0.00000000 </v>
   <v>       0.20000000       0.13333333       0.06666667 </v>
   <v>       0.26666667       0.13333333       0.06666667 </v>
   <v>       0.33333333       0.13333333       0.06666667 </v>
   <v>       0.40000000       0.13333333       0.06666667 </v>
   <v>       0.46666667       0.13333333       0.06666667 </v>
   <v>      -0.46666667       0.13333333       0.06666667 </v>
   <v>       0.26666667       0.20000000       0.06666667 </v>
   <v>       0.33333333       0.20000000       0.06666667 </v>
   <v>       0.40000000       0.20000000       0.06666667 </v>
   <v>       0.46666667       0.20000000       0.06666667 </v>
   <v>      -0.46666667       0.20000000       0.06666667 </v>
   <v>      -0.40000000       0.20000000       0.06666667 </v>
   <v>      -0.33333333       0.20000000       0.06666667 </v>
   <v>      -0.26666667       0.20000000       0.06666667 </v>
   <v>      -0.20000000       0.20000000       0.06666667 </v>
   <v>      -0.13333333       0.20000000       0.06666667 </v>
   <v>       0.33333333       0.26666667       0.06666667 </v>
   <v>       0.40000000       0.26666667       0.06666667 </v>
   <v>       0.46666667       0.26666667       0.06666667 </v>
   <v>      -0.46666667       0.26666667       0.06666667 </v>
   <v>      -0.40000000       0.26666667       0.06666667 </v>
   <v>      -0.33333333       0.26666667       0.06666667 </v>
   <v>      -0.26666667       0.26666667       0.06666667 </v>
   <v>      -0.20000000       0.26666667       0.06666667 </v>
   <v>       0.40000000       0.33333333       0.06666667 </v>
   <v>       0.46666667       0.33333333       0.06666667 </v>
   <v>      -0.46666667       0.33333333       0.06666667 </v>
   <v>      -0.40000000       0.33333333       0.06666667 </v>
   <v>      -0.33333333       0.33333333       0.06666667 </v>
   <v>      -0.26666667       0.33333333       0.06666667 </v>
   <v>       0.46666667       0.40000000       0.06666667 </v>
   <v>      -0.46666667       0.40000000       0.06666667 </v>
   <v>      -0.40000000       0.40000000       0.06666667 </v>
   <v>      -0.33333333       0.40000000       0.06666667 </v>
   <v>      -0.46666667       0.46666667       0.06666667 </v>
   <v>      -0.40000000       0.46666667       0.06666667 </v>
   <v>       0.40000000       0.26666667       0.13333333 </v>
   <v>       0.46666667       0.26666667       0.13333333 </v>
   <v>      -0.46666667       0.26666667       0.13333333 </v>
   <v>      -0.40000000       0.26666667       0.13333333 </v>
   <v>       0.46666667       0.33333333       0.13333333 </v>
   <v>      -0.46666667       0.33333333       0.13333333 </v>
   <v>      -0.40000000       0.33333333       0.13333333 </v>
   <v>      -0.33333333       0.33333333       0.13333333 </v>
   <v>      -0.26666667       0.33333333       0.13333333 </v>
   <v>      -0.20000000       0.33333333       0.13333333 </v>
   <v>      -0.46666667       0.40000000       0.13333333 </v>
   <v>      -0.40000000       0.40000000       0.13333333 </v>
   <v>      -0.33333333       0.40000000       0.13333333 </v>
   <v>      -0.26666667       0.40000000       0.13333333 </v>
   <v>      -0.40000000       0.46666667       0.13333333 </v>
   <v>      -0.33333333       0.46666667       0.13333333 </v>
   <v>      -0.40000000       0.40000000       0.20000000 </v>
   <v>      -0.33333333       0.40000000       0.20000000 </v>
   <v>      -0.33333333       0.46666667       0.20000000 </v>
   <v>      -0.26666667       0.46666667       0.20000000 </v>
  </varray>
  <varray name="weights" >
   <v>       0.00029630 </v>
   <v>       0.00237037 </v>
   <v>       0.00237037 </v>
   <v>       0.00237037 </v>
   <v>       0.00237037 </v>
   <v>       0.00237037 </v>
   <v>       0.00237037 </v>
   <v>       0.00237037 </v>
   <v>       0.00177778 </v>
   <v>       0.00711111 </v>
   <v>       0.00711111 </v>
   <v>       0.00711111 </v>
   <v>       0.00711111 </v>
   <v>       0.00711111 </v>
   <v>       0.00711111 </v>
   <v>       0.00711111 </v>
   <v>       0.00711111 </v>
   <v>       0.00711111 </v>
   <v>       0.00711111 </v>
   <v>       0.00711111 </v>
   <v>       0.00711111 </v>
   <v>       0.00355556 </v>
   <v>       0.00177778 </v>
   <v>       0.00711111 </v>
   <v>       0.00711111 </v>
   <v>       0.00711111 </v>
   <v>       0.00711111 </v>
   <v>       0.00711111 </v>
   <v>       0.00711111 </v>
   <v>       0.00711111 </v>
   <v>       0.00711111 </v>
   <v>       0.00711111 </v>
   <v>       0.00711111 </v>
   <v>       0.00355556 </v>
   <v>       0.00177778 </v>
   <v>       0.00711111 </v>
   <v>       0.00711111 </v>
   <v>       0.00711111 </v>
   <v>       0.00711111 </v>
   <v>       0.00711111 </v>
   <v>       0.00711111 </v>
   <v>       0.00711111 </v>
   <v>       0.00711111 </v>
   <v>       0.00355556 </v>
   <v>       0.00177778 </v>
   <v>       0.00711111 </v>
   <v>       0.00711111 </v>
   <v>       0.00711111 </v>
   <v>       0.00711111 </v>
   <v>       0.00711111 </v>
   <v>       0.00711111 </v>
   <v>       0.00355556 </v>
   <v>       0.00177778 </v>
   <v>       0.00711111 </v>
   <v>       0.00711111 </v>
   <v>       0.00711111 </v>
   <v>       0.00711111 </v>
   <v>       0.00355556 </v>
   <v>       0.00177778 </v>
   <v>       0.00711111 </v>
   <v>       0.00711111 </v>
   <v>       0.00355556 </v>
   <v>       0.00177778 </v>
   <v>       0.00355556 </v>
   <v>       0.00711111 </v>
   <v>       0.01422222 </v>
   <v>       0.01422222 </v>
   <v>       0.01422222 </v>
   <v>       0.01422222 </v>
   <v>       0.01422222 </v>
   <v>       0.00711111 </v>
   <v>       0.01422222 </v>
   <v>       0.01422222 </v>
   <v>       0.01422222 </v>
   <v>       0.01422222 </v>
   <v>       0.01422222 </v>
   <v>       0.01422222 </v>
   <v>       0.01422222 </v>
   <v>       0.01422222 </v>
   <v>       0.00711111 </v>
   <v>       0.00711111 </v>
   <v>       0.01422222 </v>
   <v>       0.01422222 </v>
   <v>       0.01422222 </v>
   <v>       0.01422222 </v>
   <v>       0.01422222 </v>
   <v>       0.01422222 </v>
   <v>       0.00711111 </v>
   <v>       0.00711111 </v>
   <v>       0.01422222 </v>
   <v>       0.01422222 </v>
   <v>       0.01422222 </v>
   <v>       0.01422222 </v>
   <v>       0.00711111 </v>
   <v>       0.00711111 </v>
   <v>       0.01422222 </v>
   <v>       0.01422222 </v>
   <v>       0.00711111 </v>
   <v>       0.00711111 </v>
   <v>       0.00711111 </v>
   <v>       0.00711111 </v>
   <v>       0.01422222 </v>
   <v>       0.01422222 </v>
   <v>       0.01422222 </v>
   <v>       0.00711111 </v>
   <v>       0.01422222 </v>
   <v>       0.01422222 </v>
   <v>       0.01422222 </v>
   <v>       0.01422222 </v>
   <v>       0.00711111 </v>
   <v>       0.00711111 </v>
   <v>       0.01422222 </v>
   <v>       0.01422222 </v>
   <v>       0.00711111 </v>
   <v>       0.00711111 </v>
   <v>       0.00711111 </v>
   <v>       0.00711111 </v>
   <v>       0.01422222 </v>
   <v>       0.00711111 </v>
   <v>       0.00711111 </v>
  </varray>
 </kpoints>
 <parameters>
  <separator name="general" >
   <i type="string" name="SYSTEM">unknown system</i>
   <i type="logical" name="LCOMPAT"> F  </i>
  </separator>
  <separator name="electronic" >
   <i type="string" name="PREC">accura</i>
   <i name="ENMAX">    520.00000000</i>
   <i name="ENAUG">    391.91400000</i>
   <i name="EDIFF">      0.00010000</i>
   <i type="int" name="IALGO">    68</i>
   <i type="int" name="IWAVPR">    10</i>
   <i type="int" name="NBANDS">    20</i>
   <i name="NELECT">     20.00000000</i>
   <separator name="electronic smearing" >
    <i type="int" name="ISMEAR">     0</i>
    <i name="SIGMA">      0.00100000</i>
   </separator>
   <separator name="electronic projectors" >
    <i type="logical" name="LREAL"> T  </i>
    <v name="ROPT">     -0.00025000     -0.00025000</v>
    <i type="int" name="LMAXPAW">  -100</i>
    <i type="int" name="LMAXMIX">     2</i>
   </separator>
   <separator name="electronic startup" >
    <i type="int" name="ISTART">     0</i>
    <i type="int" name="ICHARG">    11</i>
    <i type="int" name="INIWAV">     1</i>
   </separator>
   <separator name="electronic spin" >
    <i type="int" name="ISPIN">     1</i>
    <i type="logical" name="LNONCOLLINEAR"> F  </i>
    <v name="MAGMOM">      1.00000000      1.00000000</v>
    <i name="NUPDOWN">     -1.00000000</i>
    <i type="logical" name="LSORBIT"> F  </i>
    <v name="SAXIS">      0.00000000      0.00000000      1.00000000</v>
    <i type="logical" name="LSPIRAL"> F  </i>
    <v name="QSPIRAL">      0.00000000      0.00000000      0.00000000</v>
    <i type="logical" name="LZEROZ"> F  </i>
   </separator>
   <separator name="electronic exchange-correlation" >
    <i type="logical" name="LASPH"> F  </i>
    <i type="logical" name="LMETAGGA"> F  </i>
   </separator>
   <separator name="electronic convergence" >
    <i type="int" name="NELM">   100</i>
    <i type="int" name="NELMDL">    -5</i>
    <i type="int" name="NELMIN">     2</i>
    <i name="ENINI">    520.00000000</i>
    <separator name="electronic convergence detail" >
     <i type="logical" name="LDIAG"> T  </i>
     <i name="WEIMIN">      0.00000000</i>
     <i name="EBREAK">      0.00000125</i>
     <i name="DEPER">      0.30000000</i>
     <i type="int" name="NRMM">     4</i>
     <i name="TIME">      0.40000000</i>
    </separator>
   </separator>
   <separator name="electronic mixer" >
    <i name="AMIX">      0.40000000</i>
    <i name="BMIX">      1.00000000</i>
    <i name="AMIN">      0.10000000</i>
    <i name="AMIX_MAG">      1.60000000</i>
    <i name="BMIX_MAG">      1.00000000</i>
    <separator name="electronic mixer details" >
     <i type="int" name="IMIX">     4</i>
     <i type="int" name="MAXMIX">   -45</i>
     <i name="WC">    100.00000000</i>
     <i type="int" name="INIMIX">     1</i>
     <i type="int" name="MIXPRE">     1</i>
     <i type="int" name="MREMOVE">     5</i>
    </separator>
   </separator>
   <separator name="electronic dipolcorrection" >
    <i type="logical" name="LDIPOL"> F  </i>
    <i type="logical" name="LMONO"> F  </i>
    <i type="int" name="IDIPOL">     0</i>
    <i name="EPSILON">      1.00000000</i>
    <v name="DIPOL">   -100.00000000   -100.00000000   -100.00000000</v>
    <i name="EFIELD">      0.00000000</i>
   </separator>
  </separator>
  <separator name="grids" >
   <i type="int" name="NGX">    36</i>
   <i type="int" name="NGY">    36</i>
   <i type="int" name="NGZ">    36</i>
   <i type="int" name="NGXF">    72</i>
   <i type="int" name="NGYF">    72</i>
   <i type="int" name="NGZF">    72</i>
   <i type="logical" name="ADDGRID"> F  </i>
  </separator>
  <separator name="ionic" >
   <i type="int" name="NSW">     0</i>
   <i type="int" name="IBRION">    -1</i>
   <i type="int" name="ISIF">     3</i>
   <i name="PSTRESS">      0.00000000</i>
   <i name="EDIFFG">      0.00100000</i>
   <i type="int" name="NFREE">     0</i>
   <i name="POTIM">      0.50000000</i>
   <i name="SMASS">     -3.00000000</i>
  </separator>
  <separator name="ionic md" >
   <i name="TEBEG">      0.00010000</i>
   <i name="TEEND">      0.00010000</i>
   <i type="int" name="NBLOCK">     1</i>
   <i type="int" name="KBLOCK">     1</i>
   <i type="int" name="NPACO">   256</i>
   <i name="APACO">     16.00000000</i>
  </separator>
  <separator name="symmetry" >
   <i type="int" name="ISYM">     0</i>
   <i name="SYMPREC">      0.00001000</i>
  </separator>
  <separator name="dos" >
   <i type="logical" name="LORBIT"> T  </i>
   <v name="RWIGS">     -1.00000000     -1.00000000</v>
   <i type="int" name="NEDOS">   601</i>
   <i name="EMIN">     10.00000000</i>
   <i name="EMAX">    -10.00000000</i>
   <i name="EFERMI">      0.00000000</i>
  </separator>
  <separator name="writing" >
   <i type="int" name="NWRITE">     2</i>
   <i type="logical" name="LWAVE"> F  </i>
   <i type="logical" name="LCHARG"> F  </i>
   <i type="logical" name="LPARD"> F  </i>
   <i type="logical" name="LVTOT"> F  </i>
   <i type="logical" name="LELF"> F  </i>
   <i type="logical" name="LOPTICS"> F  </i>
   <v name="STM">      0.00000000      0.00000000      0.00000000      0.00000000      0.00000000</v>
  </separator>
  <separator name="performance" >
   <i type="int" name="NPAR">     2</i>
   <i type="int" name="NSIM">     4</i>
   <i type="int" name="NBLK">    32</i>
   <i type="logical" name="LPLANE"> T  </i>
   <i type="logical" name="LSCALAPACK"> F  </i>
   <i type="logical" name="LSCAAWARE"> F  </i>
   <i type="logical" name="LSCALU"> F  </i>
   <i type="logical" name="LASYNC"> F  </i>
  </separator>
  <separator name="miscellaneous" >
   <i type="int" name="IDIOT">     3</i>
   <i type="logical" name="LMUSIC"> F  </i>
   <v name="POMASS">    127.60000000    207.20000000</v>
   <i type="logical" name="LCORR"> T  </i>
  </separator>
  <i type="logical" name="LREAL_COMPAT"> F  </i>
  <i type="logical" name="GGA_COMPAT"> T  </i>
  <i type="logical" name="LBERRY"> F  </i>
  <i type="int" name="ICORELEVEL">     0</i>
  <i type="logical" name="LDAU"> F  </i>
  <i type="int" name="I_CONSTRAINED_M">     0</i>
  <separator name="electronic exchange-correlation" >
   <i type="string" name="GGA">--</i>
   <i type="int" name="VOSKOWN">     0</i>
   <i type="logical" name="LHFCALC"> F  </i>
   <i type="logical" name="LHFONE"> F  </i>
   <i type="logical" name="LRHFCALC"> F  </i>
   <i type="logical" name="LTHOMAS"> F  </i>
   <i type="logical" name="LMODELHF"> F  </i>
   <i name="ENCUTFOCK">      0.00000000</i>
   <i name="ENCUT4O">     -1.00000000</i>
   <i type="int" name="EXXOEP">     0</i>
   <i type="int" name="FOURORBIT">     0</i>
   <i name="AEXX">      0.00000000</i>
   <i name="HFALPHA">      0.00000000</i>
   <i name="ALDAX">      1.00000000</i>
   <i name="AGGAX">      1.00000000</i>
   <i name="ALDAC">      1.00000000</i>
   <i name="AGGAC">      1.00000000</i>
   <i type="int" name="NKREDX">     1</i>
   <i type="int" name="NKREDY">     1</i>
   <i type="int" name="NKREDZ">     1</i>
   <i type="logical" name="SHIFTRED"> F  </i>
   <i type="logical" name="ODDONLY"> F  </i>
   <i type="logical" name="EVENONLY"> F  </i>
   <i type="int" name="LMAXFOCK">     0</i>
   <i type="int" name="NMAXFOCKAE">     0</i>
   <i name="HFSCREEN">      0.00000000</i>
   <i name="HFSCREENC">      0.00000000</i>
  </separator>
  <separator name="model GW" >
   <i type="int" name="MODEL_GW">     0</i>
   <i name="MODEL_EPS0">     21.23304667</i>
   <i name="MODEL_ALPHA">      1.00000000</i>
  </separator>
  <separator name="linear response parameters" >
   <i type="logical" name="LEPSILON"> F  </i>
   <i type="logical" name="LRPA"> F  </i>
   <i type="logical" name="LNABLA"> F  </i>
   <i type="logical" name="LVEL"> F  </i>
   <i type="int" name="KINTER">     0</i>
   <i name="CSHIFT">      0.10000000</i>
   <i name="OMEGAMAX">     -1.00000000</i>
  </separator>
  <separator name="orbital magnetization" >
   <i type="logical" name="ORBITALMAG"> F  </i>
   <i type="logical" name="LMAGBLOCH"> F  </i>
   <i type="logical" name="LCHIMAG"> F  </i>
   <i type="logical" name="LGAUGE"> T  </i>
   <i type="int" name="MAGATOM">     0</i>
   <v name="MAGDIPOL">      0.00000000      0.00000000      0.00000000</v>
   <v name="AVECCONST">      0.00000000      0.00000000      0.00000000</v>
  </separator>
  <separator name="response functions" >
   <i type="logical" name="LRPA"> T  </i>
   <i type="logical" name="LTCTE"> F  </i>
   <i type="logical" name="LTETE"> F  </i>
   <i type="logical" name="L2ORDER"> F  </i>
   <i type="logical" name="LGWLF"> F  </i>
   <i name="ENCUTGW">    346.66666667</i>
   <i name="ENCUTGWSOFT">     -2.00000000</i>
   <i name="ENCUTLF">     -1.00000000</i>
   <i type="int" name="LMAXMP2">    -1</i>
   <i name="SCISSOR">      0.00000000</i>
   <i type="int" name="NOMEGA">     0</i>
   <i type="int" name="NOMEGAR">     0</i>
   <i type="int" name="NBANDSGW">    -1</i>
   <i type="int" name="NBANDSLF">    -1</i>
   <i type="int" name="NELM">   100</i>
   <i type="int" name="DIM">     3</i>
   <i type="int" name="ANTIRES">     0</i>
   <i type="logical" name="LUSEW"> F  </i>
   <i name="OMEGAMAX">    -30.00000000</i>
   <i name="OMEGATL">   -200.00000000</i>
   <i type="int" name="OMEGAGRID">     0</i>
   <i name="CSHIFT">     -0.10000000</i>
   <i type="logical" name="SELFENERGY"> F  </i>
   <i type="logical" name="LSPECTRAL"> F  </i>
   <i type="logical" name="ODDONLYGW"> F  </i>
   <i type="logical" name="EVENONLYGW"> F  </i>
   <i type="int" name="NKREDLFX">     1</i>
   <i type="int" name="NKREDLFY">     1</i>
   <i type="int" name="NKREDLFZ">     1</i>
   <i type="int" name="MAXMEM">  1024</i>
   <i type="int" name="TELESCOPE">     0</i>
  </separator>
 </parameters>
 <atominfo>
  <atoms>       2 </atoms>
  <types>       2 </types>
  <array name="atoms" >
   <dimension dim="1">ion</dimension>
   <field type="string">element</field>
   <field type="int">atomtype</field>
   <set>
    <rc><c>Te</c><c>   1</c></rc>
    <rc><c>Pb</c><c>   2</c></rc>
   </set>
  </array>
  <array name="atomtypes" >
   <dimension dim="1">type</dimension>
   <field type="int">atomspertype</field>
   <field type="string">element</field>
   <field>mass</field>
   <field>valence</field>
   <field type="string">pseudopotential</field>
   <set>
    <rc><c>   1</c><c>Te</c><c>    127.60000000</c><c>      6.00000000</c><c> PAW_PBE Te 08Apr2002                   </c></rc>
    <rc><c>   1</c><c>Pb</c><c>    207.20000000</c><c>     14.00000000</c><c> PAW_PBE Pb_d 06Sep2000                 </c></rc>
   </set>
  </array>
 </atominfo>
 <structure name="initialpos" >
  <crystal>
   <varray name="basis" >
    <v>       0.00000000       3.28312200       3.28312200 </v>
    <v>       3.28312200       0.00000000       3.28312200 </v>
    <v>       3.28312200       3.28312200       0.00000000 </v>
   </varray>
   <i name="volume">     70.77682223 </i>
   <varray name="rec_basis" >
    <v>      -0.15229407       0.15229407       0.15229407 </v>
    <v>       0.15229407      -0.15229407       0.15229407 </v>
    <v>       0.15229407       0.15229407      -0.15229407 </v>
   </varray>
  </crystal>
  <varray name="positions" >
   <v>       0.00000000       0.00000000       0.00000000 </v>
   <v>       0.50000000       0.50000000       0.50000000 </v>
  </varray>
 </structure>
 <calculation>
  <scstep>
   <time name="dav">    4.84    4.95</time>
   <time name="total">    5.35    5.56</time>
   <energy>
    <i name="alphaZ">     34.23942152 </i>
    <i name="ewald">  -1367.07711238 </i>
    <i name="hartreedc">   -511.88782808 </i>
    <i name="XCdc">      9.44187696 </i>
    <i name="pawpsdc">   1333.58181230 </i>
    <i name="pawaedc">  -1277.49825912 </i>
    <i name="eentropy">     -0.00000126 </i>
    <i name="bandstr">     51.25340445 </i>
    <i name="atom">   1884.46920649 </i>
    <i name="e_fr_energy">    156.52252089 </i>
    <i name="e_wo_entrp">    156.52252215 </i>
    <i name="e_0_energy">    156.52252152 </i>
   </energy>
  </scstep>
  <scstep>
   <time name="dav">    4.72    4.74</time>
   <time name="total">    4.75    4.76</time>
   <energy>
    <i name="e_fr_energy">      4.21884362 </i>
    <i name="e_wo_entrp">      4.21884728 </i>
    <i name="e_0_energy">      4.21884545 </i>
   </energy>
  </scstep>
  <scstep>
   <time name="dav">    5.33    5.36</time>
   <time name="total">    5.34    5.36</time>
   <energy>
    <i name="e_fr_energy">     -7.30861040 </i>
    <i name="e_wo_entrp">     -7.30861040 </i>
    <i name="e_0_energy">     -7.30861040 </i>
   </energy>
  </scstep>
  <scstep>
   <time name="dav">    5.15    5.16</time>
   <time name="total">    5.15    5.16</time>
   <energy>
    <i name="e_fr_energy">     -7.65087824 </i>
    <i name="e_wo_entrp">     -7.65087824 </i>
    <i name="e_0_energy">     -7.65087824 </i>
   </energy>
  </scstep>
  <scstep>
   <time name="dav">    5.78    5.79</time>
   <time name="total">    5.78    5.79</time>
   <energy>
    <i name="e_fr_energy">     -7.66603318 </i>
    <i name="e_wo_entrp">     -7.66603318 </i>
    <i name="e_0_energy">     -7.66603318 </i>
   </energy>
  </scstep>
  <scstep>
   <time name="diag">    0.94    0.95</time>
   <time name="diis">    8.36    8.42</time>
   <time name="orth">    0.08    0.08</time>
   <time name="total">    9.39    9.45</time>
   <energy>
    <i name="e_fr_energy">     -7.66643087 </i>
    <i name="e_wo_entrp">     -7.66643087 </i>
    <i name="e_0_energy">     -7.66643087 </i>
   </energy>
  </scstep>
  <scstep>
   <time name="diag">    0.77    0.77</time>
   <time name="diis">    3.56    3.57</time>
   <time name="orth">    0.08    0.08</time>
   <time name="total">    4.41    4.42</time>
   <energy>
    <i name="alphaZ">     34.23942152 </i>
    <i name="ewald">  -1367.07711238 </i>
    <i name="hartreedc">   -511.88782808 </i>
    <i name="XCdc">      9.44187696 </i>
    <i name="pawpsdc">   1333.58181230 </i>
    <i name="pawaedc">  -1277.49825912 </i>
    <i name="eentropy">      0.00000000 </i>
    <i name="bandstr">   -112.93558440 </i>
    <i name="atom">   1884.46920649 </i>
    <i name="e_fr_energy">     -7.66646670 </i>
    <i name="e_wo_entrp">     -7.66646670 </i>
    <i name="e_0_energy">     -7.66646670 </i>
   </energy>
  </scstep>
  <structure>
   <crystal>
    <varray name="basis" >
     <v>       0.00000000       3.28312200       3.28312200 </v>
     <v>       3.28312200       0.00000000       3.28312200 </v>
     <v>       3.28312200       3.28312200       0.00000000 </v>
    </varray>
    <i name="volume">     70.77682223 </i>
    <varray name="rec_basis" >
     <v>      -0.15229407       0.15229407       0.15229407 </v>
     <v>       0.15229407      -0.15229407       0.15229407 </v>
     <v>       0.15229407       0.15229407      -0.15229407 </v>
    </varray>
   </crystal>
   <varray name="positions" >
    <v>       0.00000000       0.00000000       0.00000000 </v>
    <v>       0.50000000       0.50000000       0.50000000 </v>
   </varray>
  </structure>
  <varray name="forces" >
   <v>      -0.00008452       0.00005761       0.00008506 </v>
   <v>       0.00008452      -0.00005761      -0.00008506 </v>
  </varray>
  <varray name="stress" >
   <v>       9.46638188      76.32106238      29.16873410 </v>
   <v>      76.32109431     102.24703475     -45.76936730 </v>
   <v>      29.16872978     -45.76935698    -108.03653377 </v>
  </varray>
  <energy>
   <i name="e_fr_energy">     -7.66646670 </i>
   <i name="e_wo_entrp">     -7.66646670 </i>
   <i name="e_0_energy">      0.00000000 </i>
  </energy>
  <time name="totalsc">   45.55   45.93</time>
  <eigenvalues>
   <array>
    <dimension dim="1">band</dimension>
    <dimension dim="2">kpoint</dimension>
    <dimension dim="3">spin</dimension>
    <field>eigene</field>
    <field>occ</field>
    <set>
     <set comment="spin 1">
      <set comment="kpoint 1">
       <r>  -11.6752    1.0000 </r>
       <r>  -11.6752    1.0000 </r>
       <r>  -11.6668    1.0000 </r>
       <r>  -11.6668    1.0000 </r>
       <r>  -11.6668    1.0000 </r>
       <r>   -6.5891    1.0000 </r>
       <r>   -0.6273    1.0000 </r>
       <r>    3.8650    1.0000 </r>
       <r>    3.8650    1.0000 </r>
       <r>    3.8650    1.0000 </r>
       <r>    9.0634    0.0000 </r>
       <r>    9.0634    0.0000 </r>
       <r>    9.0634    0.0000 </r>
       <r>   10.9300    0.0000 </r>
       <r>   10.9300    0.0000 </r>
       <r>   10.9300    0.0000 </r>
       <r>   12.4676    0.0000 </r>
       <r>   12.5580    0.0000 </r>
       <r>   12.9992    0.0000 </r>
       <r>   12.9992    0.0000 </r>
      </set>
      <set comment="kpoint 2">
       <r>  -11.6755    1.0000 </r>
       <r>  -11.6755    1.0000 </r>
       <r>  -11.6667    1.0000 </r>
       <r>  -11.6663    1.0000 </r>
       <r>  -11.6663    1.0000 </r>
       <r>   -6.5534    1.0000 </r>
       <r>   -0.7398    1.0000 </r>
       <r>    3.8755    1.0000 </r>
       <r>    3.8755    1.0000 </r>
       <r>    3.9272    1.0000 </r>
       <r>    8.8082    0.0000 </r>
       <r>    8.8818    0.0000 </r>
       <r>    8.8818    0.0000 </r>
       <r>   10.8561    0.0000 </r>
       <r>   11.0134    0.0000 </r>
       <r>   11.0134    0.0000 </r>
       <r>   12.7707    0.0000 </r>
       <r>   12.9045    0.0000 </r>
       <r>   13.2469    0.0000 </r>
       <r>   13.2469    0.0000 </r>
      </set>
      <set comment="kpoint 3">
       <r>  -11.6767    1.0000 </r>
       <r>  -11.6767    1.0000 </r>
       <r>  -11.6664    1.0000 </r>
       <r>  -11.6648    1.0000 </r>
       <r>  -11.6648    1.0000 </r>
       <r>   -6.4476    1.0000 </r>
       <r>   -1.0485    1.0000 </r>
       <r>    3.9076    1.0000 </r>
       <r>    3.9076    1.0000 </r>
       <r>    4.0876    1.0000 </r>
       <r>    8.2493    0.0000 </r>
       <r>    8.4476    0.0000 </r>
       <r>    8.4476    0.0000 </r>
       <r>   10.7812    0.0000 </r>
       <r>   11.2488    0.0000 </r>
       <r>   11.2488    0.0000 </r>
       <r>   13.4897    0.0000 </r>
       <r>   13.7682    0.0000 </r>
       <r>   13.8916    0.0000 </r>
       <r>   13.8916    0.0000 </r>
      </set>
      <set comment="kpoint 4">
       <r>  -11.6787    1.0000 </r>
       <r>  -11.6787    1.0000 </r>
       <r>  -11.6660    1.0000 </r>
       <r>  -11.6624    1.0000 </r>
       <r>  -11.6624    1.0000 </r>
       <r>   -6.2757    1.0000 </r>
       <r>   -1.4886    1.0000 </r>
       <r>    3.9622    1.0000 </r>
       <r>    3.9622    1.0000 </r>
       <r>    4.2933    1.0000 </r>
       <r>    7.6301    0.0000 </r>
       <r>    7.9263    0.0000 </r>
       <r>    7.9263    0.0000 </r>
       <r>   10.8679    0.0000 </r>
       <r>   11.6206    0.0000 </r>
       <r>   11.6206    0.0000 </r>
       <r>   14.4083    0.0000 </r>
       <r>   14.7757    0.0000 </r>
       <r>   14.7757    0.0000 </r>
       <r>   14.9063    0.0000 </r>
      </set>
      <set comment="kpoint 5">
       <r>  -11.6811    1.0000 </r>
       <r>  -11.6811    1.0000 </r>
       <r>  -11.6654    1.0000 </r>
       <r>  -11.6594    1.0000 </r>
       <r>  -11.6594    1.0000 </r>
       <r>   -6.0464    1.0000 </r>
       <r>   -1.9929    1.0000 </r>
       <r>    4.0386    1.0000 </r>
       <r>    4.0386    1.0000 </r>
       <r>    4.5038    1.0000 </r>
       <r>    7.0507    0.0000 </r>
       <r>    7.4160    0.0000 </r>
       <r>    7.4160    0.0000 </r>
       <r>   11.1692    0.0000 </r>
       <r>   12.1202    0.0000 </r>
       <r>   12.1202    0.0000 </r>
       <r>   15.3527    0.0000 </r>
       <r>   15.7941    0.0000 </r>
       <r>   15.7941    0.0000 </r>
       <r>   16.1596    0.0000 </r>
      </set>
      <set comment="kpoint 6">
       <r>  -11.6835    1.0000 </r>
       <r>  -11.6835    1.0000 </r>
       <r>  -11.6650    1.0000 </r>
       <r>  -11.6565    1.0000 </r>
       <r>  -11.6565    1.0000 </r>
       <r>   -5.7774    1.0000 </r>
       <r>   -2.5002    1.0000 </r>
       <r>    4.1305    1.0000 </r>
       <r>    4.1305    1.0000 </r>
       <r>    4.7035    1.0000 </r>
       <r>    6.5490    0.0000 </r>
       <r>    6.9714    0.0000 </r>
       <r>    6.9714    0.0000 </r>
       <r>   11.6822    0.0000 </r>
       <r>   12.7353    0.0000 </r>
       <r>   12.7353    0.0000 </r>
       <r>   15.8003    0.0000 </r>
       <r>   16.8147    0.0000 </r>
       <r>   16.8210    0.0000 </r>
       <r>   17.4373    0.0000 </r>
      </set>
      <set comment="kpoint 7">
       <r>  -11.6854    1.0000 </r>
       <r>  -11.6854    1.0000 </r>
       <r>  -11.6647    1.0000 </r>
       <r>  -11.6542    1.0000 </r>
       <r>  -11.6542    1.0000 </r>
       <r>   -5.5070    1.0000 </r>
       <r>   -2.9435    1.0000 </r>
       <r>    4.2210    1.0000 </r>
       <r>    4.2210    1.0000 </r>
       <r>    4.8883    1.0000 </r>
       <r>    6.1482    0.0000 </r>
       <r>    6.6347    0.0000 </r>
       <r>    6.6347    0.0000 </r>
       <r>   12.3733    0.0000 </r>
       <r>   13.4410    0.0000 </r>
       <r>   13.4409    0.0000 </r>
       <r>   15.2625    0.0000 </r>
       <r>   16.5149    0.0000 </r>
       <r>   16.5149    0.0000 </r>
       <r>   18.1998    0.0000 </r>
      </set>
      <set comment="kpoint 8">
       <r>  -11.6864    1.0000 </r>
       <r>  -11.6864    1.0000 </r>
       <r>  -11.6645    1.0000 </r>
       <r>  -11.6530    1.0000 </r>
       <r>  -11.6530    1.0000 </r>
       <r>   -5.3168    1.0000 </r>
       <r>   -3.2243    1.0000 </r>
       <r>    4.2806    1.0000 </r>
       <r>    4.2806    1.0000 </r>
       <r>    5.0281    1.0000 </r>
       <r>    5.8955    0.0000 </r>
       <r>    6.4490    0.0000 </r>
       <r>    6.4490    0.0000 </r>
       <r>   13.1470    0.0000 </r>
       <r>   14.1299    0.0000 </r>
       <r>   14.1299    0.0000 </r>
       <r>   14.4047    0.0000 </r>
       <r>   15.6705    0.0000 </r>
       <r>   15.6706    0.0000 </r>
       <r>   19.1836    0.0000 </r>
      </set>
      <set comment="kpoint 9">
       <r>  -11.6765    1.0000 </r>
       <r>  -11.6748    1.0000 </r>
       <r>  -11.6671    1.0000 </r>
       <r>  -11.6659    1.0000 </r>
       <r>  -11.6659    1.0000 </r>
       <r>   -6.5415    1.0000 </r>
       <r>   -0.7705    1.0000 </r>
       <r>    3.7914    1.0000 </r>
       <r>    3.7914    1.0000 </r>
       <r>    4.1141    1.0000 </r>
       <r>    8.3553    0.0000 </r>
       <r>    9.0644    0.0000 </r>
       <r>    9.0644    0.0000 </r>
       <r>   10.6264    0.0000 </r>
       <r>   11.1635    0.0000 </r>
       <r>   11.1635    0.0000 </r>
       <r>   12.6556    0.0000 </r>
       <r>   12.9774    0.0000 </r>
       <r>   13.0446    0.0000 </r>
       <r>   13.7169    0.0000 </r>
      </set>
      <set comment="kpoint 10">
       <r>  -11.6782    1.0000 </r>
       <r>  -11.6749    1.0000 </r>
       <r>  -11.6672    1.0000 </r>
       <r>  -11.6648    1.0000 </r>
       <r>  -11.6646    1.0000 </r>
       <r>   -6.4592    1.0000 </r>
       <r>   -0.9971    1.0000 </r>
       <r>    3.7352    1.0000 </r>
       <r>    3.7591    1.0000 </r>
       <r>    4.3519    1.0000 </r>
       <r>    7.7514    0.0000 </r>
       <r>    8.8585    0.0000 </r>
       <r>    8.9046    0.0000 </r>
       <r>   10.4728    0.0000 </r>
       <r>   11.3735    0.0000 </r>
       <r>   11.4485    0.0000 </r>
       <r>   13.0167    0.0000 </r>
       <r>   13.3398    0.0000 </r>
       <r>   13.5856    0.0000 </r>
       <r>   14.5253    0.0000 </r>
      </set>
      <set comment="kpoint 11">
       <r>  -11.6804    1.0000 </r>
       <r>  -11.6762    1.0000 </r>
       <r>  -11.6668    1.0000 </r>
       <r>  -11.6630    1.0000 </r>
       <r>  -11.6621    1.0000 </r>
       <r>   -6.3095    1.0000 </r>
       <r>   -1.3740    1.0000 </r>
       <r>    3.7150    1.0000 </r>
       <r>    3.7912    1.0000 </r>
       <r>    4.5700    1.0000 </r>
       <r>    7.1749    0.0000 </r>
       <r>    8.3956    0.0000 </r>
       <r>    8.5125    0.0000 </r>
       <r>   10.5036    0.0000 </r>
       <r>   11.6399    0.0000 </r>
       <r>   11.8441    0.0000 </r>
       <r>   13.7694    0.0000 </r>
       <r>   14.0323    0.0000 </r>
       <r>   14.5626    0.0000 </r>
       <r>   15.4855    0.0000 </r>
      </set>
      <set comment="kpoint 12">
       <r>  -11.6829    1.0000 </r>
       <r>  -11.6783    1.0000 </r>
       <r>  -11.6661    1.0000 </r>
       <r>  -11.6608    1.0000 </r>
       <r>  -11.6592    1.0000 </r>
       <r>   -6.0994    1.0000 </r>
       <r>   -1.8400    1.0000 </r>
       <r>    3.7371    1.0000 </r>
       <r>    3.8640    1.0000 </r>
       <r>    4.7177    1.0000 </r>
       <r>    6.7099    0.0000 </r>
       <r>    7.8790    0.0000 </r>
       <r>    8.0339    0.0000 </r>
       <r>   10.7229    0.0000 </r>
       <r>   12.0424    0.0000 </r>
       <r>   12.3524    0.0000 </r>
       <r>   14.6913    0.0000 </r>
       <r>   14.9524    0.0000 </r>
       <r>   15.7631    0.0000 </r>
       <r>   16.4724    0.0000 </r>
      </set>
      <set comment="kpoint 13">
       <r>  -11.6853    1.0000 </r>
       <r>  -11.6808    1.0000 </r>
       <r>  -11.6653    1.0000 </r>
       <r>  -11.6582    1.0000 </r>
       <r>  -11.6562    1.0000 </r>
       <r>   -5.8431    1.0000 </r>
       <r>   -2.3344    1.0000 </r>
       <r>    3.8043    1.0000 </r>
       <r>    3.9550    1.0000 </r>
       <r>    4.7485    1.0000 </r>
       <r>    6.4238    0.0000 </r>
       <r>    7.4019    0.0000 </r>
       <r>    7.5568    0.0000 </r>
       <r>   11.1423    0.0000 </r>
       <r>   12.5871    0.0000 </r>
       <r>   12.9670    0.0000 </r>
       <r>   15.4721    0.0000 </r>
       <r>   15.9549    0.0000 </r>
       <r>   17.0117    0.0000 </r>
       <r>   17.2114    0.0000 </r>
      </set>
      <set comment="kpoint 14">
       <r>  -11.6870    1.0000 </r>
       <r>  -11.6832    1.0000 </r>
       <r>  -11.6646    1.0000 </r>
       <r>  -11.6558    1.0000 </r>
       <r>  -11.6539    1.0000 </r>
       <r>   -5.5701    1.0000 </r>
       <r>   -2.7942    1.0000 </r>
       <r>    3.9135    1.0000 </r>
       <r>    4.0273    1.0000 </r>
       <r>    4.6845    1.0000 </r>
       <r>    6.3199    0.0000 </r>
       <r>    7.0260    0.0000 </r>
       <r>    7.1289    0.0000 </r>
       <r>   11.7468    0.0000 </r>
       <r>   13.2571    0.0000 </r>
       <r>   13.6602    0.0000 </r>
       <r>   15.2933    0.0000 </r>
       <r>   16.2823    0.0000 </r>
       <r>   17.3380    0.0000 </r>
       <r>   17.4828    0.0000 </r>
      </set>
      <set comment="kpoint 15">
       <r>  -11.6879    1.0000 </r>
       <r>  -11.6850    1.0000 </r>
       <r>  -11.6642    1.0000 </r>
       <r>  -11.6541    1.0000 </r>
       <r>  -11.6527    1.0000 </r>
       <r>   -5.3445    1.0000 </r>
       <r>   -3.1340    1.0000 </r>
       <r>    4.0043    1.0000 </r>
       <r>    4.0530    1.0000 </r>
       <r>    4.6662    1.0000 </r>
       <r>    6.2580    0.0000 </r>
       <r>    6.7837    0.0000 </r>
       <r>    6.8630    0.0000 </r>
       <r>   12.4882    0.0000 </r>
       <r>   14.0080    0.0000 </r>
       <r>   14.2788    0.0000 </r>
       <r>   14.4445    0.0000 </r>
       <r>   15.5969    0.0000 </r>
       <r>   16.6375    0.0000 </r>
       <r>   18.5008    0.0000 </r>
      </set>
      <set comment="kpoint 16">
       <r>  -11.6876    1.0000 </r>
       <r>  -11.6859    1.0000 </r>
       <r>  -11.6641    1.0000 </r>
       <r>  -11.6533    1.0000 </r>
       <r>  -11.6528    1.0000 </r>
       <r>   -5.2737    1.0000 </r>
       <r>   -3.2349    1.0000 </r>
       <r>    3.8726    1.0000 </r>
       <r>    4.1966    1.0000 </r>
       <r>    4.7647    1.0000 </r>
       <r>    6.1296    0.0000 </r>
       <r>    6.5564    0.0000 </r>
       <r>    6.9863    0.0000 </r>
       <r>   13.0355    0.0000 </r>
       <r>   13.8228    0.0000 </r>
       <r>   14.0551    0.0000 </r>
       <r>   14.6774    0.0000 </r>
       <r>   15.8210    0.0000 </r>
       <r>   15.9033    0.0000 </r>
       <r>   19.0375    0.0000 </r>
      </set>
      <set comment="kpoint 17">
       <r>  -11.6863    1.0000 </r>
       <r>  -11.6859    1.0000 </r>
       <r>  -11.6642    1.0000 </r>
       <r>  -11.6541    1.0000 </r>
       <r>  -11.6536    1.0000 </r>
       <r>   -5.4081    1.0000 </r>
       <r>   -3.0439    1.0000 </r>
       <r>    3.7209    1.0000 </r>
       <r>    4.3029    1.0000 </r>
       <r>    4.8777    1.0000 </r>
       <r>    6.0749    0.0000 </r>
       <r>    6.4893    0.0000 </r>
       <r>    7.2755    0.0000 </r>
       <r>   12.4274    0.0000 </r>
       <r>   13.3210    0.0000 </r>
       <r>   14.3012    0.0000 </r>
       <r>   14.6436    0.0000 </r>
       <r>   16.1056    0.0000 </r>
       <r>   16.7288    0.0000 </r>
       <r>   17.9921    0.0000 </r>
      </set>
      <set comment="kpoint 18">
       <r>  -11.6848    1.0000 </r>
       <r>  -11.6841    1.0000 </r>
       <r>  -11.6646    1.0000 </r>
       <r>  -11.6564    1.0000 </r>
       <r>  -11.6551    1.0000 </r>
       <r>   -5.6597    1.0000 </r>
       <r>   -2.6545    1.0000 </r>
       <r>    3.6035    1.0000 </r>
       <r>    4.3350    1.0000 </r>
       <r>    4.8863    1.0000 </r>
       <r>    6.2248    0.0000 </r>
       <r>    6.6144    0.0000 </r>
       <r>    7.6519    0.0000 </r>
       <r>   11.7247    0.0000 </r>
       <r>   12.6146    0.0000 </r>
       <r>   13.6462    0.0000 </r>
       <r>   15.3698    0.0000 </r>
       <r>   16.2054    0.0000 </r>
       <r>   17.6474    0.0000 </r>
       <r>   17.7234    0.0000 </r>
      </set>
      <set comment="kpoint 19">
       <r>  -11.6830    1.0000 </r>
       <r>  -11.6814    1.0000 </r>
       <r>  -11.6652    1.0000 </r>
       <r>  -11.6592    1.0000 </r>
       <r>  -11.6574    1.0000 </r>
       <r>   -5.9321    1.0000 </r>
       <r>   -2.1778    1.0000 </r>
       <r>    3.5401    1.0000 </r>
       <r>    4.2918    1.0000 </r>
       <r>    4.7699    1.0000 </r>
       <r>    6.5858    0.0000 </r>
       <r>    6.9223    0.0000 </r>
       <r>    8.0784    0.0000 </r>
       <r>   11.1839    0.0000 </r>
       <r>   12.0134    0.0000 </r>
       <r>   12.9436    0.0000 </r>
       <r>   14.9452    0.0000 </r>
       <r>   16.1435    0.0000 </r>
       <r>   16.6359    0.0000 </r>
       <r>   16.7432    0.0000 </r>
      </set>
      <set comment="kpoint 20">
       <r>  -11.6808    1.0000 </r>
       <r>  -11.6788    1.0000 </r>
       <r>  -11.6659    1.0000 </r>
       <r>  -11.6621    1.0000 </r>
       <r>  -11.6601    1.0000 </r>
       <r>   -6.1754    1.0000 </r>
       <r>   -1.6885    1.0000 </r>
       <r>    3.5373    1.0000 </r>
       <r>    4.2014    1.0000 </r>
       <r>    4.5753    1.0000 </r>
       <r>    7.0914    0.0000 </r>
       <r>    7.3677    0.0000 </r>
       <r>    8.5136    0.0000 </r>
       <r>   10.8484    0.0000 </r>
       <r>   11.5407    0.0000 </r>
       <r>   12.3217    0.0000 </r>
       <r>   14.0209    0.0000 </r>
       <r>   15.2816    0.0000 </r>
       <r>   15.5593    0.0000 </r>
       <r>   15.6700    0.0000 </r>
      </set>
      <set comment="kpoint 21">
       <r>  -11.6787    1.0000 </r>
       <r>  -11.6766    1.0000 </r>
       <r>  -11.6664    1.0000 </r>
       <r>  -11.6644    1.0000 </r>
       <r>  -11.6628    1.0000 </r>
       <r>   -6.3666    1.0000 </r>
       <r>   -1.2463    1.0000 </r>
       <r>    3.5963    1.0000 </r>
       <r>    4.0911    1.0000 </r>
       <r>    4.3411    1.0000 </r>
       <r>    7.6844    0.0000 </r>
       <r>    7.8955    0.0000 </r>
       <r>    8.8849    0.0000 </r>
       <r>   10.7160    0.0000 </r>
       <r>   11.2095    0.0000 </r>
       <r>   11.7936    0.0000 </r>
       <r>   13.2586    0.0000 </r>
       <r>   14.2136    0.0000 </r>
       <r>   14.5447    0.0000 </r>
       <r>   14.6841    0.0000 </r>
      </set>
      <set comment="kpoint 22">
       <r>  -11.6768    1.0000 </r>
       <r>  -11.6755    1.0000 </r>
       <r>  -11.6667    1.0000 </r>
       <r>  -11.6658    1.0000 </r>
       <r>  -11.6650    1.0000 </r>
       <r>   -6.4944    1.0000 </r>
       <r>   -0.9108    1.0000 </r>
       <r>    3.7154    1.0000 </r>
       <r>    3.9786    1.0000 </r>
       <r>    4.1056    1.0000 </r>
       <r>    8.3025    0.0000 </r>
       <r>    8.4373    0.0000 </r>
       <r>    9.0545    0.0000 </r>
       <r>   10.7359    0.0000 </r>
       <r>   11.0301    0.0000 </r>
       <r>   11.3562    0.0000 </r>
       <r>   12.8658    0.0000 </r>
       <r>   13.3638    0.0000 </r>
       <r>   13.6612    0.0000 </r>
       <r>   13.8445    0.0000 </r>
      </set>
      <set comment="kpoint 23">
       <r>  -11.6807    1.0000 </r>
       <r>  -11.6737    1.0000 </r>
       <r>  -11.6681    1.0000 </r>
       <r>  -11.6635    1.0000 </r>
       <r>  -11.6635    1.0000 </r>
       <r>   -6.4011    1.0000 </r>
       <r>   -1.1068    1.0000 </r>
       <r>    3.5929    1.0000 </r>
       <r>    3.5929    1.0000 </r>
       <r>    4.6509    1.0000 </r>
       <r>    7.1836    0.0000 </r>
       <r>    9.1175    0.0000 </r>
       <r>    9.1175    0.0000 </r>
       <r>   10.0936    0.0000 </r>
       <r>   11.7858    0.0000 </r>
       <r>   11.7858    0.0000 </r>
       <r>   12.8440    0.0000 </r>
       <r>   13.1809    0.0000 </r>
       <r>   13.8574    0.0000 </r>
       <r>   15.4026    0.0000 </r>
      </set>
      <set comment="kpoint 24">
       <r>  -11.6837    1.0000 </r>
       <r>  -11.6737    1.0000 </r>
       <r>  -11.6684    1.0000 </r>
       <r>  -11.6618    1.0000 </r>
       <r>  -11.6614    1.0000 </r>
       <r>   -6.2756    1.0000 </r>
       <r>   -1.3670    1.0000 </r>
       <r>    3.4950    1.0000 </r>
       <r>    3.5154    1.0000 </r>
       <r>    4.7690    1.0000 </r>
       <r>    6.8181    0.0000 </r>
       <r>    8.9545    0.0000 </r>
       <r>    9.0110    0.0000 </r>
       <r>    9.9726    0.0000 </r>
       <r>   12.1198    0.0000 </r>
       <r>   12.2045    0.0000 </r>
       <r>   13.2444    0.0000 </r>
       <r>   13.5263    0.0000 </r>
       <r>   14.5626    0.0000 </r>
       <r>   16.3788    0.0000 </r>
      </set>
      <set comment="kpoint 25">
       <r>  -11.6867    1.0000 </r>
       <r>  -11.6750    1.0000 </r>
       <r>  -11.6679    1.0000 </r>
       <r>  -11.6599    1.0000 </r>
       <r>  -11.6585    1.0000 </r>
       <r>   -6.0886    1.0000 </r>
       <r>   -1.7410    1.0000 </r>
       <r>    3.4512    1.0000 </r>
       <r>    3.5146    1.0000 </r>
       <r>    4.6204    1.0000 </r>
       <r>    6.7498    0.0000 </r>
       <r>    8.5512    0.0000 </r>
       <r>    8.6746    0.0000 </r>
       <r>   10.0769    0.0000 </r>
       <r>   12.4749    0.0000 </r>
       <r>   12.7022    0.0000 </r>
       <r>   14.0251    0.0000 </r>
       <r>   14.2646    0.0000 </r>
       <r>   15.5995    0.0000 </r>
       <r>   17.3183    0.0000 </r>
      </set>
      <set comment="kpoint 26">
       <r>  -11.6894    1.0000 </r>
       <r>  -11.6771    1.0000 </r>
       <r>  -11.6668    1.0000 </r>
       <r>  -11.6581    1.0000 </r>
       <r>  -11.6556    1.0000 </r>
       <r>   -5.8521    1.0000 </r>
       <r>   -2.1766    1.0000 </r>
       <r>    3.4680    1.0000 </r>
       <r>    3.5586    1.0000 </r>
       <r>    4.3160    1.0000 </r>
       <r>    6.8791    0.0000 </r>
       <r>    8.1139    0.0000 </r>
       <r>    8.2417    0.0000 </r>
       <r>   10.3694    0.0000 </r>
       <r>   12.9584    0.0000 </r>
       <r>   13.2994    0.0000 </r>
       <r>   14.8714    0.0000 </r>
       <r>   15.1902    0.0000 </r>
       <r>   16.8125    0.0000 </r>
       <r>   17.5032    0.0000 </r>
      </set>
      <set comment="kpoint 27">
       <r>  -11.6912    1.0000 </r>
       <r>  -11.6796    1.0000 </r>
       <r>  -11.6654    1.0000 </r>
       <r>  -11.6566    1.0000 </r>
       <r>  -11.6533    1.0000 </r>
       <r>   -5.5896    1.0000 </r>
       <r>   -2.6139    1.0000 </r>
       <r>    3.5472    1.0000 </r>
       <r>    3.5660    1.0000 </r>
       <r>    4.0678    1.0000 </r>
       <r>    7.0315    0.0000 </r>
       <r>    7.7602    0.0000 </r>
       <r>    7.7967    0.0000 </r>
       <r>   10.8539    0.0000 </r>
       <r>   13.5764    0.0000 </r>
       <r>   13.9699    0.0000 </r>
       <r>   15.1200    0.0000 </r>
       <r>   15.9043    0.0000 </r>
       <r>   17.0515    0.0000 </r>
       <r>   17.2033    0.0000 </r>
      </set>
      <set comment="kpoint 28">
       <r>  -11.6919    1.0000 </r>
       <r>  -11.6819    1.0000 </r>
       <r>  -11.6641    1.0000 </r>
       <r>  -11.6554    1.0000 </r>
       <r>  -11.6521    1.0000 </r>
       <r>   -5.3500    1.0000 </r>
       <r>   -2.9774    1.0000 </r>
       <r>    3.4006    1.0000 </r>
       <r>    3.6861    1.0000 </r>
       <r>    4.0801    1.0000 </r>
       <r>    6.9813    0.0000 </r>
       <r>    7.3836    0.0000 </r>
       <r>    7.6917    0.0000 </r>
       <r>   11.5110    0.0000 </r>
       <r>   14.2559    0.0000 </r>
       <r>   14.4473    0.0000 </r>
       <r>   14.4907    0.0000 </r>
       <r>   15.5947    0.0000 </r>
       <r>   17.6491    0.0000 </r>
       <r>   17.7688    0.0000 </r>
      </set>
      <set comment="kpoint 29">
       <r>  -11.6913    1.0000 </r>
       <r>  -11.6837    1.0000 </r>
       <r>  -11.6632    1.0000 </r>
       <r>  -11.6547    1.0000 </r>
       <r>  -11.6521    1.0000 </r>
       <r>   -5.2229    1.0000 </r>
       <r>   -3.1617    1.0000 </r>
       <r>    3.1806    1.0000 </r>
       <r>    3.8739    1.0000 </r>
       <r>    4.2631    1.0000 </r>
       <r>    6.7350    0.0000 </r>
       <r>    7.0303    0.0000 </r>
       <r>    7.9022    0.0000 </r>
       <r>   12.2750    0.0000 </r>
       <r>   13.5145    0.0000 </r>
       <r>   14.0657    0.0000 </r>
       <r>   15.0567    0.0000 </r>
       <r>   16.0374    0.0000 </r>
       <r>   16.9849    0.0000 </r>
       <r>   18.6173    0.0000 </r>
      </set>
      <set comment="kpoint 30">
       <r>  -11.6895    1.0000 </r>
       <r>  -11.6846    1.0000 </r>
       <r>  -11.6629    1.0000 </r>
       <r>  -11.6545    1.0000 </r>
       <r>  -11.6534    1.0000 </r>
       <r>   -5.2876    1.0000 </r>
       <r>   -3.0816    1.0000 </r>
       <r>    3.0164    1.0000 </r>
       <r>    4.0865    1.0000 </r>
       <r>    4.5112    1.0000 </r>
       <r>    6.4895    0.0000 </r>
       <r>    6.7645    0.0000 </r>
       <r>    8.2000    0.0000 </r>
       <r>   12.4192    0.0000 </r>
       <r>   13.3090    0.0000 </r>
       <r>   13.4476    0.0000 </r>
       <r>   15.3959    0.0000 </r>
       <r>   16.2731    0.0000 </r>
       <r>   16.9710    0.0000 </r>
       <r>   17.8648    0.0000 </r>
      </set>
      <set comment="kpoint 31">
       <r>  -11.6868    1.0000 </r>
       <r>  -11.6847    1.0000 </r>
       <r>  -11.6634    1.0000 </r>
       <r>  -11.6557    1.0000 </r>
       <r>  -11.6550    1.0000 </r>
       <r>   -5.5011    1.0000 </r>
       <r>   -2.7838    1.0000 </r>
       <r>    2.9380    1.0000 </r>
       <r>    4.2785    1.0000 </r>
       <r>    4.7655    1.0000 </r>
       <r>    6.3227    0.0000 </r>
       <r>    6.6280    0.0000 </r>
       <r>    8.5209    0.0000 </r>
       <r>   11.7890    0.0000 </r>
       <r>   12.6149    0.0000 </r>
       <r>   14.3148    0.0000 </r>
       <r>   14.8367    0.0000 </r>
       <r>   15.6190    0.0000 </r>
       <r>   18.0395    0.0000 </r>
       <r>   18.0471    0.0000 </r>
      </set>
      <set comment="kpoint 32">
       <r>  -11.6838    1.0000 </r>
       <r>  -11.6836    1.0000 </r>
       <r>  -11.6642    1.0000 </r>
       <r>  -11.6584    1.0000 </r>
       <r>  -11.6561    1.0000 </r>
       <r>   -5.7640    1.0000 </r>
       <r>   -2.3800    1.0000 </r>
       <r>    2.9567    1.0000 </r>
       <r>    4.3870    1.0000 </r>
       <r>    4.9191    1.0000 </r>
       <r>    6.3297    0.0000 </r>
       <r>    6.6752    0.0000 </r>
       <r>    8.8193    0.0000 </r>
       <r>   11.2917    0.0000 </r>
       <r>   12.0416    0.0000 </r>
       <r>   13.9797    0.0000 </r>
       <r>   14.4236    0.0000 </r>
       <r>   15.6199    0.0000 </r>
       <r>   17.3368    0.0000 </r>
       <r>   17.7676    0.0000 </r>
      </set>
      <set comment="kpoint 33">
       <r>  -11.6824    1.0000 </r>
       <r>  -11.6804    1.0000 </r>
       <r>  -11.6653    1.0000 </r>
       <r>  -11.6610    1.0000 </r>
       <r>  -11.6580    1.0000 </r>
       <r>   -6.0136    1.0000 </r>
       <r>   -1.9532    1.0000 </r>
       <r>    3.0769    1.0000 </r>
       <r>    4.3733    1.0000 </r>
       <r>    4.8624    1.0000 </r>
       <r>    6.6031    0.0000 </r>
       <r>    6.9326    0.0000 </r>
       <r>    9.0328    0.0000 </r>
       <r>   10.9890    0.0000 </r>
       <r>   11.6101    0.0000 </r>
       <r>   13.1994    0.0000 </r>
       <r>   13.6584    0.0000 </r>
       <r>   16.0445    0.0000 </r>
       <r>   16.1238    0.0000 </r>
       <r>   16.6667    0.0000 </r>
      </set>
      <set comment="kpoint 34">
       <r>  -11.6806    1.0000 </r>
       <r>  -11.6780    1.0000 </r>
       <r>  -11.6661    1.0000 </r>
       <r>  -11.6631    1.0000 </r>
       <r>  -11.6603    1.0000 </r>
       <r>   -6.2194    1.0000 </r>
       <r>   -1.5604    1.0000 </r>
       <r>    3.2955    1.0000 </r>
       <r>    4.2591    1.0000 </r>
       <r>    4.6372    1.0000 </r>
       <r>    7.0892    0.0000 </r>
       <r>    7.3629    0.0000 </r>
       <r>    9.0878    0.0000 </r>
       <r>   10.8061    0.0000 </r>
       <r>   11.3309    0.0000 </r>
       <r>   12.4681    0.0000 </r>
       <r>   13.2072    0.0000 </r>
       <r>   15.0255    0.0000 </r>
       <r>   15.4620    0.0000 </r>
       <r>   15.6261    0.0000 </r>
      </set>
      <set comment="kpoint 35">
       <r>  -11.6878    1.0000 </r>
       <r>  -11.6720    1.0000 </r>
       <r>  -11.6695    1.0000 </r>
       <r>  -11.6599    1.0000 </r>
       <r>  -11.6599    1.0000 </r>
       <r>   -6.1757    1.0000 </r>
       <r>   -1.4842    1.0000 </r>
       <r>    3.3233    1.0000 </r>
       <r>    3.3233    1.0000 </r>
       <r>    4.5549    1.0000 </r>
       <r>    6.9085    0.0000 </r>
       <r>    9.2757    0.0000 </r>
       <r>    9.2757    0.0000 </r>
       <r>    9.5907    0.0000 </r>
       <r>   12.6719    0.0000 </r>
       <r>   12.6719    0.0000 </r>
       <r>   13.1079    0.0000 </r>
       <r>   13.4071    0.0000 </r>
       <r>   14.9373    0.0000 </r>
       <r>   17.3516    0.0000 </r>
      </set>
      <set comment="kpoint 36">
       <r>  -11.6918    1.0000 </r>
       <r>  -11.6720    1.0000 </r>
       <r>  -11.6699    1.0000 </r>
       <r>  -11.6578    1.0000 </r>
       <r>  -11.6574    1.0000 </r>
       <r>   -6.0152    1.0000 </r>
       <r>   -1.7225    1.0000 </r>
       <r>    3.2133    1.0000 </r>
       <r>    3.2283    1.0000 </r>
       <r>    4.1054    1.0000 </r>
       <r>    7.2604    0.0000 </r>
       <r>    9.1120    0.0000 </r>
       <r>    9.2235    0.0000 </r>
       <r>    9.5787    0.0000 </r>
       <r>   13.0533    0.0000 </r>
       <r>   13.1635    0.0000 </r>
       <r>   13.5960    0.0000 </r>
       <r>   13.8138    0.0000 </r>
       <r>   15.7058    0.0000 </r>
       <r>   18.2095    0.0000 </r>
      </set>
      <set comment="kpoint 37">
       <r>  -11.6952    1.0000 </r>
       <r>  -11.6732    1.0000 </r>
       <r>  -11.6693    1.0000 </r>
       <r>  -11.6561    1.0000 </r>
       <r>  -11.6546    1.0000 </r>
       <r>   -5.8046    1.0000 </r>
       <r>   -2.0529    1.0000 </r>
       <r>    3.1732    1.0000 </r>
       <r>    3.1990    1.0000 </r>
       <r>    3.6538    1.0000 </r>
       <r>    7.6477    0.0000 </r>
       <r>    8.7871    0.0000 </r>
       <r>    8.9324    0.0000 </r>
       <r>    9.7401    0.0000 </r>
       <r>   13.4812    0.0000 </r>
       <r>   13.7154    0.0000 </r>
       <r>   14.3650    0.0000 </r>
       <r>   14.5864    0.0000 </r>
       <r>   16.7669    0.0000 </r>
       <r>   17.7967    0.0000 </r>
      </set>
      <set comment="kpoint 38">
       <r>  -11.6974    1.0000 </r>
       <r>  -11.6753    1.0000 </r>
       <r>  -11.6678    1.0000 </r>
       <r>  -11.6550    1.0000 </r>
       <r>  -11.6523    1.0000 </r>
       <r>   -5.5637    1.0000 </r>
       <r>   -2.4259    1.0000 </r>
       <r>    3.0447    1.0000 </r>
       <r>    3.2069    1.0000 </r>
       <r>    3.4574    1.0000 </r>
       <r>    7.9108    0.0000 </r>
       <r>    8.5237    0.0000 </r>
       <r>    8.5306    0.0000 </r>
       <r>   10.0738    0.0000 </r>
       <r>   14.0420    0.0000 </r>
       <r>   14.3558    0.0000 </r>
       <r>   14.8900    0.0000 </r>
       <r>   15.3867    0.0000 </r>
       <r>   16.9522    0.0000 </r>
       <r>   16.9919    0.0000 </r>
      </set>
      <set comment="kpoint 39">
       <r>  -11.6981    1.0000 </r>
       <r>  -11.6778    1.0000 </r>
       <r>  -11.6658    1.0000 </r>
       <r>  -11.6547    1.0000 </r>
       <r>  -11.6511    1.0000 </r>
       <r>   -5.3298    1.0000 </r>
       <r>   -2.7749    1.0000 </r>
       <r>    2.7369    1.0000 </r>
       <r>    3.3149    1.0000 </r>
       <r>    3.5653    1.0000 </r>
       <r>    7.7817    0.0000 </r>
       <r>    8.0996    0.0000 </r>
       <r>    8.6102    0.0000 </r>
       <r>   10.6049    0.0000 </r>
       <r>   14.3917    0.0000 </r>
       <r>   14.7550    0.0000 </r>
       <r>   14.7654    0.0000 </r>
       <r>   15.6184    0.0000 </r>
       <r>   17.1703    0.0000 </r>
       <r>   17.4867    0.0000 </r>
      </set>
      <set comment="kpoint 40">
       <r>  -11.6972    1.0000 </r>
       <r>  -11.6801    1.0000 </r>
       <r>  -11.6635    1.0000 </r>
       <r>  -11.6551    1.0000 </r>
       <r>  -11.6511    1.0000 </r>
       <r>   -5.1707    1.0000 </r>
       <r>   -3.0117    1.0000 </r>
       <r>    2.4913    1.0000 </r>
       <r>    3.4928    1.0000 </r>
       <r>    3.7731    1.0000 </r>
       <r>    7.4564    0.0000 </r>
       <r>    7.6797    0.0000 </r>
       <r>    8.8747    0.0000 </r>
       <r>   11.3100    0.0000 </r>
       <r>   13.5756    0.0000 </r>
       <r>   14.1732    0.0000 </r>
       <r>   15.4113    0.0000 </r>
       <r>   16.2857    0.0000 </r>
       <r>   18.1688    0.0000 </r>
       <r>   18.2049    0.0000 </r>
      </set>
      <set comment="kpoint 41">
       <r>  -11.6948    1.0000 </r>
       <r>  -11.6820    1.0000 </r>
       <r>  -11.6617    1.0000 </r>
       <r>  -11.6559    1.0000 </r>
       <r>  -11.6523    1.0000 </r>
       <r>   -5.1663    1.0000 </r>
       <r>   -3.0470    1.0000 </r>
       <r>    2.3525    1.0000 </r>
       <r>    3.7292    1.0000 </r>
       <r>    4.0448    1.0000 </r>
       <r>    7.1189    0.0000 </r>
       <r>    7.2943    0.0000 </r>
       <r>    9.1346    0.0000 </r>
       <r>   12.1051    0.0000 </r>
       <r>   12.8398    0.0000 </r>
       <r>   13.4156    0.0000 </r>
       <r>   15.7028    0.0000 </r>
       <r>   17.0380    0.0000 </r>
       <r>   17.2303    0.0000 </r>
       <r>   18.0436    0.0000 </r>
      </set>
      <set comment="kpoint 42">
       <r>  -11.6913    1.0000 </r>
       <r>  -11.6832    1.0000 </r>
       <r>  -11.6613    1.0000 </r>
       <r>  -11.6563    1.0000 </r>
       <r>  -11.6544    1.0000 </r>
       <r>   -5.3212    1.0000 </r>
       <r>   -2.8764    1.0000 </r>
       <r>    2.3369    1.0000 </r>
       <r>    3.9992    1.0000 </r>
       <r>    4.3650    1.0000 </r>
       <r>    6.7985    0.0000 </r>
       <r>    6.9682    0.0000 </r>
       <r>    9.3317    0.0000 </r>
       <r>   12.0444    0.0000 </r>
       <r>   12.7475    0.0000 </r>
       <r>   13.2344    0.0000 </r>
       <r>   15.1175    0.0000 </r>
       <r>   16.1253    0.0000 </r>
       <r>   18.2705    0.0000 </r>
       <r>   18.4264    0.0000 </r>
      </set>
      <set comment="kpoint 43">
       <r>  -11.6873    1.0000 </r>
       <r>  -11.6836    1.0000 </r>
       <r>  -11.6625    1.0000 </r>
       <r>  -11.6569    1.0000 </r>
       <r>  -11.6562    1.0000 </r>
       <r>   -5.5566    1.0000 </r>
       <r>   -2.5871    1.0000 </r>
       <r>    2.4537    1.0000 </r>
       <r>    4.2515    1.0000 </r>
       <r>    4.6960    1.0000 </r>
       <r>    6.5227    0.0000 </r>
       <r>    6.7479    0.0000 </r>
       <r>    9.4066    0.0000 </r>
       <r>   11.6357    0.0000 </r>
       <r>   12.2149    0.0000 </r>
       <r>   13.9682    0.0000 </r>
       <r>   14.5411    0.0000 </r>
       <r>   15.2411    0.0000 </r>
       <r>   18.2378    0.0000 </r>
       <r>   18.8690    0.0000 </r>
      </set>
      <set comment="kpoint 44">
       <r>  -11.6835    1.0000 </r>
       <r>  -11.6833    1.0000 </r>
       <r>  -11.6641    1.0000 </r>
       <r>  -11.6592    1.0000 </r>
       <r>  -11.6566    1.0000 </r>
       <r>   -5.8006    1.0000 </r>
       <r>   -2.2625    1.0000 </r>
       <r>    2.7045    1.0000 </r>
       <r>    4.3996    1.0000 </r>
       <r>    4.9217    1.0000 </r>
       <r>    6.3977    0.0000 </r>
       <r>    6.7143    0.0000 </r>
       <r>    9.3179    0.0000 </r>
       <r>   11.3046    0.0000 </r>
       <r>   11.8341    0.0000 </r>
       <r>   13.6282    0.0000 </r>
       <r>   14.1622    0.0000 </r>
       <r>   15.5417    0.0000 </r>
       <r>   17.0723    0.0000 </r>
       <r>   17.7508    0.0000 </r>
      </set>
      <set comment="kpoint 45">
       <r>  -11.6972    1.0000 </r>
       <r>  -11.6711    1.0000 </r>
       <r>  -11.6702    1.0000 </r>
       <r>  -11.6555    1.0000 </r>
       <r>  -11.6555    1.0000 </r>
       <r>   -5.8841    1.0000 </r>
       <r>   -1.8060    1.0000 </r>
       <r>    3.0409    1.0000 </r>
       <r>    3.0409    1.0000 </r>
       <r>    3.5126    1.0000 </r>
       <r>    7.8771    0.0000 </r>
       <r>    9.1733    0.0000 </r>
       <r>    9.5331    0.0000 </r>
       <r>    9.5331    0.0000 </r>
       <r>   13.4775    0.0000 </r>
       <r>   13.7211    0.0000 </r>
       <r>   13.7314    0.0000 </r>
       <r>   13.7314    0.0000 </r>
       <r>   16.1590    0.0000 </r>
       <r>   18.9503    0.0000 </r>
      </set>
      <set comment="kpoint 46">
       <r>  -11.7017    1.0000 </r>
       <r>  -11.6714    1.0000 </r>
       <r>  -11.6700    1.0000 </r>
       <r>  -11.6536    1.0000 </r>
       <r>  -11.6531    1.0000 </r>
       <r>   -5.7053    1.0000 </r>
       <r>   -1.9937    1.0000 </r>
       <r>    2.8958    1.0000 </r>
       <r>    2.9439    1.0000 </r>
       <r>    3.0336    1.0000 </r>
       <r>    8.4491    0.0000 </r>
       <r>    9.0378    0.0000 </r>
       <r>    9.5160    0.0000 </r>
       <r>    9.5963    0.0000 </r>
       <r>   13.8307    0.0000 </r>
       <r>   14.0502    0.0000 </r>
       <r>   14.3384    0.0000 </r>
       <r>   14.3861    0.0000 </r>
       <r>   16.9764    0.0000 </r>
       <r>   17.9364    0.0000 </r>
      </set>
      <set comment="kpoint 47">
       <r>  -11.7047    1.0000 </r>
       <r>  -11.6713    1.0000 </r>
       <r>  -11.6706    1.0000 </r>
       <r>  -11.6524    1.0000 </r>
       <r>  -11.6510    1.0000 </r>
       <r>   -5.4960    1.0000 </r>
       <r>   -2.2597    1.0000 </r>
       <r>    2.4726    1.0000 </r>
       <r>    2.9278    1.0000 </r>
       <r>    3.0241    1.0000 </r>
       <r>    8.7533    0.0000 </r>
       <r>    9.1107    0.0000 </r>
       <r>    9.2460    0.0000 </r>
       <r>    9.6376    0.0000 </r>
       <r>   14.3793    0.0000 </r>
       <r>   14.6909    0.0000 </r>
       <r>   14.8956    0.0000 </r>
       <r>   15.0335    0.0000 </r>
       <r>   16.9790    0.0000 </r>
       <r>   17.0468    0.0000 </r>
      </set>
      <set comment="kpoint 48">
       <r>  -11.7056    1.0000 </r>
       <r>  -11.6734    1.0000 </r>
       <r>  -11.6688    1.0000 </r>
       <r>  -11.6522    1.0000 </r>
       <r>  -11.6498    1.0000 </r>
       <r>   -5.2857    1.0000 </r>
       <r>   -2.5531    1.0000 </r>
       <r>    2.1175    1.0000 </r>
       <r>    2.9944    1.0000 </r>
       <r>    3.1448    1.0000 </r>
       <r>    8.5420    0.0000 </r>
       <r>    8.8468    0.0000 </r>
       <r>    9.4872    0.0000 </r>
       <r>    9.9111    0.0000 </r>
       <r>   14.5174    0.0000 </r>
       <r>   15.0593    0.0000 </r>
       <r>   15.2477    0.0000 </r>
       <r>   15.5395    0.0000 </r>
       <r>   16.8801    0.0000 </r>
       <r>   17.0673    0.0000 </r>
      </set>
      <set comment="kpoint 49">
       <r>  -11.7044    1.0000 </r>
       <r>  -11.6759    1.0000 </r>
       <r>  -11.6661    1.0000 </r>
       <r>  -11.6531    1.0000 </r>
       <r>  -11.6497    1.0000 </r>
       <r>   -5.1225    1.0000 </r>
       <r>   -2.8042    1.0000 </r>
       <r>    1.8861    1.0000 </r>
       <r>    3.1422    1.0000 </r>
       <r>    3.3437    1.0000 </r>
       <r>    8.1893    0.0000 </r>
       <r>    8.3952    0.0000 </r>
       <r>    9.7933    0.0000 </r>
       <r>   10.4552    0.0000 </r>
       <r>   13.8335    0.0000 </r>
       <r>   14.3906    0.0000 </r>
       <r>   15.7699    0.0000 </r>
       <r>   16.4392    0.0000 </r>
       <r>   17.6641    0.0000 </r>
       <r>   18.0184    0.0000 </r>
      </set>
      <set comment="kpoint 50">
       <r>  -11.7013    1.0000 </r>
       <r>  -11.6784    1.0000 </r>
       <r>  -11.6631    1.0000 </r>
       <r>  -11.6549    1.0000 </r>
       <r>  -11.6508    1.0000 </r>
       <r>   -5.0678    1.0000 </r>
       <r>   -2.9377    1.0000 </r>
       <r>    1.7953    1.0000 </r>
       <r>    3.3651    1.0000 </r>
       <r>    3.6106    1.0000 </r>
       <r>    7.7912    0.0000 </r>
       <r>    7.9285    0.0000 </r>
       <r>    9.9687    0.0000 </r>
       <r>   11.2052    0.0000 </r>
       <r>   13.1258    0.0000 </r>
       <r>   13.6531    0.0000 </r>
       <r>   15.7227    0.0000 </r>
       <r>   17.4031    0.0000 </r>
       <r>   17.6896    0.0000 </r>
       <r>   18.6514    0.0000 </r>
      </set>
      <set comment="kpoint 51">
       <r>  -11.6970    1.0000 </r>
       <r>  -11.6808    1.0000 </r>
       <r>  -11.6602    1.0000 </r>
       <r>  -11.6573    1.0000 </r>
       <r>  -11.6527    1.0000 </r>
       <r>   -5.1523    1.0000 </r>
       <r>   -2.9171    1.0000 </r>
       <r>    1.8579    1.0000 </r>
       <r>    3.6497    1.0000 </r>
       <r>    3.9388    1.0000 </r>
       <r>    7.3668    0.0000 </r>
       <r>    7.4704    0.0000 </r>
       <r>    9.9751    0.0000 </r>
       <r>   12.0986    0.0000 </r>
       <r>   12.5861    0.0000 </r>
       <r>   13.0242    0.0000 </r>
       <r>   15.0102    0.0000 </r>
       <r>   17.2574    0.0000 </r>
       <r>   18.3742    0.0000 </r>
       <r>   18.7543    0.0000 </r>
      </set>
      <set comment="kpoint 52">
       <r>  -11.6920    1.0000 </r>
       <r>  -11.6826    1.0000 </r>
       <r>  -11.6601    1.0000 </r>
       <r>  -11.6575    1.0000 </r>
       <r>  -11.6548    1.0000 </r>
       <r>   -5.3369    1.0000 </r>
       <r>   -2.7796    1.0000 </r>
       <r>    2.0796    1.0000 </r>
       <r>    3.9667    1.0000 </r>
       <r>    4.3155    1.0000 </r>
       <r>    6.9276    0.0000 </r>
       <r>    7.0540    0.0000 </r>
       <r>    9.7871    0.0000 </r>
       <r>   12.1038    0.0000 </r>
       <r>   12.5416    0.0000 </r>
       <r>   13.1194    0.0000 </r>
       <r>   14.4567    0.0000 </r>
       <r>   16.2755    0.0000 </r>
       <r>   19.0910    0.0000 </r>
       <r>   19.1005    0.0000 </r>
      </set>
      <set comment="kpoint 53">
       <r>  -11.7075    1.0000 </r>
       <r>  -11.6727    1.0000 </r>
       <r>  -11.6684    1.0000 </r>
       <r>  -11.6513    1.0000 </r>
       <r>  -11.6513    1.0000 </r>
       <r>   -5.5637    1.0000 </r>
       <r>   -2.0239    1.0000 </r>
       <r>    2.4009    1.0000 </r>
       <r>    2.7928    1.0000 </r>
       <r>    2.7928    1.0000 </r>
       <r>    8.8557    0.0000 </r>
       <r>    9.1814    0.0000 </r>
       <r>    9.8443    0.0000 </r>
       <r>    9.8443    0.0000 </r>
       <r>   13.9686    0.0000 </r>
       <r>   14.1150    0.0000 </r>
       <r>   14.8827    0.0000 </r>
       <r>   14.8827    0.0000 </r>
       <r>   17.5155    0.0000 </r>
       <r>   18.1249    0.0000 </r>
      </set>
      <set comment="kpoint 54">
       <r>  -11.7114    1.0000 </r>
       <r>  -11.6728    1.0000 </r>
       <r>  -11.6683    1.0000 </r>
       <r>  -11.6498    1.0000 </r>
       <r>  -11.6494    1.0000 </r>
       <r>   -5.3958    1.0000 </r>
       <r>   -2.1487    1.0000 </r>
       <r>    1.9351    1.0000 </r>
       <r>    2.7264    1.0000 </r>
       <r>    2.7490    1.0000 </r>
       <r>    8.8095    0.0000 </r>
       <r>    9.7058    0.0000 </r>
       <r>    9.8305    0.0000 </r>
       <r>    9.9550    0.0000 </r>
       <r>   14.3922    0.0000 </r>
       <r>   14.5243    0.0000 </r>
       <r>   15.4141    0.0000 </r>
       <r>   15.4339    0.0000 </r>
       <r>   17.1299    0.0000 </r>
       <r>   17.2544    0.0000 </r>
      </set>
      <set comment="kpoint 55">
       <r>  -11.7128    1.0000 </r>
       <r>  -11.6717    1.0000 </r>
       <r>  -11.6696    1.0000 </r>
       <r>  -11.6494    1.0000 </r>
       <r>  -11.6483    1.0000 </r>
       <r>   -5.2252    1.0000 </r>
       <r>   -2.3458    1.0000 </r>
       <r>    1.5953    1.0000 </r>
       <r>    2.7479    1.0000 </r>
       <r>    2.8208    1.0000 </r>
       <r>    8.8792    0.0000 </r>
       <r>    9.5452    0.0000 </r>
       <r>    9.6993    0.0000 </r>
       <r>   10.3185    0.0000 </r>
       <r>   14.7251    0.0000 </r>
       <r>   15.1723    0.0000 </r>
       <r>   15.5379    0.0000 </r>
       <r>   15.7143    0.0000 </r>
       <r>   16.8533    0.0000 </r>
       <r>   16.9712    0.0000 </r>
      </set>
      <set comment="kpoint 56">
       <r>  -11.7116    1.0000 </r>
       <r>  -11.6719    1.0000 </r>
       <r>  -11.6694    1.0000 </r>
       <r>  -11.6502    1.0000 </r>
       <r>  -11.6482    1.0000 </r>
       <r>   -5.0848    1.0000 </r>
       <r>   -2.5696    1.0000 </r>
       <r>    1.4050    1.0000 </r>
       <r>    2.8571    1.0000 </r>
       <r>    2.9888    1.0000 </r>
       <r>    8.7855    0.0000 </r>
       <r>    9.1057    0.0000 </r>
       <r>    9.8554    0.0000 </r>
       <r>   10.5802    0.0000 </r>
       <r>   14.2738    0.0000 </r>
       <r>   14.7326    0.0000 </r>
       <r>   16.0973    0.0000 </r>
       <r>   16.2028    0.0000 </r>
       <r>   17.4368    0.0000 </r>
       <r>   17.6078    0.0000 </r>
      </set>
      <set comment="kpoint 57">
       <r>  -11.7081    1.0000 </r>
       <r>  -11.6747    1.0000 </r>
       <r>  -11.6664    1.0000 </r>
       <r>  -11.6522    1.0000 </r>
       <r>  -11.6491    1.0000 </r>
       <r>   -5.0128    1.0000 </r>
       <r>   -2.7644    1.0000 </r>
       <r>    1.3813    1.0000 </r>
       <r>    3.0508    1.0000 </r>
       <r>    3.2375    1.0000 </r>
       <r>    8.4188    0.0000 </r>
       <r>    8.5860    0.0000 </r>
       <r>   10.3978    0.0000 </r>
       <r>   10.6188    0.0000 </r>
       <r>   13.6643    0.0000 </r>
       <r>   14.0341    0.0000 </r>
       <r>   15.8377    0.0000 </r>
       <r>   17.1398    0.0000 </r>
       <r>   17.9341    0.0000 </r>
       <r>   18.4406    0.0000 </r>
      </set>
      <set comment="kpoint 58">
       <r>  -11.7029    1.0000 </r>
       <r>  -11.6778    1.0000 </r>
       <r>  -11.6629    1.0000 </r>
       <r>  -11.6548    1.0000 </r>
       <r>  -11.6508    1.0000 </r>
       <r>   -5.0371    1.0000 </r>
       <r>   -2.8849    1.0000 </r>
       <r>    1.5334    1.0000 </r>
       <r>    3.3207    1.0000 </r>
       <r>    3.5569    1.0000 </r>
       <r>    7.9243    0.0000 </r>
       <r>    8.0283    0.0000 </r>
       <r>   10.4095    0.0000 </r>
       <r>   11.1807    0.0000 </r>
       <r>   13.1150    0.0000 </r>
       <r>   13.4536    0.0000 </r>
       <r>   15.2549    0.0000 </r>
       <r>   17.9770    0.0000 </r>
       <r>   18.1343    0.0000 </r>
       <r>   18.7364    0.0000 </r>
      </set>
      <set comment="kpoint 59">
       <r>  -11.7163    1.0000 </r>
       <r>  -11.6739    1.0000 </r>
       <r>  -11.6669    1.0000 </r>
       <r>  -11.6479    1.0000 </r>
       <r>  -11.6479    1.0000 </r>
       <r>   -5.2775    1.0000 </r>
       <r>   -2.1222    1.0000 </r>
       <r>    1.4996    1.0000 </r>
       <r>    2.6112    1.0000 </r>
       <r>    2.6112    1.0000 </r>
       <r>    8.6427    0.0000 </r>
       <r>   10.1369    0.0000 </r>
       <r>   10.1369    0.0000 </r>
       <r>   10.4622    0.0000 </r>
       <r>   14.5618    0.0000 </r>
       <r>   14.6023    0.0000 </r>
       <r>   15.9558    0.0000 </r>
       <r>   15.9558    0.0000 </r>
       <r>   17.0915    0.0000 </r>
       <r>   17.3307    0.0000 </r>
      </set>
      <set comment="kpoint 60">
       <r>  -11.7185    1.0000 </r>
       <r>  -11.6737    1.0000 </r>
       <r>  -11.6672    1.0000 </r>
       <r>  -11.6472    1.0000 </r>
       <r>  -11.6469    1.0000 </r>
       <r>   -5.1602    1.0000 </r>
       <r>   -2.1932    1.0000 </r>
       <r>    1.2044    1.0000 </r>
       <r>    2.5865    1.0000 </r>
       <r>    2.6060    1.0000 </r>
       <r>    8.6609    0.0000 </r>
       <r>   10.0829    0.0000 </r>
       <r>   10.1066    0.0000 </r>
       <r>   10.9429    0.0000 </r>
       <r>   14.9633    0.0000 </r>
       <r>   15.0150    0.0000 </r>
       <r>   15.9741    0.0000 </r>
       <r>   16.0452    0.0000 </r>
       <r>   16.8565    0.0000 </r>
       <r>   17.1422    0.0000 </r>
      </set>
      <set comment="kpoint 61">
       <r>  -11.7176    1.0000 </r>
       <r>  -11.6722    1.0000 </r>
       <r>  -11.6687    1.0000 </r>
       <r>  -11.6477    1.0000 </r>
       <r>  -11.6468    1.0000 </r>
       <r>   -5.0654    1.0000 </r>
       <r>   -2.3490    1.0000 </r>
       <r>    1.0780    1.0000 </r>
       <r>    2.6532    1.0000 </r>
       <r>    2.7209    1.0000 </r>
       <r>    8.8318    0.0000 </r>
       <r>    9.7354    0.0000 </r>
       <r>    9.8955    0.0000 </r>
       <r>   11.1436    0.0000 </r>
       <r>   14.8619    0.0000 </r>
       <r>   15.2101    0.0000 </r>
       <r>   15.7058    0.0000 </r>
       <r>   16.2105    0.0000 </r>
       <r>   17.1044    0.0000 </r>
       <r>   17.7098    0.0000 </r>
      </set>
      <set comment="kpoint 62">
       <r>  -11.7139    1.0000 </r>
       <r>  -11.6713    1.0000 </r>
       <r>  -11.6697    1.0000 </r>
       <r>  -11.6495    1.0000 </r>
       <r>  -11.6476    1.0000 </r>
       <r>   -5.0123    1.0000 </r>
       <r>   -2.5545    1.0000 </r>
       <r>    1.1371    1.0000 </r>
       <r>    2.8098    1.0000 </r>
       <r>    2.9370    1.0000 </r>
       <r>    8.8538    0.0000 </r>
       <r>    9.2085    0.0000 </r>
       <r>    9.8796    0.0000 </r>
       <r>   11.0254    0.0000 </r>
       <r>   14.2751    0.0000 </r>
       <r>   14.5655    0.0000 </r>
       <r>   16.1795    0.0000 </r>
       <r>   16.4501    0.0000 </r>
       <r>   17.4298    0.0000 </r>
       <r>   18.0722    0.0000 </r>
      </set>
      <set comment="kpoint 63">
       <r>  -11.7214    1.0000 </r>
       <r>  -11.6745    1.0000 </r>
       <r>  -11.6662    1.0000 </r>
       <r>  -11.6460    1.0000 </r>
       <r>  -11.6460    1.0000 </r>
       <r>   -5.1050    1.0000 </r>
       <r>   -2.1342    1.0000 </r>
       <r>    0.9746    1.0000 </r>
       <r>    2.5159    1.0000 </r>
       <r>    2.5159    1.0000 </r>
       <r>    8.5359    0.0000 </r>
       <r>   10.3198    0.0000 </r>
       <r>   10.3198    0.0000 </r>
       <r>   11.3457    0.0000 </r>
       <r>   14.9497    0.0000 </r>
       <r>   15.3810    0.0000 </r>
       <r>   16.2715    0.0000 </r>
       <r>   16.4648    0.0000 </r>
       <r>   16.4651    0.0000 </r>
       <r>   16.7284    0.0000 </r>
      </set>
      <set comment="kpoint 64">
       <r>  -11.7211    1.0000 </r>
       <r>  -11.6740    1.0000 </r>
       <r>  -11.6667    1.0000 </r>
       <r>  -11.6462    1.0000 </r>
       <r>  -11.6460    1.0000 </r>
       <r>   -5.0715    1.0000 </r>
       <r>   -2.1903    1.0000 </r>
       <r>    0.9301    1.0000 </r>
       <r>    2.5383    1.0000 </r>
       <r>    2.5572    1.0000 </r>
       <r>    8.6101    0.0000 </r>
       <r>   10.1816    0.0000 </r>
       <r>   10.2138    0.0000 </r>
       <r>   11.4212    0.0000 </r>
       <r>   15.2172    0.0000 </r>
       <r>   15.5248    0.0000 </r>
       <r>   15.8587    0.0000 </r>
       <r>   15.8727    0.0000 </r>
       <r>   16.9569    0.0000 </r>
       <r>   17.3906    0.0000 </r>
      </set>
      <set comment="kpoint 65">
       <r>  -11.6805    1.0000 </r>
       <r>  -11.6750    1.0000 </r>
       <r>  -11.6674    1.0000 </r>
       <r>  -11.6636    1.0000 </r>
       <r>  -11.6625    1.0000 </r>
       <r>   -6.3551    1.0000 </r>
       <r>   -1.2415    1.0000 </r>
       <r>    3.5117    1.0000 </r>
       <r>    3.8323    1.0000 </r>
       <r>    4.6140    1.0000 </r>
       <r>    7.1782    0.0000 </r>
       <r>    8.4491    0.0000 </r>
       <r>    9.0831    0.0000 </r>
       <r>   10.3484    0.0000 </r>
       <r>   11.5679    0.0000 </r>
       <r>   11.9307    0.0000 </r>
       <r>   13.0405    0.0000 </r>
       <r>   13.8929    0.0000 </r>
       <r>   14.2123    0.0000 </r>
       <r>   15.4431    0.0000 </r>
      </set>
      <set comment="kpoint 66">
       <r>  -11.6830    1.0000 </r>
       <r>  -11.6764    1.0000 </r>
       <r>  -11.6669    1.0000 </r>
       <r>  -11.6618    1.0000 </r>
       <r>  -11.6599    1.0000 </r>
       <r>   -6.1863    1.0000 </r>
       <r>   -1.6066    1.0000 </r>
       <r>    3.3441    1.0000 </r>
       <r>    3.9500    1.0000 </r>
       <r>    4.7612    1.0000 </r>
       <r>    6.7550    0.0000 </r>
       <r>    7.9202    0.0000 </r>
       <r>    8.9604    0.0000 </r>
       <r>   10.4262    0.0000 </r>
       <r>   11.8140    0.0000 </r>
       <r>   12.5066    0.0000 </r>
       <r>   13.4623    0.0000 </r>
       <r>   14.7698    0.0000 </r>
       <r>   15.1763    0.0000 </r>
       <r>   16.4199    0.0000 </r>
      </set>
      <set comment="kpoint 67">
       <r>  -11.6855    1.0000 </r>
       <r>  -11.6785    1.0000 </r>
       <r>  -11.6660    1.0000 </r>
       <r>  -11.6596    1.0000 </r>
       <r>  -11.6573    1.0000 </r>
       <r>   -5.9622    1.0000 </r>
       <r>   -2.0431    1.0000 </r>
       <r>    3.2545    1.0000 </r>
       <r>    4.0691    1.0000 </r>
       <r>    4.7251    1.0000 </r>
       <r>    6.5665    0.0000 </r>
       <r>    7.4105    0.0000 </r>
       <r>    8.6638    0.0000 </r>
       <r>   10.6590    0.0000 </r>
       <r>   12.1869    0.0000 </r>
       <r>   13.1583    0.0000 </r>
       <r>   14.2452    0.0000 </r>
       <r>   15.6321    0.0000 </r>
       <r>   16.3624    0.0000 </r>
       <r>   17.0976    0.0000 </r>
      </set>
      <set comment="kpoint 68">
       <r>  -11.6877    1.0000 </r>
       <r>  -11.6810    1.0000 </r>
       <r>  -11.6649    1.0000 </r>
       <r>  -11.6574    1.0000 </r>
       <r>  -11.6549    1.0000 </r>
       <r>   -5.7012    1.0000 </r>
       <r>   -2.4962    1.0000 </r>
       <r>    3.2451    1.0000 </r>
[...]
       </set>
       <set comment="band 16">
        <r>  0.0275  0.0008  0.0000  0.0123  0.0003  0.0000  0.0351  0.0000  0.1780 </r>
        <r>  0.0551  0.0000  0.0000  0.0069  0.0000  0.0000  0.0078  0.0000  0.0709 </r>
       </set>
       <set comment="band 17">
        <r>  0.0000  0.0000  0.0037  0.0000  0.0000  0.0083  0.0000  0.1595  0.0000 </r>
        <r>  0.0000  0.0000  0.0479  0.0000  0.0000  0.0001  0.0000  0.0100  0.0000 </r>
       </set>
       <set comment="band 18">
        <r>  0.0304  0.0119  0.0000  0.0005  0.0010  0.0000  0.1669  0.0000  0.0183 </r>
        <r>  0.0461  0.0013  0.0000  0.0045  0.0001  0.0000  0.0585  0.0000  0.0024 </r>
       </set>
       <set comment="band 19">
        <r>  0.0000  0.0000  0.0121  0.0000  0.0000  0.0112  0.0000  0.2189  0.0000 </r>
        <r>  0.0000  0.0000  0.0218  0.0000  0.0000  0.0000  0.0000  0.0004  0.0000 </r>
       </set>
       <set comment="band 20">
        <r>  0.0007  0.0015  0.0000  0.0203  0.0114  0.0000  0.0190  0.0000  0.0004 </r>
        <r>  0.0063  0.0005  0.0000  0.0577  0.0002  0.0000  0.0022  0.0001  0.0008 </r>
       </set>
      </set>
      <set comment="kpoint 117">
       <set comment="band 1">
        <r>  0.0035  0.0000  0.0002  0.0000  0.0000  0.0000  0.0000  0.0000  0.0000 </r>
        <r>  0.0000  0.0000  0.0000  0.0000  0.0000  0.0046  0.8733  0.0000  0.0915 </r>
       </set>
       <set comment="band 2">
        <r>  0.0000  0.0005  0.0000  0.0000  0.0000  0.0000  0.0000  0.0000  0.0001 </r>
        <r>  0.0000  0.0000  0.0000  0.0000  0.0000  0.0236  0.0966  0.0000  0.8564 </r>
       </set>
       <set comment="band 3">
        <r>  0.0000  0.0000  0.0000  0.0000  0.0000  0.0000  0.0000  0.0000  0.0000 </r>
        <r>  0.0000  0.0000  0.0000  0.0000  0.9700  0.0000  0.0000  0.0079  0.0000 </r>
       </set>
       <set comment="band 4">
        <r>  0.0000  0.0000  0.0000  0.0000  0.0000  0.0000  0.0000  0.0000  0.0000 </r>
        <r>  0.0000  0.0000  0.0000  0.0000  0.0000  0.9508  0.0003  0.0000  0.0280 </r>
       </set>
       <set comment="band 5">
        <r>  0.0000  0.0000  0.0000  0.0000  0.0000  0.0000  0.0000  0.0000  0.0000 </r>
        <r>  0.0000  0.0000  0.0000  0.0000  0.0080  0.0000  0.0000  0.9721  0.0000 </r>
       </set>
       <set comment="band 6">
        <r>  0.6405  0.0002  0.0006  0.0000  0.0000  0.0000  0.0001  0.0000  0.0000 </r>
        <r>  0.0216  0.0052  0.0026  0.0000  0.0000  0.0000  0.0098  0.0000  0.0015 </r>
       </set>
       <set comment="band 7">
        <r>  0.0310  0.0171  0.0075  0.0000  0.0000  0.0000  0.0019  0.0000  0.0004 </r>
        <r>  0.6221  0.0007  0.0001  0.0000  0.0000  0.0001  0.0003  0.0000  0.0005 </r>
       </set>
       <set comment="band 8">
        <r>  0.0057  0.0023  0.2396  0.0000  0.0000  0.0007  0.0014  0.0000  0.0000 </r>
        <r>  0.0196  0.0000  0.1181  0.0000  0.0000  0.0014  0.0031  0.0000  0.0000 </r>
       </set>
       <set comment="band 9">
        <r>  0.0000  0.0000  0.0000  0.2624  0.0009  0.0000  0.0000  0.0002  0.0000 </r>
        <r>  0.0000  0.0000  0.0000  0.1238  0.0020  0.0000  0.0000  0.0005  0.0000 </r>
       </set>
       <set comment="band 10">
        <r>  0.0050  0.3991  0.0000  0.0000  0.0000  0.0000  0.0017  0.0000  0.0003 </r>
        <r>  0.0639  0.0429  0.0009  0.0000  0.0000  0.0007  0.0034  0.0000  0.0081 </r>
       </set>
       <set comment="band 11">
        <r>  0.0386  0.0520  0.0020  0.0000  0.0000  0.0024  0.0036  0.0000  0.0159 </r>
        <r>  0.0070  0.3478  0.0000  0.0000  0.0000  0.0003  0.0003  0.0000  0.0032 </r>
       </set>
       <set comment="band 12">
        <r>  0.0000  0.0000  0.0000  0.2094  0.0470  0.0000  0.0000  0.0015  0.0000 </r>
        <r>  0.0000  0.0000  0.0000  0.0802  0.0182  0.0000  0.0000  0.0000  0.0000 </r>
       </set>
       <set comment="band 13">
        <r>  0.0112  0.0010  0.2875  0.0000  0.0000  0.0101  0.0116  0.0000  0.0008 </r>
        <r>  0.0142  0.0058  0.2412  0.0000  0.0000  0.0000  0.0058  0.0000  0.0001 </r>
       </set>
       <set comment="band 14">
        <r>  0.0000  0.0000  0.0000  0.0917  0.0244  0.0000  0.0000  0.0030  0.0000 </r>
        <r>  0.0000  0.0000  0.0000  0.2804  0.0319  0.0000  0.0000  0.0001  0.0000 </r>
       </set>
       <set comment="band 15">
        <r>  0.0042  0.0091  0.0013  0.0000  0.0000  0.0682  0.0055  0.0000  0.0015 </r>
        <r>  0.0023  0.0125  0.0917  0.0000  0.0000  0.0416  0.0004  0.0000  0.0004 </r>
       </set>
       <set comment="band 16">
        <r>  0.0244  0.0021  0.0048  0.0000  0.0000  0.0071  0.0342  0.0000  0.1095 </r>
        <r>  0.0516  0.0000  0.0038  0.0000  0.0000  0.0004  0.0080  0.0000  0.0487 </r>
       </set>
       <set comment="band 17">
        <r>  0.0000  0.0000  0.0000  0.0027  0.0071  0.0000  0.0000  0.1470  0.0000 </r>
        <r>  0.0000  0.0000  0.0000  0.0558  0.0004  0.0000  0.0000  0.0202  0.0000 </r>
       </set>
       <set comment="band 18">
        <r>  0.0119  0.0196  0.0665  0.0000  0.0000  0.0481  0.0432  0.0000  0.0722 </r>
        <r>  0.0044  0.0021  0.0091  0.0000  0.0000  0.0052  0.0229  0.0000  0.0133 </r>
       </set>
       <set comment="band 19">
        <r>  0.0008  0.0071  0.0000  0.0120  0.0031  0.0006  0.0177  0.0989  0.0087 </r>
        <r>  0.0107  0.0008  0.0507  0.0000  0.0001  0.0026  0.0010  0.0285  0.0039 </r>
       </set>
       <set comment="band 20">
        <r>  0.0038  0.0133  0.0001  0.0128  0.0032  0.0066  0.0030  0.1068  0.0058 </r>
        <r>  0.0060  0.0008  0.0353  0.0001  0.0001  0.0061  0.0004  0.0297  0.0022 </r>
       </set>
      </set>
      <set comment="kpoint 118">
       <set comment="band 1">
        <r>  0.0038  0.0000  0.0001  0.0000  0.0000  0.0000  0.0000  0.0000  0.0000 </r>
        <r>  0.0000  0.0000  0.0000  0.0000  0.0011  0.0032  0.7813  0.0000  0.1834 </r>
       </set>
       <set comment="band 2">
        <r>  0.0000  0.0005  0.0000  0.0000  0.0000  0.0000  0.0000  0.0000  0.0000 </r>
        <r>  0.0000  0.0000  0.0000  0.0000  0.0025  0.0109  0.1864  0.0004  0.7763 </r>
       </set>
       <set comment="band 3">
        <r>  0.0000  0.0000  0.0000  0.0000  0.0000  0.0000  0.0000  0.0000  0.0000 </r>
        <r>  0.0000  0.0000  0.0000  0.0000  0.9610  0.0070  0.0026  0.0062  0.0016 </r>
       </set>
       <set comment="band 4">
        <r>  0.0000  0.0000  0.0000  0.0000  0.0000  0.0000  0.0000  0.0000  0.0000 </r>
        <r>  0.0000  0.0000  0.0000  0.0000  0.0083  0.9551  0.0001  0.0020  0.0131 </r>
       </set>
       <set comment="band 5">
        <r>  0.0000  0.0000  0.0000  0.0000  0.0000  0.0000  0.0000  0.0000  0.0000 </r>
        <r>  0.0000  0.0000  0.0000  0.0000  0.0053  0.0024  0.0002  0.9717  0.0006 </r>
       </set>
       <set comment="band 6">
        <r>  0.6679  0.0000  0.0002  0.0000  0.0000  0.0000  0.0000  0.0000  0.0000 </r>
        <r>  0.0028  0.0061  0.0013  0.0003  0.0000  0.0000  0.0101  0.0000  0.0027 </r>
       </set>
       <set comment="band 7">
        <r>  0.0040  0.0185  0.0040  0.0011  0.0000  0.0000  0.0020  0.0000  0.0006 </r>
        <r>  0.6457  0.0001  0.0002  0.0001  0.0000  0.0001  0.0000  0.0000  0.0003 </r>
       </set>
       <set comment="band 8">
        <r>  0.0037  0.0001  0.1225  0.1286  0.0004  0.0004  0.0001  0.0001  0.0000 </r>
        <r>  0.0011  0.0000  0.0596  0.0618  0.0010  0.0009  0.0011  0.0000  0.0001 </r>
       </set>
       <set comment="band 9">
        <r>  0.0003  0.0013  0.1219  0.1236  0.0004  0.0004  0.0006  0.0000  0.0001 </r>
        <r>  0.0116  0.0000  0.0616  0.0615  0.0010  0.0009  0.0004  0.0003  0.0002 </r>
       </set>
       <set comment="band 10">
        <r>  0.0008  0.4435  0.0000  0.0000  0.0000  0.0000  0.0011  0.0000  0.0000 </r>
        <r>  0.0733  0.0069  0.0003  0.0001  0.0001  0.0004  0.0039  0.0000  0.0108 </r>
       </set>
       <set comment="band 11">
        <r>  0.0446  0.0081  0.0007  0.0001  0.0003  0.0012  0.0048  0.0000  0.0165 </r>
        <r>  0.0012  0.3863  0.0000  0.0000  0.0000  0.0001  0.0000  0.0000  0.0008 </r>
       </set>
       <set comment="band 12">
        <r>  0.0041  0.0000  0.1100  0.1649  0.0221  0.0070  0.0018  0.0014  0.0021 </r>
        <r>  0.0004  0.0050  0.0729  0.0792  0.0057  0.0006  0.0024  0.0000  0.0005 </r>
       </set>
       <set comment="band 13">
        <r>  0.0015  0.0010  0.1860  0.0957  0.0152  0.0137  0.0044  0.0000  0.0000 </r>
        <r>  0.0084  0.0006  0.1253  0.0457  0.0041  0.0013  0.0014  0.0000  0.0001 </r>
       </set>
       <set comment="band 14">
        <r>  0.0017  0.0008  0.0002  0.0487  0.0359  0.0001  0.0011  0.0011  0.0014 </r>
        <r>  0.0017  0.0006  0.0015  0.2332  0.0385  0.0001  0.0000  0.0001  0.0007 </r>
       </set>
       <set comment="band 15">
        <r>  0.0050  0.0033  0.0056  0.0002  0.0002  0.0552  0.0040  0.0002  0.0003 </r>
        <r>  0.0019  0.0050  0.1456  0.0005  0.0002  0.0437  0.0010  0.0000  0.0001 </r>
       </set>
       <set comment="band 16">
        <r>  0.0104  0.0037  0.0092  0.0161  0.0042  0.0037  0.0409  0.0256  0.0774 </r>
        <r>  0.0456  0.0001  0.0001  0.0008  0.0002  0.0002  0.0014  0.0074  0.0311 </r>
       </set>
       <set comment="band 17">
        <r>  0.0023  0.0006  0.0009  0.0001  0.0029  0.0026  0.0076  0.1577  0.0159 </r>
        <r>  0.0087  0.0000  0.0133  0.0495  0.0001  0.0000  0.0011  0.0026  0.0077 </r>
       </set>
       <set comment="band 18">
        <r>  0.0409  0.0023  0.0363  0.0000  0.0004  0.0067  0.0697  0.0118  0.0732 </r>
        <r>  0.0043  0.0018  0.0088  0.0047  0.0000  0.0001  0.0602  0.0035  0.0122 </r>
       </set>
       <set comment="band 19">
        <r>  0.0005  0.0044  0.0000  0.0036  0.0020  0.0015  0.0805  0.0171  0.0100 </r>
        <r>  0.0323  0.0002  0.0592  0.0080  0.0001  0.0002  0.0106  0.0301  0.0076 </r>
       </set>
       <set comment="band 20">
        <r>  0.0001  0.0001  0.0093  0.0151  0.0062  0.0102  0.0014  0.1607  0.0103 </r>
        <r>  0.0015  0.0000  0.0153  0.0030  0.0000  0.0002  0.0001  0.0071  0.0018 </r>
       </set>
      </set>
      <set comment="kpoint 119">
       <set comment="band 1">
        <r>  0.0042  0.0000  0.0000  0.0000  0.0000  0.0000  0.0000  0.0000  0.0000 </r>
        <r>  0.0000  0.0000  0.0000  0.0000  0.0000  0.0005  0.8811  0.0000  0.0865 </r>
       </set>
       <set comment="band 2">
        <r>  0.0000  0.0005  0.0000  0.0000  0.0000  0.0000  0.0000  0.0000  0.0001 </r>
        <r>  0.0000  0.0000  0.0000  0.0000  0.0000  0.0035  0.0879  0.0000  0.8854 </r>
       </set>
       <set comment="band 3">
        <r>  0.0000  0.0000  0.0000  0.0000  0.0000  0.0000  0.0000  0.0000  0.0000 </r>
        <r>  0.0000  0.0000  0.0000  0.0000  0.9771  0.0000  0.0000  0.0008  0.0000 </r>
       </set>
       <set comment="band 4">
        <r>  0.0000  0.0000  0.0000  0.0000  0.0000  0.0000  0.0000  0.0000  0.0000 </r>
        <r>  0.0000  0.0000  0.0000  0.0000  0.0000  0.9750  0.0000  0.0000  0.0039 </r>
       </set>
       <set comment="band 5">
        <r>  0.0000  0.0000  0.0000  0.0000  0.0000  0.0000  0.0000  0.0000  0.0000 </r>
        <r>  0.0000  0.0000  0.0000  0.0000  0.0008  0.0000  0.0000  0.9796  0.0000 </r>
       </set>
       <set comment="band 6">
        <r>  0.6646  0.0000  0.0001  0.0000  0.0000  0.0000  0.0001  0.0000  0.0000 </r>
        <r>  0.0092  0.0055  0.0004  0.0000  0.0000  0.0000  0.0127  0.0000  0.0016 </r>
       </set>
       <set comment="band 7">
        <r>  0.0120  0.0179  0.0011  0.0000  0.0000  0.0000  0.0027  0.0000  0.0004 </r>
        <r>  0.6525  0.0004  0.0001  0.0000  0.0000  0.0000  0.0000  0.0000  0.0004 </r>
       </set>
       <set comment="band 8">
        <r>  0.0008  0.0003  0.2380  0.0000  0.0000  0.0006  0.0002  0.0000  0.0000 </r>
        <r>  0.0030  0.0000  0.1237  0.0000  0.0000  0.0015  0.0004  0.0000  0.0000 </r>
       </set>
       <set comment="band 9">
        <r>  0.0000  0.0000  0.0000  0.2586  0.0009  0.0000  0.0000  0.0000  0.0000 </r>
        <r>  0.0000  0.0000  0.0000  0.1244  0.0021  0.0000  0.0000  0.0001  0.0000 </r>
       </set>
       <set comment="band 10">
        <r>  0.0063  0.3885  0.0000  0.0000  0.0000  0.0000  0.0018  0.0000  0.0004 </r>
        <r>  0.0609  0.0517  0.0001  0.0000  0.0000  0.0001  0.0035  0.0000  0.0078 </r>
       </set>
       <set comment="band 11">
        <r>  0.0371  0.0703  0.0003  0.0000  0.0000  0.0003  0.0035  0.0000  0.0168 </r>
        <r>  0.0095  0.3524  0.0000  0.0000  0.0000  0.0001  0.0002  0.0000  0.0038 </r>
       </set>
       <set comment="band 12">
        <r>  0.0000  0.0000  0.0000  0.1847  0.0536  0.0000  0.0000  0.0001  0.0000 </r>
        <r>  0.0000  0.0000  0.0000  0.0549  0.0234  0.0000  0.0000  0.0000  0.0000 </r>
       </set>
       <set comment="band 13">
        <r>  0.0013  0.0003  0.3266  0.0000  0.0000  0.0247  0.0018  0.0000  0.0002 </r>
        <r>  0.0020  0.0014  0.1857  0.0000  0.0000  0.0027  0.0011  0.0000  0.0000 </r>
       </set>
       <set comment="band 14">
        <r>  0.0000  0.0000  0.0000  0.1279  0.0174  0.0000  0.0000  0.0005  0.0000 </r>
        <r>  0.0000  0.0000  0.0000  0.3174  0.0272  0.0000  0.0000  0.0000  0.0000 </r>
       </set>
       <set comment="band 15">
        <r>  0.0016  0.0011  0.0162  0.0000  0.0000  0.0558  0.0020  0.0000  0.0001 </r>
        <r>  0.0010  0.0011  0.1835  0.0000  0.0000  0.0415  0.0005  0.0000  0.0000 </r>
       </set>
       <set comment="band 16">
        <r>  0.0273  0.0022  0.0014  0.0000  0.0000  0.0018  0.0375  0.0000  0.1522 </r>
        <r>  0.0586  0.0001  0.0037  0.0000  0.0000  0.0001  0.0079  0.0000  0.0609 </r>
       </set>
       <set comment="band 17">
        <r>  0.0363  0.0077  0.0179  0.0000  0.0000  0.0052  0.1440  0.0000  0.0282 </r>
        <r>  0.0308  0.0016  0.0014  0.0000  0.0000  0.0000  0.0632  0.0000  0.0030 </r>
       </set>
       <set comment="band 18">
        <r>  0.0000  0.0000  0.0000  0.0023  0.0034  0.0000  0.0000  0.2762  0.0000 </r>
        <r>  0.0000  0.0000  0.0000  0.0255  0.0001  0.0000  0.0000  0.0004  0.0000 </r>
       </set>
       <set comment="band 19">
        <r>  0.0001  0.0014  0.0082  0.0000  0.0000  0.0121  0.0323  0.0000  0.0094 </r>
        <r>  0.0159  0.0001  0.0734  0.0000  0.0000  0.0000  0.0036  0.0000  0.0047 </r>
       </set>
       <set comment="band 20">
        <r>  0.0000  0.0000  0.0000  0.0199  0.0102  0.0000  0.0000  0.0986  0.0000 </r>
        <r>  0.0000  0.0000  0.0000  0.0301  0.0002  0.0000  0.0000  0.0215  0.0000 </r>
       </set>
      </set>
      <set comment="kpoint 120">
       <set comment="band 1">
        <r>  0.0041  0.0000  0.0000  0.0000  0.0000  0.0000  0.0000  0.0000  0.0000 </r>
        <r>  0.0000  0.0000  0.0000  0.0000  0.0011  0.0000  0.7912  0.0000  0.1761 </r>
       </set>
       <set comment="band 2">
        <r>  0.0000  0.0005  0.0000  0.0000  0.0000  0.0000  0.0000  0.0000  0.0000 </r>
        <r>  0.0000  0.0000  0.0000  0.0000  0.0027  0.0000  0.1760  0.0000  0.7978 </r>
       </set>
       <set comment="band 3">
        <r>  0.0000  0.0000  0.0000  0.0000  0.0000  0.0000  0.0000  0.0000  0.0000 </r>
        <r>  0.0000  0.0000  0.0000  0.0000  0.9744  0.0000  0.0027  0.0000  0.0011 </r>
       </set>
       <set comment="band 4">
        <r>  0.0000  0.0000  0.0000  0.0000  0.0000  0.0000  0.0000  0.0000  0.0000 </r>
        <r>  0.0000  0.0000  0.0000  0.0000  0.0000  0.9768  0.0000  0.0018  0.0000 </r>
       </set>
       <set comment="band 5">
        <r>  0.0000  0.0000  0.0000  0.0000  0.0000  0.0000  0.0000  0.0000  0.0000 </r>
        <r>  0.0000  0.0000  0.0000  0.0000  0.0000  0.0018  0.0000  0.9785  0.0000 </r>
       </set>
       <set comment="band 6">
        <r>  0.6748  0.0000  0.0000  0.0000  0.0000  0.0000  0.0000  0.0000  0.0000 </r>
        <r>  0.0005  0.0062  0.0000  0.0003  0.0000  0.0000  0.0114  0.0000  0.0027 </r>
       </set>
       <set comment="band 7">
        <r>  0.0006  0.0190  0.0000  0.0011  0.0000  0.0000  0.0024  0.0000  0.0006 </r>
        <r>  0.6586  0.0000  0.0000  0.0001  0.0000  0.0000  0.0001  0.0000  0.0003 </r>
       </set>
       <set comment="band 8">
        <r>  0.0000  0.0000  0.2443  0.0000  0.0000  0.0008  0.0000  0.0000  0.0000 </r>
        <r>  0.0000  0.0000  0.1244  0.0000  0.0000  0.0019  0.0000  0.0001  0.0000 </r>
       </set>
       <set comment="band 9">
        <r>  0.0009  0.0003  0.0000  0.2504  0.0008  0.0000  0.0001  0.0000  0.0001 </r>
        <r>  0.0028  0.0000  0.0000  0.1236  0.0020  0.0000  0.0001  0.0000  0.0003 </r>
       </set>
       <set comment="band 10">
        <r>  0.0014  0.4407  0.0000  0.0000  0.0000  0.0000  0.0012  0.0000  0.0000 </r>
        <r>  0.0721  0.0106  0.0000  0.0000  0.0001  0.0000  0.0040  0.0000  0.0106 </r>
       </set>
       <set comment="band 11">
        <r>  0.0442  0.0147  0.0000  0.0001  0.0003  0.0000  0.0047  0.0000  0.0171 </r>
        <r>  0.0021  0.3904  0.0000  0.0000  0.0000  0.0000  0.0000  0.0000  0.0011 </r>
       </set>
       <set comment="band 12">
        <r>  0.0007  0.0003  0.0000  0.2527  0.0410  0.0000  0.0000  0.0000  0.0015 </r>
        <r>  0.0014  0.0018  0.0000  0.1112  0.0118  0.0000  0.0003  0.0000  0.0006 </r>
       </set>
       <set comment="band 13">
        <r>  0.0000  0.0000  0.2898  0.0000  0.0000  0.0366  0.0000  0.0003  0.0000 </r>
        <r>  0.0000  0.0000  0.1336  0.0000  0.0000  0.0079  0.0000  0.0000  0.0000 </r>
       </set>
       <set comment="band 14">
        <r>  0.0024  0.0006  0.0000  0.0633  0.0323  0.0000  0.0007  0.0000  0.0015 </r>
        <r>  0.0014  0.0007  0.0000  0.2544  0.0369  0.0000  0.0001  0.0000  0.0007 </r>
       </set>
       <set comment="band 15">
        <r>  0.0000  0.0000  0.0498  0.0000  0.0000  0.0403  0.0000  0.0003  0.0000 </r>
        <r>  0.0000  0.0000  0.2417  0.0000  0.0000  0.0393  0.0000  0.0000  0.0000 </r>
       </set>
       <set comment="band 16">
        <r>  0.0057  0.0079  0.0000  0.0063  0.0020  0.0000  0.1906  0.0000  0.0158 </r>
        <r>  0.0890  0.0003  0.0000  0.0004  0.0001  0.0000  0.0299  0.0000  0.0133 </r>
       </set>
       <set comment="band 17">
        <r>  0.0613  0.0003  0.0000  0.0085  0.0002  0.0000  0.0053  0.0000  0.1664 </r>
        <r>  0.0077  0.0016  0.0000  0.0098  0.0000  0.0000  0.0535  0.0000  0.0451 </r>
       </set>
       <set comment="band 18">
        <r>  0.0000  0.0000  0.0038  0.0000  0.0000  0.0063  0.0000  0.2066  0.0000 </r>
        <r>  0.0000  0.0000  0.0373  0.0000  0.0000  0.0001  0.0000  0.0051  0.0000 </r>
       </set>
       <set comment="band 19">
        <r>  0.0004  0.0007  0.0000  0.0162  0.0139  0.0000  0.0236  0.0000  0.0009 </r>
        <r>  0.0082  0.0000  0.0000  0.0623  0.0001  0.0000  0.0025  0.0000  0.0021 </r>
       </set>
       <set comment="band 20">
        <r>  0.0000  0.0000  0.0157  0.0000  0.0000  0.0104  0.0000  0.1740  0.0000 </r>
        <r>  0.0000  0.0000  0.0234  0.0000  0.0000  0.0000  0.0000  0.0078  0.0000 </r>
       </set>
      </set>
     </set>
    </set>
   </array>
  </projected>
 </calculation>
 <structure name="finalpos" >
  <crystal>
   <varray name="basis" >
    <v>       0.00000000       3.28312200       3.28312200 </v>
    <v>       3.28312200       0.00000000       3.28312200 </v>
    <v>       3.28312200       3.28312200       0.00000000 </v>
   </varray>
   <i name="volume">     70.77682223 </i>
   <varray name="rec_basis" >
    <v>      -0.15229407       0.15229407       0.15229407 </v>
    <v>       0.15229407      -0.15229407       0.15229407 </v>
    <v>       0.15229407       0.15229407      -0.15229407 </v>
   </varray>
  </crystal>
  <varray name="positions" >
   <v>       0.00000000       0.00000000       0.00000000 </v>
   <v>       0.50000000       0.50000000       0.50000000 </v>
  </varray>
 </structure>
</modeling>
