Li24 P4 S20 Cl4
 1.00
 10.09294967 0.27303397 -0.27303397
 0.27303397 10.09294967 -0.27303397
 -0.27303397 -0.27303397 10.09294967
 Cl Li P S
 4 24 4 20
direct
 0.07441965  0.79533310  0.01295762
 0.29817470  0.11020455  0.58254177
 0.68241203  0.96115223  0.61744636
 0.93314737  0.19413166  0.11311087
 0.33989126  0.85837223  0.43126850
 0.20251847  0.47413810  0.70771307
 0.78520792  0.66569904  0.52814997
 0.77651134  0.43243646  0.14717034
 0.04671881  0.72590079  0.28388941
 0.02032080  0.29712271  0.56270488
 0.98686209  0.78253972  0.68638556
 0.72610976  0.02222830  0.29318859
 0.29460274  0.53314707  0.28973027
 0.08941871  0.04921323  0.80511570
 0.75548909  0.55796754  0.83541902
 0.74236607  0.33137750  0.43308889
 0.43002770  0.69310733  0.07400760
 0.23284771  0.28794929  0.94942054
 0.56769971  0.74951737  0.81699497
 0.49416620  0.21152421  0.30755286
 0.20327521  0.97297984  0.17932756
 0.44557076  0.26521659  0.74055097
 0.76994501  0.94526001  0.93697952
 0.66132906  0.28741811  0.99741712
 0.46313049  0.00314095  0.99685015
 0.52283273  0.48852473  0.55086318
 0.01100686  0.98790771  0.48010672
 0.02571697  0.49444369  0.00986663
 0.25395085  0.75501051  0.24878170
 0.20618663  0.24819049  0.73007672
 0.77524029  0.78144137  0.76028585
 0.71228244  0.22492988  0.20898619
 0.06966259  0.13627264  0.35682996
 0.13706671  0.60975511  0.88470375
 0.58412684  0.09616368  0.86817188
 0.62048087  0.56170530  0.36872444
 0.36627256  0.13940112  0.11632865
 0.43153768  0.64502313  0.65237479
 0.87228409  0.09180459  0.59912706
 0.91895520  0.62889967  0.12782268
 0.17721735  0.90304360  0.58968267
 0.15126912  0.40178167  0.14204583
 0.62104651  0.88601749  0.08406663
 0.68896450  0.41017151  0.66231698
 0.33933290  0.87812072  0.90616800
 0.37709530  0.38077959  0.46205909
 0.88206635  0.86306510  0.36207741
 0.90018840  0.36289410  0.90731810
 0.55629889  0.49300519  0.98495783
 0.50649896  0.01189897  0.44281250
 0.03103795  0.54962427  0.56726004
 0.98739308  0.01475096  0.97882934

 21 21 21
 0.0000000000e+00  0.0000000000e+00  0.0000000000e+00  0.0000000000e+00  0.0000000000e+00
 0.0000000000e+00  0.0000000000e+00  0.0000000000e+00  0.0000000000e+00  0.0000000000e+00
 0.0000000000e+00  0.0000000000e+00  0.0000000000e+00  0.0000000000e+00  0.0000000000e+00
 0.0000000000e+00  0.0000000000e+00  0.0000000000e+00  0.0000000000e+00  0.0000000000e+00
 0.0000000000e+00  0.0000000000e+00  0.0000000000e+00  0.0000000000e+00  0.0000000000e+00
 0.0000000000e+00  0.0000000000e+00  0.0000000000e+00  0.0000000000e+00  0.0000000000e+00
 0.0000000000e+00  0.0000000000e+00  0.0000000000e+00  0.0000000000e+00  0.0000000000e+00
 0.0000000000e+00  0.0000000000e+00  5.2080272231e-01  0.0000000000e+00  0.0000000000e+00
 0.0000000000e+00  0.0000000000e+00  0.0000000000e+00  0.0000000000e+00  0.0000000000e+00
 0.0000000000e+00  1.0416054446e+00  0.0000000000e+00  0.0000000000e+00  0.0000000000e+00
 0.0000000000e+00  0.0000000000e+00  0.0000000000e+00  0.0000000000e+00  0.0000000000e+00
 0.0000000000e+00  0.0000000000e+00  1.0416054446e+00  5.2080272231e+00  2.0832108892e+00
 0.0000000000e+00  0.0000000000e+00  0.0000000000e+00  0.0000000000e+00  0.0000000000e+00
 0.0000000000e+00  0.0000000000e+00  5.2080272231e+00  2.0832108892e+00  0.0000000000e+00
 0.0000000000e+00  0.0000000000e+00  0.0000000000e+00  0.0000000000e+00  0.0000000000e+00
 0.0000000000e+00  0.0000000000e+00  0.0000000000e+00  5.2080272231e-01  2.4998530671e+01
 2.8644149727e+01  2.0832108892e+00  0.0000000000e+00  0.0000000000e+00  0.0000000000e+00
 0.0000000000e+00  5.2080272231e-01  2.6040136115e+00  1.3540870780e+01  1.4061673502e+01
 5.2080272231e-01  0.0000000000e+00  0.0000000000e+00  0.0000000000e+00  0.0000000000e+00
 0.0000000000e+00  0.0000000000e+00  0.0000000000e+00  1.5624081669e+00  1.7707292558e+01
 8.3328435569e+01  7.2912381123e+01  1.6144884391e+01  1.0416054446e+00  5.2080272231e-01
 0.0000000000e+00  0.0000000000e+00  0.0000000000e+00  1.5624081669e+00  6.2496326677e+00
 2.8123347005e+01  1.8228095281e+01  5.7288299454e+00  2.6040136115e+00  5.2080272231e-01
 0.0000000000e+00  5.2080272231e-01  2.0832108892e+00  6.2496326677e+00  1.5103278947e+01
 6.8225156622e+01  8.0203619235e+01  3.0727360616e+01  1.4061673502e+01  1.5624081669e+00
 0.0000000000e+00  0.0000000000e+00  0.0000000000e+00  0.0000000000e+00  0.0000000000e+00
 2.0832108892e+00  6.7704353900e+00  3.9581006895e+01  2.6040136115e+01  3.6456190561e+00
 0.0000000000e+00  5.2080272231e-01  1.0416054446e+00  4.1664217784e+00  1.7707292558e+01
 8.7494857347e+01  8.7494857347e+01  2.6040136115e+01  3.6456190561e+00  0.0000000000e+00
 0.0000000000e+00  0.0000000000e+00  0.0000000000e+00  0.0000000000e+00  0.0000000000e+00
 0.0000000000e+00  0.0000000000e+00  3.1248163338e+00  2.7081741560e+01  1.5103278947e+01
 2.6040136115e+00  0.0000000000e+00  0.0000000000e+00  0.0000000000e+00  1.5624081669e+00
 1.3540870780e+01  5.9892313065e+01  2.6560938838e+01  4.6872245008e+00  0.0000000000e+00
 0.0000000000e+00  0.0000000000e+00  0.0000000000e+00  0.0000000000e+00  0.0000000000e+00
 0.0000000000e+00  0.0000000000e+00  0.0000000000e+00  1.5624081669e+00  5.2080272231e+00
 1.0416054446e+00  0.0000000000e+00  0.0000000000e+00  0.0000000000e+00  0.0000000000e+00
 0.0000000000e+00  1.0416054446e+00  6.7704353900e+00  6.7704353900e+00  1.0416054446e+00
 0.0000000000e+00  0.0000000000e+00  0.0000000000e+00  0.0000000000e+00  0.0000000000e+00
 0.0000000000e+00  0.0000000000e+00  0.0000000000e+00  0.0000000000e+00  0.0000000000e+00
 5.2080272231e-01  0.0000000000e+00  0.0000000000e+00  0.0000000000e+00  0.0000000000e+00
 0.0000000000e+00  0.0000000000e+00  0.0000000000e+00  5.2080272231e-01  1.5624081669e+00
 0.0000000000e+00  0.0000000000e+00  0.0000000000e+00  0.0000000000e+00  0.0000000000e+00
 0.0000000000e+00  0.0000000000e+00  0.0000000000e+00  0.0000000000e+00  0.0000000000e+00
 0.0000000000e+00  5.2080272231e-01  0.0000000000e+00  0.0000000000e+00  0.0000000000e+00
 0.0000000000e+00  0.0000000000e+00  0.0000000000e+00  0.0000000000e+00  0.0000000000e+00
 0.0000000000e+00  0.0000000000e+00  0.0000000000e+00  0.0000000000e+00  0.0000000000e+00
 0.0000000000e+00  0.0000000000e+00  0.0000000000e+00  0.0000000000e+00  0.0000000000e+00
 0.0000000000e+00  5.2080272231e-01  5.2080272231e-01  5.2080272231e-01  0.0000000000e+00
 0.0000000000e+00  0.0000000000e+00  0.0000000000e+00  0.0000000000e+00  0.0000000000e+00
 0.0000000000e+00  0.0000000000e+00  0.0000000000e+00  0.0000000000e+00  0.0000000000e+00
 0.0000000000e+00  0.0000000000e+00  0.0000000000e+00  0.0000000000e+00  0.0000000000e+00
 0.0000000000e+00  0.0000000000e+00  5.2080272231e-01  2.0832108892e+00  2.0832108892e+00
 0.0000000000e+00  0.0000000000e+00  0.0000000000e+00  0.0000000000e+00  0.0000000000e+00
 0.0000000000e+00  2.0832108892e+00  5.2080272231e-01  0.0000000000e+00  0.0000000000e+00
 0.0000000000e+00  0.0000000000e+00  0.0000000000e+00  0.0000000000e+00  0.0000000000e+00
 0.0000000000e+00  0.0000000000e+00  0.0000000000e+00  5.2080272231e+00  2.4998530671e+01
 2.1352911615e+01  2.6040136115e+00  0.0000000000e+00  0.0000000000e+00  0.0000000000e+00
 0.0000000000e+00  5.2080272231e-01  5.2080272231e+00  2.6040136115e+00  0.0000000000e+00
 0.0000000000e+00  0.0000000000e+00  0.0000000000e+00  0.0000000000e+00  0.0000000000e+00
 0.0000000000e+00  0.0000000000e+00  0.0000000000e+00  0.0000000000e+00  1.6665687114e+01
 9.7390109071e+01  8.9578068237e+01  1.5624081669e+01  5.2080272231e-01  1.5624081669e+00
 0.0000000000e+00  0.0000000000e+00  5.7288299454e+00  1.6144884391e+01  9.8952517238e+00
 1.0416054446e+00  0.0000000000e+00  0.0000000000e+00  0.0000000000e+00  0.0000000000e+00
 0.0000000000e+00  5.2080272231e-01  0.0000000000e+00  2.0832108892e+00  1.6144884391e+01
 6.9266762067e+01  7.4995592012e+01  2.9685755171e+01  6.7704353900e+00  1.5624081669e+00
 0.0000000000e+00  0.0000000000e+00  0.0000000000e+00  1.0416054446e+00  8.3328435569e+00
 2.3436122504e+01  1.7707292558e+01  4.6872245008e+00  5.2080272231e-01  0.0000000000e+00
 0.0000000000e+00  5.2080272231e-01  2.6040136115e+00  3.1248163338e+00  2.6040136115e+01
 8.3849238291e+01  8.2286830124e+01  1.5624081669e+01  1.0416054446e+00  0.0000000000e+00
 0.0000000000e+00  0.0000000000e+00  0.0000000000e+00  0.0000000000e+00  0.0000000000e+00
 0.0000000000e+00  1.5103278947e+01  4.5830639563e+01  3.1248163338e+01  4.1664217784e+00
 1.5624081669e+00  0.0000000000e+00  0.0000000000e+00  0.0000000000e+00  2.6040136115e+00
 2.1352911615e+01  7.8641211068e+01  3.6456190561e+01  1.0416054446e+00  0.0000000000e+00
 0.0000000000e+00  0.0000000000e+00  0.0000000000e+00  0.0000000000e+00  0.0000000000e+00
 0.0000000000e+00  0.0000000000e+00  5.2080272231e-01  2.0832108892e+01  1.9269700725e+01
 1.5624081669e+00  5.2080272231e-01  0.0000000000e+00  0.0000000000e+00  0.0000000000e+00
 0.0000000000e+00  3.1248163338e+00  1.9790503448e+01  8.8536462792e+00  0.0000000000e+00
 0.0000000000e+00  0.0000000000e+00  0.0000000000e+00  0.0000000000e+00  0.0000000000e+00
 0.0000000000e+00  0.0000000000e+00  0.0000000000e+00  0.0000000000e+00  2.0832108892e+00
 2.6040136115e+00  0.0000000000e+00  0.0000000000e+00  0.0000000000e+00  0.0000000000e+00
 0.0000000000e+00  0.0000000000e+00  0.0000000000e+00  4.6872245008e+00  5.2080272231e-01
 0.0000000000e+00  0.0000000000e+00  0.0000000000e+00  0.0000000000e+00  0.0000000000e+00
 0.0000000000e+00  0.0000000000e+00  0.0000000000e+00  0.0000000000e+00  0.0000000000e+00
 1.0416054446e+00  5.2080272231e-01  0.0000000000e+00  0.0000000000e+00  0.0000000000e+00
 0.0000000000e+00  0.0000000000e+00  0.0000000000e+00  0.0000000000e+00  0.0000000000e+00
 0.0000000000e+00  0.0000000000e+00  0.0000000000e+00  0.0000000000e+00  0.0000000000e+00
 0.0000000000e+00  0.0000000000e+00  0.0000000000e+00  0.0000000000e+00  0.0000000000e+00
 0.0000000000e+00  0.0000000000e+00  0.0000000000e+00  0.0000000000e+00  0.0000000000e+00
 0.0000000000e+00  0.0000000000e+00  0.0000000000e+00  0.0000000000e+00  0.0000000000e+00
 0.0000000000e+00  0.0000000000e+00  0.0000000000e+00  0.0000000000e+00  0.0000000000e+00
 0.0000000000e+00  0.0000000000e+00  0.0000000000e+00  0.0000000000e+00  0.0000000000e+00
 0.0000000000e+00  0.0000000000e+00  1.0416054446e+00  0.0000000000e+00  0.0000000000e+00
 0.0000000000e+00  0.0000000000e+00  0.0000000000e+00  0.0000000000e+00  0.0000000000e+00
 0.0000000000e+00  0.0000000000e+00  0.0000000000e+00  0.0000000000e+00  0.0000000000e+00
 0.0000000000e+00  0.0000000000e+00  0.0000000000e+00  0.0000000000e+00  0.0000000000e+00
 0.0000000000e+00  0.0000000000e+00  1.5624081669e+00  8.3328435569e+00  5.2080272231e-01
 0.0000000000e+00  0.0000000000e+00  0.0000000000e+00  0.0000000000e+00  0.0000000000e+00
 0.0000000000e+00  0.0000000000e+00  0.0000000000e+00  0.0000000000e+00  0.0000000000e+00
 0.0000000000e+00  0.0000000000e+00  0.0000000000e+00  0.0000000000e+00  0.0000000000e+00
 0.0000000000e+00  0.0000000000e+00  0.0000000000e+00  8.8536462792e+00  1.8228095281e+01
 1.0936857168e+01  5.2080272231e-01  0.0000000000e+00  0.0000000000e+00  0.0000000000e+00
 0.0000000000e+00  0.0000000000e+00  0.0000000000e+00  1.0416054446e+00  5.2080272231e-01
 0.0000000000e+00  0.0000000000e+00  0.0000000000e+00  0.0000000000e+00  0.0000000000e+00
 0.0000000000e+00  0.0000000000e+00  1.0416054446e+00  5.2080272231e-01  8.3328435569e+00
 4.4789034118e+01  3.0206557894e+01  6.2496326677e+00  1.5624081669e+00  0.0000000000e+00
 5.2080272231e-01  0.0000000000e+00  5.2080272231e-01  5.2080272231e-01  2.0832108892e+00
 5.2080272231e-01  5.2080272231e-01  0.0000000000e+00  0.0000000000e+00  0.0000000000e+00
 0.0000000000e+00  0.0000000000e+00  5.2080272231e-01  1.5624081669e+00  4.1664217784e+00
 1.8228095281e+01  5.6767496731e+01  8.5411646458e+01  5.2080272231e+01  3.4893782395e+01
 1.5624081669e+00  0.0000000000e+00  0.0000000000e+00  0.0000000000e+00  0.0000000000e+00
 5.2080272231e-01  2.6040136115e+00  1.5624081669e+00  1.0416054446e+00  0.0000000000e+00
 0.0000000000e+00  0.0000000000e+00  4.1664217784e+00  2.1873714337e+01  1.7186489836e+01
 7.2912381123e+00  3.1768966061e+01  5.8329904898e+01  6.6141945733e+01  3.9060204173e+01
 3.4893782395e+01  2.6040136115e+00  0.0000000000e+00  0.0000000000e+00  0.0000000000e+00
 0.0000000000e+00  0.0000000000e+00  2.0832108892e+00  3.1248163338e+00  3.6456190561e+00
 0.0000000000e+00  5.2080272231e-01  5.2080272231e-01  4.1664217784e+00  2.5519333393e+01
 2.8123347005e+01  7.3953986567e+01  7.4995592012e+01  2.8123347005e+01  6.7704353900e+00
 7.8120408346e+00  2.0832108892e+00  0.0000000000e+00  0.0000000000e+00  0.0000000000e+00
 0.0000000000e+00  0.0000000000e+00  0.0000000000e+00  5.2080272231e-01  3.1248163338e+00
 6.2496326677e+00  5.2080272231e-01  0.0000000000e+00  5.2080272231e-01  0.0000000000e+00
 2.6040136115e+00  2.4998530671e+01  8.4370041014e+01  5.8329904898e+01  1.2499265335e+01
 1.0416054446e+00  0.0000000000e+00  0.0000000000e+00  0.0000000000e+00  0.0000000000e+00
 0.0000000000e+00  0.0000000000e+00  0.0000000000e+00  0.0000000000e+00  0.0000000000e+00
 0.0000000000e+00  0.0000000000e+00  0.0000000000e+00  0.0000000000e+00  0.0000000000e+00
 0.0000000000e+00  5.2080272231e-01  3.1248163338e+00  3.9581006895e+01  6.2496326677e+01
 1.4582476225e+01  0.0000000000e+00  0.0000000000e+00  0.0000000000e+00  0.0000000000e+00
 0.0000000000e+00  0.0000000000e+00  0.0000000000e+00  0.0000000000e+00  0.0000000000e+00
 0.0000000000e+00  0.0000000000e+00  0.0000000000e+00  0.0000000000e+00  0.0000000000e+00
 0.0000000000e+00  0.0000000000e+00  0.0000000000e+00  5.2080272231e-01  1.3020068058e+01
 3.1768966061e+01  2.6040136115e+00  0.0000000000e+00  0.0000000000e+00  0.0000000000e+00
 0.0000000000e+00  0.0000000000e+00  0.0000000000e+00  0.0000000000e+00  0.0000000000e+00
 0.0000000000e+00  0.0000000000e+00  5.2080272231e-01  0.0000000000e+00  0.0000000000e+00
 0.0000000000e+00  0.0000000000e+00  0.0000000000e+00  0.0000000000e+00  0.0000000000e+00
 0.0000000000e+00  0.0000000000e+00  0.0000000000e+00  0.0000000000e+00  0.0000000000e+00
 0.0000000000e+00  0.0000000000e+00  0.0000000000e+00  0.0000000000e+00  0.0000000000e+00
 0.0000000000e+00  0.0000000000e+00  5.2080272231e+00  1.3540870780e+01  1.0416054446e+00
 0.0000000000e+00  0.0000000000e+00  0.0000000000e+00  0.0000000000e+00  0.0000000000e+00
 0.0000000000e+00  0.0000000000e+00  0.0000000000e+00  0.0000000000e+00  0.0000000000e+00
 0.0000000000e+00  0.0000000000e+00  0.0000000000e+00  0.0000000000e+00  0.0000000000e+00
 0.0000000000e+00  0.0000000000e+00  0.0000000000e+00  1.1457659891e+01  3.4372979672e+01
 4.1664217784e+00  0.0000000000e+00  0.0000000000e+00  0.0000000000e+00  0.0000000000e+00
 0.0000000000e+00  0.0000000000e+00  0.0000000000e+00  0.0000000000e+00  0.0000000000e+00
 0.0000000000e+00  0.0000000000e+00  0.0000000000e+00  0.0000000000e+00  0.0000000000e+00
 0.0000000000e+00  0.0000000000e+00  0.0000000000e+00  1.0416054446e+00  8.3328435569e+00
 3.7497796006e+01  3.8018598728e+01  5.7288299454e+00  0.0000000000e+00  0.0000000000e+00
 0.0000000000e+00  0.0000000000e+00  0.0000000000e+00  1.0416054446e+00  0.0000000000e+00
 0.0000000000e+00  0.0000000000e+00  0.0000000000e+00  0.0000000000e+00  0.0000000000e+00
 0.0000000000e+00  5.2080272231e-01  1.0416054446e+00  0.0000000000e+00  0.0000000000e+00
 1.2499265335e+01  7.1870775678e+01  9.9473319960e+01  4.1664217784e+01  1.7186489836e+01
 6.7704353900e+00  0.0000000000e+00  0.0000000000e+00  0.0000000000e+00  2.6040136115e+00
 0.0000000000e+00  5.2080272231e-01  0.0000000000e+00  0.0000000000e+00  0.0000000000e+00
 0.0000000000e+00  5.2080272231e-01  6.2496326677e+00  1.1457659891e+01  6.2496326677e+00
 5.2080272231e+00  1.9790503448e+01  3.1248163338e+01  5.1038666786e+01  4.4789034118e+01
 2.1352911615e+01  3.1248163338e+00  0.0000000000e+00  0.0000000000e+00  0.0000000000e+00
 0.0000000000e+00  1.0416054446e+00  1.0416054446e+00  1.0416054446e+00  0.0000000000e+00
 0.0000000000e+00  0.0000000000e+00  2.6040136115e+00  1.8748898003e+01  3.7497796006e+01
 3.6456190561e+01  6.2496326677e+01  4.5830639563e+01  1.8748898003e+01  1.0416054446e+01
 8.8536462792e+00  2.0832108892e+00  0.0000000000e+00  0.0000000000e+00  0.0000000000e+00
 0.0000000000e+00  0.0000000000e+00  5.2080272231e-01  6.2496326677e+00  2.6040136115e+00
 1.0416054446e+00  0.0000000000e+00  0.0000000000e+00  0.0000000000e+00  3.6456190561e+00
 1.3540870780e+01  4.0101809618e+01  1.1926382341e+02  6.6141945733e+01  8.8536462792e+00
 1.5624081669e+00  0.0000000000e+00  0.0000000000e+00  0.0000000000e+00  0.0000000000e+00
 0.0000000000e+00  0.0000000000e+00  0.0000000000e+00  0.0000000000e+00  1.0416054446e+00
 1.5624081669e+00  3.6456190561e+00  1.0416054446e+00  0.0000000000e+00  0.0000000000e+00
 0.0000000000e+00  0.0000000000e+00  6.7704353900e+00  4.4268231396e+01  4.8955455897e+01
 5.7288299454e+00  0.0000000000e+00  0.0000000000e+00  0.0000000000e+00  0.0000000000e+00
 0.0000000000e+00  0.0000000000e+00  0.0000000000e+00  0.0000000000e+00  0.0000000000e+00
 0.0000000000e+00  1.0416054446e+00  0.0000000000e+00  0.0000000000e+00  0.0000000000e+00
 0.0000000000e+00  0.0000000000e+00  0.0000000000e+00  5.2080272231e-01  1.9790503448e+01
 2.9164952449e+01  0.0000000000e+00  0.0000000000e+00  0.0000000000e+00  0.0000000000e+00
 0.0000000000e+00  0.0000000000e+00  0.0000000000e+00  0.0000000000e+00  0.0000000000e+00
 0.0000000000e+00  0.0000000000e+00  0.0000000000e+00  1.0416054446e+00  0.0000000000e+00
 0.0000000000e+00  0.0000000000e+00  0.0000000000e+00  0.0000000000e+00  0.0000000000e+00
 5.2080272231e-01  2.6040136115e+00  0.0000000000e+00  0.0000000000e+00  0.0000000000e+00
 0.0000000000e+00  0.0000000000e+00  0.0000000000e+00  0.0000000000e+00  0.0000000000e+00
 0.0000000000e+00  0.0000000000e+00  1.0416054446e+00  0.0000000000e+00  0.0000000000e+00
 0.0000000000e+00  0.0000000000e+00  0.0000000000e+00  0.0000000000e+00  0.0000000000e+00
 5.2080272231e-01  2.6040136115e+00  1.5624081669e+00  0.0000000000e+00  0.0000000000e+00
 0.0000000000e+00  0.0000000000e+00  0.0000000000e+00  0.0000000000e+00  0.0000000000e+00
 0.0000000000e+00  0.0000000000e+00  1.5624081669e+00  4.1664217784e+00  3.6456190561e+00
 0.0000000000e+00  0.0000000000e+00  0.0000000000e+00  0.0000000000e+00  0.0000000000e+00
 0.0000000000e+00  0.0000000000e+00  1.5624081669e+00  0.0000000000e+00  0.0000000000e+00
 0.0000000000e+00  0.0000000000e+00  0.0000000000e+00  0.0000000000e+00  0.0000000000e+00
 0.0000000000e+00  0.0000000000e+00  5.2080272231e-01  8.8536462792e+00  3.1768966061e+01
 9.3744490015e+00  5.2080272231e-01  0.0000000000e+00  0.0000000000e+00  0.0000000000e+00
 0.0000000000e+00  0.0000000000e+00  1.5624081669e+00  0.0000000000e+00  0.0000000000e+00
 0.0000000000e+00  0.0000000000e+00  0.0000000000e+00  0.0000000000e+00  0.0000000000e+00
 0.0000000000e+00  0.0000000000e+00  0.0000000000e+00  1.5624081669e+00  2.5519333393e+01
 2.9164952449e+01  1.3020068058e+01  2.6040136115e+00  0.0000000000e+00  0.0000000000e+00
 5.2080272231e-01  5.2080272231e-01  1.5624081669e+00  0.0000000000e+00  0.0000000000e+00
 0.0000000000e+00  0.0000000000e+00  0.0000000000e+00  0.0000000000e+00  0.0000000000e+00
 0.0000000000e+00  0.0000000000e+00  0.0000000000e+00  1.0416054446e+00  0.0000000000e+00
 1.5624081669e+00  9.8952517238e+00  9.8952517238e+00  3.1248163338e+00  6.2496326677e+00
 1.0416054446e+00  7.2912381123e+00  0.0000000000e+00  0.0000000000e+00  0.0000000000e+00
 0.0000000000e+00  0.0000000000e+00  0.0000000000e+00  0.0000000000e+00  0.0000000000e+00
 0.0000000000e+00  0.0000000000e+00  5.2080272231e-01  3.1248163338e+00  5.2080272231e-01
 0.0000000000e+00  0.0000000000e+00  1.5624081669e+00  1.5624081669e+00  1.5103278947e+01
 4.3226625951e+01  1.6144884391e+01  5.2080272231e-01  0.0000000000e+00  0.0000000000e+00
 0.0000000000e+00  0.0000000000e+00  0.0000000000e+00  0.0000000000e+00  0.0000000000e+00
 0.0000000000e+00  0.0000000000e+00  5.2080272231e-01  2.1352911615e+01  2.7081741560e+01
 3.6456190561e+00  5.2080272231e-01  0.0000000000e+00  5.2080272231e-01  1.0416054446e+00
 1.1978462613e+01  5.7809102176e+01  1.4061673502e+01  0.0000000000e+00  0.0000000000e+00
 0.0000000000e+00  0.0000000000e+00  0.0000000000e+00  0.0000000000e+00  0.0000000000e+00
 5.2080272231e-01  5.2080272231e-01  0.0000000000e+00  3.1248163338e+00  2.1352911615e+01
 4.2185020507e+01  1.0416054446e+01  5.2080272231e-01  5.2080272231e-01  5.2080272231e-01
 3.6456190561e+00  3.6456190561e+00  3.6456190561e+00  5.2080272231e-01  0.0000000000e+00
 0.0000000000e+00  0.0000000000e+00  0.0000000000e+00  0.0000000000e+00  0.0000000000e+00
 0.0000000000e+00  0.0000000000e+00  5.2080272231e-01  5.2080272231e-01  0.0000000000e+00
 3.6456190561e+00  7.8120408346e+00  8.3328435569e+00  4.6872245008e+00  4.1664217784e+00
 1.5624081669e+00  1.0416054446e+00  0.0000000000e+00  0.0000000000e+00  0.0000000000e+00
 0.0000000000e+00  0.0000000000e+00  0.0000000000e+00  0.0000000000e+00  0.0000000000e+00
 0.0000000000e+00  0.0000000000e+00  0.0000000000e+00  0.0000000000e+00  0.0000000000e+00
 0.0000000000e+00  0.0000000000e+00  5.2080272231e-01  2.6040136115e+00  1.7186489836e+01
 3.1768966061e+01  4.1664217784e+00  0.0000000000e+00  0.0000000000e+00  0.0000000000e+00
 0.0000000000e+00  0.0000000000e+00  0.0000000000e+00  0.0000000000e+00  0.0000000000e+00
 0.0000000000e+00  0.0000000000e+00  0.0000000000e+00  0.0000000000e+00  0.0000000000e+00
 0.0000000000e+00  0.0000000000e+00  0.0000000000e+00  0.0000000000e+00  5.7288299454e+00
 3.3331374228e+01  5.7809102176e+01  9.8952517238e+00  0.0000000000e+00  0.0000000000e+00
 0.0000000000e+00  0.0000000000e+00  0.0000000000e+00  0.0000000000e+00  0.0000000000e+00
 0.0000000000e+00  0.0000000000e+00  5.2080272231e-01  8.8536462792e+00  2.6040136115e+00
 0.0000000000e+00  0.0000000000e+00  0.0000000000e+00  0.0000000000e+00  0.0000000000e+00
 0.0000000000e+00  1.0936857168e+01  1.4582476225e+01  1.0416054446e+00  0.0000000000e+00
 0.0000000000e+00  0.0000000000e+00  0.0000000000e+00  0.0000000000e+00  0.0000000000e+00
 0.0000000000e+00  0.0000000000e+00  1.0416054446e+00  1.4582476225e+01  4.5830639563e+01
 4.1664217784e+00  0.0000000000e+00  0.0000000000e+00  0.0000000000e+00  0.0000000000e+00
 0.0000000000e+00  0.0000000000e+00  5.2080272231e-01  0.0000000000e+00  0.0000000000e+00
 0.0000000000e+00  0.0000000000e+00  0.0000000000e+00  0.0000000000e+00  0.0000000000e+00
 0.0000000000e+00  0.0000000000e+00  0.0000000000e+00  2.0832108892e+00  1.8228095281e+01
 4.2705823229e+01  1.4061673502e+01  0.0000000000e+00  0.0000000000e+00  0.0000000000e+00
 0.0000000000e+00  0.0000000000e+00  0.0000000000e+00  0.0000000000e+00  0.0000000000e+00
 0.0000000000e+00  0.0000000000e+00  0.0000000000e+00  0.0000000000e+00  0.0000000000e+00
 0.0000000000e+00  0.0000000000e+00  0.0000000000e+00  0.0000000000e+00  0.0000000000e+00
 2.6040136115e+00  6.7704353900e+00  9.8952517238e+00  2.0832108892e+00  6.7704353900e+00
 1.5624081669e+00  1.0416054446e+00  0.0000000000e+00  0.0000000000e+00  0.0000000000e+00
 0.0000000000e+00  0.0000000000e+00  0.0000000000e+00  0.0000000000e+00  0.0000000000e+00
 0.0000000000e+00  0.0000000000e+00  0.0000000000e+00  2.0832108892e+00  0.0000000000e+00
 0.0000000000e+00  5.2080272231e-01  5.2080272231e-01  5.2080272231e+00  9.8952517238e+00
 3.5935387839e+01  1.0416054446e+01  3.1248163338e+00  0.0000000000e+00  0.0000000000e+00
 0.0000000000e+00  0.0000000000e+00  0.0000000000e+00  0.0000000000e+00  0.0000000000e+00
 0.0000000000e+00  0.0000000000e+00  1.0416054446e+00  1.8228095281e+01  1.6665687114e+01
 0.0000000000e+00  0.0000000000e+00  0.0000000000e+00  0.0000000000e+00  0.0000000000e+00
 1.7707292558e+01  5.8329904898e+01  1.1978462613e+01  0.0000000000e+00  0.0000000000e+00
 0.0000000000e+00  0.0000000000e+00  0.0000000000e+00  0.0000000000e+00  0.0000000000e+00
 0.0000000000e+00  0.0000000000e+00  0.0000000000e+00  4.1664217784e+00  3.8539401451e+01
 4.3226625951e+01  1.5624081669e+00  1.0416054446e+00  0.0000000000e+00  1.0416054446e+00
 1.0416054446e+00  8.3328435569e+00  9.3744490015e+00  0.0000000000e+00  0.0000000000e+00
 0.0000000000e+00  0.0000000000e+00  0.0000000000e+00  0.0000000000e+00  5.2080272231e-01
 0.0000000000e+00  0.0000000000e+00  0.0000000000e+00  0.0000000000e+00  5.2080272231e-01
 1.7707292558e+01  1.9790503448e+01  8.8536462792e+00  8.8536462792e+00  3.1248163338e+00
 0.0000000000e+00  3.6456190561e+00  0.0000000000e+00  0.0000000000e+00  0.0000000000e+00
 0.0000000000e+00  0.0000000000e+00  0.0000000000e+00  0.0000000000e+00  0.0000000000e+00
 0.0000000000e+00  0.0000000000e+00  0.0000000000e+00  0.0000000000e+00  5.2080272231e-01
 0.0000000000e+00  1.5624081669e+00  5.2080272231e-01  6.7704353900e+00  1.5624081669e+01
 2.2915319781e+01  7.2912381123e+00  5.2080272231e-01  0.0000000000e+00  0.0000000000e+00
 0.0000000000e+00  0.0000000000e+00  0.0000000000e+00  0.0000000000e+00  0.0000000000e+00
 0.0000000000e+00  0.0000000000e+00  0.0000000000e+00  0.0000000000e+00  0.0000000000e+00
 0.0000000000e+00  0.0000000000e+00  0.0000000000e+00  0.0000000000e+00  5.7288299454e+00
 3.2810571505e+01  5.3121877675e+01  4.6872245008e+00  5.2080272231e-01  0.0000000000e+00
 0.0000000000e+00  0.0000000000e+00  0.0000000000e+00  0.0000000000e+00  0.0000000000e+00
 0.0000000000e+00  0.0000000000e+00  5.2080272231e-01  0.0000000000e+00  0.0000000000e+00
 0.0000000000e+00  0.0000000000e+00  0.0000000000e+00  0.0000000000e+00  0.0000000000e+00
 5.2080272231e-01  1.2499265335e+01  9.3744490015e+00  1.0416054446e+00  0.0000000000e+00
 0.0000000000e+00  0.0000000000e+00  0.0000000000e+00  0.0000000000e+00  0.0000000000e+00
 0.0000000000e+00  0.0000000000e+00  5.2080272231e-01  1.5624081669e+00  0.0000000000e+00
 5.2080272231e-01  0.0000000000e+00  0.0000000000e+00  0.0000000000e+00  0.0000000000e+00
 5.2080272231e-01  6.2496326677e+00  2.9164952449e+01  1.4061673502e+01  0.0000000000e+00
 0.0000000000e+00  0.0000000000e+00  0.0000000000e+00  0.0000000000e+00  0.0000000000e+00
 0.0000000000e+00  0.0000000000e+00  1.0416054446e+00  4.6872245008e+00  3.4893782395e+01
 1.7186489836e+01  2.0832108892e+00  0.0000000000e+00  0.0000000000e+00  0.0000000000e+00
 0.0000000000e+00  0.0000000000e+00  4.1664217784e+00  4.6872245008e+00  0.0000000000e+00
 0.0000000000e+00  0.0000000000e+00  0.0000000000e+00  0.0000000000e+00  0.0000000000e+00
 0.0000000000e+00  0.0000000000e+00  5.2080272231e-01  2.0832108892e+00  3.5935387839e+01
 9.2182081848e+01  4.9476258619e+01  8.8536462792e+00  1.0416054446e+00  5.2080272231e-01
 5.2080272231e-01  0.0000000000e+00  1.0416054446e+00  2.0832108892e+00  0.0000000000e+00
 0.0000000000e+00  0.0000000000e+00  0.0000000000e+00  0.0000000000e+00  0.0000000000e+00
 0.0000000000e+00  0.0000000000e+00  0.0000000000e+00  0.0000000000e+00  2.0832108892e+00
 6.7704353900e+00  1.5103278947e+01  1.1978462613e+01  3.1248163338e+00  5.7288299454e+00
 1.5624081669e+00  9.8952517238e+00  2.0832108892e+00  0.0000000000e+00  0.0000000000e+00
 0.0000000000e+00  0.0000000000e+00  0.0000000000e+00  0.0000000000e+00  0.0000000000e+00
 0.0000000000e+00  0.0000000000e+00  0.0000000000e+00  5.2080272231e-01  5.2080272231e-01
 5.2080272231e-01  0.0000000000e+00  0.0000000000e+00  1.5624081669e+00  1.0416054446e+00
 2.7602544282e+01  1.5624081669e+01  2.7602544282e+01  8.8536462792e+00  1.5624081669e+00
 0.0000000000e+00  0.0000000000e+00  0.0000000000e+00  0.0000000000e+00  0.0000000000e+00
 0.0000000000e+00  0.0000000000e+00  0.0000000000e+00  3.6456190561e+00  5.2080272231e+00
 1.0416054446e+00  0.0000000000e+00  0.0000000000e+00  0.0000000000e+00  5.2080272231e-01
 1.5624081669e+00  4.2185020507e+01  6.6141945733e+01  1.0416054446e+01  2.0832108892e+00
 0.0000000000e+00  0.0000000000e+00  0.0000000000e+00  0.0000000000e+00  0.0000000000e+00
 0.0000000000e+00  0.0000000000e+00  0.0000000000e+00  4.1664217784e+00  2.8644149727e+01
 1.5103278947e+01  0.0000000000e+00  0.0000000000e+00  0.0000000000e+00  0.0000000000e+00
 0.0000000000e+00  5.2080272231e-01  2.7602544282e+01  2.2915319781e+01  0.0000000000e+00
 0.0000000000e+00  0.0000000000e+00  0.0000000000e+00  0.0000000000e+00  0.0000000000e+00
 0.0000000000e+00  0.0000000000e+00  0.0000000000e+00  0.0000000000e+00  3.2289768783e+01
 1.0728536080e+02  2.4998530671e+01  1.0416054446e+00  0.0000000000e+00  0.0000000000e+00
 0.0000000000e+00  0.0000000000e+00  5.2080272231e-01  4.1664217784e+00  1.5624081669e+00
 0.0000000000e+00  0.0000000000e+00  0.0000000000e+00  0.0000000000e+00  0.0000000000e+00
 0.0000000000e+00  0.0000000000e+00  0.0000000000e+00  0.0000000000e+00  1.5624081669e+00
 1.2499265335e+01  4.1664217784e+01  1.2499265335e+01  2.6040136115e+00  0.0000000000e+00
 0.0000000000e+00  0.0000000000e+00  0.0000000000e+00  5.2080272231e-01  0.0000000000e+00
 0.0000000000e+00  0.0000000000e+00  0.0000000000e+00  0.0000000000e+00  0.0000000000e+00
 0.0000000000e+00  0.0000000000e+00  0.0000000000e+00  0.0000000000e+00  0.0000000000e+00
 0.0000000000e+00  5.2080272231e-01  4.6872245008e+00  6.2496326677e+00  3.1248163338e+00
 1.5624081669e+00  1.0416054446e+00  0.0000000000e+00  0.0000000000e+00  5.2080272231e-01
 0.0000000000e+00  0.0000000000e+00  0.0000000000e+00  0.0000000000e+00  0.0000000000e+00
 0.0000000000e+00  0.0000000000e+00  5.2080272231e-01  1.5624081669e+00  1.0416054446e+00
 5.2080272231e-01  0.0000000000e+00  0.0000000000e+00  0.0000000000e+00  3.1248163338e+00
 2.0832108892e+01  4.8434653174e+01  4.4268231396e+01  1.0416054446e+01  0.0000000000e+00
 0.0000000000e+00  0.0000000000e+00  0.0000000000e+00  0.0000000000e+00  0.0000000000e+00
 0.0000000000e+00  0.0000000000e+00  0.0000000000e+00  6.2496326677e+00  3.0206557894e+01
 2.5519333393e+01  2.6040136115e+00  5.2080272231e-01  0.0000000000e+00  0.0000000000e+00
 0.0000000000e+00  1.7707292558e+01  6.6141945733e+01  4.0622612340e+01  1.5624081669e+00