unknown system                          
   1.00000000000000     
     2.969072   -0.000523   -0.000907
    -0.987305    2.800110    0.000907
    -0.987305   -1.402326    2.423654
   Li
     1
Direct
  0.000000  0.000000  0.000000
 
   32   32   32
 0.44062142953E+00 0.44635237036E+00 0.46294638829E+00 0.48881056285E+00 0.52211506729E+00
 0.56203432815E+00 0.60956087775E+00 0.66672131696E+00 0.73417916031E+00 0.80884817972E+00
 0.88351172791E+00 0.94912993844E+00 0.10000382501E+01 0.10353398391E+01 0.10568153616E+01
 0.10677009023E+01 0.10709392990E+01 0.10677009023E+01 0.10568153616E+01 0.10353398391E+01
 0.10000382501E+01 0.94912993844E+00 0.88351172791E+00 0.80884817972E+00 0.73417916031E+00
 0.66672131696E+00 0.60956087775E+00 0.56203432815E+00 0.52211506729E+00 0.48881056285E+00
 0.46294638829E+00 0.44635237036E+00 0.44635236129E+00 0.44826310468E+00 0.46120234982E+00
 0.48388751893E+00 0.51453461217E+00 0.55198334894E+00 0.59670940634E+00 0.65056221492E+00
 0.71479209038E+00 0.78752215612E+00 0.86266974238E+00 0.93143452733E+00 0.98668689097E+00
 0.10264512453E+01 0.10517737262E+01 0.10655727098E+01 0.10710273563E+01 0.10699754960E+01
 0.10620284721E+01 0.10447535728E+01 0.10148591191E+01 0.96989868986E+00 0.90968847171E+00
 0.83776357749E+00 0.76250730539E+00 0.69212837944E+00 0.63134304694E+00 0.58075382209E+00
 0.53861802712E+00 0.50340876158E+00 0.47525741471E+00 0.45566841338E+00 0.46294634794E+00
 0.46120232450E+00 0.47020546143E+00 0.48907258956E+00 0.51631104185E+00 0.55078082807E+00
 0.59266763300E+00 0.64348988079E+00 0.70456429385E+00 0.77466959848E+00 0.84866379048E+00
 0.91836999364E+00 0.97607404154E+00 0.10189280159E+01 0.10473361840E+01 0.10637590344E+01
 0.10713400414E+01 0.10723548896E+01 0.10671602012E+01 0.10540302724E+01 0.10299423434E+01
 0.99203010348E+00 0.93910359960E+00 0.87268203661E+00 0.79906591922E+00 0.72684099543E+00
 0.66238200182E+00 0.60816632971E+00 0.56348169612E+00 0.52665272761E+00 0.49698647971E+00
 0.47525737859E+00 0.48881047900E+00 0.48388746696E+00 0.48907257501E+00 0.50390311655E+00
 0.52731652005E+00 0.55843586382E+00 0.59739141608E+00 0.64538995195E+00 0.70350754741E+00
 0.77069278747E+00 0.84240668890E+00 0.91115982467E+00 0.96934392631E+00 0.10136548469E+01
 0.10440497906E+01 0.10625256288E+01 0.10719873850E+01 0.10748710371E+01 0.10721022035E+01
 0.10627203945E+01 0.10442665220E+01 0.10138305265E+01 0.96942602241E+00 0.91111201254E+00
 0.84221412108E+00 0.77035166471E+00 0.70301673172E+00 0.64476171193E+00 0.59666759514E+00
 0.55769335437E+00 0.52665265891E+00 0.50340866718E+00 0.52211497079E+00 0.51453456888E+00
 0.51631105177E+00 0.52731654903E+00 0.54695288880E+00 0.57471676513E+00 0.61081795831E+00
 0.65619974691E+00 0.71154677479E+00 0.77564996322E+00 0.84426083075E+00 0.91050607503E+00
 0.96729505285E+00 0.10113565495E+01 0.10424274980E+01 0.10621391943E+01 0.10730602499E+01
 0.10775360474E+01 0.10767983169E+01 0.10705519039E+01 0.10570740963E+01 0.10338120209E+01
 0.99839494107E+00 0.94977403177E+00 0.88902208781E+00 0.82090691622E+00 0.75289610687E+00
 0.69115900710E+00 0.63892909780E+00 0.59666751721E+00 0.56348156727E+00 0.53861789695E+00
 0.56203428487E+00 0.55198336682E+00 0.55078089847E+00 0.55843594381E+00 0.57471680557E+00
 0.59946466854E+00 0.63297603214E+00 0.67593095607E+00 0.72855371591E+00 0.78931360972E+00
 0.85406301770E+00 0.91646479783E+00 0.97019671886E+00 0.10123998232E+01 0.10427848759E+01
 0.10627610361E+01 0.10745626854E+01 0.10802762521E+01 0.10811667994E+01 0.10773803253E+01
 0.10679272054E+01 0.10509097205E+01 0.10240681866E+01 0.98565577377E+00 0.93537018598E+00
 0.87503324635E+00 0.81002966144E+00 0.74706026323E+00 0.69115896072E+00 0.64476160641E+00
 0.60816620520E+00 0.58075372649E+00 0.60956092392E+00 0.59670949855E+00 0.59266775309E+00
 0.59739151975E+00 0.61081800400E+00 0.63297603091E+00 0.66414191835E+00 0.70467468901E+00
 0.75430947477E+00 0.81116192006E+00 0.87114261542E+00 0.92843772472E+00 0.97771759945E+00
 0.10166845180E+01 0.10451388144E+01 0.10643913069E+01 0.10764046075E+01 0.10829400597E+01
 0.10850864264E+01 0.10831587142E+01 0.10767316473E+01 0.10646635858E+01 0.10452178637E+01
 0.10165062621E+01 0.97728739904E+00 0.92778137672E+00 0.87026222145E+00 0.81002965936E+00
 0.75289607167E+00 0.70301666460E+00 0.66238194616E+00 0.63134303959E+00 0.66672141458E+00
 0.65056233170E+00 0.64348999403E+00 0.64539002758E+00 0.65619976171E+00 0.67593093061E+00
 0.70467466812E+00 0.74238494681E+00 0.78831063501E+00 0.84027487162E+00 0.89432336623E+00
 0.94527286979E+00 0.98899806995E+00 0.10236693165E+01 0.10492095440E+01 0.10668864239E+01
 0.10784564912E+01 0.10853720817E+01 0.10884429261E+01 0.10879223283E+01 0.10836890231E+01
 0.10752470337E+01 0.10615775136E+01 0.10411498096E+01 0.10123668361E+01 0.97437337948E+00
 0.92778138332E+00 0.87503325509E+00 0.82090691002E+00 0.77035165093E+00 0.72684100787E+00
 0.69212843880E+00 0.73417923610E+00 0.71479216578E+00 0.70456434912E+00 0.70350756644E+00
 0.71154675676E+00 0.72855368303E+00 0.75430945394E+00 0.78831063142E+00 0.82936399547E+00
 0.87511800241E+00 0.92189558744E+00 0.96545606367E+00 0.10028365218E+01 0.10325176457E+01
 0.10545150321E+01 0.10700261192E+01 0.10806223618E+01 0.10874985517E+01 0.10911890346E+01
 0.10917625241E+01 0.10891552100E+01 0.10832686677E+01 0.10737438836E+01 0.10596768798E+01
 0.10396672147E+01 0.10123668302E+01 0.97728739423E+00 0.93537018400E+00 0.88902208571E+00
 0.84221412579E+00 0.79906594677E+00 0.76250736247E+00 0.80884820199E+00 0.78752217169E+00
 0.77466959460E+00 0.77069276293E+00 0.77564993158E+00 0.78931358697E+00 0.81116191211E+00
 0.84027487367E+00 0.87511800627E+00 0.91330884688E+00 0.95168401945E+00 0.98730483028E+00
 0.10179181902E+01 0.10423014981E+01 0.10605086536E+01 0.10735842856E+01 0.10828764844E+01
 0.10893609975E+01 0.10933666824E+01 0.10947788886E+01 0.10934472995E+01 0.10894083272E+01
 0.10827273848E+01 0.10731125332E+01 0.10596768751E+01 0.10411497992E+01 0.10165062463E+01
 0.98565575736E+00 0.94977402142E+00 0.91111201152E+00 0.87268204509E+00 0.83776359496E+00
 0.88351172396E+00 0.86266973211E+00 0.84866376630E+00 0.84240665526E+00 0.84426080261E+00
 0.85406300256E+00 0.87114260854E+00 0.89432336367E+00 0.92189559025E+00 0.95168402440E+00
 0.98146796296E+00 0.10091416410E+01 0.10330159293E+01 0.10521864514E+01 0.10667021694E+01
 0.10773684970E+01 0.10852387028E+01 0.10910716222E+01 0.10950713180E+01 0.10970282505E+01
 0.10966955694E+01 0.10940762919E+01 0.10893864534E+01 0.10827273812E+01 0.10737438823E+01
 0.10615775143E+01 0.10452178598E+01 0.10240681793E+01 0.99839493835E+00 0.96942602553E+00
 0.93910360159E+00 0.90968846967E+00 0.94912994147E+00 0.93143452588E+00 0.91836998227E+00
 0.91115980694E+00 0.91050606107E+00 0.91646478962E+00 0.92843771661E+00 0.94527286251E+00
 0.96545606409E+00 0.98730483727E+00 0.10091416455E+01 0.10294629915E+01 0.10471289153E+01
 0.10615439784E+01 0.10727336311E+01 0.10812206056E+01 0.10877084050E+01 0.10927178901E+01
 0.10963804313E+01 0.10985015218E+01 0.10988254051E+01 0.10972903273E+01 0.10940762885E+01
 0.10894083225E+01 0.10832686704E+01 0.10752470443E+01 0.10646635960E+01 0.10509097282E+01
 0.10338120320E+01 0.10138305414E+01 0.99203011499E+00 0.96989869552E+00 0.10000382564E+01
 0.98668689569E+00 0.97607404156E+00 0.96934392385E+00 0.96729505384E+00 0.97019672352E+00
 0.97771760286E+00 0.98899807164E+00 0.10028365257E+01 0.10179181959E+01 0.10330159316E+01
 0.10471289140E+01 0.10595647688E+01 0.10699798399E+01 0.10783707954E+01 0.10849931151E+01
 0.10902034090E+01 0.10942770629E+01 0.10972915728E+01 0.10991420170E+01 0.10996725133E+01
 0.10988254074E+01 0.10966955694E+01 0.10934472970E+01 0.10891552098E+01 0.10836890258E+01
 0.10767316493E+01 0.10679272073E+01 0.10570741030E+01 0.10442665333E+01 0.10299423537E+01
 0.10148591263E+01 0.10353398327E+01 0.10264512393E+01 0.10189280104E+01 0.10136548440E+01
 0.10113565528E+01 0.10123998327E+01 0.10166845297E+01 0.10236693268E+01 0.10325176532E+01
 0.10423015017E+01 0.10521864505E+01 0.10615439752E+01 0.10699798379E+01 0.10773030102E+01
 0.10834695070E+01 0.10885233309E+01 0.10925420818E+01 0.10955924578E+01 0.10977065606E+01
 0.10988881526E+01 0.10991420193E+01 0.10985015262E+01 0.10970282540E+01 0.10947788886E+01
 0.10917625203E+01 0.10879223210E+01 0.10831587042E+01 0.10773803156E+01 0.10705518974E+01
 0.10627203906E+01 0.10540302679E+01 0.10447535667E+01 0.10568153493E+01 0.10517737140E+01
 0.10473361734E+01 0.10440497830E+01 0.10424274940E+01 0.10427848755E+01 0.10451388166E+01
 0.10492095475E+01 0.10545150355E+01 0.10605086560E+01 0.10667021706E+01 0.10727336314E+01
 0.10783707953E+01 0.10834695069E+01 0.10879215500E+01 0.10916230223E+01 0.10944768529E+01
 0.10964220680E+01 0.10974677666E+01 0.10977065606E+01 0.10972915729E+01 0.10963804315E+01
 0.10950713180E+01 0.10933666818E+01 0.10911890333E+01 0.10884429244E+01 0.10850864245E+01
 0.10811667969E+01 0.10767983127E+01 0.10721021969E+01 0.10671601921E+01 0.10620284610E+01
 0.10677009026E+01 0.10655727091E+01 0.10637590333E+01 0.10625256271E+01 0.10621391908E+01
 0.10627610307E+01 0.10643913008E+01 0.10668864191E+01 0.10700261170E+01 0.10735842862E+01
 0.10773684997E+01 0.10812206089E+01 0.10849931171E+01 0.10885233314E+01 0.10916230222E+01
 0.10940926644E+01 0.10957595111E+01 0.10965281065E+01 0.10964220679E+01 0.10955924570E+01
 0.10942770607E+01 0.10927178863E+01 0.10910716181E+01 0.10893609952E+01 0.10874985531E+01
 0.10853720878E+01 0.10829400695E+01 0.10802762623E+01 0.10775360550E+01 0.10748710416E+01
 0.10723548922E+01 0.10699754975E+01 0.10709393090E+01 0.10710273660E+01 0.10713400504E+01
 0.10719873930E+01 0.10730602567E+01 0.10745626906E+01 0.10764046106E+01 0.10784564918E+01
 0.10806223607E+01 0.10828764826E+01 0.10852387014E+01 0.10877084044E+01 0.10902034088E+01
 0.10925420816E+01 0.10944768527E+01 0.10957595110E+01 0.10962090509E+01 0.10957595110E+01
 0.10944768527E+01 0.10925420816E+01 0.10902034088E+01 0.10877084044E+01 0.10852387014E+01
 0.10828764826E+01 0.10806223607E+01 0.10784564918E+01 0.10764046106E+01 0.10745626906E+01
 0.10730602567E+01 0.10719873930E+01 0.10713400504E+01 0.10710273660E+01 0.10677009026E+01
 0.10699754975E+01 0.10723548922E+01 0.10748710416E+01 0.10775360550E+01 0.10802762623E+01
 0.10829400695E+01 0.10853720878E+01 0.10874985531E+01 0.10893609952E+01 0.10910716181E+01
 0.10927178863E+01 0.10942770607E+01 0.10955924570E+01 0.10964220679E+01 0.10965281065E+01
 0.10957595111E+01 0.10940926644E+01 0.10916230222E+01 0.10885233314E+01 0.10849931171E+01
 0.10812206089E+01 0.10773684997E+01 0.10735842862E+01 0.10700261170E+01 0.10668864191E+01
 0.10643913008E+01 0.10627610307E+01 0.10621391908E+01 0.10625256271E+01 0.10637590333E+01
 0.10655727091E+01 0.10568153493E+01 0.10620284610E+01 0.10671601921E+01 0.10721021969E+01
 0.10767983127E+01 0.10811667969E+01 0.10850864245E+01 0.10884429244E+01 0.10911890333E+01
 0.10933666818E+01 0.10950713180E+01 0.10963804315E+01 0.10972915729E+01 0.10977065606E+01
 0.10974677666E+01 0.10964220680E+01 0.10944768529E+01 0.10916230223E+01 0.10879215500E+01
 0.10834695069E+01 0.10783707953E+01 0.10727336314E+01 0.10667021706E+01 0.10605086560E+01
 0.10545150355E+01 0.10492095475E+01 0.10451388166E+01 0.10427848755E+01 0.10424274940E+01
 0.10440497830E+01 0.10473361734E+01 0.10517737140E+01 0.10353398327E+01 0.10447535667E+01
 0.10540302679E+01 0.10627203906E+01 0.10705518974E+01 0.10773803156E+01 0.10831587042E+01
 0.10879223210E+01 0.10917625203E+01 0.10947788886E+01 0.10970282540E+01 0.10985015262E+01
 0.10991420193E+01 0.10988881526E+01 0.10977065606E+01 0.10955924578E+01 0.10925420818E+01
 0.10885233309E+01 0.10834695070E+01 0.10773030102E+01 0.10699798379E+01 0.10615439752E+01
 0.10521864505E+01 0.10423015017E+01 0.10325176532E+01 0.10236693268E+01 0.10166845297E+01
 0.10123998327E+01 0.10113565528E+01 0.10136548440E+01 0.10189280104E+01 0.10264512393E+01
 0.10000382564E+01 0.10148591263E+01 0.10299423537E+01 0.10442665333E+01 0.10570741030E+01
 0.10679272073E+01 0.10767316493E+01 0.10836890258E+01 0.10891552098E+01 0.10934472970E+01
 0.10966955694E+01 0.10988254074E+01 0.10996725133E+01 0.10991420170E+01 0.10972915728E+01
 0.10942770629E+01 0.10902034090E+01 0.10849931151E+01 0.10783707954E+01 0.10699798399E+01
 0.10595647688E+01 0.10471289140E+01 0.10330159316E+01 0.10179181959E+01 0.10028365257E+01
 0.98899807164E+00 0.97771760286E+00 0.97019672352E+00 0.96729505384E+00 0.96934392385E+00
 0.97607404156E+00 0.98668689569E+00 0.94912994147E+00 0.96989869552E+00 0.99203011499E+00
 0.10138305414E+01 0.10338120320E+01 0.10509097282E+01 0.10646635960E+01 0.10752470443E+01
 0.10832686704E+01 0.10894083225E+01 0.10940762885E+01 0.10972903273E+01 0.10988254051E+01
 0.10985015218E+01 0.10963804313E+01 0.10927178901E+01 0.10877084050E+01 0.10812206056E+01
 0.10727336311E+01 0.10615439784E+01 0.10471289153E+01 0.10294629915E+01 0.10091416455E+01
 0.98730483727E+00 0.96545606409E+00 0.94527286251E+00 0.92843771661E+00 0.91646478962E+00
 0.91050606107E+00 0.91115980694E+00 0.91836998227E+00 0.93143452588E+00 0.88351172396E+00
 0.90968846967E+00 0.93910360159E+00 0.96942602553E+00 0.99839493835E+00 0.10240681793E+01
 0.10452178598E+01 0.10615775143E+01 0.10737438823E+01 0.10827273812E+01 0.10893864534E+01
 0.10940762919E+01 0.10966955694E+01 0.10970282505E+01 0.10950713180E+01 0.10910716222E+01
 0.10852387028E+01 0.10773684970E+01 0.10667021694E+01 0.10521864514E+01 0.10330159293E+01
 0.10091416410E+01 0.98146796296E+00 0.95168402440E+00 0.92189559025E+00 0.89432336367E+00
 0.87114260854E+00 0.85406300256E+00 0.84426080261E+00 0.84240665526E+00 0.84866376630E+00
 0.86266973211E+00 0.80884820199E+00 0.83776359496E+00 0.87268204509E+00 0.91111201152E+00
 0.94977402142E+00 0.98565575736E+00 0.10165062463E+01 0.10411497992E+01 0.10596768751E+01
 0.10731125332E+01 0.10827273848E+01 0.10894083272E+01 0.10934472995E+01 0.10947788886E+01
 0.10933666824E+01 0.10893609975E+01 0.10828764844E+01 0.10735842856E+01 0.10605086536E+01
 0.10423014981E+01 0.10179181902E+01 0.98730483028E+00 0.95168401945E+00 0.91330884688E+00
 0.87511800627E+00 0.84027487367E+00 0.81116191211E+00 0.78931358697E+00 0.77564993158E+00
 0.77069276293E+00 0.77466959460E+00 0.78752217169E+00 0.73417923610E+00 0.76250736247E+00
 0.79906594677E+00 0.84221412579E+00 0.88902208571E+00 0.93537018400E+00 0.97728739423E+00
 0.10123668302E+01 0.10396672147E+01 0.10596768798E+01 0.10737438836E+01 0.10832686677E+01
 0.10891552100E+01 0.10917625241E+01 0.10911890346E+01 0.10874985517E+01 0.10806223618E+01
 0.10700261192E+01 0.10545150321E+01 0.10325176457E+01 0.10028365218E+01 0.96545606367E+00
 0.92189558744E+00 0.87511800241E+00 0.82936399547E+00 0.78831063142E+00 0.75430945394E+00
 0.72855368303E+00 0.71154675676E+00 0.70350756644E+00 0.70456434912E+00 0.71479216578E+00
 0.66672141458E+00 0.69212843880E+00 0.72684100787E+00 0.77035165093E+00 0.82090691002E+00
 0.87503325509E+00 0.92778138332E+00 0.97437337948E+00 0.10123668361E+01 0.10411498096E+01
 0.10615775136E+01 0.10752470337E+01 0.10836890231E+01 0.10879223283E+01 0.10884429261E+01
 0.10853720817E+01 0.10784564912E+01 0.10668864239E+01 0.10492095440E+01 0.10236693165E+01
 0.98899806995E+00 0.94527286979E+00 0.89432336623E+00 0.84027487162E+00 0.78831063501E+00
 0.74238494681E+00 0.70467466812E+00 0.67593093061E+00 0.65619976171E+00 0.64539002758E+00
 0.64348999403E+00 0.65056233170E+00 0.60956092392E+00 0.63134303959E+00 0.66238194616E+00
 0.70301666460E+00 0.75289607167E+00 0.81002965936E+00 0.87026222145E+00 0.92778137672E+00
 0.97728739904E+00 0.10165062621E+01 0.10452178637E+01 0.10646635858E+01 0.10767316473E+01
 0.10831587142E+01 0.10850864264E+01 0.10829400597E+01 0.10764046075E+01 0.10643913069E+01
 0.10451388144E+01 0.10166845180E+01 0.97771759945E+00 0.92843772472E+00 0.87114261542E+00
 0.81116192006E+00 0.75430947477E+00 0.70467468901E+00 0.66414191835E+00 0.63297603091E+00
 0.61081800400E+00 0.59739151975E+00 0.59266775309E+00 0.59670949855E+00 0.56203428487E+00
 0.58075372649E+00 0.60816620520E+00 0.64476160641E+00 0.69115896072E+00 0.74706026323E+00
 0.81002966144E+00 0.87503324635E+00 0.93537018598E+00 0.98565577377E+00 0.10240681866E+01
 0.10509097205E+01 0.10679272054E+01 0.10773803253E+01 0.10811667994E+01 0.10802762521E+01
 0.10745626854E+01 0.10627610361E+01 0.10427848759E+01 0.10123998232E+01 0.97019671886E+00
 0.91646479783E+00 0.85406301770E+00 0.78931360972E+00 0.72855371591E+00 0.67593095607E+00
 0.63297603214E+00 0.59946466854E+00 0.57471680557E+00 0.55843594381E+00 0.55078089847E+00
 0.55198336682E+00 0.52211497079E+00 0.53861789695E+00 0.56348156727E+00 0.59666751721E+00
 0.63892909780E+00 0.69115900710E+00 0.75289610687E+00 0.82090691622E+00 0.88902208781E+00
 0.94977403177E+00 0.99839494107E+00 0.10338120209E+01 0.10570740963E+01 0.10705519039E+01
 0.10767983169E+01 0.10775360474E+01 0.10730602499E+01 0.10621391943E+01 0.10424274980E+01
 0.10113565495E+01 0.96729505285E+00 0.91050607503E+00 0.84426083075E+00 0.77564996322E+00
 0.71154677479E+00 0.65619974691E+00 0.61081795831E+00 0.57471676513E+00 0.54695288880E+00
 0.52731654903E+00 0.51631105177E+00 0.51453456888E+00 0.48881047900E+00 0.50340866718E+00
 0.52665265891E+00 0.55769335437E+00 0.59666759514E+00 0.64476171193E+00 0.70301673172E+00
 0.77035166471E+00 0.84221412108E+00 0.91111201254E+00 0.96942602241E+00 0.10138305265E+01
 0.10442665220E+01 0.10627203945E+01 0.10721022035E+01 0.10748710371E+01 0.10719873850E+01
 0.10625256288E+01 0.10440497906E+01 0.10136548469E+01 0.96934392631E+00 0.91115982467E+00
 0.84240668890E+00 0.77069278747E+00 0.70350754741E+00 0.64538995195E+00 0.59739141608E+00
 0.55843586382E+00 0.52731652005E+00 0.50390311655E+00 0.48907257501E+00 0.48388746696E+00
 0.46294634794E+00 0.47525737859E+00 0.49698647971E+00 0.52665272761E+00 0.56348169612E+00
 0.60816632971E+00 0.66238200182E+00 0.72684099543E+00 0.79906591922E+00 0.87268203661E+00
 0.93910359960E+00 0.99203010348E+00 0.10299423434E+01 0.10540302724E+01 0.10671602012E+01
 0.10723548896E+01 0.10713400414E+01 0.10637590344E+01 0.10473361840E+01 0.10189280159E+01
 0.97607404154E+00 0.91836999364E+00 0.84866379048E+00 0.77466959848E+00 0.70456429385E+00
 0.64348988079E+00 0.59266763300E+00 0.55078082807E+00 0.51631104185E+00 0.48907258956E+00
 0.47020546143E+00 0.46120232450E+00 0.44635236129E+00 0.45566841338E+00 0.47525741471E+00
 0.50340876158E+00 0.53861802712E+00 0.58075382209E+00 0.63134304694E+00 0.69212837944E+00
 0.76250730539E+00 0.83776357749E+00 0.90968847171E+00 0.96989868986E+00 0.10148591191E+01
 0.10447535728E+01 0.10620284721E+01 0.10699754960E+01 0.10710273563E+01 0.10655727098E+01
 0.10517737262E+01 0.10264512453E+01 0.98668689097E+00 0.93143452733E+00 0.86266974238E+00
 0.78752215612E+00 0.71479209038E+00 0.65056221492E+00 0.59670940634E+00 0.55198334894E+00
 0.51453461217E+00 0.48388751893E+00 0.46120234982E+00 0.44826310468E+00 0.44635160676E+00
 0.44826283478E+00 0.46120280799E+00 0.48388836071E+00 0.51453519778E+00 0.55198354289E+00
 0.59670955410E+00 0.65056240716E+00 0.71479207225E+00 0.78752193571E+00 0.86266964355E+00
 0.93143460118E+00 0.98668686917E+00 0.10264511073E+01 0.10517737341E+01 0.10655728572E+01
 0.10710273582E+01 0.10699753501E+01 0.10620284615E+01 0.10447536999E+01 0.10148591057E+01
 0.96989855223E+00 0.90968851889E+00 0.83776381469E+00 0.76250740825E+00 0.69212828422E+00
 0.63134299746E+00 0.58075379564E+00 0.53861767213E+00 0.50340796494E+00 0.47525644026E+00
 0.45566748530E+00 0.44820463269E+00 0.44634592462E+00 0.45571799166E+00 0.47535888690E+00
 0.50354580262E+00 0.53877266136E+00 0.58091742181E+00 0.63151384913E+00 0.69230386567E+00
 0.76268284250E+00 0.83793279066E+00 0.90984035358E+00 0.97002185506E+00 0.10149503357E+01
 0.10448158061E+01 0.10620652540E+01 0.10699866601E+01 0.10710125386E+01 0.10655334072E+01
 0.10517086998E+01 0.10263550196E+01 0.98655616128E+00 0.93127193416E+00 0.86248233138E+00
 0.78732154586E+00 0.71458927735E+00 0.65036522081E+00 0.59651897778E+00 0.55179722846E+00
 0.51435905565E+00 0.48373893469E+00 0.46109560253E+00 0.46109214264E+00 0.45566146721E+00
 0.46120284135E+00 0.47714572799E+00 0.50205507498E+00 0.53444335706E+00 0.57387543450E+00
 0.62148925943E+00 0.67902147947E+00 0.74652842002E+00 0.82036429106E+00 0.89314910060E+00
 0.95625301043E+00 0.10048721713E+01 0.10384409481E+01 0.10588274994E+01 0.10691643565E+01
 0.10722296632E+01 0.10691169438E+01 0.10587294452E+01 0.10382866417E+01 0.10046560410E+01
 0.95597317923E+00 0.89281113335E+00 0.81999202673E+00 0.74614821039E+00 0.67864944972E+00
 0.62112976938E+00 0.57352942956E+00 0.53411974656E+00 0.50177530420E+00 0.47693809516E+00
 0.48373731711E+00 0.47525459071E+00 0.47709396073E+00 0.48907497479E+00 0.51017158251E+00
 0.53916834747E+00 0.57561302657E+00 0.62035891324E+00 0.67488854221E+00 0.73940580742E+00
 0.81089806486E+00 0.88276847005E+00 0.94671184891E+00 0.99726868510E+00 0.10333191881E+01
 0.10561922195E+01 0.10686923129E+01 0.10736692780E+01 0.10727164807E+01 0.10654877535E+01
 0.10498439286E+01 0.10227824364E+01 0.98184771838E+00 0.92645244649E+00 0.85888881478E+00
 0.78616605750E+00 0.71636820878E+00 0.65498711696E+00 0.60382128373E+00 0.56200975868E+00
 0.52813286192E+00 0.50177557137E+00 0.51435913793E+00 0.50340779856E+00 0.50196261647E+00
 0.51012712841E+00 0.52731651209E+00 0.55272225186E+00 0.58606955482E+00 0.62805811389E+00
 0.67982629832E+00 0.74138696909E+00 0.80995899673E+00 0.87954017956E+00 0.94239915313E+00
 0.99305855126E+00 0.10301312705E+01 0.10545506582E+01 0.10687377457E+01 0.10753862169E+01
 0.10763191909E+01 0.10717998612E+01 0.10604384043E+01 0.10397034470E+01 0.10069439831E+01
 0.96063303150E+00 0.90130435450E+00 0.83292478038E+00 0.76305781400E+00 0.69853856616E+00
 0.64327870440E+00 0.59808078309E+00 0.56201151117E+00 0.53412138616E+00 0.55179581327E+00
 0.53861590251E+00 0.53432432583E+00 0.53909105153E+00 0.55268611438E+00 0.57471696349E+00
 0.60514698465E+00 0.64457800369E+00 0.69376887441E+00 0.75235993981E+00 0.81753549556E+00
 0.88370476114E+00 0.94379546737E+00 0.99281218404E+00 0.10293806110E+01 0.10542214987E+01
 0.10694174667E+01 0.10773704669E+01 0.10798716311E+01 0.10775486381E+01 0.10697042913E+01
 0.10545069854E+01 0.10295551471E+01 0.99279737650E+00 0.94355144650E+00 0.88321954062E+00
 0.81681913187E+00 0.75141809964E+00 0.69261821922E+00 0.64327962695E+00 0.60382282698E+00
 0.57352982220E+00 0.59651693840E+00 0.58075229427E+00 0.57374186693E+00 0.57551456741E+00
 0.58600718211E+00 0.60511828940E+00 0.63297594644E+00 0.67004405365E+00 0.71666636821E+00
 0.77204104687E+00 0.83320814321E+00 0.89489751255E+00 0.95075485792E+00 0.99659919598E+00
 0.10312392454E+01 0.10553397332E+01 0.10707419196E+01 0.10795201829E+01 0.10832444286E+01
 0.10826351191E+01 0.10774896331E+01 0.10667199061E+01 0.10485228008E+01 0.10208469746E+01
 0.98220337663E+00 0.93253173496E+00 0.87383101424E+00 0.81138196494E+00 0.75141802819E+00
 0.69853863581E+00 0.65498692813E+00 0.62112854482E+00 0.65036541818E+00 0.63134394620E+00
 0.62134758157E+00 0.62024727302E+00 0.62797759993E+00 0.64452774596E+00 0.67002102965E+00
 0.70467475083E+00 0.74837676326E+00 0.79988983947E+00 0.85613164255E+00 0.91217600565E+00
 0.96252940405E+00 0.10039622985E+01 0.10354945145E+01 0.10578184954E+01 0.10726219191E+01
 0.10816857076E+01 0.10862734861E+01 0.10869807256E+01 0.10838347388E+01 0.10763492226E+01
 0.10634616656E+01 0.10435710920E+01 0.10149514615E+01 0.97654277925E+00 0.92873165436E+00
 0.87383094920E+00 0.81681874693E+00 0.76305734397E+00 0.71636787385E+00 0.67864926950E+00
 0.71459047453E+00 0.69212929230E+00 0.67887360825E+00 0.67476755559E+00 0.67973264759E+00
 0.69370229862E+00 0.71662516385E+00 0.74835794489E+00 0.78831069301E+00 0.83487359300E+00
 0.88495044659E+00 0.93407406996E+00 0.97791600675E+00 0.10140285348E+01 0.10416142986E+01
 0.10613915075E+01 0.10749242746E+01 0.10837527246E+01 0.10888431167E+01 0.10905562202E+01
 0.10889143502E+01 0.10837796063E+01 0.10747424943E+01 0.10608783509E+01 0.10407448796E+01
 0.10128649545E+01 0.97654311776E+00 0.93253182754E+00 0.88321942498E+00 0.83292501187E+00
 0.78616688637E+00 0.74614938411E+00 0.78732083153E+00 0.76250622256E+00 0.74637651607E+00
 0.73927831939E+00 0.74128388864E+00 0.75228123548E+00 0.77198590492E+00 0.79985628740E+00
 0.83485867630E+00 0.87511776793E+00 0.91766891117E+00 0.95879639839E+00 0.99546782697E+00
 0.10257116001E+01 0.10488967436E+01 0.10657033817E+01 0.10775309997E+01 0.10857028504E+01
 0.10909474207E+01 0.10933962349E+01 0.10929379817E+01 0.10895317352E+01 0.10831784204E+01
 0.10735883640E+01 0.10598896763E+01 0.10407454428E+01 0.10149519107E+01 0.98220340489E+00
 0.94355154571E+00 0.90130491153E+00 0.85888944124E+00 0.81999207327E+00 0.86248086318E+00
 0.83776268619E+00 0.82021490606E+00 0.81076983943E+00 0.80985211584E+00 0.81745024748E+00
 0.83314444920E+00 0.85608843893E+00 0.88492542820E+00 0.91765862334E+00 0.95168403331E+00
 0.98444276168E+00 0.10137034834E+01 0.10379291413E+01 0.10566407549E+01 0.10704014667E+01
 0.10803618479E+01 0.10876057185E+01 0.10926825901E+01 0.10955767710E+01 0.10960438720E+01
 0.10939880719E+01 0.10895533722E+01 0.10828551503E+01 0.10735888348E+01 0.10608788453E+01
 0.10435710585E+01 0.10208466042E+01 0.99279718268E+00 0.96063292657E+00 0.92645186214E+00
 0.89280988503E+00 0.93127242838E+00 0.90968953792E+00 0.89301329527E+00 0.88264936985E+00
 0.87943861060E+00 0.88362146183E+00 0.89483304953E+00 0.91213014697E+00 0.93404517932E+00
 0.95878126758E+00 0.98443734722E+00 0.10091417972E+01 0.10312793125E+01 0.10497691324E+01
 0.10642757388E+01 0.10751947057E+01 0.10833525725E+01 0.10895455118E+01 0.10941716049E+01
 0.10971661236E+01 0.10982439210E+01 0.10972373550E+01 0.10942577873E+01 0.10895535197E+01
 0.10831786132E+01 0.10747423688E+01 0.10634612033E+01 0.10485223818E+01 0.10295549214E+01
 0.10069436965E+01 0.98184729924E+00 0.95597303176E+00 0.98655741296E+00 0.96989952592E+00
 0.95614129679E+00 0.94661260587E+00 0.94231333073E+00 0.94372387503E+00 0.95069831386E+00
 0.96248820713E+00 0.97788924396E+00 0.99545312760E+00 0.10136974094E+01 0.10312780642E+01
 0.10471288928E+01 0.10605778776E+01 0.10714167806E+01 0.10798678027E+01 0.10864126947E+01
 0.10915302735E+01 0.10954686134E+01 0.10981803261E+01 0.10994518139E+01 0.10991241210E+01
 0.10972372861E+01 0.10939879342E+01 0.10895314644E+01 0.10837792514E+01 0.10763490239E+01
 0.10667200108E+01 0.10545072650E+01 0.10397037931E+01 0.10227830363E+01 0.10046570825E+01
 0.10263544701E+01 0.10148581087E+01 0.10047875669E+01 0.99719352273E+00 0.99299352521E+00
 0.99275766908E+00 0.99655579919E+00 0.10039306473E+01 0.10140085014E+01 0.10257016656E+01
 0.10379264639E+01 0.10497702771E+01 0.10605796723E+01 0.10699797867E+01 0.10778486297E+01
 0.10842596836E+01 0.10893951649E+01 0.10934416035E+01 0.10965023538E+01 0.10985695209E+01
 0.10995700629E+01 0.10994517494E+01 0.10982437641E+01 0.10960436711E+01 0.10929378556E+01
 0.10889144240E+01 0.10838350293E+01 0.10774900220E+01 0.10697046639E+01 0.10604387546E+01
 0.10498442173E+01 0.10382866345E+01 0.10517075845E+01 0.10447528540E+01 0.10383836806E+01
 0.10332691512E+01 0.10300888548E+01 0.10293456634E+01 0.10312118817E+01 0.10354753337E+01
 0.10416037547E+01 0.10488942114E+01 0.10566441191E+01 0.10642818973E+01 0.10714226976E+01
 0.10778521648E+01 0.10834695172E+01 0.10882278341E+01 0.10920966724E+01 0.10950527681E+01
 0.10970907069E+01 0.10982394213E+01 0.10985695184E+01 0.10981802943E+01 0.10971661213E+01
 0.10955769063E+01 0.10933965371E+01 0.10905565748E+01 0.10869809536E+01 0.10826351189E+01
 0.10775484289E+01 0.10717994651E+01 0.10654870927E+01 0.10587284630E+01 0.10655340654E+01
 0.10620294568E+01 0.10587962866E+01 0.10561667230E+01 0.10545309733E+01 0.10542069460E+01
 0.10553297311E+01 0.10578132174E+01 0.10613916572E+01 0.10657092066E+01 0.10704118455E+01
 0.10752071231E+01 0.10798792913E+01 0.10842680106E+01 0.10882320436E+01 0.10916230441E+01
 0.10942876391E+01 0.10961006246E+01 0.10970136541E+01 0.10970907327E+01 0.10965023708E+01
 0.10954686660E+01 0.10941717793E+01 0.10926828643E+01 0.10909476380E+01 0.10888431333E+01
 0.10862732897E+01 0.10832440961E+01 0.10798712339E+01 0.10763188069E+01 0.10727162679E+01
 0.10691171151E+01 0.10710135858E+01 0.10699760386E+01 0.10691576081E+01 0.10686901369E+01
 0.10687400522E+01 0.10694232184E+01 0.10707498245E+01 0.10726313961E+01 0.10749357934E+01
 0.10775454008E+01 0.10803791565E+01 0.10833713042E+01 0.10864302734E+01 0.10894091444E+01
 0.10921057979E+01 0.10942919489E+01 0.10957595155E+01 0.10963709589E+01 0.10961006603E+01
 0.10950527877E+01 0.10934416095E+01 0.10915303251E+01 0.10895455917E+01 0.10876056916E+01
 0.10857026231E+01 0.10837523896E+01 0.10816854580E+01 0.10795201231E+01 0.10773706024E+01
 0.10753865939E+01 0.10736699972E+01 0.10722306912E+01 0.10699859132E+01 0.10710262773E+01
 0.10722464295E+01 0.10736893164E+01 0.10754094204E+01 0.10773958203E+01 0.10795460242E+01
 0.10817106801E+01 0.10837766064E+01 0.10857264782E+01 0.10876299799E+01 0.10895702004E+01
 0.10915537574E+01 0.10934615935E+01 0.10950675658E+01 0.10961098512E+01 0.10963752427E+01
 0.10957595524E+01 0.10942876567E+01 0.10920966553E+01 0.10893951539E+01 0.10864126832E+01
 0.10833524739E+01 0.10803616186E+01 0.10775307402E+01 0.10749241484E+01 0.10726219968E+01
 0.10707421582E+01 0.10694177944E+01 0.10687380801E+01 0.10686924852E+01 0.10691641269E+01
 0.10620642918E+01 0.10655722568E+01 0.10691576157E+01 0.10727585404E+01 0.10763625188E+01
 0.10799156370E+01 0.10832877253E+01 0.10863144018E+01 0.10888806434E+01 0.10909817587E+01
 0.10927147574E+01 0.10942023750E+01 0.10954976298E+01 0.10965281395E+01 0.10971115427E+01
 0.10970285951E+01 0.10961098868E+01 0.10942919665E+01 0.10916230205E+01 0.10882278187E+01
 0.10842597005E+01 0.10798677967E+01 0.10751946508E+01 0.10704014548E+01 0.10657035142E+01
 0.10613917438E+01 0.10578186897E+01 0.10553397780E+01 0.10542213503E+01 0.10545502499E+01