   2    2    1    2
  2.3132362e+01   3.1982444e-10   3.1982447e-10   3.1982440e-10   5.0000000e-16
            1.000000e-04
  CAR
 DOS and projected DOS file by LOBSTER. Energy is shifted such that the Fermi level lies at 0 eV. 
     13.73332154      -5.01667846     6       6.23332154       1.00000000
-11.25000   0.00000   0.00000   4.00000   4.00000
 -7.50000   0.00018   0.00000   4.00066   4.00000
 -3.75000   0.90898   0.37156   7.40932   5.39336
  0.00000   1.22033   0.42844  11.98557   7.00000
  3.75000   0.04498   0.28533  12.15423   8.06998
  7.50000   0.22500   1.20176  12.99799  12.57658
      7.50000000     -11.25000000     6       6.23332154       1.00000000; Z=  8; 2s 2p_y 2p_z 2p_x 
-11.25000   0.00000   0.00000   0.00000   0.00000   0.00000   0.00000   0.00000   0.00000
 -7.50000   0.00000   0.00000   0.00003   0.00000   0.00003   0.00000   0.00003   0.00000
 -3.75000   0.00187   0.00196   0.12599   0.10240   0.12599   0.10240   0.12599   0.10240
  0.00000   0.00789   0.00024   0.11948   0.13029   0.11948   0.13029   0.11948   0.13029
  3.75000   0.00333   0.00348   0.00426   0.00343   0.00426   0.00343   0.00426   0.00343
  7.50000   0.00601   0.00937   0.01694   0.02543   0.01694   0.02543   0.01694   0.02543
      7.50000000     -11.25000000     6       6.23332154       1.00000000; Z= 25; 4s 3p_y 3p_z 3p_x 3d_xy 3d_yz 3d_z^2 3d_xz 3d_x^2-y^2 
-11.25000   0.00000   0.00000   0.00000   0.00000   0.00000   0.00000   0.00000   0.00000   0.00000   0.00000   0.00000   0.00000   0.00000   0.00000   0.00000   0.00000   0.00000   0.00000
 -7.50000   0.00004   0.00000  -0.00000   0.00000  -0.00000   0.00000  -0.00000   0.00000   0.00001   0.00000   0.00001   0.00000   0.00001   0.00000   0.00001   0.00000   0.00001   0.00000
 -3.75000   0.03635   0.04165  -0.00003   0.00001  -0.00003   0.00001  -0.00003   0.00001   0.10301   0.00380   0.10301   0.00380   0.09608   0.00433   0.09746   0.00422   0.09330   0.00454
  0.00000   0.02271   0.00208  -0.00002   0.00002  -0.00002   0.00002  -0.00002   0.00002   0.16070   0.00996   0.16070   0.00996   0.16941   0.00539   0.16767   0.00630   0.17289   0.00356
  3.75000   0.02676   0.02538  -0.00001  -0.00001  -0.00001  -0.00001  -0.00001  -0.00001   0.00070   0.03012   0.00070   0.03012   0.00028   0.06000   0.00036   0.05402   0.00011   0.07195
  7.50000   0.16631   0.10051  -0.00004  -0.00003  -0.00004  -0.00003  -0.00004  -0.00003   0.00060   0.21890   0.00060   0.21890   0.00028   0.19427   0.00034   0.19919   0.00015   0.18442
