   2    2    1    1
  2.3132362e+01   3.1982444e-10   3.1982447e-10   3.1982440e-10   5.0000000e-16
            1.000000e-04
  CAR
 DOS and projected DOS file by LOBSTER. Energy is shifted such that the Fermi level lies at 0 eV. 
     12.93323712      -5.81676288     6       5.43323712       1.00000000
-11.25000   0.00000   8.00000
 -7.50000   0.00000   8.00000
 -3.75000   0.89029  11.33857
  0.00000   1.99998  18.83849
  3.75000   1.39135  24.05607
  7.50000   0.38549  25.50165
      7.50000000     -11.25000000     6       5.43323712       1.00000000; Z=  8; 2s 2p_y 2p_z 2p_x 
-11.25000   0.00000   0.00000   0.00000   0.00000
 -7.50000   0.00000   0.00000   0.00000   0.00000
 -3.75000   0.00331   0.22987   0.22996   0.22987
  0.00000   0.00075   0.23160   0.23157   0.23162
  3.75000   0.01492   0.03896   0.03890   0.03895
  7.50000   0.01018   0.02625   0.02626   0.02626
      7.50000000     -11.25000000     6       5.43323712       1.00000000; Z= 25; 4s 3p_y 3p_z 3p_x 3d_xy 3d_yz 3d_z^2 3d_xz 3d_x^2-y^2 
-11.25000   0.00000   0.00000   0.00000   0.00000   0.00000   0.00000   0.00000   0.00000   0.00000
 -7.50000   0.00000   0.00000   0.00000   0.00000   0.00000   0.00000   0.00000   0.00000   0.00000
 -3.75000   0.07784  -0.00004  -0.00004  -0.00004   0.02032   0.02032   0.02591   0.02484   0.02817
  0.00000   0.00671  -0.00001  -0.00001  -0.00001   0.16094   0.16126   0.31460   0.28501   0.37594
  3.75000   0.05816  -0.00003  -0.00003  -0.00003   0.33659   0.33628   0.18658   0.21541   0.12669
  7.50000   0.25731  -0.00008  -0.00008  -0.00008   0.01291   0.01290   0.00509   0.00663   0.00194
