unknown system                          
 1.
     3.536142    0.000000    0.000000
     0.000000    3.536142    0.000000
     0.000000    0.000000    3.536142
     8
Direct
  0.000000  0.000000  0.000000
  0.500000  0.500000  0.000000
  0.500000  0.000000  0.500000
  0.000000  0.500000  0.500000
  0.750000  0.250000  0.250000
  0.250000  0.750000  0.250000
  0.250000  0.250000  0.750000
  0.750000  0.750000  0.750000
 
   56   56   56
 0.20361356352E+01 -.75920649689E+00 -.85340093936E+01 -.18904943243E+02 -.29313183413E+02
 -.36945580074E+02 -.40182710616E+02 -.37812000075E+02 -.30468189282E+02 -.19819545981E+02
 -.88014707560E+01 -.95985087464E-01 0.36127972727E+01 0.46659161211E+01 0.65651162161E+01
 0.77968714203E+01 0.87809506241E+01 0.94185329511E+01 0.99456728581E+01 0.10286691211E+02
 0.10595580520E+02 0.10817830587E+02 0.10943729372E+02 0.11108299387E+02 0.11258430603E+02
 0.11348937831E+02 0.11389818543E+02 0.11413305530E+02 0.11417047433E+02 0.11413305530E+02
 0.11389818543E+02 0.11348937831E+02 0.11258430603E+02 0.11108299387E+02 0.10943729372E+02
 0.10817830587E+02 0.10595580520E+02 0.10286691211E+02 0.99456728581E+01 0.94185329511E+01
 0.87809506241E+01 0.77968714203E+01 0.65651162161E+01 0.46659161211E+01 0.36127972727E+01
 -.95985087465E-01 -.88014707560E+01 -.19819545981E+02 -.30468189282E+02 -.37812000075E+02
 -.40182710616E+02 -.36945580074E+02 -.29313183413E+02 -.18904943243E+02 -.85340093936E+01
 -.75920649689E+00 -.75920649689E+00 -.34215238075E+01 -.10808419805E+02 -.20655511461E+02
 -.30479214410E+02 -.37535087974E+02 -.40187243149E+02 -.37409123016E+02 -.29920768133E+02
 -.19182319662E+02 -.83046224654E+01 0.17566308274E+00 0.36392419887E+01 0.46902747761E+01
 0.65903510937E+01 0.77887284916E+01 0.87709233754E+01 0.94015918568E+01 0.99312777044E+01
 0.10270612773E+02 0.10570986394E+02 0.10776870231E+02 0.10967134798E+02 0.11091929672E+02
 0.11211907743E+02 0.11288607127E+02 0.11363047918E+02 0.11390940479E+02 0.11413305530E+02
 0.11390940479E+02 0.11363047918E+02 0.11288607127E+02 0.11211907743E+02 0.11091929672E+02
 0.10967134798E+02 0.10776870231E+02 0.10570986394E+02 0.10270612773E+02 0.99312777044E+01
 0.94015918568E+01 0.87709233754E+01 0.77887284916E+01 0.65903510937E+01 0.46902747761E+01
 0.36392419887E+01 0.17566308274E+00 -.83046224654E+01 -.19182319662E+02 -.29920768133E+02
 -.37409123016E+02 -.40187243149E+02 -.37535087974E+02 -.30479214410E+02 -.20655511461E+02
 -.10808419805E+02 -.34215238075E+01 -.85340093936E+01 -.10808419805E+02 -.17102426039E+02
 -.25376239791E+02 -.33412894246E+02 -.38772455602E+02 -.40045287755E+02 -.36218333030E+02
 -.28089057366E+02 -.17363152566E+02 -.68693559088E+01 0.90860499611E+00 0.37160079633E+01
 0.48097112631E+01 0.66871059149E+01 0.77968847683E+01 0.87642092437E+01 0.93438364199E+01
 0.98779945374E+01 0.10194156147E+02 0.10516085023E+02 0.10730867856E+02 0.10884876534E+02
 0.11020675387E+02 0.11201147660E+02 0.11283126029E+02 0.11355999853E+02 0.11363047918E+02
 0.11389818543E+02 0.11363047918E+02 0.11355999853E+02 0.11283126029E+02 0.11201147660E+02
 0.11020675387E+02 0.10884876534E+02 0.10730867856E+02 0.10516085023E+02 0.10194156147E+02
 0.98779945374E+01 0.93438364199E+01 0.87642092437E+01 0.77968847683E+01 0.66871059149E+01
 0.48097112631E+01 0.37160079633E+01 0.90860499611E+00 -.68693559088E+01 -.17363152566E+02
 -.28089057366E+02 -.36218333030E+02 -.40045287755E+02 -.38772455602E+02 -.33412894246E+02
 -.25376239791E+02 -.17102426039E+02 -.10808419805E+02 -.18904943243E+02 -.20655511461E+02
 -.25376239791E+02 -.31482843618E+02 -.37024115110E+02 -.40006964969E+02 -.39100617939E+02
 -.33795503524E+02 -.25034267519E+02 -.14386137725E+02 -.46636134710E+01 0.18859788828E+01
 0.37650309912E+01 0.50233523963E+01 0.67819988504E+01 0.77948265394E+01 0.87156537433E+01
 0.92619264435E+01 0.97865712864E+01 0.10092234236E+02 0.10408633498E+02 0.10602086984E+02
 0.10850645278E+02 0.10928843727E+02 0.11089770740E+02 0.11153678842E+02 0.11283126029E+02
 0.11288607127E+02 0.11348937831E+02 0.11288607127E+02 0.11283126029E+02 0.11153678842E+02
 0.11089770740E+02 0.10928843727E+02 0.10850645278E+02 0.10602086984E+02 0.10408633498E+02
 0.10092234236E+02 0.97865712864E+01 0.92619264435E+01 0.87156537433E+01 0.77948265394E+01
 0.67819988504E+01 0.50233523963E+01 0.37650309912E+01 0.18859788828E+01 -.46636134710E+01
 -.14386137725E+02 -.25034267519E+02 -.33795503524E+02 -.39100617939E+02 -.40006964969E+02
 -.37024115110E+02 -.31482843618E+02 -.25376239791E+02 -.20655511461E+02 -.29313183413E+02
 -.30479214410E+02 -.33412894246E+02 -.37024115110E+02 -.39632156911E+02 -.39886558013E+02
 -.36688356681E+02 -.29975737391E+02 -.20584168778E+02 -.10547209803E+02 -.20157475950E+01
 0.27547681836E+01 0.38278085822E+01 0.53857785883E+01 0.68669639745E+01 0.78303904998E+01
 0.86296701279E+01 0.91543329238E+01 0.96285379836E+01 0.99483223599E+01 0.10263262690E+02
 0.10476739424E+02 0.10693855154E+02 0.10814046742E+02 0.11002676920E+02 0.11089770740E+02
 0.11201147660E+02 0.11211907743E+02 0.11258430603E+02 0.11211907743E+02 0.11201147660E+02
 0.11089770740E+02 0.11002676920E+02 0.10814046742E+02 0.10693855154E+02 0.10476739424E+02
 0.10263262690E+02 0.99483223599E+01 0.96285379836E+01 0.91543329238E+01 0.86296701279E+01
 0.78303904998E+01 0.68669639745E+01 0.53857785883E+01 0.38278085822E+01 0.27547681836E+01
 -.20157475950E+01 -.10547209803E+02 -.20584168778E+02 -.29975737391E+02 -.36688356681E+02
 -.39886558013E+02 -.39632156911E+02 -.37024115110E+02 -.33412894246E+02 -.30479214410E+02
 -.36945580074E+02 -.37535087974E+02 -.38772455602E+02 -.40006964969E+02 -.39886558013E+02
 -.37568190584E+02 -.32212897741E+02 -.24460763083E+02 -.15119688048E+02 -.61831394034E+01
 0.57474290212E+00 0.32242623846E+01 0.40404498972E+01 0.57688806218E+01 0.68899258312E+01
 0.78390335141E+01 0.84792534045E+01 0.90406826924E+01 0.94290427238E+01 0.97837003873E+01
 0.10056736243E+02 0.10295560922E+02 0.10542857938E+02 0.10718743414E+02 0.10814046742E+02
 0.10928843727E+02 0.11020675387E+02 0.11091929672E+02 0.11108299387E+02 0.11091929672E+02
 0.11020675387E+02 0.10928843727E+02 0.10814046742E+02 0.10718743414E+02 0.10542857938E+02
 0.10295560922E+02 0.10056736243E+02 0.97837003873E+01 0.94290427238E+01 0.90406826924E+01
 0.84792534045E+01 0.78390335141E+01 0.68899258312E+01 0.57688806218E+01 0.40404498972E+01
 0.32242623846E+01 0.57474290212E+00 -.61831394034E+01 -.15119688048E+02 -.24460763083E+02
 -.32212897741E+02 -.37568190584E+02 -.39886558013E+02 -.40006964969E+02 -.38772455602E+02
 -.37535087974E+02 -.40182710616E+02 -.40187243149E+02 -.40045287755E+02 -.39100617939E+02
 -.36688356681E+02 -.32212897741E+02 -.25725010190E+02 -.17625832955E+02 -.90670381696E+01
 -.19310618217E+01 0.23825431593E+01 0.32973802156E+01 0.45635092509E+01 0.60372404970E+01
 0.69622919972E+01 0.77820240236E+01 0.83148576432E+01 0.88272557992E+01 0.91892263869E+01
 0.95725271583E+01 0.98247660219E+01 0.10128369010E+02 0.10277038383E+02 0.10542857938E+02
 0.10693855154E+02 0.10850645278E+02 0.10884876534E+02 0.10967134798E+02 0.10943729372E+02
 0.10967134798E+02 0.10884876534E+02 0.10850645278E+02 0.10693855154E+02 0.10542857938E+02
 0.10277038383E+02 0.10128369010E+02 0.98247660219E+01 0.95725271583E+01 0.91892263869E+01
 0.88272557992E+01 0.83148576432E+01 0.77820240236E+01 0.69622919972E+01 0.60372404970E+01
 0.45635092509E+01 0.32973802156E+01 0.23825431593E+01 -.19310618217E+01 -.90670381696E+01
 -.17625832955E+02 -.25725010190E+02 -.32212897741E+02 -.36688356681E+02 -.39100617939E+02
 -.40045287755E+02 -.40187243149E+02 -.37812000075E+02 -.37409123016E+02 -.36218333030E+02
 -.33795503524E+02 -.29975737391E+02 -.24460763083E+02 -.17625832955E+02 -.10081856065E+02
 -.34759195510E+01 0.14083025056E+01 0.29603885277E+01 0.36800293872E+01 0.52285188315E+01
 0.62032259315E+01 0.70732884389E+01 0.76602774609E+01 0.82061567067E+01 0.85915660613E+01
 0.89608415074E+01 0.92634650594E+01 0.96019941747E+01 0.98401179519E+01 0.10128369010E+02
 0.10295560922E+02 0.10476739424E+02 0.10602086984E+02 0.10730867856E+02 0.10776870231E+02
 0.10817830587E+02 0.10776870231E+02 0.10730867856E+02 0.10602086984E+02 0.10476739424E+02
 0.10295560922E+02 0.10128369010E+02 0.98401179519E+01 0.96019941747E+01 0.92634650594E+01
 0.89608415074E+01 0.85915660613E+01 0.82061567067E+01 0.76602774609E+01 0.70732884389E+01
 0.62032259315E+01 0.52285188315E+01 0.36800293872E+01 0.29603885277E+01 0.14083025056E+01
 -.34759195510E+01 -.10081856065E+02 -.17625832955E+02 -.24460763083E+02 -.29975737391E+02
 -.33795503524E+02 -.36218333030E+02 -.37409123016E+02 -.30468189282E+02 -.29920768133E+02
 -.28089057366E+02 -.25034267519E+02 -.20584168778E+02 -.15119688048E+02 -.90670381696E+01
 -.34759195510E+01 0.97728523987E+00 0.27833854289E+01 0.32100070042E+01 0.45219373615E+01
 0.55376083182E+01 0.63373701442E+01 0.69622919972E+01 0.74785385205E+01 0.79293423765E+01
 0.83332163785E+01 0.87096494010E+01 0.90004988178E+01 0.92889243326E+01 0.96019941747E+01
 0.98247660219E+01 0.10056736243E+02 0.10263262690E+02 0.10408633498E+02 0.10516085023E+02
 0.10570986394E+02 0.10595580520E+02 0.10570986394E+02 0.10516085023E+02 0.10408633498E+02
 0.10263262690E+02 0.10056736243E+02 0.98247660219E+01 0.96019941747E+01 0.92889243326E+01
 0.90004988178E+01 0.87096494010E+01 0.83332163785E+01 0.79293423765E+01 0.74785385205E+01
 0.69622919972E+01 0.63373701442E+01 0.55376083182E+01 0.45219373615E+01 0.32100070042E+01
 0.27833854289E+01 0.97728523987E+00 -.34759195510E+01 -.90670381696E+01 -.15119688048E+02
 -.20584168778E+02 -.25034267519E+02 -.28089057366E+02 -.29920768133E+02 -.19819545981E+02
 -.19182319662E+02 -.17363152566E+02 -.14386137725E+02 -.10547209803E+02 -.61831394034E+01
 -.19310618217E+01 0.14083025056E+01 0.27833854289E+01 0.30666394822E+01 0.41152973952E+01
 0.50893651257E+01 0.58118022113E+01 0.64287128761E+01 0.68899258312E+01 0.73059751119E+01
 0.76413394808E+01 0.80045778792E+01 0.83468028083E+01 0.87342174166E+01 0.90004988178E+01
 0.92634650594E+01 0.95725271583E+01 0.97837003873E+01 0.99483223599E+01 0.10092234236E+02
 0.10194156147E+02 0.10270612773E+02 0.10286691211E+02 0.10270612773E+02 0.10194156147E+02
 0.10092234236E+02 0.99483223599E+01 0.97837003873E+01 0.95725271583E+01 0.92634650594E+01
 0.90004988178E+01 0.87342174166E+01 0.83468028083E+01 0.80045778792E+01 0.76413394808E+01
 0.73059751119E+01 0.68899258312E+01 0.64287128761E+01 0.58118022113E+01 0.50893651257E+01
 0.41152973952E+01 0.30666394822E+01 0.27833854289E+01 0.14083025056E+01 -.19310618217E+01
 -.61831394034E+01 -.10547209803E+02 -.14386137725E+02 -.17363152566E+02 -.19182319662E+02
 -.88014707560E+01 -.83046224654E+01 -.68693559088E+01 -.46636134710E+01 -.20157475950E+01
 0.57474290212E+00 0.23825431593E+01 0.29603885277E+01 0.32100070042E+01 0.41152973952E+01
 0.49387053890E+01 0.55603208975E+01 0.61064322757E+01 0.65077650338E+01 0.68669639745E+01
 0.71554324679E+01 0.74506491977E+01 0.77113501243E+01 0.80238905856E+01 0.83468028083E+01
 0.87096494010E+01 0.89608415074E+01 0.91892263869E+01 0.94290427238E+01 0.96285379836E+01
 0.97865712864E+01 0.98779945374E+01 0.99312777044E+01 0.99456728581E+01 0.99312777044E+01
 0.98779945374E+01 0.97865712864E+01 0.96285379836E+01 0.94290427238E+01 0.91892263869E+01
 0.89608415074E+01 0.87096494010E+01 0.83468028083E+01 0.80238905856E+01 0.77113501243E+01
 0.74506491977E+01 0.71554324679E+01 0.68669639745E+01 0.65077650338E+01 0.61064322757E+01
 0.55603208975E+01 0.49387053890E+01 0.41152973952E+01 0.32100070042E+01 0.29603885277E+01
 0.23825431593E+01 0.57474290212E+00 -.20157475950E+01 -.46636134710E+01 -.68693559088E+01
 -.83046224654E+01 -.95985087464E-01 0.17566308274E+00 0.90860499611E+00 0.18859788828E+01
 0.27547681836E+01 0.32242623846E+01 0.32973802156E+01 0.36800293872E+01 0.45219373615E+01
 0.50893651257E+01 0.55603208975E+01 0.59871652489E+01 0.63004871548E+01 0.65624157326E+01
 0.67819988504E+01 0.70120815395E+01 0.72382082647E+01 0.74776651845E+01 0.77113501243E+01
 0.80045778792E+01 0.83332163785E+01 0.85915660613E+01 0.88272557992E+01 0.90406826924E+01
 0.91543329238E+01 0.92619264435E+01 0.93438364199E+01 0.94015918568E+01 0.94185329511E+01
 0.94015918568E+01 0.93438364199E+01 0.92619264435E+01 0.91543329238E+01 0.90406826924E+01
 0.88272557992E+01 0.85915660613E+01 0.83332163785E+01 0.80045778792E+01 0.77113501243E+01
 0.74776651845E+01 0.72382082647E+01 0.70120815395E+01 0.67819988504E+01 0.65624157326E+01
 0.63004871548E+01 0.59871652489E+01 0.55603208975E+01 0.50893651257E+01 0.45219373615E+01
 0.36800293872E+01 0.32973802156E+01 0.32242623846E+01 0.27547681836E+01 0.18859788828E+01
 0.90860499611E+00 0.17566308274E+00 0.36127972727E+01 0.36392419887E+01 0.37160079633E+01
 0.37650309912E+01 0.38278085822E+01 0.40404498972E+01 0.45635092509E+01 0.52285188315E+01
 0.55376083182E+01 0.58118022113E+01 0.61064322757E+01 0.63004871548E+01 0.64562715288E+01
 0.65519204816E+01 0.66871059149E+01 0.68347233758E+01 0.70433635360E+01 0.72382082647E+01
 0.74506491977E+01 0.76413394808E+01 0.79293423765E+01 0.82061567067E+01 0.83148576432E+01
 0.84792534045E+01 0.86296701279E+01 0.87156537433E+01 0.87642092437E+01 0.87709233754E+01
 0.87809506241E+01 0.87709233754E+01 0.87642092437E+01 0.87156537433E+01 0.86296701279E+01
 0.84792534045E+01 0.83148576432E+01 0.82061567067E+01 0.79293423765E+01 0.76413394808E+01
 0.74506491977E+01 0.72382082647E+01 0.70433635360E+01 0.68347233758E+01 0.66871059149E+01
 0.65519204816E+01 0.64562715288E+01 0.63004871548E+01 0.61064322757E+01 0.58118022113E+01
 0.55376083182E+01 0.52285188315E+01 0.45635092509E+01 0.40404498972E+01 0.38278085822E+01
 0.37650309912E+01 0.37160079633E+01 0.36392419887E+01 0.46659161211E+01 0.46902747761E+01
 0.48097112631E+01 0.50233523963E+01 0.53857785883E+01 0.57688806218E+01 0.60372404970E+01
 0.62032259315E+01 0.63373701442E+01 0.64287128761E+01 0.65077650338E+01 0.65624157326E+01
 0.65519204816E+01 0.65580367159E+01 0.65903510937E+01 0.66937028206E+01 0.68347233758E+01
 0.70120815395E+01 0.71554324679E+01 0.73059751119E+01 0.74785385205E+01 0.76602774609E+01
 0.77820240236E+01 0.78390335141E+01 0.78303904998E+01 0.77948265394E+01 0.77968847683E+01
 0.77887284916E+01 0.77968714203E+01 0.77887284916E+01 0.77968847683E+01 0.77948265394E+01
 0.78303904998E+01 0.78390335141E+01 0.77820240236E+01 0.76602774609E+01 0.74785385205E+01
 0.73059751119E+01 0.71554324679E+01 0.70120815395E+01 0.68347233758E+01 0.66937028206E+01
 0.65903510937E+01 0.65580367159E+01 0.65519204816E+01 0.65624157326E+01 0.65077650338E+01
 0.64287128761E+01 0.63373701442E+01 0.62032259315E+01 0.60372404970E+01 0.57688806218E+01
 0.53857785883E+01 0.50233523963E+01 0.48097112631E+01 0.46902747761E+01 0.65651162161E+01
 0.65903510937E+01 0.66871059149E+01 0.67819988504E+01 0.68669639745E+01 0.68899258312E+01
 0.69622919972E+01 0.70732884389E+01 0.69622919972E+01 0.68899258312E+01 0.68669639745E+01
 0.67819988504E+01 0.66871059149E+01 0.65903510937E+01 0.65651162161E+01 0.65903510937E+01
 0.66871059149E+01 0.67819988504E+01 0.68669639745E+01 0.68899258312E+01 0.69622919972E+01
 0.70732884389E+01 0.69622919972E+01 0.68899258312E+01 0.68669639745E+01 0.67819988504E+01
 0.66871059149E+01 0.65903510937E+01 0.65651162161E+01 0.65903510937E+01 0.66871059149E+01
 0.67819988504E+01 0.68669639745E+01 0.68899258312E+01 0.69622919972E+01 0.70732884389E+01
 0.69622919972E+01 0.68899258312E+01 0.68669639745E+01 0.67819988504E+01 0.66871059149E+01
 0.65903510937E+01 0.65651162161E+01 0.65903510937E+01 0.66871059149E+01 0.67819988504E+01
 0.68669639745E+01 0.68899258312E+01 0.69622919972E+01 0.70732884389E+01 0.69622919972E+01
 0.68899258312E+01 0.68669639745E+01 0.67819988504E+01 0.66871059149E+01 0.65903510937E+01
 0.77968714203E+01 0.77887284916E+01 0.77968847683E+01 0.77948265394E+01 0.78303904998E+01
 0.78390335141E+01 0.77820240236E+01 0.76602774609E+01 0.74785385205E+01 0.73059751119E+01
 0.71554324679E+01 0.70120815395E+01 0.68347233758E+01 0.66937028206E+01 0.65903510937E+01
 0.65580367159E+01 0.65519204816E+01 0.65624157326E+01 0.65077650338E+01 0.64287128761E+01
 0.63373701442E+01 0.62032259315E+01 0.60372404970E+01 0.57688806218E+01 0.53857785883E+01
 0.50233523963E+01 0.48097112631E+01 0.46902747761E+01 0.46659161211E+01 0.46902747761E+01
 0.48097112631E+01 0.50233523963E+01 0.53857785883E+01 0.57688806218E+01 0.60372404970E+01
 0.62032259315E+01 0.63373701442E+01 0.64287128761E+01 0.65077650338E+01 0.65624157326E+01
 0.65519204816E+01 0.65580367159E+01 0.65903510937E+01 0.66937028206E+01 0.68347233758E+01
 0.70120815395E+01 0.71554324679E+01 0.73059751119E+01 0.74785385205E+01 0.76602774609E+01
 0.77820240236E+01 0.78390335141E+01 0.78303904998E+01 0.77948265394E+01 0.77968847683E+01
 0.77887284916E+01 0.87809506241E+01 0.87709233754E+01 0.87642092437E+01 0.87156537433E+01
 0.86296701279E+01 0.84792534045E+01 0.83148576432E+01 0.82061567067E+01 0.79293423765E+01
 0.76413394808E+01 0.74506491977E+01 0.72382082647E+01 0.70433635360E+01 0.68347233758E+01
 0.66871059149E+01 0.65519204816E+01 0.64562715288E+01 0.63004871548E+01 0.61064322757E+01
 0.58118022113E+01 0.55376083182E+01 0.52285188315E+01 0.45635092509E+01 0.40404498972E+01
 0.38278085822E+01 0.37650309912E+01 0.37160079633E+01 0.36392419887E+01 0.36127972727E+01
 0.36392419887E+01 0.37160079633E+01 0.37650309912E+01 0.38278085822E+01 0.40404498972E+01
 0.45635092509E+01 0.52285188315E+01 0.55376083182E+01 0.58118022113E+01 0.61064322757E+01
 0.63004871548E+01 0.64562715288E+01 0.65519204816E+01 0.66871059149E+01 0.68347233758E+01
 0.70433635360E+01 0.72382082647E+01 0.74506491977E+01 0.76413394808E+01 0.79293423765E+01
 0.82061567067E+01 0.83148576432E+01 0.84792534045E+01 0.86296701279E+01 0.87156537433E+01
 0.87642092437E+01 0.87709233754E+01 0.94185329511E+01 0.94015918568E+01 0.93438364199E+01
 0.92619264435E+01 0.91543329238E+01 0.90406826924E+01 0.88272557992E+01 0.85915660613E+01
 0.83332163785E+01 0.80045778792E+01 0.77113501243E+01 0.74776651845E+01 0.72382082647E+01
 0.70120815395E+01 0.67819988504E+01 0.65624157326E+01 0.63004871548E+01 0.59871652489E+01
 0.55603208975E+01 0.50893651257E+01 0.45219373615E+01 0.36800293872E+01 0.32973802156E+01
 0.32242623846E+01 0.27547681836E+01 0.18859788828E+01 0.90860499611E+00 0.17566308274E+00
 -.95985087464E-01 0.17566308274E+00 0.90860499611E+00 0.18859788828E+01 0.27547681836E+01
 0.32242623846E+01 0.32973802156E+01 0.36800293872E+01 0.45219373615E+01 0.50893651257E+01
 0.55603208975E+01 0.59871652489E+01 0.63004871548E+01 0.65624157326E+01 0.67819988504E+01
 0.70120815395E+01 0.72382082647E+01 0.74776651845E+01 0.77113501243E+01 0.80045778792E+01
 0.83332163785E+01 0.85915660613E+01 0.88272557992E+01 0.90406826924E+01 0.91543329238E+01
 0.92619264435E+01 0.93438364199E+01 0.94015918568E+01 0.99456728581E+01 0.99312777044E+01
 0.98779945374E+01 0.97865712864E+01 0.96285379836E+01 0.94290427238E+01 0.91892263869E+01
 0.89608415074E+01 0.87096494010E+01 0.83468028083E+01 0.80238905856E+01 0.77113501243E+01
 0.74506491977E+01 0.71554324679E+01 0.68669639745E+01 0.65077650338E+01 0.61064322757E+01
 0.55603208975E+01 0.49387053890E+01 0.41152973952E+01 0.32100070042E+01 0.29603885277E+01
 0.23825431593E+01 0.57474290212E+00 -.20157475950E+01 -.46636134710E+01 -.68693559088E+01
 -.83046224654E+01 -.88014707560E+01 -.83046224654E+01 -.68693559088E+01 -.46636134710E+01
 -.20157475950E+01 0.57474290212E+00 0.23825431593E+01 0.29603885277E+01 0.32100070042E+01
 0.41152973952E+01 0.49387053890E+01 0.55603208975E+01 0.61064322757E+01 0.65077650338E+01
 0.68669639746E+01 0.71554324679E+01 0.74506491977E+01 0.77113501243E+01 0.80238905856E+01
 0.83468028083E+01 0.87096494010E+01 0.89608415074E+01 0.91892263869E+01 0.94290427238E+01
 0.96285379836E+01 0.97865712864E+01 0.98779945374E+01 0.99312777044E+01 0.10286691211E+02
 0.10270612773E+02 0.10194156147E+02 0.10092234236E+02 0.99483223599E+01 0.97837003873E+01
 0.95725271583E+01 0.92634650594E+01 0.90004988178E+01 0.87342174166E+01 0.83468028083E+01
 0.80045778792E+01 0.76413394808E+01 0.73059751119E+01 0.68899258312E+01 0.64287128761E+01
 0.58118022113E+01 0.50893651257E+01 0.41152973952E+01 0.30666394822E+01 0.27833854289E+01
 0.14083025056E+01 -.19310618217E+01 -.61831394034E+01 -.10547209803E+02 -.14386137725E+02
 -.17363152566E+02 -.19182319662E+02 -.19819545981E+02 -.19182319662E+02 -.17363152566E+02
 -.14386137725E+02 -.10547209803E+02 -.61831394034E+01 -.19310618217E+01 0.14083025056E+01
 0.27833854289E+01 0.30666394822E+01 0.41152973952E+01 0.50893651257E+01 0.58118022113E+01
 0.64287128761E+01 0.68899258312E+01 0.73059751119E+01 0.76413394808E+01 0.80045778792E+01
 0.83468028083E+01 0.87342174166E+01 0.90004988178E+01 0.92634650594E+01 0.95725271583E+01
 0.97837003873E+01 0.99483223599E+01 0.10092234236E+02 0.10194156147E+02 0.10270612773E+02
 0.10595580520E+02 0.10570986394E+02 0.10516085023E+02 0.10408633498E+02 0.10263262690E+02
 0.10056736243E+02 0.98247660219E+01 0.96019941747E+01 0.92889243326E+01 0.90004988178E+01
 0.87096494010E+01 0.83332163785E+01 0.79293423765E+01 0.74785385205E+01 0.69622919972E+01
 0.63373701442E+01 0.55376083182E+01 0.45219373615E+01 0.32100070042E+01 0.27833854289E+01
 0.97728523987E+00 -.34759195510E+01 -.90670381696E+01 -.15119688048E+02 -.20584168778E+02
 -.25034267519E+02 -.28089057366E+02 -.29920768133E+02 -.30468189282E+02 -.29920768133E+02
 -.28089057366E+02 -.25034267519E+02 -.20584168778E+02 -.15119688048E+02 -.90670381696E+01
 -.34759195510E+01 0.97728523987E+00 0.27833854289E+01 0.32100070042E+01 0.45219373615E+01
 0.55376083182E+01 0.63373701442E+01 0.69622919972E+01 0.74785385205E+01 0.79293423765E+01
 0.83332163785E+01 0.87096494010E+01 0.90004988178E+01 0.92889243326E+01 0.96019941747E+01
 0.98247660219E+01 0.10056736243E+02 0.10263262690E+02 0.10408633498E+02 0.10516085023E+02
 0.10570986394E+02 0.10817830587E+02 0.10776870231E+02 0.10730867856E+02 0.10602086984E+02
 0.10476739424E+02 0.10295560922E+02 0.10128369010E+02 0.98401179519E+01 0.96019941747E+01
 0.92634650594E+01 0.89608415074E+01 0.85915660613E+01 0.82061567067E+01 0.76602774609E+01
 0.70732884389E+01 0.62032259315E+01 0.52285188315E+01 0.36800293872E+01 0.29603885277E+01
 0.14083025056E+01 -.34759195510E+01 -.10081856065E+02 -.17625832955E+02 -.24460763083E+02
 -.29975737391E+02 -.33795503524E+02 -.36218333030E+02 -.37409123016E+02 -.37812000075E+02
 -.37409123016E+02 -.36218333030E+02 -.33795503524E+02 -.29975737391E+02 -.24460763083E+02
 -.17625832955E+02 -.10081856065E+02 -.34759195510E+01 0.14083025056E+01 0.29603885277E+01
 0.36800293872E+01 0.52285188315E+01 0.62032259315E+01 0.70732884389E+01 0.76602774609E+01
 0.82061567067E+01 0.85915660613E+01 0.89608415074E+01 0.92634650594E+01 0.96019941747E+01
 0.98401179519E+01 0.10128369010E+02 0.10295560922E+02 0.10476739424E+02 0.10602086984E+02
 0.10730867856E+02 0.10776870231E+02 0.10943729372E+02 0.10967134798E+02 0.10884876534E+02
 0.10850645278E+02 0.10693855154E+02 0.10542857938E+02 0.10277038383E+02 0.10128369010E+02
 0.98247660219E+01 0.95725271583E+01 0.91892263869E+01 0.88272557992E+01 0.83148576432E+01
 0.77820240236E+01 0.69622919972E+01 0.60372404970E+01 0.45635092509E+01 0.32973802156E+01
 0.23825431593E+01 -.19310618217E+01 -.90670381696E+01 -.17625832955E+02 -.25725010190E+02
 -.32212897741E+02 -.36688356681E+02 -.39100617939E+02 -.40045287755E+02 -.40187243149E+02
 -.40182710616E+02 -.40187243149E+02 -.40045287755E+02 -.39100617939E+02 -.36688356681E+02
 -.32212897741E+02 -.25725010190E+02 -.17625832955E+02 -.90670381696E+01 -.19310618217E+01
 0.23825431593E+01 0.32973802156E+01 0.45635092509E+01 0.60372404970E+01 0.69622919972E+01
 0.77820240236E+01 0.83148576432E+01 0.88272557992E+01 0.91892263869E+01 0.95725271583E+01
 0.98247660219E+01 0.10128369010E+02 0.10277038383E+02 0.10542857938E+02 0.10693855154E+02
 0.10850645278E+02 0.10884876534E+02 0.10967134798E+02 0.11108299387E+02 0.11091929672E+02
 0.11020675387E+02 0.10928843727E+02 0.10814046742E+02 0.10718743414E+02 0.10542857938E+02
 0.10295560922E+02 0.10056736243E+02 0.97837003873E+01 0.94290427238E+01 0.90406826924E+01
 0.84792534045E+01 0.78390335141E+01 0.68899258312E+01 0.57688806218E+01 0.40404498972E+01
 0.32242623846E+01 0.57474290212E+00 -.61831394034E+01 -.15119688048E+02 -.24460763083E+02
 -.32212897741E+02 -.37568190584E+02 -.39886558013E+02 -.40006964969E+02 -.38772455602E+02
 -.37535087974E+02 -.36945580074E+02 -.37535087974E+02 -.38772455602E+02 -.40006964969E+02
 -.39886558013E+02 -.37568190584E+02 -.32212897741E+02 -.24460763083E+02 -.15119688048E+02
 -.61831394034E+01 0.57474290212E+00 0.32242623846E+01 0.40404498972E+01 0.57688806218E+01
 0.68899258312E+01 0.78390335141E+01 0.84792534045E+01 0.90406826924E+01 0.94290427238E+01
 0.97837003873E+01 0.10056736243E+02 0.10295560922E+02 0.10542857938E+02 0.10718743414E+02
 0.10814046742E+02 0.10928843727E+02 0.11020675387E+02 0.11091929672E+02 0.11258430603E+02
 0.11211907743E+02 0.11201147660E+02 0.11089770740E+02 0.11002676920E+02 0.10814046742E+02
 0.10693855154E+02 0.10476739424E+02 0.10263262690E+02 0.99483223599E+01 0.96285379836E+01
 0.91543329238E+01 0.86296701279E+01 0.78303904998E+01 0.68669639745E+01 0.53857785883E+01
 0.38278085822E+01 0.27547681836E+01 -.20157475950E+01 -.10547209803E+02 -.20584168778E+02
 -.29975737391E+02 -.36688356681E+02 -.39886558013E+02 -.39632156911E+02 -.37024115110E+02
 -.33412894246E+02 -.30479214410E+02 -.29313183413E+02 -.30479214410E+02 -.33412894246E+02
 -.37024115110E+02 -.39632156911E+02 -.39886558013E+02 -.36688356681E+02 -.29975737391E+02
 -.20584168778E+02 -.10547209803E+02 -.20157475950E+01 0.27547681836E+01 0.38278085822E+01
 0.53857785883E+01 0.68669639746E+01 0.78303904998E+01 0.86296701279E+01 0.91543329238E+01
 0.96285379836E+01 0.99483223599E+01 0.10263262690E+02 0.10476739424E+02 0.10693855154E+02
 0.10814046742E+02 0.11002676920E+02 0.11089770740E+02 0.11201147660E+02 0.11211907743E+02
 0.11348937831E+02 0.11288607127E+02 0.11283126029E+02 0.11153678842E+02 0.11089770740E+02
 0.10928843727E+02 0.10850645278E+02 0.10602086984E+02 0.10408633498E+02 0.10092234236E+02
 0.97865712864E+01 0.92619264435E+01 0.87156537433E+01 0.77948265394E+01 0.67819988504E+01
 0.50233523963E+01 0.37650309912E+01 0.18859788828E+01 -.46636134710E+01 -.14386137725E+02
 -.25034267519E+02 -.33795503524E+02 -.39100617939E+02 -.40006964969E+02 -.37024115110E+02
 -.31482843618E+02 -.25376239791E+02 -.20655511461E+02 -.18904943243E+02 -.20655511461E+02
 -.25376239791E+02 -.31482843618E+02 -.37024115110E+02 -.40006964969E+02 -.39100617939E+02
 -.33795503524E+02 -.25034267519E+02 -.14386137725E+02 -.46636134710E+01 0.18859788828E+01
 0.37650309912E+01 0.50233523963E+01 0.67819988504E+01 0.77948265394E+01 0.87156537433E+01
 0.92619264435E+01 0.97865712864E+01 0.10092234236E+02 0.10408633498E+02 0.10602086984E+02
 0.10850645278E+02 0.10928843727E+02 0.11089770740E+02 0.11153678842E+02 0.11283126029E+02
 0.11288607127E+02 0.11389818543E+02 0.11363047918E+02 0.11355999853E+02 0.11283126029E+02
 0.11201147660E+02 0.11020675387E+02 0.10884876534E+02 0.10730867856E+02 0.10516085023E+02
 0.10194156147E+02 0.98779945374E+01 0.93438364199E+01 0.87642092437E+01 0.77968847683E+01
 0.66871059149E+01 0.48097112631E+01 0.37160079633E+01 0.90860499611E+00 -.68693559088E+01
 -.17363152566E+02 -.28089057366E+02 -.36218333030E+02 -.40045287755E+02 -.38772455602E+02
 -.33412894246E+02 -.25376239791E+02 -.17102426039E+02 -.10808419805E+02 -.85340093936E+01
 -.10808419805E+02 -.17102426039E+02 -.25376239791E+02 -.33412894246E+02 -.38772455602E+02
 -.40045287755E+02 -.36218333030E+02 -.28089057366E+02 -.17363152566E+02 -.68693559088E+01
 0.90860499611E+00 0.37160079633E+01 0.48097112631E+01 0.66871059149E+01 0.77968847683E+01
 0.87642092437E+01 0.93438364199E+01 0.98779945374E+01 0.10194156147E+02 0.10516085023E+02
 0.10730867856E+02 0.10884876534E+02 0.11020675387E+02 0.11201147660E+02 0.11283126029E+02
 0.11355999853E+02 0.11363047918E+02 0.11413305530E+02 0.11390940479E+02 0.11363047918E+02
 0.11288607127E+02 0.11211907743E+02 0.11091929672E+02 0.10967134798E+02 0.10776870231E+02
 0.10570986394E+02 0.10270612773E+02 0.99312777044E+01 0.94015918568E+01 0.87709233754E+01
 0.77887284916E+01 0.65903510937E+01 0.46902747761E+01 0.36392419887E+01 0.17566308274E+00
 -.83046224654E+01 -.19182319662E+02 -.29920768133E+02 -.37409123016E+02 -.40187243149E+02
 -.37535087974E+02 -.30479214410E+02 -.20655511461E+02 -.10808419805E+02 -.34215238075E+01
 -.75920649689E+00 -.34215238075E+01 -.10808419805E+02 -.20655511461E+02 -.30479214410E+02
 -.37535087974E+02 -.40187243149E+02 -.37409123016E+02 -.29920768133E+02 -.19182319662E+02
 -.83046224654E+01 0.17566308274E+00 0.36392419887E+01 0.46902747761E+01 0.65903510937E+01
 0.77887284916E+01 0.87709233754E+01 0.94015918568E+01 0.99312777044E+01 0.10270612773E+02
 0.10570986394E+02 0.10776870231E+02 0.10967134798E+02 0.11091929672E+02 0.11211907743E+02
 0.11288607127E+02 0.11363047918E+02 0.11390940479E+02 0.11417047433E+02 0.11413305530E+02
 0.11389818543E+02 0.11348937831E+02 0.11258430603E+02 0.11108299387E+02 0.10943729372E+02
 0.10817830587E+02 0.10595580520E+02 0.10286691211E+02 0.99456728581E+01 0.94185329511E+01
 0.87809506241E+01 0.77968714203E+01 0.65651162161E+01 0.46659161211E+01 0.36127972727E+01
 -.95985087464E-01 -.88014707560E+01 -.19819545981E+02 -.30468189282E+02 -.37812000075E+02
 -.40182710616E+02 -.36945580074E+02 -.29313183413E+02 -.18904943243E+02 -.85340093936E+01
 -.75920649689E+00 0.20361356352E+01 -.75920649689E+00 -.85340093936E+01 -.18904943243E+02
 -.29313183413E+02 -.36945580074E+02 -.40182710616E+02 -.37812000075E+02 -.30468189282E+02
 -.19819545981E+02 -.88014707560E+01 -.95985087464E-01 0.36127972727E+01 0.46659161211E+01
 0.65651162161E+01 0.77968714203E+01 0.87809506241E+01 0.94185329511E+01 0.99456728581E+01
 0.10286691211E+02 0.10595580520E+02 0.10817830587E+02 0.10943729372E+02 0.11108299387E+02