unknown system                          
 1.
     3.536142    0.000000    0.000000
     0.000000    3.536142    0.000000
     0.000000    0.000000    3.536142
     7
Direct
  0.500000  0.500000  0.000000
  0.500000  0.000000  0.500000
  0.000000  0.500000  0.500000
  0.750000  0.250000  0.250000
  0.250000  0.750000  0.250000
  0.250000  0.250000  0.750000
  0.750000  0.750000  0.750000
 
   56   56   56
 0.13133036975E+02 0.13115247582E+02 0.13068028271E+02 0.12986069419E+02 0.12877098704E+02
 0.12738135515E+02 0.12581197940E+02 0.12397538285E+02 0.12208445011E+02 0.12000988507E+02
 0.11793646682E+02 0.11590729726E+02 0.11399274813E+02 0.11213676237E+02 0.11049328178E+02
 0.10896706383E+02 0.10772995187E+02 0.10655257515E+02 0.10575773260E+02 0.10493148938E+02
 0.10454642919E+02 0.10426125920E+02 0.10342212624E+02 0.10351666073E+02 0.10373925559E+02
 0.10372998476E+02 0.10346326520E+02 0.10331949987E+02 0.10321648810E+02 0.10331949987E+02
 0.10346326520E+02 0.10372998476E+02 0.10373925559E+02 0.10351666073E+02 0.10342212624E+02
 0.10426125920E+02 0.10454642919E+02 0.10493148938E+02 0.10575773260E+02 0.10655257515E+02
 0.10772995187E+02 0.10896706383E+02 0.11049328178E+02 0.11213676237E+02 0.11399274813E+02
 0.11590729726E+02 0.11793646682E+02 0.12000988507E+02 0.12208445011E+02 0.12397538285E+02
 0.12581197940E+02 0.12738135515E+02 0.12877098704E+02 0.12986069419E+02 0.13068028271E+02
 0.13115247582E+02 0.13115247582E+02 0.13098022827E+02 0.13048553660E+02 0.12966660341E+02
 0.12856089680E+02 0.12717209041E+02 0.12552980450E+02 0.12372311262E+02 0.12172366007E+02
 0.11967972828E+02 0.11762101417E+02 0.11551256885E+02 0.11350944341E+02 0.11163846641E+02
 0.10996740508E+02 0.10847736475E+02 0.10722915975E+02 0.10619362420E+02 0.10538390414E+02
 0.10468687756E+02 0.10414978226E+02 0.10381592142E+02 0.10354059274E+02 0.10333726089E+02
 0.10317279609E+02 0.10311833566E+02 0.10309951921E+02 0.10308970927E+02 0.10308427852E+02
 0.10308970927E+02 0.10309951921E+02 0.10311833566E+02 0.10317279609E+02 0.10333726089E+02
 0.10354059274E+02 0.10381592142E+02 0.10414978226E+02 0.10468687756E+02 0.10538390414E+02
 0.10619362420E+02 0.10722915975E+02 0.10847736475E+02 0.10996740508E+02 0.11163846641E+02
 0.11350944341E+02 0.11551256885E+02 0.11762101417E+02 0.11967972828E+02 0.12172366007E+02
 0.12372311262E+02 0.12552980450E+02 0.12717209041E+02 0.12856089680E+02 0.12966660341E+02
 0.13048553660E+02 0.13098022827E+02 0.13068028271E+02 0.13048553660E+02 0.12998619431E+02
 0.12910675359E+02 0.12794913182E+02 0.12646236576E+02 0.12479372532E+02 0.12283439979E+02
 0.12083017096E+02 0.11863214455E+02 0.11644632753E+02 0.11431953852E+02 0.11233952939E+02
 0.11043834181E+02 0.10878227321E+02 0.10727240746E+02 0.10607713437E+02 0.10497833979E+02
 0.10425683936E+02 0.10359663128E+02 0.10323491556E+02 0.10317211225E+02 0.10245335084E+02
 0.10250011386E+02 0.10284174426E+02 0.10296075395E+02 0.10282039322E+02 0.10271457391E+02
 0.10264428324E+02 0.10271457391E+02 0.10282039322E+02 0.10296075395E+02 0.10284174426E+02
 0.10250011386E+02 0.10245335084E+02 0.10317211225E+02 0.10323491556E+02 0.10359663128E+02
 0.10425683936E+02 0.10497833979E+02 0.10607713437E+02 0.10727240746E+02 0.10878227321E+02
 0.11043834181E+02 0.11233952939E+02 0.11431953852E+02 0.11644632753E+02 0.11863214455E+02
 0.12083017096E+02 0.12283439979E+02 0.12479372532E+02 0.12646236576E+02 0.12794913182E+02
 0.12910675359E+02 0.12998619431E+02 0.13048553660E+02 0.12986069419E+02 0.12966660341E+02
 0.12910675359E+02 0.12818143428E+02 0.12692922334E+02 0.12536122822E+02 0.12350685123E+02
 0.12147604363E+02 0.11923039521E+02 0.11695060557E+02 0.11468388912E+02 0.11238749301E+02
 0.11022270860E+02 0.10826002230E+02 0.10654694595E+02 0.10510867738E+02 0.10394143140E+02
 0.10310178988E+02 0.10242258329E+02 0.10203844012E+02 0.10158070349E+02 0.10158276467E+02
 0.10168002250E+02 0.10138115972E+02 0.10135568122E+02 0.10150424381E+02 0.10173943006E+02
 0.10182035328E+02 0.10188778634E+02 0.10182035328E+02 0.10173943006E+02 0.10150424381E+02
 0.10135568122E+02 0.10138115972E+02 0.10168002250E+02 0.10158276467E+02 0.10158070349E+02
 0.10203844012E+02 0.10242258329E+02 0.10310178988E+02 0.10394143140E+02 0.10510867738E+02
 0.10654694595E+02 0.10826002230E+02 0.11022270860E+02 0.11238749301E+02 0.11468388912E+02
 0.11695060557E+02 0.11923039521E+02 0.12147604363E+02 0.12350685123E+02 0.12536122822E+02
 0.12692922334E+02 0.12818143428E+02 0.12910675359E+02 0.12966660341E+02 0.12877098704E+02
 0.12856089680E+02 0.12794913182E+02 0.12692922334E+02 0.12554038317E+02 0.12380382525E+02
 0.12181257752E+02 0.11952561122E+02 0.11715744041E+02 0.11463782946E+02 0.11207022648E+02
 0.10968798905E+02 0.10748488567E+02 0.10549973529E+02 0.10377073053E+02 0.10234919909E+02
 0.10122642321E+02 0.10039307914E+02 0.99866412288E+01 0.99670700373E+01 0.99561780243E+01
 0.99725270148E+01 0.99723107981E+01 0.99769473694E+01 0.10016256844E+02 0.10045683306E+02
 0.10061873644E+02 0.10066334339E+02 0.10068622317E+02 0.10066334339E+02 0.10061873644E+02
 0.10045683306E+02 0.10016256844E+02 0.99769473694E+01 0.99723107981E+01 0.99725270148E+01
 0.99561780243E+01 0.99670700373E+01 0.99866412288E+01 0.10039307914E+02 0.10122642321E+02
 0.10234919909E+02 0.10377073053E+02 0.10549973529E+02 0.10748488567E+02 0.10968798905E+02
 0.11207022648E+02 0.11463782946E+02 0.11715744041E+02 0.11952561122E+02 0.12181257752E+02
 0.12380382525E+02 0.12554038317E+02 0.12692922334E+02 0.12794913182E+02 0.12856089680E+02
 0.12738135515E+02 0.12717209041E+02 0.12646236576E+02 0.12536122822E+02 0.12380382525E+02
 0.12192110831E+02 0.11963239707E+02 0.11720336075E+02 0.11445835291E+02 0.11171881084E+02
 0.10907101751E+02 0.10645686381E+02 0.10396322451E+02 0.10181123433E+02 0.10001055056E+02
 0.98674372016E+01 0.97710249534E+01 0.97201160441E+01 0.96856843157E+01 0.96782200409E+01
 0.96948748784E+01 0.97046205053E+01 0.97864776722E+01 0.98111165093E+01 0.98002801865E+01
 0.98206324129E+01 0.98564015048E+01 0.98843575397E+01 0.98939705954E+01 0.98843575397E+01
 0.98564015048E+01 0.98206324129E+01 0.98002801865E+01 0.98111165093E+01 0.97864776722E+01
 0.97046205053E+01 0.96948748784E+01 0.96782200409E+01 0.96856843157E+01 0.97201160441E+01
 0.97710249534E+01 0.98674372016E+01 0.10001055056E+02 0.10181123433E+02 0.10396322451E+02
 0.10645686381E+02 0.10907101751E+02 0.11171881084E+02 0.11445835291E+02 0.11720336075E+02
 0.11963239707E+02 0.12192110831E+02 0.12380382525E+02 0.12536122822E+02 0.12646236576E+02
 0.12717209041E+02 0.12581197940E+02 0.12552980450E+02 0.12479372532E+02 0.12350685123E+02
 0.12181257752E+02 0.11963239707E+02 0.11720208066E+02 0.11433645509E+02 0.11143670737E+02
 0.10844722735E+02 0.10528618373E+02 0.10232937835E+02 0.99796296865E+01 0.97617751238E+01
 0.95870411369E+01 0.94482935395E+01 0.93585891185E+01 0.93057171023E+01 0.93154781250E+01
 0.93436366956E+01 0.93881852888E+01 0.94490365190E+01 0.94705387033E+01 0.95612261592E+01
 0.96399042353E+01 0.96736478577E+01 0.96839689412E+01 0.96923231581E+01 0.96936116972E+01
 0.96923231581E+01 0.96839689412E+01 0.96736478577E+01 0.96399042353E+01 0.95612261592E+01
 0.94705387033E+01 0.94490365190E+01 0.93881852888E+01 0.93436366956E+01 0.93154781250E+01
 0.93057171023E+01 0.93585891185E+01 0.94482935395E+01 0.95870411369E+01 0.97617751238E+01
 0.99796296865E+01 0.10232937835E+02 0.10528618373E+02 0.10844722735E+02 0.11143670737E+02
 0.11433645509E+02 0.11720208066E+02 0.11963239707E+02 0.12181257752E+02 0.12350685123E+02
 0.12479372532E+02 0.12552980450E+02 0.12397538285E+02 0.12372311262E+02 0.12283439979E+02
 0.12147604363E+02 0.11952561122E+02 0.11720336075E+02 0.11433645509E+02 0.11132542796E+02
 0.10804915426E+02 0.10444462939E+02 0.10121501186E+02 0.98338753888E+01 0.95632752304E+01
 0.93289970769E+01 0.91417880640E+01 0.90179251439E+01 0.89417742682E+01 0.89131284270E+01
 0.89009711962E+01 0.89513187244E+01 0.90371905934E+01 0.91104398488E+01 0.92194695814E+01
 0.92767733972E+01 0.93310544908E+01 0.93925233410E+01 0.94421940990E+01 0.94707761396E+01
 0.94809300694E+01 0.94707761396E+01 0.94421940990E+01 0.93925233410E+01 0.93310544908E+01
 0.92767733972E+01 0.92194695814E+01 0.91104398488E+01 0.90371905934E+01 0.89513187244E+01
 0.89009711962E+01 0.89131284270E+01 0.89417742682E+01 0.90179251439E+01 0.91417880640E+01
 0.93289970769E+01 0.95632752304E+01 0.98338753888E+01 0.10121501186E+02 0.10444462939E+02
 0.10804915426E+02 0.11132542796E+02 0.11433645509E+02 0.11720336075E+02 0.11952561122E+02
 0.12147604363E+02 0.12283439979E+02 0.12372311262E+02 0.12208445011E+02 0.12172366007E+02
 0.12083017096E+02 0.11923039521E+02 0.11715744041E+02 0.11445835291E+02 0.11143670737E+02
 0.10804915426E+02 0.10415238943E+02 0.10067547406E+02 0.97296074987E+01 0.93682631332E+01
 0.90434212024E+01 0.87748549358E+01 0.85864172637E+01 0.84636445123E+01 0.84253033740E+01
 0.84428904906E+01 0.85126082285E+01 0.85550827800E+01 0.86347106200E+01 0.87752805884E+01
 0.88467584838E+01 0.89564776211E+01 0.90561902491E+01 0.91237843219E+01 0.91685715212E+01
 0.91917013968E+01 0.92004033337E+01 0.91917013968E+01 0.91685715212E+01 0.91237843219E+01
 0.90561902491E+01 0.89564776211E+01 0.88467584838E+01 0.87752805884E+01 0.86347106200E+01
 0.85550827800E+01 0.85126082285E+01 0.84428904906E+01 0.84253033740E+01 0.84636445123E+01
 0.85864172637E+01 0.87748549358E+01 0.90434212024E+01 0.93682631332E+01 0.97296074987E+01
 0.10067547406E+02 0.10415238943E+02 0.10804915426E+02 0.11143670737E+02 0.11445835291E+02
 0.11715744041E+02 0.11923039521E+02 0.12083017096E+02 0.12172366007E+02 0.12000988507E+02
 0.11967972828E+02 0.11863214455E+02 0.11695060557E+02 0.11463782946E+02 0.11171881084E+02
 0.10844722735E+02 0.10444462939E+02 0.10067547406E+02 0.96879251763E+01 0.92419513959E+01
 0.88480185044E+01 0.85175960687E+01 0.82719130264E+01 0.80778443772E+01 0.79612805605E+01
 0.78953122896E+01 0.79210093212E+01 0.80058495067E+01 0.81619533993E+01 0.82487723353E+01
 0.83398783931E+01 0.85174381457E+01 0.85990717445E+01 0.86725642684E+01 0.87278280449E+01
 0.87811244999E+01 0.88133584867E+01 0.88267987652E+01 0.88133584867E+01 0.87811244999E+01
 0.87278280449E+01 0.86725642684E+01 0.85990717445E+01 0.85174381457E+01 0.83398783931E+01
 0.82487723353E+01 0.81619533993E+01 0.80058495067E+01 0.79210093212E+01 0.78953122896E+01
 0.79612805605E+01 0.80778443772E+01 0.82719130264E+01 0.85175960687E+01 0.88480185044E+01
 0.92419513959E+01 0.96879251763E+01 0.10067547406E+02 0.10444462939E+02 0.10844722735E+02
 0.11171881084E+02 0.11463782946E+02 0.11695060557E+02 0.11863214455E+02 0.11967972828E+02
 0.11793646682E+02 0.11762101417E+02 0.11644632753E+02 0.11468388912E+02 0.11207022648E+02
 0.10907101751E+02 0.10528618373E+02 0.10121501186E+02 0.97296074987E+01 0.92419513959E+01
 0.87879624781E+01 0.84053903494E+01 0.80958973296E+01 0.78380872387E+01 0.76507249328E+01
 0.75232252938E+01 0.74676398415E+01 0.74583240297E+01 0.75303241521E+01 0.76627571894E+01
 0.78451167034E+01 0.79517561551E+01 0.80389785575E+01 0.81702356823E+01 0.82651050406E+01
 0.83526609978E+01 0.83802848464E+01 0.84062093838E+01 0.84019049730E+01 0.84062093838E+01
 0.83802848464E+01 0.83526609978E+01 0.82651050406E+01 0.81702356823E+01 0.80389785575E+01
 0.79517561551E+01 0.78451167034E+01 0.76627571894E+01 0.75303241521E+01 0.74583240297E+01
 0.74676398415E+01 0.75232252938E+01 0.76507249328E+01 0.78380872387E+01 0.80958973296E+01
 0.84053903494E+01 0.87879624781E+01 0.92419513959E+01 0.97296074987E+01 0.10121501186E+02
 0.10528618373E+02 0.10907101751E+02 0.11207022648E+02 0.11468388912E+02 0.11644632753E+02
 0.11762101417E+02 0.11590729726E+02 0.11551256885E+02 0.11431953852E+02 0.11238749301E+02
 0.10968798905E+02 0.10645686381E+02 0.10232937835E+02 0.98338753888E+01 0.93682631332E+01
 0.88480185044E+01 0.84053903494E+01 0.80279316650E+01 0.77048045118E+01 0.74287238390E+01
 0.72296466204E+01 0.71063819083E+01 0.70552254379E+01 0.70509714820E+01 0.70867768608E+01
 0.71957472241E+01 0.73703318378E+01 0.74803876398E+01 0.75934859038E+01 0.76901195045E+01
 0.77140836079E+01 0.77409755818E+01 0.77722618461E+01 0.77913751126E+01 0.78017497083E+01
 0.77913751126E+01 0.77722618461E+01 0.77409755818E+01 0.77140836079E+01 0.76901195045E+01
 0.75934859038E+01 0.74803876398E+01 0.73703318378E+01 0.71957472241E+01 0.70867768608E+01
 0.70509714820E+01 0.70552254379E+01 0.71063819083E+01 0.72296466204E+01 0.74287238390E+01
 0.77048045118E+01 0.80279316650E+01 0.84053903494E+01 0.88480185044E+01 0.93682631332E+01
 0.98338753888E+01 0.10232937835E+02 0.10645686381E+02 0.10968798905E+02 0.11238749301E+02
 0.11431953852E+02 0.11551256885E+02 0.11399274813E+02 0.11350944341E+02 0.11233952939E+02
 0.11022270860E+02 0.10748488567E+02 0.10396322451E+02 0.99796296865E+01 0.95632752304E+01
 0.90434212024E+01 0.85175960687E+01 0.80958973296E+01 0.77048045118E+01 0.73509513138E+01
 0.70409483145E+01 0.68297141649E+01 0.67007289250E+01 0.66670060446E+01 0.66617522734E+01
 0.66893898472E+01 0.67213731619E+01 0.68571691861E+01 0.70022814843E+01 0.69850670755E+01
 0.70450564618E+01 0.71001334403E+01 0.71156966508E+01 0.71066996059E+01 0.70837428438E+01
 0.70792715389E+01 0.70837428438E+01 0.71066996059E+01 0.71156966508E+01 0.71001334403E+01
 0.70450564618E+01 0.69850670755E+01 0.70022814843E+01 0.68571691861E+01 0.67213731619E+01
 0.66893898472E+01 0.66617522734E+01 0.66670060446E+01 0.67007289250E+01 0.68297141649E+01
 0.70409483145E+01 0.73509513138E+01 0.77048045118E+01 0.80958973296E+01 0.85175960687E+01
 0.90434212024E+01 0.95632752304E+01 0.99796296865E+01 0.10396322451E+02 0.10748488567E+02
 0.11022270860E+02 0.11233952939E+02 0.11350944341E+02 0.11213676237E+02 0.11163846641E+02
 0.11043834181E+02 0.10826002230E+02 0.10549973529E+02 0.10181123433E+02 0.97617751238E+01
 0.93289970769E+01 0.87748549358E+01 0.82719130264E+01 0.78380872387E+01 0.74287238390E+01
 0.70409483145E+01 0.67170523101E+01 0.64815545717E+01 0.63484975174E+01 0.62920003313E+01
 0.62870342281E+01 0.62712648856E+01 0.62688434346E+01 0.63051652145E+01 0.63553084227E+01
 0.63625242473E+01 0.63126928156E+01 0.62177765196E+01 0.61079306895E+01 0.60599750412E+01
 0.60171038643E+01 0.60169945516E+01 0.60171038643E+01 0.60599750412E+01 0.61079306895E+01
 0.62177765196E+01 0.63126928156E+01 0.63625242473E+01 0.63553084227E+01 0.63051652145E+01
 0.62688434346E+01 0.62712648856E+01 0.62870342281E+01 0.62920003313E+01 0.63484975174E+01
 0.64815545717E+01 0.67170523101E+01 0.70409483145E+01 0.74287238390E+01 0.78380872387E+01
 0.82719130264E+01 0.87748549358E+01 0.93289970769E+01 0.97617751238E+01 0.10181123433E+02
 0.10549973529E+02 0.10826002230E+02 0.11043834181E+02 0.11163846641E+02 0.11049328178E+02
 0.10996740508E+02 0.10878227321E+02 0.10654694595E+02 0.10377073053E+02 0.10001055056E+02
 0.95870411369E+01 0.91417880640E+01 0.85864172637E+01 0.80778443772E+01 0.76507249328E+01
 0.72296466204E+01 0.68297141649E+01 0.64815545717E+01 0.62304470346E+01 0.60649692015E+01
 0.59846653838E+01 0.59234198253E+01 0.58575241262E+01 0.57435647038E+01 0.56821425284E+01
 0.56728256315E+01 0.54471938264E+01 0.52768942083E+01 0.51661152927E+01 0.50141364977E+01
 0.48663875223E+01 0.47406670742E+01 0.47029265154E+01 0.47406670742E+01 0.48663875223E+01
 0.50141364977E+01 0.51661152927E+01 0.52768942083E+01 0.54471938264E+01 0.56728256315E+01
 0.56821425284E+01 0.57435647038E+01 0.58575241262E+01 0.59234198253E+01 0.59846653838E+01
 0.60649692015E+01 0.62304470346E+01 0.64815545717E+01 0.68297141649E+01 0.72296466204E+01
 0.76507249328E+01 0.80778443772E+01 0.85864172637E+01 0.91417880640E+01 0.95870411369E+01
 0.10001055056E+02 0.10377073053E+02 0.10654694595E+02 0.10878227321E+02 0.10996740508E+02
 0.10896706383E+02 0.10847736475E+02 0.10727240746E+02 0.10510867738E+02 0.10234919909E+02
 0.98674372016E+01 0.94482935395E+01 0.90179251439E+01 0.84636445123E+01 0.79612805605E+01
 0.75232252938E+01 0.71063819083E+01 0.67007289250E+01 0.63484975174E+01 0.60649692015E+01
 0.58632758447E+01 0.57066481680E+01 0.55706902379E+01 0.53814848081E+01 0.51695314920E+01
 0.49559439578E+01 0.47031329833E+01 0.44317878946E+01 0.40658679142E+01 0.36026251897E+01
 0.31722759252E+01 0.29118056658E+01 0.27609225875E+01 0.27283050539E+01 0.27609225875E+01
 0.29118056658E+01 0.31722759252E+01 0.36026251897E+01 0.40658679142E+01 0.44317878946E+01
 0.47031329833E+01 0.49559439578E+01 0.51695314920E+01 0.53814848081E+01 0.55706902379E+01
 0.57066481680E+01 0.58632758447E+01 0.60649692015E+01 0.63484975174E+01 0.67007289250E+01
 0.71063819083E+01 0.75232252938E+01 0.79612805605E+01 0.84636445123E+01 0.90179251439E+01
 0.94482935395E+01 0.98674372016E+01 0.10234919909E+02 0.10510867738E+02 0.10727240746E+02
 0.10847736475E+02 0.10772995187E+02 0.10722915975E+02 0.10607713437E+02 0.10394143140E+02
 0.10122642321E+02 0.97710249534E+01 0.93585891185E+01 0.89417742682E+01 0.84253033740E+01
 0.78953122896E+01 0.74676398415E+01 0.70552254379E+01 0.66670060446E+01 0.62920003313E+01
 0.59846653838E+01 0.57066481680E+01 0.54706366593E+01 0.51848894557E+01 0.48612121921E+01
 0.44455366885E+01 0.40520108097E+01 0.36340831538E+01 0.28656978631E+01 0.22535181587E+01
 0.19616314561E+01 0.18377439928E+01 0.17411792814E+01 0.16378032030E+01 0.16003876799E+01
 0.16378032030E+01 0.17411792814E+01 0.18377439928E+01 0.19616314561E+01 0.22535181587E+01
 0.28656978631E+01 0.36340831538E+01 0.40520108097E+01 0.44455366885E+01 0.48612121921E+01
 0.51848894557E+01 0.54706366593E+01 0.57066481680E+01 0.59846653838E+01 0.62920003313E+01
 0.66670060446E+01 0.70552254379E+01 0.74676398415E+01 0.78953122896E+01 0.84253033740E+01
 0.89417742682E+01 0.93585891185E+01 0.97710249534E+01 0.10122642321E+02 0.10394143140E+02
 0.10607713437E+02 0.10722915975E+02 0.10655257515E+02 0.10619362420E+02 0.10497833979E+02
 0.10310178988E+02 0.10039307914E+02 0.97201160441E+01 0.93057171023E+01 0.89131284270E+01
 0.84428904906E+01 0.79210093212E+01 0.74583240297E+01 0.70509714820E+01 0.66617522734E+01
 0.62870342281E+01 0.59234198253E+01 0.55706902379E+01 0.51848894557E+01 0.47468375018E+01
 0.42024201924E+01 0.36141094894E+01 0.29376810661E+01 0.19901784538E+01 0.15134545814E+01
 0.13537591699E+01 0.81290930834E+00 -.11590438888E+00 -.11349479221E+01 -.18955297499E+01
 -.21746788593E+01 -.18955297499E+01 -.11349479221E+01 -.11590438888E+00 0.81290930834E+00
 0.13537591699E+01 0.15134545814E+01 0.19901784538E+01 0.29376810661E+01 0.36141094894E+01
 0.42024201924E+01 0.47468375018E+01 0.51848894557E+01 0.55706902379E+01 0.59234198253E+01
 0.62870342281E+01 0.66617522734E+01 0.70509714820E+01 0.74583240297E+01 0.79210093212E+01
 0.84428904906E+01 0.89131284270E+01 0.93057171023E+01 0.97201160441E+01 0.10039307914E+02
 0.10310178988E+02 0.10497833979E+02 0.10619362420E+02 0.10575773260E+02 0.10538390414E+02
 0.10425683936E+02 0.10242258329E+02 0.99866412288E+01 0.96856843157E+01 0.93154781250E+01
 0.89009711962E+01 0.85126082285E+01 0.80058495067E+01 0.75303241521E+01 0.70867768608E+01
 0.66893898472E+01 0.62712648856E+01 0.58575241262E+01 0.53814848081E+01 0.48612121921E+01
 0.42024201924E+01 0.34671855316E+01 0.25370467649E+01 0.15268125931E+01 0.11816325050E+01
 0.51361688116E+00 -.13717365287E+01 -.40307631169E+01 -.67314730943E+01 -.89781014619E+01
 -.10436348415E+02 -.10942554303E+02 -.10436348415E+02 -.89781014619E+01 -.67314730943E+01
 -.40307631169E+01 -.13717365287E+01 0.51361688116E+00 0.11816325050E+01 0.15268125931E+01
 0.25370467649E+01 0.34671855316E+01 0.42024201924E+01 0.48612121921E+01 0.53814848081E+01
 0.58575241262E+01 0.62712648856E+01 0.66893898472E+01 0.70867768608E+01 0.75303241521E+01
 0.80058495067E+01 0.85126082285E+01 0.89009711962E+01 0.93154781250E+01 0.96856843157E+01
 0.99866412288E+01 0.10242258329E+02 0.10425683936E+02 0.10538390414E+02 0.10493148938E+02
 0.10468687756E+02 0.10359663128E+02 0.10203844012E+02 0.99670700373E+01 0.96782200409E+01
 0.93436366956E+01 0.89513187244E+01 0.85550827800E+01 0.81619533993E+01 0.76627571894E+01
 0.71957472241E+01 0.67213731619E+01 0.62688434346E+01 0.57435647038E+01 0.51695314920E+01
 0.44455366885E+01 0.36141094894E+01 0.25370467649E+01 0.13859975111E+01 0.10082513604E+01
 -.45757879516E+00 -.38771419702E+01 -.82024672200E+01 -.12626538018E+02 -.16515699577E+02
 -.19527455310E+02 -.21369622877E+02 -.22013074130E+02 -.21369622877E+02 -.19527455310E+02
 -.16515699577E+02 -.12626538018E+02 -.82024672200E+01 -.38771419702E+01 -.45757879516E+00
 0.10082513604E+01 0.13859975111E+01 0.25370467649E+01 0.36141094894E+01 0.44455366885E+01
 0.51695314920E+01 0.57435647038E+01 0.62688434346E+01 0.67213731619E+01 0.71957472241E+01
 0.76627571894E+01 0.81619533993E+01 0.85550827800E+01 0.89513187244E+01 0.93436366956E+01
 0.96782200409E+01 0.99670700373E+01 0.10203844012E+02 0.10359663128E+02 0.10468687756E+02
 0.10454642919E+02 0.10414978226E+02 0.10323491556E+02 0.10158070349E+02 0.99561780243E+01
 0.96948748784E+01 0.93881852888E+01 0.90371905934E+01 0.86347106200E+01 0.82487723353E+01
 0.78451167034E+01 0.73703318378E+01 0.68571691861E+01 0.63051652145E+01 0.56821425284E+01
 0.49559439578E+01 0.40520108097E+01 0.29376810661E+01 0.15268125931E+01 0.10082513604E+01
 -.88720533815E+00 -.54206462866E+01 -.11086641582E+02 -.17202864822E+02 -.22723098764E+02
 -.27215697785E+02 -.30303276444E+02 -.32153201354E+02 -.32708134138E+02 -.32153201354E+02
 -.30303276444E+02 -.27215697785E+02 -.22723098764E+02 -.17202864822E+02 -.11086641582E+02
 -.54206462866E+01 -.88720533815E+00 0.10082513604E+01 0.15268125931E+01 0.29376810661E+01
 0.40520108097E+01 0.49559439578E+01 0.56821425284E+01 0.63051652145E+01 0.68571691861E+01
 0.73703318378E+01 0.78451167034E+01 0.82487723353E+01 0.86347106200E+01 0.90371905934E+01
 0.93881852888E+01 0.96948748784E+01 0.99561780243E+01 0.10158070349E+02 0.10323491556E+02
 0.10414978226E+02 0.10426125920E+02 0.10381592142E+02 0.10317211225E+02 0.10158276467E+02
 0.99725270148E+01 0.97046205053E+01 0.94490365190E+01 0.91104398488E+01 0.87752805884E+01
 0.83398783931E+01 0.79517561551E+01 0.74803876398E+01 0.70022814843E+01 0.63553084227E+01
 0.56728256315E+01 0.47031329833E+01 0.36340831538E+01 0.19901784538E+01 0.11816325050E+01
 -.45757879516E+00 -.54206462866E+01 -.12101133459E+02 -.19709655844E+02 -.26602747212E+02
 -.32164350663E+02 -.36022779326E+02 -.38471735374E+02 -.39679886144E+02 -.40087238303E+02
 -.39679886144E+02 -.38471735374E+02 -.36022779326E+02 -.32164350663E+02 -.26602747212E+02
 -.19709655844E+02 -.12101133459E+02 -.54206462866E+01 -.45757879516E+00 0.11816325050E+01
 0.19901784538E+01 0.36340831538E+01 0.47031329833E+01 0.56728256315E+01 0.63553084227E+01
 0.70022814843E+01 0.74803876398E+01 0.79517561551E+01 0.83398783931E+01 0.87752805884E+01
 0.91104398488E+01 0.94490365190E+01 0.97046205053E+01 0.99725270148E+01 0.10158276467E+02
 0.10317211225E+02 0.10381592142E+02 0.10342212624E+02 0.10354059274E+02 0.10245335084E+02
 0.10168002250E+02 0.99723107981E+01 0.97864776722E+01 0.94705387033E+01 0.92194695814E+01
 0.88467584838E+01 0.85174381457E+01 0.80389785575E+01 0.75934859038E+01 0.69850670755E+01
 0.63625242473E+01 0.54471938264E+01 0.44317878946E+01 0.28656978631E+01 0.15134545814E+01
 0.51361688116E+00 -.38771419702E+01 -.11086641582E+02 -.19709655844E+02 -.27867540615E+02
 -.34403638182E+02 -.38920478005E+02 -.41363008765E+02 -.42330755238E+02 -.42484898771E+02
 -.42485664254E+02 -.42484898771E+02 -.42330755238E+02 -.41363008765E+02 -.38920478005E+02
 -.34403638182E+02 -.27867540615E+02 -.19709655844E+02 -.11086641582E+02 -.38771419702E+01
 0.51361688116E+00 0.15134545814E+01 0.28656978631E+01 0.44317878946E+01 0.54471938264E+01
 0.63625242473E+01 0.69850670755E+01 0.75934859038E+01 0.80389785575E+01 0.85174381457E+01
 0.88467584838E+01 0.92194695814E+01 0.94705387033E+01 0.97864776722E+01 0.99723107981E+01
 0.10168002250E+02 0.10245335084E+02 0.10354059274E+02 0.10351666073E+02 0.10333726089E+02
 0.10250011386E+02 0.10138115972E+02 0.99769473694E+01 0.98111165093E+01 0.95612261592E+01
 0.92767733972E+01 0.89564776211E+01 0.85990717445E+01 0.81702356823E+01 0.76901195045E+01
 0.70450564618E+01 0.63126928156E+01 0.52768942083E+01 0.40658679142E+01 0.22535181587E+01
 0.13537591699E+01 -.13717365287E+01 -.82024672200E+01 -.17202864822E+02 -.26602747212E+02
 -.34403638182E+02 -.39801363908E+02 -.42151655199E+02 -.42297556088E+02 -.41078867782E+02
 -.39852064014E+02 -.39264785791E+02 -.39852064014E+02 -.41078867782E+02 -.42297556088E+02
 -.42151655199E+02 -.39801363908E+02 -.34403638182E+02 -.26602747212E+02 -.17202864822E+02
 -.82024672200E+01 -.13717365287E+01 0.13537591699E+01 0.22535181587E+01 0.40658679142E+01
 0.52768942083E+01 0.63126928156E+01 0.70450564618E+01 0.76901195045E+01 0.81702356823E+01
 0.85990717445E+01 0.89564776211E+01 0.92767733972E+01 0.95612261592E+01 0.98111165093E+01
 0.99769473694E+01 0.10138115972E+02 0.10250011386E+02 0.10333726089E+02 0.10373925559E+02
 0.10317279609E+02 0.10284174426E+02 0.10135568122E+02 0.10016256844E+02 0.98002801865E+01
 0.96399042353E+01 0.93310544908E+01 0.90561902491E+01 0.86725642684E+01 0.82651050406E+01
 0.77140836079E+01 0.71001334403E+01 0.62177765196E+01 0.51661152927E+01 0.36026251897E+01
 0.19616314561E+01 0.81290930834E+00 -.40307631169E+01 -.12626538018E+02 -.22723098764E+02
 -.32164350663E+02 -.38920478005E+02 -.42151655199E+02 -.41923739762E+02 -.39332615424E+02
 -.35733577203E+02 -.32805066974E+02 -.31641803780E+02 -.32805066974E+02 -.35733577203E+02
 -.39332615424E+02 -.41923739762E+02 -.42151655199E+02 -.38920478005E+02 -.32164350663E+02
 -.22723098764E+02 -.12626538018E+02 -.40307631169E+01 0.81290930834E+00 0.19616314561E+01
 0.36026251897E+01 0.51661152927E+01 0.62177765196E+01 0.71001334403E+01 0.77140836079E+01
 0.82651050406E+01 0.86725642684E+01 0.90561902491E+01 0.93310544908E+01 0.96399042353E+01
 0.98002801865E+01 0.10016256844E+02 0.10135568122E+02 0.10284174426E+02 0.10317279609E+02
 0.10372998476E+02 0.10311833566E+02 0.10296075395E+02 0.10150424381E+02 0.10045683306E+02
 0.98206324129E+01 0.96736478577E+01 0.93925233410E+01 0.91237843219E+01 0.87278280449E+01
 0.83526609978E+01 0.77409755818E+01 0.71156966508E+01 0.61079306895E+01 0.50141364977E+01
 0.31722759252E+01 0.18377439928E+01 -.11590438888E+00 -.67314730943E+01 -.16515699577E+02
 -.27215697785E+02 -.36022779326E+02 -.41363008765E+02 -.42297556088E+02 -.39332615424E+02
 -.33803832392E+02 -.27702494785E+02 -.22985289764E+02 -.21234551995E+02 -.22985289764E+02
 -.27702494785E+02 -.33803832392E+02 -.39332615424E+02 -.42297556088E+02 -.41363008765E+02
 -.36022779326E+02 -.27215697785E+02 -.16515699577E+02 -.67314730943E+01 -.11590438888E+00
 0.18377439928E+01 0.31722759252E+01 0.50141364977E+01 0.61079306895E+01 0.71156966508E+01
 0.77409755818E+01 0.83526609978E+01 0.87278280449E+01 0.91237843219E+01 0.93925233410E+01
 0.96736478577E+01 0.98206324129E+01 0.10045683306E+02 0.10150424381E+02 0.10296075395E+02
 0.10311833566E+02 0.10346326520E+02 0.10309951921E+02 0.10282039322E+02 0.10173943006E+02
 0.10061873644E+02 0.98564015048E+01 0.96839689412E+01 0.94421940990E+01 0.91685715212E+01
 0.87811244999E+01 0.83802848464E+01 0.77722618461E+01 0.71066996059E+01 0.60599750412E+01
 0.48663875223E+01 0.29118056658E+01 0.17411792814E+01 -.11349479221E+01 -.89781014619E+01
 -.19527455310E+02 -.30303276444E+02 -.38471735374E+02 -.42330755238E+02 -.41078867782E+02
 -.35733577203E+02 -.27702494785E+02 -.19431425729E+02 -.13136382920E+02 -.10862516757E+02
 -.13136382920E+02 -.19431425729E+02 -.27702494785E+02 -.35733577203E+02 -.41078867782E+02
 -.42330755238E+02 -.38471735374E+02 -.30303276444E+02 -.19527455310E+02 -.89781014619E+01
 -.11349479221E+01 0.17411792814E+01 0.29118056658E+01 0.48663875223E+01 0.60599750412E+01
 0.71066996059E+01 0.77722618461E+01 0.83802848464E+01 0.87811244999E+01 0.91685715212E+01
 0.94421940990E+01 0.96839689412E+01 0.98564015048E+01 0.10061873644E+02 0.10173943006E+02
 0.10282039322E+02 0.10309951921E+02 0.10331949987E+02 0.10308970927E+02 0.10271457391E+02
 0.10182035328E+02 0.10066334339E+02 0.98843575397E+01 0.96923231581E+01 0.94707761396E+01
 0.91917013968E+01 0.88133584867E+01 0.84062093838E+01 0.77913751126E+01 0.70837428438E+01
 0.60171038643E+01 0.47406670742E+01 0.27609225875E+01 0.16378032030E+01 -.18955297499E+01
 -.10436348415E+02 -.21369622877E+02 -.32153201354E+02 -.39679886144E+02 -.42484898771E+02
 -.39852064014E+02 -.32805066974E+02 -.22985289764E+02 -.13136382920E+02 -.57482556195E+01
 -.30841270670E+01 -.57482556195E+01 -.13136382920E+02 -.22985289764E+02 -.32805066974E+02
 -.39852064014E+02 -.42484898771E+02 -.39679886144E+02 -.32153201354E+02 -.21369622877E+02
 -.10436348415E+02 -.18955297499E+01 0.16378032030E+01 0.27609225875E+01 0.47406670742E+01
 0.60171038643E+01 0.70837428438E+01 0.77913751126E+01 0.84062093838E+01 0.88133584867E+01
 0.91917013968E+01 0.94707761396E+01 0.96923231581E+01 0.98843575397E+01 0.10066334339E+02
 0.10182035328E+02 0.10271457391E+02 0.10308970927E+02 0.10321648810E+02 0.10308427852E+02
 0.10264428324E+02 0.10188778634E+02 0.10068622317E+02 0.98939705954E+01 0.96936116972E+01
 0.94809300694E+01 0.92004033337E+01 0.88267987652E+01 0.84019049730E+01 0.78017497083E+01
 0.70792715389E+01 0.60169945516E+01 0.47029265154E+01 0.27283050539E+01 0.16003876799E+01
 -.21746788593E+01 -.10942554303E+02 -.22013074130E+02 -.32708134138E+02 -.40087238303E+02
 -.42485664254E+02 -.39264785791E+02 -.31641803780E+02 -.21234551995E+02 -.10862516757E+02
 -.30841270670E+01 -.28841693581E+00 -.30841270670E+01 -.10862516757E+02 -.21234551995E+02
 -.31641803780E+02 -.39264785791E+02 -.42485664254E+02 -.40087238303E+02 -.32708134138E+02
 -.22013074130E+02 -.10942554303E+02 -.21746788593E+01 0.16003876799E+01 0.27283050539E+01
 0.47029265154E+01 0.60169945516E+01 0.70792715389E+01 0.78017497083E+01 0.84019049730E+01
 0.88267987652E+01 0.92004033337E+01 0.94809300694E+01 0.96936116972E+01 0.98939705954E+01
 0.10068622317E+02 0.10188778634E+02 0.10264428324E+02 0.10308427852E+02 0.10331949987E+02