       N       E                     dE             d eps       ncg     rms          rms(c)
RMM:   1     0.291765824114E+04    0.29177E+04   -0.24342E+05   544   0.162E+03
RMM:   2    -0.399667816512E+03   -0.33173E+04   -0.79877E+04   544   0.458E+02
RMM:   3     0.576523621872E+03    0.97619E+03   -0.12696E+04   544   0.208E+02
RMM:   4     0.778929938348E+02   -0.49863E+03   -0.50225E+03   544   0.136E+02
RMM:   5    -0.150303195146E+03   -0.22820E+03   -0.24978E+03   544   0.101E+02
RMM:   6    -0.215306471878E+03   -0.65003E+02   -0.13692E+03   544   0.772E+01
RMM:   7    -0.232730978736E+03   -0.17425E+02   -0.93635E+02   544   0.631E+01
RMM:   8    -0.234759344197E+03   -0.20284E+01   -0.66730E+02   544   0.531E+01
RMM:   9    -0.210993277778E+03    0.23766E+02   -0.27766E+02  1490   0.448E+01
RMM:  10    -0.214628199589E+03   -0.36349E+01   -0.27435E+01  1725   0.664E+00
RMM:  11    -0.214816071320E+03   -0.18787E+00   -0.16784E+00  1660   0.172E+00
RMM:  12    -0.214835925406E+03   -0.19854E-01   -0.19877E-01  1564   0.607E-01    0.140E+01
RMM:  13    -0.201938114862E+03    0.12898E+02   -0.24256E+01  1552   0.559E+00    0.104E+01
RMM:  14    -0.200157636086E+03    0.17805E+01   -0.67073E+00  1474   0.304E+00    0.734E+00
RMM:  15    -0.200199984253E+03   -0.42348E-01   -0.71413E-01  1187   0.186E+00    0.110E+00
RMM:  16    -0.200202192357E+03   -0.22081E-02   -0.43371E-01  1243   0.105E+00    0.109E+00
RMM:  17    -0.200242379483E+03   -0.40187E-01   -0.17797E-01  1479   0.623E-01    0.747E-01
RMM:  18    -0.200254125753E+03   -0.11746E-01   -0.40157E-02  1112   0.408E-01    0.468E-01
RMM:  19    -0.200253890927E+03    0.23483E-03   -0.16312E-02  1202   0.225E-01    0.148E-01
RMM:  20    -0.200254342247E+03   -0.45132E-03   -0.78693E-03  1423   0.140E-01    0.848E-02
RMM:  21    -0.200254435297E+03   -0.93050E-04   -0.13187E-03  1507   0.603E-02    0.457E-02
RMM:  22    -0.200254436281E+03   -0.98447E-06   -0.17993E-04  1040   0.287E-02    0.404E-02
RMM:  23    -0.200254441374E+03   -0.50928E-05   -0.95357E-05  1009   0.178E-02
      1 T=  1219. E= 0.11713855E+03 F= -.20993969E+03 E0= -.20993969E+03  EK= 0.99239E+01 SP= 0.32E+03 SK= 0.14E-01 mag=      0.000
       N       E                     dE             d eps       ncg     rms          rms(c)
RMM:   1    -0.199888951905E+03    0.36548E+00   -0.19272E+01  1088   0.780E+00    0.124E+00
RMM:   2    -0.200145370085E+03   -0.25642E+00   -0.28228E+00  1466   0.378E+00    0.541E-01
RMM:   3    -0.200223735118E+03   -0.78365E-01   -0.85160E-01  1383   0.169E+00    0.497E-01
RMM:   4    -0.200223780263E+03   -0.45145E-04   -0.24639E-02  1385   0.364E-01    0.373E-01
RMM:   5    -0.200222442889E+03    0.13374E-02   -0.51976E-03  1429   0.163E-01    0.241E-01
RMM:   6    -0.200221547149E+03    0.89574E-03   -0.43365E-03  1165   0.901E-02    0.853E-02
RMM:   7    -0.200221570476E+03   -0.23327E-04   -0.16294E-03  1455   0.648E-02    0.436E-02
RMM:   8    -0.200221564748E+03    0.57281E-05   -0.70492E-05   917   0.196E-02
      2 T=  1223. E= 0.11713786E+03 F= -.20990479E+03 E0= -.20990479E+03  EK= 0.99613E+01 SP= 0.32E+03 SK= 0.64E-02 mag=      0.000
       N       E                     dE             d eps       ncg     rms          rms(c)
RMM:   1    -0.200179656993E+03    0.41913E-01   -0.70808E-02  1276   0.671E-01    0.806E-02
RMM:   2    -0.200181319149E+03   -0.16622E-02   -0.17059E-02  1487   0.272E-01    0.675E-02
RMM:   3    -0.200181450300E+03   -0.13115E-03   -0.17837E-03  1207   0.104E-01    0.330E-02
RMM:   4    -0.200181517725E+03   -0.67426E-04   -0.76766E-04  1524   0.572E-02    0.232E-02
RMM:   5    -0.200181518112E+03   -0.38607E-06   -0.27209E-05   657   0.116E-02    0.204E-02
RMM:   6    -0.200181516366E+03    0.17457E-05   -0.21174E-05   659   0.887E-03    0.755E-03
RMM:   7    -0.200181515829E+03    0.53690E-06   -0.13391E-05   648   0.765E-03    0.683E-03
RMM:   8    -0.200181515274E+03    0.55538E-06   -0.64665E-06   632   0.617E-03
      3 T=  1224. E= 0.11713731E+03 F= -.20986273E+03 E0= -.20986273E+03  EK= 0.99641E+01 SP= 0.32E+03 SK= 0.18E-02 mag=      0.000