 vasp.6.2.0 18Jan21 (build Feb 05 2021 11:24:39) complex                        
  
 executed on             LinuxIFC date 2021.02.18  13:07:48
 running on    4 total cores
 distrk:  each k-point on    2 cores,    2 groups
 distr:  one band on NCORE=   2 cores,    1 groups


--------------------------------------------------------------------------------------------------------


 INCAR:
   ALGO = Fast
   EDIFF = 5e-06
   EDIFFG = -0.01
   ENCUT = 600
   GGA_COMPAT = False
   IBRION = 2
   ISIF = 3
   ISMEAR = 2
   ISPIN = 2
   KPAR = 2
   LAECHG = False
   LASPH = True
   LORBIT = 11
   LREAL = False
   LWAVE = False
   MAGMOM = 1*5.0
   MAXMIX = 100
   NCORE = 2
   NEDOS = 3001
   NELM = 100
   NELMDL = -6
   NELMIN = 5
   NSW = 99
   PREC = Accurate
   SIGMA = 0.2

 POTCAR:    PAW_PBE Fe_pv 02Aug2007               
 POTCAR:    PAW_PBE Fe_pv 02Aug2007               
   VRHFIN =Fe:  3pd7s1                                                                              
   LEXCH  = PE                                                                                      
   EATOM  =  2457.4239 eV,  180.6156 Ry                                                             
                                                                                                    
   TITEL  = PAW_PBE Fe_pv 02Aug2007                                                                 
   LULTRA =        F    use ultrasoft PP ?                                                          
   IUNSCR =        1    unscreen: 0-lin 1-nonlin 2-no                                               
   RPACOR =    1.750    partial core radius                                                         
   POMASS =   55.847; ZVAL   =   14.000    mass and valenz                                          
   RCORE  =    2.200    outmost cutoff radius                                                       
   RWIGS  =    2.200; RWIGS  =    1.164    wigner-seitz radius (au A)                               
   ENMAX  =  293.238; ENMIN  =  219.928 eV                                                          
   ICORE  =        3    local potential                                                             
   LCOR   =        T    correct aug charges                                                         
   LPAW   =        T    paw PP                                                                      
   EAUG   =  578.342                                                                                
   DEXC   =    0.000                                                                                
   RMAX   =    2.249    core radius for proj-oper                                                   
   RAUG   =    1.300    factor for augmentation sphere                                              
   RDEP   =    2.296    radius for radial grids                                                     
   RDEPT  =    1.766    core radius for aug-charge                                                  
                                                                                                    
   Atomic configuration                                                                             
    8 entries                                                                                       
     n  l   j            E        occ.                                                              
     1  0  0.50     -6993.8440   2.0000                                                             
     2  0  0.50      -814.6047   2.0000                                                             
     2  1  1.50      -693.3689   6.0000                                                             
     3  0  0.50       -89.4732   2.0000                                                             
     3  1  1.50       -55.6373   6.0000                                                             
     3  2  2.50        -3.8151   7.0000                                                             
     4  0  0.50        -4.2551   1.0000                                                             
     4  3  2.50        -1.3606   0.0000                                                             
   Description                                                                                      
     l       E           TYP  RCUT    TYP  RCUT                                                     
     1    -55.6372668     23  2.000                                                                 
     1     -5.4423304     23  2.000                                                                 
     2     -3.8151096     23  2.200                                                                 
     2     -5.1756922     23  2.200                                                                 
     0     -4.2550951     23  2.200                                                                 
     0     27.2116520     23  2.200                                                                 
     3     -1.3605826     23  2.200                                                                 
  local pseudopotential read in
  partial core-charges read in
  partial kinetic energy density read in
  atomic valenz-charges read in
  non local Contribution for L=           1  read in
    real space projection operators read in
  non local Contribution for L=           1  read in
    real space projection operators read in
  non local Contribution for L=           2  read in
    real space projection operators read in
  non local Contribution for L=           2  read in
    real space projection operators read in
  non local Contribution for L=           0  read in
    real space projection operators read in
  non local Contribution for L=           0  read in
    real space projection operators read in
    PAW grid and wavefunctions read in
 
   number of l-projection  operators is LMAX  =           6
   number of lm-projection operators is LMMAX =          18
 
  PAW_PBE Fe_pv 02Aug2007               :
 energy of atom  1       EATOM=-2457.4239
 kinetic energy error for atom=    0.0055 (will be added to EATOM!!)
 
 
 POSCAR: Fe1
  positions in direct lattice
  No initial velocities read in
 exchange correlation table for  LEXCH =        8
   RHO(1)=    0.500       N(1)  =     2000
   RHO(2)=  100.500       N(2)  =     4000
 


--------------------------------------------------------------------------------------------------------


 ion  position               nearest neighbor table
   1  0.000  0.000  0.000-
 
  LATTYP: Found a body centered cubic cell.
 ALAT       =     2.8400520000
  
  Lattice vectors:
  
 A1 = (  -1.4200260000,   1.4200260000,   1.4200260000)
 A2 = (   1.4200260000,  -1.4200260000,   1.4200260000)
 A3 = (   1.4200260000,   1.4200260000,  -1.4200260000)


Analysis of symmetry for initial positions (statically):
=====================================================================
 Subroutine PRICEL returns:
 Original cell was already a primitive cell.
 

 Routine SETGRP: Setting up the symmetry group for a 
 body centered cubic supercell.


 Subroutine GETGRP returns: Found 48 space group operations
 (whereof 48 operations were pure point group operations)
 out of a pool of 48 trial point group operations.


The static configuration has the point symmetry O_h .


Analysis of symmetry for dynamics (positions and initial velocities):
=====================================================================
 Subroutine PRICEL returns:
 Original cell was already a primitive cell.
 

 Routine SETGRP: Setting up the symmetry group for a 
 body centered cubic supercell.


 Subroutine GETGRP returns: Found 48 space group operations
 (whereof 48 operations were pure point group operations)
 out of a pool of 48 trial point group operations.


The dynamic configuration has the point symmetry O_h .


Analysis of structural, dynamic, and magnetic symmetry:
=====================================================================
 Subroutine PRICEL returns:
 Original cell was already a primitive cell.
 

 Routine SETGRP: Setting up the symmetry group for a 
 body centered cubic supercell.


 Subroutine GETGRP returns: Found 48 space group operations
 (whereof 48 operations were pure point group operations)
 out of a pool of 48 trial point group operations.


The overall configuration has the point symmetry O_h .


 Subroutine INISYM returns: Found 48 space group operations
 (whereof 48 operations are pure point group operations),
 and found     1 'primitive' translations


----------------------------------------------------------------------------------------

                                     Primitive cell                                     

  volume of cell :      11.4538

  direct lattice vectors                    reciprocal lattice vectors
    -1.420026000  1.420026000  1.420026000     0.000000000  0.352106229  0.352106229
     1.420026000 -1.420026000  1.420026000     0.352106229  0.000000000  0.352106229
     1.420026000  1.420026000 -1.420026000     0.352106229  0.352106229  0.000000000

  length of vectors
     2.459557180  2.459557180  2.459557180     0.497953405  0.497953405  0.497953405

  position of ions in fractional coordinates (direct lattice)
     0.000000000  0.000000000  0.000000000

  ion indices of the primitive-cell ions
   primitive index   ion index
                 1           1

----------------------------------------------------------------------------------------

 
 
 KPOINTS: pymatgen v2020.10.20 with grid density =

Automatic generation of k-mesh.
 Grid dimensions read from file:
 generate k-points for:   17   17   17

 Generating k-lattice:

  Cartesian coordinates                     Fractional coordinates (reciprocal lattice)
     0.000000000  0.020712131  0.020712131     0.058823529  0.000000000 -0.000000000
     0.020712131  0.000000000  0.020712131     0.000000000  0.058823529  0.000000000
     0.020712131  0.020712131  0.000000000    -0.000000000  0.000000000  0.058823529

  Length of vectors
     0.029291377  0.029291377  0.029291377

  Shift w.r.t. Gamma in fractional coordinates (k-lattice)
     0.000000000  0.000000000  0.000000000

 
 Subroutine IBZKPT returns following result:
 ===========================================
 
 Found    165 irreducible k-points:
 
 Following reciprocal coordinates:
            Coordinates               Weight
  0.000000  0.000000  0.000000      1.000000
  0.058824  0.000000 -0.000000     12.000000
  0.117647 -0.000000 -0.000000     12.000000
  0.176471 -0.000000 -0.000000     12.000000
  0.235294 -0.000000 -0.000000     12.000000
  0.294118 -0.000000 -0.000000     12.000000
  0.352941 -0.000000 -0.000000     12.000000
  0.411765 -0.000000 -0.000000     12.000000
  0.470588 -0.000000 -0.000000     12.000000
  0.058824  0.058824  0.000000     24.000000
  0.117647  0.058824  0.000000     48.000000
  0.176471  0.058824  0.000000     48.000000
  0.235294  0.058824  0.000000     48.000000
  0.294118  0.058824  0.000000     48.000000
  0.352941  0.058824  0.000000     48.000000
  0.411765  0.058824  0.000000     48.000000
  0.470588  0.058824  0.000000     24.000000
  0.117647  0.117647  0.000000     24.000000
  0.176471  0.117647  0.000000     48.000000
  0.235294  0.117647  0.000000     48.000000
  0.294118  0.117647  0.000000     48.000000
  0.352941  0.117647  0.000000     48.000000
  0.411765  0.117647  0.000000     48.000000
  0.176471  0.176471 -0.000000     24.000000
  0.235294  0.176471 -0.000000     48.000000
  0.294118  0.176471 -0.000000     48.000000
  0.352941  0.176471 -0.000000     48.000000
  0.411765  0.176471 -0.000000     24.000000
  0.235294  0.235294 -0.000000     24.000000
  0.294118  0.235294 -0.000000     48.000000
  0.352941  0.235294 -0.000000     48.000000
  0.294118  0.294118  0.000000     24.000000
  0.352941  0.294118  0.000000     24.000000
  0.058824  0.058824  0.058824      8.000000
  0.117647  0.058824  0.058824     24.000000
  0.176471  0.058824  0.058824     24.000000
  0.235294  0.058824  0.058824     24.000000
  0.294118  0.058824  0.058824     24.000000
  0.352941  0.058824  0.058824     24.000000
  0.411765  0.058824  0.058824     24.000000
 -0.058824  0.058824  0.058824      6.000000
  0.117647  0.117647  0.058824     24.000000
  0.176471  0.117647  0.058824     48.000000
  0.235294  0.117647  0.058824     48.000000
  0.294118  0.117647  0.058824     48.000000
  0.352941  0.117647  0.058824     48.000000
  0.411765  0.117647  0.058824     24.000000
 -0.117647  0.117647  0.058824     24.000000
  0.176471  0.176471  0.058824     24.000000
  0.235294  0.176471  0.058824     48.000000
  0.294118  0.176471  0.058824     48.000000
  0.352941  0.176471  0.058824     48.000000
 -0.176471  0.176471  0.058824     24.000000
 -0.117647  0.176471  0.058824     24.000000
  0.235294  0.235294  0.058824     24.000000
  0.294118  0.235294  0.058824     48.000000
  0.352941  0.235294  0.058824     24.000000
 -0.235294  0.235294  0.058824     24.000000
 -0.176471  0.235294  0.058824     48.000000
  0.294118  0.294118  0.058824     24.000000
 -0.294118  0.294118  0.058824     24.000000
 -0.235294  0.294118  0.058824     48.000000
 -0.176471  0.294118  0.058824     24.000000
 -0.352941  0.352941  0.058824     24.000000
 -0.294118  0.352941  0.058824     48.000000
 -0.235294  0.352941  0.058824     48.000000
 -0.411765  0.411765  0.058824     24.000000
 -0.352941  0.411765  0.058824     48.000000
 -0.294118  0.411765  0.058824     48.000000
 -0.235294  0.411765  0.058824     24.000000
 -0.470588  0.470588  0.058824     24.000000
 -0.411765  0.470588  0.058824     48.000000
 -0.352941  0.470588  0.058824     48.000000
 -0.294118  0.470588  0.058824     48.000000
 -0.470588 -0.470588  0.058824     24.000000
 -0.411765 -0.470588  0.058824     48.000000
 -0.352941 -0.470588  0.058824     48.000000
 -0.294118 -0.470588  0.058824     24.000000
 -0.411765 -0.411765  0.058824     24.000000
 -0.352941 -0.411765  0.058824     48.000000
 -0.352941 -0.352941  0.058824      8.000000
  0.117647  0.117647  0.117647      8.000000
  0.176471  0.117647  0.117647     24.000000
  0.235294  0.117647  0.117647     24.000000
  0.294118  0.117647  0.117647     24.000000
  0.352941  0.117647  0.117647     24.000000
 -0.117647  0.117647  0.117647      6.000000
  0.176471  0.176471  0.117647     24.000000
  0.235294  0.176471  0.117647     48.000000
  0.294118  0.176471  0.117647     48.000000
  0.352941  0.176471  0.117647     24.000000
 -0.176471  0.176471  0.117647     24.000000
  0.235294  0.235294  0.117647     24.000000
  0.294118  0.235294  0.117647     48.000000
 -0.235294  0.235294  0.117647     24.000000
 -0.176471  0.235294  0.117647     24.000000
  0.294118  0.294118  0.117647      8.000000
 -0.294118  0.294118  0.117647     24.000000
 -0.235294  0.294118  0.117647     48.000000
 -0.352941  0.352941  0.117647     24.000000
 -0.294118  0.352941  0.117647     48.000000
 -0.235294  0.352941  0.117647     24.000000
 -0.411765  0.411765  0.117647     24.000000
 -0.352941  0.411765  0.117647     48.000000
 -0.294118  0.411765  0.117647     48.000000
 -0.470588  0.470588  0.117647     24.000000
 -0.411765  0.470588  0.117647     48.000000
 -0.352941  0.470588  0.117647     48.000000
 -0.294118  0.470588  0.117647     24.000000
 -0.470588 -0.470588  0.117647     24.000000
 -0.411765 -0.470588  0.117647     48.000000
 -0.352941 -0.470588  0.117647     48.000000
 -0.411765 -0.411765  0.117647     24.000000
 -0.352941 -0.411765  0.117647     24.000000
  0.176471  0.176471  0.176471      8.000000
  0.235294  0.176471  0.176471     24.000000
  0.294118  0.176471  0.176471     24.000000
 -0.176471  0.176471  0.176471      6.000000
  0.235294  0.235294  0.176471     24.000000
  0.294118  0.235294  0.176471     24.000000
 -0.235294  0.235294  0.176471     24.000000
 -0.294118  0.294118  0.176471     24.000000
 -0.235294  0.294118  0.176471     24.000000
 -0.352941  0.352941  0.176471     24.000000
 -0.294118  0.352941  0.176471     48.000000
 -0.411765  0.411765  0.176471     24.000000
 -0.352941  0.411765  0.176471     48.000000
 -0.294118  0.411765  0.176471     24.000000
 -0.470588  0.470588  0.176471     24.000000
 -0.411765  0.470588  0.176471     48.000000
 -0.352941  0.470588  0.176471     48.000000
 -0.470588 -0.470588  0.176471     24.000000
 -0.411765 -0.470588  0.176471     48.000000
 -0.352941 -0.470588  0.176471     24.000000
 -0.411765 -0.411765  0.176471     24.000000
  0.235294  0.235294  0.235294      8.000000
 -0.235294  0.235294  0.235294      6.000000
 -0.294118  0.294118  0.235294     24.000000
 -0.352941  0.352941  0.235294     24.000000
 -0.294118  0.352941  0.235294     24.000000
 -0.411765  0.411765  0.235294     24.000000
 -0.352941  0.411765  0.235294     48.000000
 -0.470588  0.470588  0.235294     24.000000
 -0.411765  0.470588  0.235294     48.000000
 -0.352941  0.470588  0.235294     24.000000
 -0.470588 -0.470588  0.235294     24.000000
 -0.411765 -0.470588  0.235294     48.000000
 -0.411765 -0.411765  0.235294      8.000000
 -0.294118  0.294118  0.294118      6.000000
 -0.352941  0.352941  0.294118     24.000000
 -0.411765  0.411765  0.294118     24.000000
 -0.352941  0.411765  0.294118     24.000000
 -0.470588  0.470588  0.294118     24.000000
 -0.411765  0.470588  0.294118     48.000000
 -0.470588 -0.470588  0.294118     24.000000
 -0.411765 -0.470588  0.294118     24.000000
 -0.352941  0.352941  0.352941      6.000000
 -0.411765  0.411765  0.352941     24.000000
 -0.470588  0.470588  0.352941     24.000000
 -0.411765  0.470588  0.352941     24.000000
 -0.470588 -0.470588  0.352941     24.000000
 -0.411765  0.411765  0.411765      6.000000
 -0.470588  0.470588  0.411765     24.000000
 -0.470588 -0.470588  0.411765      8.000000
 -0.470588  0.470588  0.470588      6.000000
 
 Following cartesian coordinates:
            Coordinates               Weight
  0.000000  0.000000  0.000000      1.000000
 -0.000000  0.020712  0.020712     12.000000
 -0.000000  0.041424  0.041424     12.000000
 -0.000000  0.062136  0.062136     12.000000
 -0.000000  0.082849  0.082849     12.000000
 -0.000000  0.103561  0.103561     12.000000
 -0.000000  0.124273  0.124273     12.000000
 -0.000000  0.144985  0.144985     12.000000
 -0.000000  0.165697  0.165697     12.000000
  0.020712  0.020712  0.041424     24.000000
  0.020712  0.041424  0.062136     48.000000
  0.020712  0.062136  0.082849     48.000000
  0.020712  0.082849  0.103561     48.000000
  0.020712  0.103561  0.124273     48.000000
  0.020712  0.124273  0.144985     48.000000
  0.020712  0.144985  0.165697     48.000000
  0.020712  0.165697  0.186409     24.000000
  0.041424  0.041424  0.082849     24.000000
  0.041424  0.062136  0.103561     48.000000
  0.041424  0.082849  0.124273     48.000000
  0.041424  0.103561  0.144985     48.000000
  0.041424  0.124273  0.165697     48.000000
  0.041424  0.144985  0.186409     48.000000
  0.062136  0.062136  0.124273     24.000000
  0.062136  0.082849  0.144985     48.000000
  0.062136  0.103561  0.165697     48.000000
  0.062136  0.124273  0.186409     48.000000
  0.062136  0.144985  0.207121     24.000000
  0.082849  0.082849  0.165697     24.000000
  0.082849  0.103561  0.186409     48.000000
  0.082849  0.124273  0.207121     48.000000
  0.103561  0.103561  0.207121     24.000000
  0.103561  0.124273  0.227833     24.000000
  0.041424  0.041424  0.041424      8.000000
  0.041424  0.062136  0.062136     24.000000
  0.041424  0.082849  0.082849     24.000000
  0.041424  0.103561  0.103561     24.000000
  0.041424  0.124273  0.124273     24.000000
  0.041424  0.144985  0.144985     24.000000
  0.041424  0.165697  0.165697     24.000000
  0.041424 -0.000000 -0.000000      6.000000
  0.062136  0.062136  0.082849     24.000000
  0.062136  0.082849  0.103561     48.000000
  0.062136  0.103561  0.124273     48.000000
  0.062136  0.124273  0.144985     48.000000
  0.062136  0.144985  0.165697     48.000000
  0.062136  0.165697  0.186409     24.000000
  0.062136 -0.020712 -0.000000     24.000000
  0.082849  0.082849  0.124273     24.000000
  0.082849  0.103561  0.144985     48.000000
  0.082849  0.124273  0.165697     48.000000
  0.082849  0.144985  0.186409     48.000000
  0.082849 -0.041424 -0.000000     24.000000
  0.082849 -0.020712  0.020712     24.000000
  0.103561  0.103561  0.165697     24.000000
  0.103561  0.124273  0.186409     48.000000
  0.103561  0.144985  0.207121     24.000000
  0.103561 -0.062136  0.000000     24.000000
  0.103561 -0.041424  0.020712     48.000000
  0.124273  0.124273  0.207121     24.000000
  0.124273 -0.082849  0.000000     24.000000
  0.124273 -0.062136  0.020712     48.000000
  0.124273 -0.041424  0.041424     24.000000
  0.144985 -0.103561  0.000000     24.000000
  0.144985 -0.082849  0.020712     48.000000
  0.144985 -0.062136  0.041424     48.000000
  0.165697 -0.124273 -0.000000     24.000000
  0.165697 -0.103561  0.020712     48.000000
  0.165697 -0.082849  0.041424     48.000000
  0.165697 -0.062136  0.062136     24.000000
  0.186409 -0.144985 -0.000000     24.000000
  0.186409 -0.124273  0.020712     48.000000
  0.186409 -0.103561  0.041424     48.000000
  0.186409 -0.082849  0.062136     48.000000
 -0.144985 -0.144985 -0.331394     24.000000
 -0.144985 -0.124273 -0.310682     48.000000
 -0.144985 -0.103561 -0.289970     48.000000
 -0.144985 -0.082849 -0.269258     24.000000
 -0.124273 -0.124273 -0.289970     24.000000
 -0.124273 -0.103561 -0.269258     48.000000
 -0.103561 -0.103561 -0.248546      8.000000
  0.082849  0.082849  0.082849      8.000000
  0.082849  0.103561  0.103561     24.000000
  0.082849  0.124273  0.124273     24.000000
  0.082849  0.144985  0.144985     24.000000
  0.082849  0.165697  0.165697     24.000000
  0.082849 -0.000000 -0.000000      6.000000
  0.103561  0.103561  0.124273     24.000000
  0.103561  0.124273  0.144985     48.000000
  0.103561  0.144985  0.165697     48.000000
  0.103561  0.165697  0.186409     24.000000
  0.103561 -0.020712  0.000000     24.000000
  0.124273  0.124273  0.165697     24.000000
  0.124273  0.144985  0.186409     48.000000
  0.124273 -0.041424 -0.000000     24.000000
  0.124273 -0.020712  0.020712     24.000000
  0.144985  0.144985  0.207121      8.000000
  0.144985 -0.062136 -0.000000     24.000000
  0.144985 -0.041424  0.020712     48.000000
  0.165697 -0.082849 -0.000000     24.000000
  0.165697 -0.062136  0.020712     48.000000
  0.165697 -0.041424  0.041424     24.000000
  0.186409 -0.103561  0.000000     24.000000
  0.186409 -0.082849  0.020712     48.000000
  0.186409 -0.062136  0.041424     48.000000
  0.207121 -0.124273  0.000000     24.000000
  0.207121 -0.103561  0.020712     48.000000
  0.207121 -0.082849  0.041424     48.000000
  0.207121 -0.062136  0.062136     24.000000
 -0.124273 -0.124273 -0.331394     24.000000
 -0.124273 -0.103561 -0.310682     48.000000
 -0.124273 -0.082849 -0.289970     48.000000
 -0.103561 -0.103561 -0.289970     24.000000
 -0.103561 -0.082849 -0.269258     24.000000
  0.124273  0.124273  0.124273      8.000000
  0.124273  0.144985  0.144985     24.000000
  0.124273  0.165697  0.165697     24.000000
  0.124273  0.000000  0.000000      6.000000
  0.144985  0.144985  0.165697     24.000000
  0.144985  0.165697  0.186409     24.000000
  0.144985 -0.020712 -0.000000     24.000000
  0.165697 -0.041424 -0.000000     24.000000
  0.165697 -0.020712  0.020712     24.000000
  0.186409 -0.062136 -0.000000     24.000000
  0.186409 -0.041424  0.020712     48.000000
  0.207121 -0.082849 -0.000000     24.000000
  0.207121 -0.062136  0.020712     48.000000
  0.207121 -0.041424  0.041424     24.000000
  0.227833 -0.103561  0.000000     24.000000
  0.227833 -0.082849  0.020712     48.000000
  0.227833 -0.062136  0.041424     48.000000
 -0.103561 -0.103561 -0.331394     24.000000
 -0.103561 -0.082849 -0.310682     48.000000
 -0.103561 -0.062136 -0.289970     24.000000
 -0.082849 -0.082849 -0.289970     24.000000
  0.165697  0.165697  0.165697      8.000000
  0.165697  0.000000 -0.000000      6.000000
  0.186409 -0.020712  0.000000     24.000000
  0.207121 -0.041424 -0.000000     24.000000
  0.207121 -0.020712  0.020712     24.000000
  0.227833 -0.062136 -0.000000     24.000000
  0.227833 -0.041424  0.020712     48.000000
  0.248546 -0.082849 -0.000000     24.000000
  0.248546 -0.062136  0.020712     48.000000
  0.248546 -0.041424  0.041424     24.000000
 -0.082849 -0.082849 -0.331394     24.000000
 -0.082849 -0.062136 -0.310682     48.000000
 -0.062136 -0.062136 -0.289970      8.000000
  0.207121 -0.000000  0.000000      6.000000
  0.227833 -0.020712 -0.000000     24.000000
  0.248546 -0.041424 -0.000000     24.000000
  0.248546 -0.020712  0.020712     24.000000
  0.269258 -0.062136 -0.000000     24.000000
  0.269258 -0.041424  0.020712     48.000000
 -0.062136 -0.062136 -0.331394     24.000000
 -0.062136 -0.041424 -0.310682     24.000000
  0.248546 -0.000000 -0.000000      6.000000
  0.269258 -0.020712 -0.000000     24.000000
  0.289970 -0.041424 -0.000000     24.000000
  0.289970 -0.020712  0.020712     24.000000
 -0.041424 -0.041424 -0.331394     24.000000
  0.289970  0.000000 -0.000000      6.000000
  0.310682 -0.020712 -0.000000     24.000000
 -0.020712 -0.020712 -0.331394      8.000000
  0.331394  0.000000 -0.000000      6.000000
 


--------------------------------------------------------------------------------------------------------




 Dimension of arrays:
   k-points           NKPTS =    165   k-points in BZ     NKDIM =    165   number of bands    NBANDS=     14
   number of dos      NEDOS =   3001   number of ions     NIONS =      1
   non local maximal  LDIM  =      6   non local SUM 2l+1 LMDIM =     18
   total plane-waves  NPLWV =   8000
   max r-space proj   IRMAX =      1   max aug-charges    IRDMAX=  20883
   dimension x,y,z NGX =    20 NGY =   20 NGZ =   20
   dimension x,y,z NGXF=    40 NGYF=   40 NGZF=   40
   support grid    NGXF=    40 NGYF=   40 NGZF=   40
   ions per type =               1
   NGX,Y,Z   is equivalent  to a cutoff of  13.52, 13.52, 13.52 a.u.
   NGXF,Y,Z  is equivalent  to a cutoff of  27.04, 27.04, 27.04 a.u.

 SYSTEM =  unknown system                          
 POSCAR =  Fe1                                     

 Startparameter for this run:
   NWRITE =      2    write-flag & timer
   PREC   = accura    normal or accurate (medium, high low for compatibility)
   ISTART =      0    job   : 0-new  1-cont  2-samecut
   ICHARG =      2    charge: 1-file 2-atom 10-const
   ISPIN  =      2    spin polarized calculation?
   LNONCOLLINEAR =      F non collinear calculations
   LSORBIT =      F    spin-orbit coupling
   INIWAV =      1    electr: 0-lowe 1-rand  2-diag
   LASPH  =      T    aspherical Exc in radial PAW
   METAGGA=      F    non-selfconsistent MetaGGA calc.

 Electronic Relaxation 1
   ENCUT  =  600.0 eV  44.10 Ry    6.64 a.u.   4.91  4.91  4.91*2*pi/ulx,y,z
   ENINI  =  600.0     initial cutoff
   ENAUG  =  578.3 eV  augmentation charge cutoff
   NELM   =    100;   NELMIN=  5; NELMDL= -6     # of ELM steps 
   EDIFF  = 0.5E-05   stopping-criterion for ELM
   LREAL  =      F    real-space projection
   NLSPLINE    = F    spline interpolate recip. space projectors
   LCOMPAT=      F    compatible to vasp.4.4
   GGA_COMPAT  = F    GGA compatible to vasp.4.4-vasp.4.6
   LMAXPAW     = -100 max onsite density
   LMAXMIX     =    2 max onsite mixed and CHGCAR
   VOSKOWN=      0    Vosko Wilk Nusair interpolation
   ROPT   =    0.00000
 Ionic relaxation
   EDIFFG = -.1E-01   stopping-criterion for IOM
   NSW    =     99    number of steps for IOM
   NBLOCK =      1;   KBLOCK =     99    inner block; outer block 
   IBRION =      2    ionic relax: 0-MD 1-quasi-New 2-CG
   NFREE  =      1    steps in history (QN), initial steepest desc. (CG)
   ISIF   =      3    stress and relaxation
   IWAVPR =     11    prediction:  0-non 1-charg 2-wave 3-comb
   ISYM   =      2    0-nonsym 1-usesym 2-fastsym
   LCORR  =      T    Harris-Foulkes like correction to forces

   POTIM  = 0.5000    time-step for ionic-motion
   TEIN   =    0.0    initial temperature
   TEBEG  =    0.0;   TEEND  =   0.0 temperature during run
   SMASS  =  -3.00    Nose mass-parameter (am)
   estimated Nose-frequenzy (Omega)   =  0.10E-29 period in steps = 0.13E+47 mass=  -0.138E-27a.u.
   SCALEE = 1.0000    scale energy and forces
   NPACO  =    256;   APACO  = 16.0  distance and # of slots for P.C.
   PSTRESS=    0.0 pullay stress

  Mass of Ions in am
   POMASS =  55.85
  Ionic Valenz
   ZVAL   =  14.00
  Atomic Wigner-Seitz radii
   RWIGS  =  -1.00
  virtual crystal weights 
   VCA    =   1.00
   NELECT =      14.0000    total number of electrons
   NUPDOWN=      -1.0000    fix difference up-down

 DOS related values:
   EMIN   =  10.00;   EMAX   =-10.00  energy-range for DOS
   EFERMI =   0.00
   ISMEAR =     2;   SIGMA  =   0.20  broadening in eV -4-tet -1-fermi 0-gaus

 Electronic relaxation 2 (details)
   IALGO  =     68    algorithm
   LDIAG  =      T    sub-space diagonalisation (order eigenvalues)
   LSUBROT=      F    optimize rotation matrix (better conditioning)
   TURBO    =      0    0=normal 1=particle mesh
   IRESTART =      0    0=no restart 2=restart with 2 vectors
   NREBOOT  =      0    no. of reboots
   NMIN     =      0    reboot dimension
   EREF     =   0.00    reference energy to select bands
   IMIX   =      4    mixing-type and parameters
     AMIX     =   0.40;   BMIX     =  1.00
     AMIX_MAG =   1.60;   BMIX_MAG =  1.00
     AMIN     =   0.10
     WC   =   100.;   INIMIX=   1;  MIXPRE=   1;  MAXMIX= 100

 Intra band minimization:
   WEIMIN = 0.0010     energy-eigenvalue tresh-hold
   EBREAK =  0.89E-07  absolut break condition
   DEPER  =   0.30     relativ break condition  

   TIME   =   0.40     timestep for ELM

  volume/ion in A,a.u.               =      11.45        77.29
  Fermi-wavevector in a.u.,A,eV,Ry     =   1.750389  3.307755 41.686364  3.063861
  Thomas-Fermi vector in A             =   2.821117
 
 Write flags
   LWAVE        =      F    write WAVECAR
   LDOWNSAMPLE  =      F    k-point downsampling of WAVECAR
   LCHARG       =      T    write CHGCAR
   LVTOT        =      F    write LOCPOT, total local potential
   LVHAR        =      F    write LOCPOT, Hartree potential only
   LELF         =      F    write electronic localiz. function (ELF)
   LORBIT       =     11    0 simple, 1 ext, 2 COOP (PROOUT), +10 PAW based schemes


 Dipole corrections
   LMONO  =      F    monopole corrections only (constant potential shift)
   LDIPOL =      F    correct potential (dipole corrections)
   IDIPOL =      0    1-x, 2-y, 3-z, 4-all directions 
   EPSILON=  1.0000000 bulk dielectric constant

 Exchange correlation treatment:
   GGA     =    --    GGA type
   LEXCH   =     8    internal setting for exchange type
   VOSKOWN=      0    Vosko Wilk Nusair interpolation
   LHFCALC =     F    Hartree Fock is set to
   LHFONE  =     F    Hartree Fock one center treatment
   AEXX    =    0.0000 exact exchange contribution

 Linear response parameters
   LEPSILON=     F    determine dielectric tensor
   LRPA    =     F    only Hartree local field effects (RPA)
   LNABLA  =     F    use nabla operator in PAW spheres
   LVEL    =     F    velocity operator in full k-point grid
   LINTERFAST=   F  fast interpolation
   KINTER  =     0    interpolate to denser k-point grid
   CSHIFT  =0.1000    complex shift for real part using Kramers Kronig
   OMEGAMAX=  -1.0    maximum frequency
   DEG_THRESHOLD= 0.2000000E-02 threshold for treating states as degnerate
   RTIME   =   -0.100 relaxation time in fs
  (WPLASMAI=    0.000 imaginary part of plasma frequency in eV, 0.658/RTIME)
   DFIELD  = 0.0000000 0.0000000 0.0000000 field for delta impulse in time
 
 Orbital magnetization related:
   ORBITALMAG=     F  switch on orbital magnetization
   LCHIMAG   =     F  perturbation theory with respect to B field
   DQ        =  0.001000  dq finite difference perturbation B field
   LLRAUG    =     F  two centre corrections for induced B field



--------------------------------------------------------------------------------------------------------


 conjugate gradient relaxation of ions
 charge density and potential will be updated during run
 spin polarized calculation
 RMM-DIIS sequential band-by-band and
  variant of blocked Davidson during initial phase
 perform sub-space diagonalisation
    before iterative eigenvector-optimisation
 modified Broyden-mixing scheme, WC =      100.0
 initial mixing is a Kerker type mixing with AMIX =  0.4000 and BMIX =      1.0000
 Hartree-type preconditioning will be used
 using additional bands            7
 reciprocal scheme for non local part
 use partial core corrections
 calculate Harris-corrections to forces 
   (improved forces if not selfconsistent)
 use gradient corrections 
 use of overlap-Matrix (Vanderbilt PP)
 Methfessel and Paxton  Order N= 2 SIGMA  =   0.20


--------------------------------------------------------------------------------------------------------


  energy-cutoff  :      600.00
  volume of cell :       11.45
      direct lattice vectors                 reciprocal lattice vectors
    -1.420026000  1.420026000  1.420026000     0.000000000  0.352106229  0.352106229
     1.420026000 -1.420026000  1.420026000     0.352106229  0.000000000  0.352106229
     1.420026000  1.420026000 -1.420026000     0.352106229  0.352106229  0.000000000

  length of vectors
     2.459557180  2.459557180  2.459557180     0.497953405  0.497953405  0.497953405


 
 k-points in units of 2pi/SCALE and weight: pymatgen v2020.10.20 with grid density =
   0.00000000  0.00000000  0.00000000       0.000
  -0.00000000  0.02071213  0.02071213       0.002
  -0.00000000  0.04142426  0.04142426       0.002
  -0.00000000  0.06213639  0.06213639       0.002
  -0.00000000  0.08284852  0.08284852       0.002
  -0.00000000  0.10356066  0.10356066       0.002
  -0.00000000  0.12427279  0.12427279       0.002
  -0.00000000  0.14498492  0.14498492       0.002
  -0.00000000  0.16569705  0.16569705       0.002
   0.02071213  0.02071213  0.04142426       0.005
   0.02071213  0.04142426  0.06213639       0.010
   0.02071213  0.06213639  0.08284852       0.010
   0.02071213  0.08284852  0.10356066       0.010
   0.02071213  0.10356066  0.12427279       0.010
   0.02071213  0.12427279  0.14498492       0.010
   0.02071213  0.14498492  0.16569705       0.010
   0.02071213  0.16569705  0.18640918       0.005
   0.04142426  0.04142426  0.08284852       0.005
   0.04142426  0.06213639  0.10356066       0.010
   0.04142426  0.08284852  0.12427279       0.010
   0.04142426  0.10356066  0.14498492       0.010
   0.04142426  0.12427279  0.16569705       0.010
   0.04142426  0.14498492  0.18640918       0.010
   0.06213639  0.06213639  0.12427279       0.005
   0.06213639  0.08284852  0.14498492       0.010
   0.06213639  0.10356066  0.16569705       0.010
   0.06213639  0.12427279  0.18640918       0.010
   0.06213639  0.14498492  0.20712131       0.005
   0.08284852  0.08284852  0.16569705       0.005
   0.08284852  0.10356066  0.18640918       0.010
   0.08284852  0.12427279  0.20712131       0.010
   0.10356066  0.10356066  0.20712131       0.005
   0.10356066  0.12427279  0.22783344       0.005
   0.04142426  0.04142426  0.04142426       0.002
   0.04142426  0.06213639  0.06213639       0.005
   0.04142426  0.08284852  0.08284852       0.005
   0.04142426  0.10356066  0.10356066       0.005
   0.04142426  0.12427279  0.12427279       0.005
   0.04142426  0.14498492  0.14498492       0.005
   0.04142426  0.16569705  0.16569705       0.005
   0.04142426 -0.00000000 -0.00000000       0.001
   0.06213639  0.06213639  0.08284852       0.005
   0.06213639  0.08284852  0.10356066       0.010
   0.06213639  0.10356066  0.12427279       0.010
   0.06213639  0.12427279  0.14498492       0.010
   0.06213639  0.14498492  0.16569705       0.010
   0.06213639  0.16569705  0.18640918       0.005
   0.06213639 -0.02071213 -0.00000000       0.005
   0.08284852  0.08284852  0.12427279       0.005
   0.08284852  0.10356066  0.14498492       0.010
   0.08284852  0.12427279  0.16569705       0.010
   0.08284852  0.14498492  0.18640918       0.010
   0.08284852 -0.04142426  0.00000000       0.005
   0.08284852 -0.02071213  0.02071213       0.005
   0.10356066  0.10356066  0.16569705       0.005
   0.10356066  0.12427279  0.18640918       0.010
   0.10356066  0.14498492  0.20712131       0.005
   0.10356066 -0.06213639 -0.00000000       0.005
   0.10356066 -0.04142426  0.02071213       0.010
   0.12427279  0.12427279  0.20712131       0.005
   0.12427279 -0.08284852  0.00000000       0.005
   0.12427279 -0.06213639  0.02071213       0.010
   0.12427279 -0.04142426  0.04142426       0.005
   0.14498492 -0.10356066 -0.00000000       0.005
   0.14498492 -0.08284852  0.02071213       0.010
   0.14498492 -0.06213639  0.04142426       0.010
   0.16569705 -0.12427279 -0.00000000       0.005
   0.16569705 -0.10356066  0.02071213       0.010
   0.16569705 -0.08284852  0.04142426       0.010
   0.16569705 -0.06213639  0.06213639       0.005
   0.18640918 -0.14498492 -0.00000000       0.005
   0.18640918 -0.12427279  0.02071213       0.010
   0.18640918 -0.10356066  0.04142426       0.010
   0.18640918 -0.08284852  0.06213639       0.010
  -0.14498492 -0.14498492 -0.33139410       0.005
  -0.14498492 -0.12427279 -0.31068197       0.010
  -0.14498492 -0.10356066 -0.28996984       0.010
  -0.14498492 -0.08284852 -0.26925770       0.005
  -0.12427279 -0.12427279 -0.28996984       0.005
  -0.12427279 -0.10356066 -0.26925770       0.010
  -0.10356066 -0.10356066 -0.24854557       0.002
   0.08284852  0.08284852  0.08284852       0.002
   0.08284852  0.10356066  0.10356066       0.005
   0.08284852  0.12427279  0.12427279       0.005
   0.08284852  0.14498492  0.14498492       0.005
   0.08284852  0.16569705  0.16569705       0.005
   0.08284852 -0.00000000 -0.00000000       0.001
   0.10356066  0.10356066  0.12427279       0.005
   0.10356066  0.12427279  0.14498492       0.010
   0.10356066  0.14498492  0.16569705       0.010
   0.10356066  0.16569705  0.18640918       0.005
   0.10356066 -0.02071213 -0.00000000       0.005
   0.12427279  0.12427279  0.16569705       0.005
   0.12427279  0.14498492  0.18640918       0.010
   0.12427279 -0.04142426 -0.00000000       0.005
   0.12427279 -0.02071213  0.02071213       0.005
   0.14498492  0.14498492  0.20712131       0.002
   0.14498492 -0.06213639 -0.00000000       0.005
   0.14498492 -0.04142426  0.02071213       0.010
   0.16569705 -0.08284852 -0.00000000       0.005
   0.16569705 -0.06213639  0.02071213       0.010
   0.16569705 -0.04142426  0.04142426       0.005
   0.18640918 -0.10356066 -0.00000000       0.005
   0.18640918 -0.08284852  0.02071213       0.010
   0.18640918 -0.06213639  0.04142426       0.010
   0.20712131 -0.12427279 -0.00000000       0.005
   0.20712131 -0.10356066  0.02071213       0.010
   0.20712131 -0.08284852  0.04142426       0.010
   0.20712131 -0.06213639  0.06213639       0.005
  -0.12427279 -0.12427279 -0.33139410       0.005
  -0.12427279 -0.10356066 -0.31068197       0.010
  -0.12427279 -0.08284852 -0.28996984       0.010
  -0.10356066 -0.10356066 -0.28996984       0.005
  -0.10356066 -0.08284852 -0.26925770       0.005
   0.12427279  0.12427279  0.12427279       0.002
   0.12427279  0.14498492  0.14498492       0.005
   0.12427279  0.16569705  0.16569705       0.005
   0.12427279  0.00000000  0.00000000       0.001
   0.14498492  0.14498492  0.16569705       0.005
   0.14498492  0.16569705  0.18640918       0.005
   0.14498492 -0.02071213 -0.00000000       0.005
   0.16569705 -0.04142426 -0.00000000       0.005
   0.16569705 -0.02071213  0.02071213       0.005
   0.18640918 -0.06213639 -0.00000000       0.005
   0.18640918 -0.04142426  0.02071213       0.010
   0.20712131 -0.08284852 -0.00000000       0.005
   0.20712131 -0.06213639  0.02071213       0.010
   0.20712131 -0.04142426  0.04142426       0.005
   0.22783344 -0.10356066 -0.00000000       0.005
   0.22783344 -0.08284852  0.02071213       0.010
   0.22783344 -0.06213639  0.04142426       0.010
  -0.10356066 -0.10356066 -0.33139410       0.005
  -0.10356066 -0.08284852 -0.31068197       0.010
  -0.10356066 -0.06213639 -0.28996984       0.005
  -0.08284852 -0.08284852 -0.28996984       0.005
   0.16569705  0.16569705  0.16569705       0.002
   0.16569705  0.00000000 -0.00000000       0.001
   0.18640918 -0.02071213  0.00000000       0.005
   0.20712131 -0.04142426 -0.00000000       0.005
   0.20712131 -0.02071213  0.02071213       0.005
   0.22783344 -0.06213639 -0.00000000       0.005
   0.22783344 -0.04142426  0.02071213       0.010
   0.24854557 -0.08284852 -0.00000000       0.005
   0.24854557 -0.06213639  0.02071213       0.010
   0.24854557 -0.04142426  0.04142426       0.005
  -0.08284852 -0.08284852 -0.33139410       0.005
  -0.08284852 -0.06213639 -0.31068197       0.010
  -0.06213639 -0.06213639 -0.28996984       0.002
   0.20712131  0.00000000  0.00000000       0.001
   0.22783344 -0.02071213 -0.00000000       0.005
   0.24854557 -0.04142426 -0.00000000       0.005
   0.24854557 -0.02071213  0.02071213       0.005
   0.26925770 -0.06213639 -0.00000000       0.005
   0.26925770 -0.04142426  0.02071213       0.010
  -0.06213639 -0.06213639 -0.33139410       0.005
  -0.06213639 -0.04142426 -0.31068197       0.005
   0.24854557 -0.00000000 -0.00000000       0.001
   0.26925770 -0.02071213 -0.00000000       0.005
   0.28996984 -0.04142426 -0.00000000       0.005
   0.28996984 -0.02071213  0.02071213       0.005
  -0.04142426 -0.04142426 -0.33139410       0.005
   0.28996984  0.00000000 -0.00000000       0.001
   0.31068197 -0.02071213 -0.00000000       0.005
  -0.02071213 -0.02071213 -0.33139410       0.002
   0.33139410  0.00000000 -0.00000000       0.001
 
 k-points in reciprocal lattice and weights: pymatgen v2020.10.20 with grid density =
   0.00000000  0.00000000  0.00000000       0.000
   0.05882353  0.00000000 -0.00000000       0.002
   0.11764706 -0.00000000 -0.00000000       0.002
   0.17647059 -0.00000000 -0.00000000       0.002
   0.23529412 -0.00000000 -0.00000000       0.002
   0.29411765 -0.00000000 -0.00000000       0.002
   0.35294118 -0.00000000 -0.00000000       0.002
   0.41176471 -0.00000000 -0.00000000       0.002
   0.47058824 -0.00000000 -0.00000000       0.002
   0.05882353  0.05882353  0.00000000       0.005
   0.11764706  0.05882353  0.00000000       0.010
   0.17647059  0.05882353  0.00000000       0.010
   0.23529412  0.05882353  0.00000000       0.010
   0.29411765  0.05882353  0.00000000       0.010
   0.35294118  0.05882353  0.00000000       0.010
   0.41176471  0.05882353  0.00000000       0.010
   0.47058824  0.05882353  0.00000000       0.005
   0.11764706  0.11764706  0.00000000       0.005
   0.17647059  0.11764706  0.00000000       0.010
   0.23529412  0.11764706  0.00000000       0.010
   0.29411765  0.11764706  0.00000000       0.010
   0.35294118  0.11764706  0.00000000       0.010
   0.41176471  0.11764706  0.00000000       0.010
   0.17647059  0.17647059 -0.00000000       0.005
   0.23529412  0.17647059 -0.00000000       0.010
   0.29411765  0.17647059 -0.00000000       0.010
   0.35294118  0.17647059 -0.00000000       0.010
   0.41176471  0.17647059 -0.00000000       0.005
   0.23529412  0.23529412 -0.00000000       0.005
   0.29411765  0.23529412 -0.00000000       0.010
   0.35294118  0.23529412 -0.00000000       0.010
   0.29411765  0.29411765  0.00000000       0.005
   0.35294118  0.29411765  0.00000000       0.005
   0.05882353  0.05882353  0.05882353       0.002
   0.11764706  0.05882353  0.05882353       0.005
   0.17647059  0.05882353  0.05882353       0.005
   0.23529412  0.05882353  0.05882353       0.005
   0.29411765  0.05882353  0.05882353       0.005
   0.35294118  0.05882353  0.05882353       0.005
   0.41176471  0.05882353  0.05882353       0.005
  -0.05882353  0.05882353  0.05882353       0.001
   0.11764706  0.11764706  0.05882353       0.005
   0.17647059  0.11764706  0.05882353       0.010
   0.23529412  0.11764706  0.05882353       0.010
   0.29411765  0.11764706  0.05882353       0.010
   0.35294118  0.11764706  0.05882353       0.010
   0.41176471  0.11764706  0.05882353       0.005
  -0.11764706  0.11764706  0.05882353       0.005
   0.17647059  0.17647059  0.05882353       0.005
   0.23529412  0.17647059  0.05882353       0.010
   0.29411765  0.17647059  0.05882353       0.010
   0.35294118  0.17647059  0.05882353       0.010
  -0.17647059  0.17647059  0.05882353       0.005
  -0.11764706  0.17647059  0.05882353       0.005
   0.23529412  0.23529412  0.05882353       0.005
   0.29411765  0.23529412  0.05882353       0.010
   0.35294118  0.23529412  0.05882353       0.005
  -0.23529412  0.23529412  0.05882353       0.005
  -0.17647059  0.23529412  0.05882353       0.010
   0.29411765  0.29411765  0.05882353       0.005
  -0.29411765  0.29411765  0.05882353       0.005
  -0.23529412  0.29411765  0.05882353       0.010
  -0.17647059  0.29411765  0.05882353       0.005
  -0.35294118  0.35294118  0.05882353       0.005
  -0.29411765  0.35294118  0.05882353       0.010
  -0.23529412  0.35294118  0.05882353       0.010
  -0.41176471  0.41176471  0.05882353       0.005
  -0.35294118  0.41176471  0.05882353       0.010
  -0.29411765  0.41176471  0.05882353       0.010
  -0.23529412  0.41176471  0.05882353       0.005
  -0.47058824  0.47058824  0.05882353       0.005
  -0.41176471  0.47058824  0.05882353       0.010
  -0.35294118  0.47058824  0.05882353       0.010
  -0.29411765  0.47058824  0.05882353       0.010
  -0.47058824 -0.47058824  0.05882353       0.005
  -0.41176471 -0.47058824  0.05882353       0.010
  -0.35294118 -0.47058824  0.05882353       0.010
  -0.29411765 -0.47058824  0.05882353       0.005
  -0.41176471 -0.41176471  0.05882353       0.005
  -0.35294118 -0.41176471  0.05882353       0.010
  -0.35294118 -0.35294118  0.05882353       0.002
   0.11764706  0.11764706  0.11764706       0.002
   0.17647059  0.11764706  0.11764706       0.005
   0.23529412  0.11764706  0.11764706       0.005
   0.29411765  0.11764706  0.11764706       0.005
   0.35294118  0.11764706  0.11764706       0.005
  -0.11764706  0.11764706  0.11764706       0.001
   0.17647059  0.17647059  0.11764706       0.005
   0.23529412  0.17647059  0.11764706       0.010
   0.29411765  0.17647059  0.11764706       0.010
   0.35294118  0.17647059  0.11764706       0.005
  -0.17647059  0.17647059  0.11764706       0.005
   0.23529412  0.23529412  0.11764706       0.005
   0.29411765  0.23529412  0.11764706       0.010
  -0.23529412  0.23529412  0.11764706       0.005
  -0.17647059  0.23529412  0.11764706       0.005
   0.29411765  0.29411765  0.11764706       0.002
  -0.29411765  0.29411765  0.11764706       0.005
  -0.23529412  0.29411765  0.11764706       0.010
  -0.35294118  0.35294118  0.11764706       0.005
  -0.29411765  0.35294118  0.11764706       0.010
  -0.23529412  0.35294118  0.11764706       0.005
  -0.41176471  0.41176471  0.11764706       0.005
  -0.35294118  0.41176471  0.11764706       0.010
  -0.29411765  0.41176471  0.11764706       0.010
  -0.47058824  0.47058824  0.11764706       0.005
  -0.41176471  0.47058824  0.11764706       0.010
  -0.35294118  0.47058824  0.11764706       0.010
  -0.29411765  0.47058824  0.11764706       0.005
  -0.47058824 -0.47058824  0.11764706       0.005
  -0.41176471 -0.47058824  0.11764706       0.010
  -0.35294118 -0.47058824  0.11764706       0.010
  -0.41176471 -0.41176471  0.11764706       0.005
  -0.35294118 -0.41176471  0.11764706       0.005
   0.17647059  0.17647059  0.17647059       0.002
   0.23529412  0.17647059  0.17647059       0.005
   0.29411765  0.17647059  0.17647059       0.005
  -0.17647059  0.17647059  0.17647059       0.001
   0.23529412  0.23529412  0.17647059       0.005
   0.29411765  0.23529412  0.17647059       0.005
  -0.23529412  0.23529412  0.17647059       0.005
  -0.29411765  0.29411765  0.17647059       0.005
  -0.23529412  0.29411765  0.17647059       0.005
  -0.35294118  0.35294118  0.17647059       0.005
  -0.29411765  0.35294118  0.17647059       0.010
  -0.41176471  0.41176471  0.17647059       0.005
  -0.35294118  0.41176471  0.17647059       0.010
  -0.29411765  0.41176471  0.17647059       0.005
  -0.47058824  0.47058824  0.17647059       0.005
  -0.41176471  0.47058824  0.17647059       0.010
  -0.35294118  0.47058824  0.17647059       0.010
  -0.47058824 -0.47058824  0.17647059       0.005
  -0.41176471 -0.47058824  0.17647059       0.010
  -0.35294118 -0.47058824  0.17647059       0.005
  -0.41176471 -0.41176471  0.17647059       0.005
   0.23529412  0.23529412  0.23529412       0.002
  -0.23529412  0.23529412  0.23529412       0.001
  -0.29411765  0.29411765  0.23529412       0.005
  -0.35294118  0.35294118  0.23529412       0.005
  -0.29411765  0.35294118  0.23529412       0.005
  -0.41176471  0.41176471  0.23529412       0.005
  -0.35294118  0.41176471  0.23529412       0.010
  -0.47058824  0.47058824  0.23529412       0.005
  -0.41176471  0.47058824  0.23529412       0.010
  -0.35294118  0.47058824  0.23529412       0.005
  -0.47058824 -0.47058824  0.23529412       0.005
  -0.41176471 -0.47058824  0.23529412       0.010
  -0.41176471 -0.41176471  0.23529412       0.002
  -0.29411765  0.29411765  0.29411765       0.001
  -0.35294118  0.35294118  0.29411765       0.005
  -0.41176471  0.41176471  0.29411765       0.005
  -0.35294118  0.41176471  0.29411765       0.005
  -0.47058824  0.47058824  0.29411765       0.005
  -0.41176471  0.47058824  0.29411765       0.010
  -0.47058824 -0.47058824  0.29411765       0.005
  -0.41176471 -0.47058824  0.29411765       0.005
  -0.35294118  0.35294118  0.35294118       0.001
  -0.41176471  0.41176471  0.35294118       0.005
  -0.47058824  0.47058824  0.35294118       0.005
  -0.41176471  0.47058824  0.35294118       0.005
  -0.47058824 -0.47058824  0.35294118       0.005
  -0.41176471  0.41176471  0.41176471       0.001
  -0.47058824  0.47058824  0.41176471       0.005
  -0.47058824 -0.47058824  0.41176471       0.002
  -0.47058824  0.47058824  0.47058824       0.001
 
 position of ions in fractional coordinates (direct lattice) 
   0.00000000  0.00000000  0.00000000
 
 position of ions in cartesian coordinates  (Angst):
   0.00000000  0.00000000  0.00000000
 


--------------------------------------------------------------------------------------------------------


 k-point   1 :   0.0000 0.0000 0.0000  plane waves:     381
 k-point   2 :   0.0588 0.0000-0.0000  plane waves:     376
 k-point   3 :   0.1176-0.0000-0.0000  plane waves:     378
 k-point   4 :   0.1765-0.0000-0.0000  plane waves:     376
 k-point   5 :   0.2353-0.0000-0.0000  plane waves:     380
 k-point   6 :   0.2941-0.0000-0.0000  plane waves:     378
 k-point   7 :   0.3529-0.0000-0.0000  plane waves:     378
 k-point   8 :   0.4118-0.0000-0.0000  plane waves:     382
 k-point   9 :   0.4706-0.0000-0.0000  plane waves:     386
 k-point  10 :   0.0588 0.0588 0.0000  plane waves:     376
 k-point  11 :   0.1176 0.0588 0.0000  plane waves:     379
 k-point  12 :   0.1765 0.0588 0.0000  plane waves:     379
 k-point  13 :   0.2353 0.0588 0.0000  plane waves:     378
 k-point  14 :   0.2941 0.0588 0.0000  plane waves:     378
 k-point  15 :   0.3529 0.0588 0.0000  plane waves:     381
 k-point  16 :   0.4118 0.0588 0.0000  plane waves:     383
 k-point  17 :   0.4706 0.0588 0.0000  plane waves:     384
 k-point  18 :   0.1176 0.1176 0.0000  plane waves:     373
 k-point  19 :   0.1765 0.1176 0.0000  plane waves:     378
 k-point  20 :   0.2353 0.1176 0.0000  plane waves:     379
 k-point  21 :   0.2941 0.1176 0.0000  plane waves:     381
 k-point  22 :   0.3529 0.1176 0.0000  plane waves:     383
 k-point  23 :   0.4118 0.1176 0.0000  plane waves:     380
 k-point  24 :   0.1765 0.1765-0.0000  plane waves:     379
 k-point  25 :   0.2353 0.1765-0.0000  plane waves:     382
 k-point  26 :   0.2941 0.1765-0.0000  plane waves:     382
 k-point  27 :   0.3529 0.1765-0.0000  plane waves:     381
 k-point  28 :   0.4118 0.1765-0.0000  plane waves:     387
 k-point  29 :   0.2353 0.2353-0.0000  plane waves:     382
 k-point  30 :   0.2941 0.2353-0.0000  plane waves:     381
 k-point  31 :   0.3529 0.2353-0.0000  plane waves:     382
 k-point  32 :   0.2941 0.2941 0.0000  plane waves:     382
 k-point  33 :   0.3529 0.2941 0.0000  plane waves:     380
 k-point  34 :   0.0588 0.0588 0.0588  plane waves:     387
 k-point  35 :   0.1176 0.0588 0.0588  plane waves:     377
 k-point  36 :   0.1765 0.0588 0.0588  plane waves:     376
 k-point  37 :   0.2353 0.0588 0.0588  plane waves:     378
 k-point  38 :   0.2941 0.0588 0.0588  plane waves:     380
 k-point  39 :   0.3529 0.0588 0.0588  plane waves:     376
 k-point  40 :   0.4118 0.0588 0.0588  plane waves:     382
 k-point  41 :  -0.0588 0.0588 0.0588  plane waves:     377
 k-point  42 :   0.1176 0.1176 0.0588  plane waves:     377
 k-point  43 :   0.1765 0.1176 0.0588  plane waves:     375
 k-point  44 :   0.2353 0.1176 0.0588  plane waves:     377
 k-point  45 :   0.2941 0.1176 0.0588  plane waves:     381
 k-point  46 :   0.3529 0.1176 0.0588  plane waves:     378
 k-point  47 :   0.4118 0.1176 0.0588  plane waves:     381
 k-point  48 :  -0.1176 0.1176 0.0588  plane waves:     376
 k-point  49 :   0.1765 0.1765 0.0588  plane waves:     375
 k-point  50 :   0.2353 0.1765 0.0588  plane waves:     381
 k-point  51 :   0.2941 0.1765 0.0588  plane waves:     383
 k-point  52 :   0.3529 0.1765 0.0588  plane waves:     381
 k-point  53 :  -0.1765 0.1765 0.0588  plane waves:     377
 k-point  54 :  -0.1176 0.1765 0.0588  plane waves:     379
 k-point  55 :   0.2353 0.2353 0.0588  plane waves:     384
 k-point  56 :   0.2941 0.2353 0.0588  plane waves:     379
 k-point  57 :   0.3529 0.2353 0.0588  plane waves:     380
 k-point  58 :  -0.2353 0.2353 0.0588  plane waves:     373
 k-point  59 :  -0.1765 0.2353 0.0588  plane waves:     378
 k-point  60 :   0.2941 0.2941 0.0588  plane waves:     378
 k-point  61 :  -0.2941 0.2941 0.0588  plane waves:     381
 k-point  62 :  -0.2353 0.2941 0.0588  plane waves:     380
 k-point  63 :  -0.1765 0.2941 0.0588  plane waves:     378
 k-point  64 :  -0.3529 0.3529 0.0588  plane waves:     377
 k-point  65 :  -0.2941 0.3529 0.0588  plane waves:     379
 k-point  66 :  -0.2353 0.3529 0.0588  plane waves:     380
 k-point  67 :  -0.4118 0.4118 0.0588  plane waves:     384
 k-point  68 :  -0.3529 0.4118 0.0588  plane waves:     385
 k-point  69 :  -0.2941 0.4118 0.0588  plane waves:     384
 k-point  70 :  -0.2353 0.4118 0.0588  plane waves:     384
 k-point  71 :  -0.4706 0.4706 0.0588  plane waves:     383
 k-point  72 :  -0.4118 0.4706 0.0588  plane waves:     384
 k-point  73 :  -0.3529 0.4706 0.0588  plane waves:     386
 k-point  74 :  -0.2941 0.4706 0.0588  plane waves:     386
 k-point  75 :  -0.4706-0.4706 0.0588  plane waves:     383
 k-point  76 :  -0.4118-0.4706 0.0588  plane waves:     385
 k-point  77 :  -0.3529-0.4706 0.0588  plane waves:     383
 k-point  78 :  -0.2941-0.4706 0.0588  plane waves:     382
 k-point  79 :  -0.4118-0.4118 0.0588  plane waves:     386
 k-point  80 :  -0.3529-0.4118 0.0588  plane waves:     384
 k-point  81 :  -0.3529-0.3529 0.0588  plane waves:     378
 k-point  82 :   0.1176 0.1176 0.1176  plane waves:     378
 k-point  83 :   0.1765 0.1176 0.1176  plane waves:     372
 k-point  84 :   0.2353 0.1176 0.1176  plane waves:     378
 k-point  85 :   0.2941 0.1176 0.1176  plane waves:     382
 k-point  86 :   0.3529 0.1176 0.1176  plane waves:     380
 k-point  87 :  -0.1176 0.1176 0.1176  plane waves:     377
 k-point  88 :   0.1765 0.1765 0.1176  plane waves:     377
 k-point  89 :   0.2353 0.1765 0.1176  plane waves:     382
 k-point  90 :   0.2941 0.1765 0.1176  plane waves:     379
 k-point  91 :   0.3529 0.1765 0.1176  plane waves:     377
 k-point  92 :  -0.1765 0.1765 0.1176  plane waves:     380
 k-point  93 :   0.2353 0.2353 0.1176  plane waves:     376
 k-point  94 :   0.2941 0.2353 0.1176  plane waves:     376
 k-point  95 :  -0.2353 0.2353 0.1176  plane waves:     381
 k-point  96 :  -0.1765 0.2353 0.1176  plane waves:     383
 k-point  97 :   0.2941 0.2941 0.1176  plane waves:     381
 k-point  98 :  -0.2941 0.2941 0.1176  plane waves:     379
 k-point  99 :  -0.2353 0.2941 0.1176  plane waves:     380
 k-point 100 :  -0.3529 0.3529 0.1176  plane waves:     387
 k-point 101 :  -0.2941 0.3529 0.1176  plane waves:     382
 k-point 102 :  -0.2353 0.3529 0.1176  plane waves:     382
 k-point 103 :  -0.4118 0.4118 0.1176  plane waves:     384
 k-point 104 :  -0.3529 0.4118 0.1176  plane waves:     387
 k-point 105 :  -0.2941 0.4118 0.1176  plane waves:     389
 k-point 106 :  -0.4706 0.4706 0.1176  plane waves:     385
 k-point 107 :  -0.4118 0.4706 0.1176  plane waves:     383
 k-point 108 :  -0.3529 0.4706 0.1176  plane waves:     389
 k-point 109 :  -0.2941 0.4706 0.1176  plane waves:     386
 k-point 110 :  -0.4706-0.4706 0.1176  plane waves:     384
 k-point 111 :  -0.4118-0.4706 0.1176  plane waves:     385
 k-point 112 :  -0.3529-0.4706 0.1176  plane waves:     386
 k-point 113 :  -0.4118-0.4118 0.1176  plane waves:     387
 k-point 114 :  -0.3529-0.4118 0.1176  plane waves:     386
 k-point 115 :   0.1765 0.1765 0.1765  plane waves:     384
 k-point 116 :   0.2353 0.1765 0.1765  plane waves:     377
 k-point 117 :   0.2941 0.1765 0.1765  plane waves:     376
 k-point 118 :  -0.1765 0.1765 0.1765  plane waves:     390
 k-point 119 :   0.2353 0.2353 0.1765  plane waves:     381
 k-point 120 :   0.2941 0.2353 0.1765  plane waves:     370
 k-point 121 :  -0.2353 0.2353 0.1765  plane waves:     385
 k-point 122 :  -0.2941 0.2941 0.1765  plane waves:     383
 k-point 123 :  -0.2353 0.2941 0.1765  plane waves:     383
 k-point 124 :  -0.3529 0.3529 0.1765  plane waves:     385
 k-point 125 :  -0.2941 0.3529 0.1765  plane waves:     387
 k-point 126 :  -0.4118 0.4118 0.1765  plane waves:     384
 k-point 127 :  -0.3529 0.4118 0.1765  plane waves:     388
 k-point 128 :  -0.2941 0.4118 0.1765  plane waves:     388
 k-point 129 :  -0.4706 0.4706 0.1765  plane waves:     382
 k-point 130 :  -0.4118 0.4706 0.1765  plane waves:     386
 k-point 131 :  -0.3529 0.4706 0.1765  plane waves:     386
 k-point 132 :  -0.4706-0.4706 0.1765  plane waves:     384
 k-point 133 :  -0.4118-0.4706 0.1765  plane waves:     385
 k-point 134 :  -0.3529-0.4706 0.1765  plane waves:     390
 k-point 135 :  -0.4118-0.4118 0.1765  plane waves:     383
 k-point 136 :   0.2353 0.2353 0.2353  plane waves:     360
 k-point 137 :  -0.2353 0.2353 0.2353  plane waves:     386
 k-point 138 :  -0.2941 0.2941 0.2353  plane waves:     390
 k-point 139 :  -0.3529 0.3529 0.2353  plane waves:     391
 k-point 140 :  -0.2941 0.3529 0.2353  plane waves:     389
 k-point 141 :  -0.4118 0.4118 0.2353  plane waves:     386
 k-point 142 :  -0.3529 0.4118 0.2353  plane waves:     387
 k-point 143 :  -0.4706 0.4706 0.2353  plane waves:     386
 k-point 144 :  -0.4118 0.4706 0.2353  plane waves:     388
 k-point 145 :  -0.3529 0.4706 0.2353  plane waves:     388
 k-point 146 :  -0.4706-0.4706 0.2353  plane waves:     390
 k-point 147 :  -0.4118-0.4706 0.2353  plane waves:     392
 k-point 148 :  -0.4118-0.4118 0.2353  plane waves:     385
 k-point 149 :  -0.2941 0.2941 0.2941  plane waves:     386
 k-point 150 :  -0.3529 0.3529 0.2941  plane waves:     390
 k-point 151 :  -0.4118 0.4118 0.2941  plane waves:     393
 k-point 152 :  -0.3529 0.4118 0.2941  plane waves:     389
 k-point 153 :  -0.4706 0.4706 0.2941  plane waves:     392
 k-point 154 :  -0.4118 0.4706 0.2941  plane waves:     391
 k-point 155 :  -0.4706-0.4706 0.2941  plane waves:     387
 k-point 156 :  -0.4118-0.4706 0.2941  plane waves:     385
 k-point 157 :  -0.3529 0.3529 0.3529  plane waves:     398
 k-point 158 :  -0.4118 0.4118 0.3529  plane waves:     388
 k-point 159 :  -0.4706 0.4706 0.3529  plane waves:     386
 k-point 160 :  -0.4118 0.4706 0.3529  plane waves:     385
 k-point 161 :  -0.4706-0.4706 0.3529  plane waves:     383
 k-point 162 :  -0.4118 0.4118 0.4118  plane waves:     382
 k-point 163 :  -0.4706 0.4706 0.4118  plane waves:     380
 k-point 164 :  -0.4706-0.4706 0.4118  plane waves:     376
 k-point 165 :  -0.4706 0.4706 0.4706  plane waves:     370

 maximum and minimum number of plane-waves per node :       205      179

 maximum number of plane-waves:       398
 maximum index in each direction: 
   IXMAX=    5   IYMAX=    5   IZMAX=    4
   IXMIN=   -5   IYMIN=   -5   IZMIN=   -5


 parallel 3D FFT for wavefunctions:
    minimum data exchange during FFTs selected (reduces bandwidth)
 parallel 3D FFT for charge:
    minimum data exchange during FFTs selected (reduces bandwidth)


 total amount of memory used by VASP MPI-rank0    55351. kBytes
=======================================================================

   base      :      30000. kBytes
   nonl-proj :       4874. kBytes
   fftplans  :       1242. kBytes
   grid      :       2720. kBytes
   one-center:         31. kBytes
   wavefun   :      16484. kBytes
 
     INWAV:  cpu time    0.0000: real time    0.0000
 Broyden mixing: mesh for mixing (old mesh)
   NGX =  9   NGY =  9   NGZ =  9
  (NGX  = 40   NGY  = 40   NGZ  = 40)
  gives a total of    729 points

 initial charge density was supplied:
 charge density of overlapping atoms calculated
 number of electron      14.0000000 magnetization       5.0000000
 keeping initial charge density in first step


--------------------------------------------------------------------------------------------------------


 Maximum index for augmentation-charges        10087 (set IRDMAX)


--------------------------------------------------------------------------------------------------------


 First call to EWALD:  gamma=   0.786
 Maximum number of real-space cells 3x 3x 3
 Maximum number of reciprocal cells 3x 3x 3

    FEWALD:  cpu time    0.0011: real time    0.0011


--------------------------------------- Iteration      1(   1)  ---------------------------------------


    POTLOK:  cpu time    0.0183: real time    0.0205
    SETDIJ:  cpu time    0.2627: real time    0.2631
     EDDAV:  cpu time    0.6254: real time    0.6353
       DOS:  cpu time    0.0121: real time    0.0126
    --------------------------------------------
      LOOP:  cpu time    0.9186: real time    0.9315

 eigenvalue-minimisations  :  9856
 total energy-change (2. order) : 0.9457074E+02  (-0.9309585E+03)
 number of electron      14.0000000 magnetization       5.0000000
 augmentation part       14.0000000 magnetization       5.0000000

 Free energy of the ion-electron system (eV)
  ---------------------------------------------------
  alpha Z        PSCENC =       109.43524361
  Ewald energy   TEWEN  =     -1808.28038974
  -Hartree energ DENC   =      -581.43193127
  -exchange      EXHF   =         0.00000000
  -V(xc)+E(xc)   XCENC  =        73.77310327
  PAW double counting   =      1998.96930109    -2088.67396101
  entropy T*S    EENTRO =         0.00012982
  eigenvalues    EBANDS =       -66.63910997
  atomic energy  EATOM  =      2457.41835078
  Solvation  Ediel_sol  =         0.00000000
  ---------------------------------------------------
  free energy    TOTEN  =        94.57073658 eV

  energy without entropy =       94.57060676  energy(sigma->0) =       94.57070412


--------------------------------------------------------------------------------------------------------




--------------------------------------- Iteration      1(   2)  ---------------------------------------


     EDDAV:  cpu time    0.5980: real time    0.6003
       DOS:  cpu time    0.0135: real time    0.0135
    --------------------------------------------
      LOOP:  cpu time    0.6115: real time    0.6139

 eigenvalue-minimisations  :  9546
 total energy-change (2. order) :-0.1003290E+03  (-0.9412311E+02)
 number of electron      14.0000000 magnetization       5.0000000
 augmentation part       14.0000000 magnetization       5.0000000

 Free energy of the ion-electron system (eV)
  ---------------------------------------------------
  alpha Z        PSCENC =       109.43524361
  Ewald energy   TEWEN  =     -1808.28038974
  -Hartree energ DENC   =      -581.43193127
  -exchange      EXHF   =         0.00000000
  -V(xc)+E(xc)   XCENC  =        73.77310327
  PAW double counting   =      1998.96930109    -2088.67396101
  entropy T*S    EENTRO =         0.00097248
  eigenvalues    EBANDS =      -166.96898729
  atomic energy  EATOM  =      2457.41835078
  Solvation  Ediel_sol  =         0.00000000
  ---------------------------------------------------
  free energy    TOTEN  =        -5.75829809 eV

  energy without entropy =       -5.75927056  energy(sigma->0) =       -5.75854121


--------------------------------------------------------------------------------------------------------




--------------------------------------- Iteration      1(   3)  ---------------------------------------


     EDDAV:  cpu time    0.6294: real time    0.6318
       DOS:  cpu time    0.0136: real time    0.0137
    --------------------------------------------
      LOOP:  cpu time    0.6430: real time    0.6454

 eigenvalue-minimisations  : 10356
 total energy-change (2. order) :-0.2364511E+01  (-0.2357745E+01)
 number of electron      14.0000000 magnetization       5.0000000
 augmentation part       14.0000000 magnetization       5.0000000

 Free energy of the ion-electron system (eV)
  ---------------------------------------------------
  alpha Z        PSCENC =       109.43524361
  Ewald energy   TEWEN  =     -1808.28038974
  -Hartree energ DENC   =      -581.43193127
  -exchange      EXHF   =         0.00000000
  -V(xc)+E(xc)   XCENC  =        73.77310327
  PAW double counting   =      1998.96930109    -2088.67396101
  entropy T*S    EENTRO =         0.00138218
  eigenvalues    EBANDS =      -169.33390801
  atomic energy  EATOM  =      2457.41835078
  Solvation  Ediel_sol  =         0.00000000
  ---------------------------------------------------
  free energy    TOTEN  =        -8.12280911 eV

  energy without entropy =       -8.12419128  energy(sigma->0) =       -8.12315465


--------------------------------------------------------------------------------------------------------




--------------------------------------- Iteration      1(   4)  ---------------------------------------


     EDDAV:  cpu time    0.6597: real time    0.6621
       DOS:  cpu time    0.0137: real time    0.0137
    --------------------------------------------
      LOOP:  cpu time    0.6734: real time    0.6758

 eigenvalue-minimisations  : 10434
 total energy-change (2. order) :-0.1299263E-01  (-0.1299210E-01)
 number of electron      14.0000000 magnetization       5.0000000
 augmentation part       14.0000000 magnetization       5.0000000

 Free energy of the ion-electron system (eV)
  ---------------------------------------------------
  alpha Z        PSCENC =       109.43524361
  Ewald energy   TEWEN  =     -1808.28038974
  -Hartree energ DENC   =      -581.43193127
  -exchange      EXHF   =         0.00000000
  -V(xc)+E(xc)   XCENC  =        73.77310327
  PAW double counting   =      1998.96930109    -2088.67396101
  entropy T*S    EENTRO =         0.00137988
  eigenvalues    EBANDS =      -169.34689834
  atomic energy  EATOM  =      2457.41835078
  Solvation  Ediel_sol  =         0.00000000
  ---------------------------------------------------
  free energy    TOTEN  =        -8.13580173 eV

  energy without entropy =       -8.13718161  energy(sigma->0) =       -8.13614670


--------------------------------------------------------------------------------------------------------




--------------------------------------- Iteration      1(   5)  ---------------------------------------


     EDDAV:  cpu time    0.6419: real time    0.6443
       DOS:  cpu time    0.0138: real time    0.0138
    --------------------------------------------
      LOOP:  cpu time    0.6557: real time    0.6581

 eigenvalue-minimisations  : 10584
 total energy-change (2. order) :-0.1389377E-03  (-0.1389359E-03)
 number of electron      14.0000000 magnetization       5.0000000
 augmentation part       14.0000000 magnetization       5.0000000

 Free energy of the ion-electron system (eV)
  ---------------------------------------------------
  alpha Z        PSCENC =       109.43524361
  Ewald energy   TEWEN  =     -1808.28038974
  -Hartree energ DENC   =      -581.43193127
  -exchange      EXHF   =         0.00000000
  -V(xc)+E(xc)   XCENC  =        73.77310327
  PAW double counting   =      1998.96930109    -2088.67396101
  entropy T*S    EENTRO =         0.00137986
  eigenvalues    EBANDS =      -169.34703726
  atomic energy  EATOM  =      2457.41835078
  Solvation  Ediel_sol  =         0.00000000
  ---------------------------------------------------
  free energy    TOTEN  =        -8.13594067 eV

  energy without entropy =       -8.13732053  energy(sigma->0) =       -8.13628563


--------------------------------------------------------------------------------------------------------




--------------------------------------- Iteration      1(   6)  ---------------------------------------


     EDDAV:  cpu time    0.6364: real time    0.6388
       DOS:  cpu time    0.0136: real time    0.0136
    CHARGE:  cpu time    0.0449: real time    0.0451
    MIXING:  cpu time    0.0006: real time    0.0011
    --------------------------------------------
      LOOP:  cpu time    0.6955: real time    0.6986

 eigenvalue-minimisations  : 10432
 total energy-change (2. order) :-0.2493719E-05  (-0.2494588E-05)
 number of electron      13.9999990 magnetization       1.9349820
 augmentation part        7.9518309 magnetization       1.1670513

 Broyden mixing:
  rms(total) = 0.17629E+01    rms(broyden)= 0.17629E+01
  rms(prec ) = 0.35337E+01
  weight for this iteration     100.00

 Free energy of the ion-electron system (eV)
  ---------------------------------------------------
  alpha Z        PSCENC =       109.43524361
  Ewald energy   TEWEN  =     -1808.28038974
  -Hartree energ DENC   =      -581.43193127
  -exchange      EXHF   =         0.00000000
  -V(xc)+E(xc)   XCENC  =        73.77310327
  PAW double counting   =      1998.96930109    -2088.67396101
  entropy T*S    EENTRO =         0.00137986
  eigenvalues    EBANDS =      -169.34703975
  atomic energy  EATOM  =      2457.41835078
  Solvation  Ediel_sol  =         0.00000000
  ---------------------------------------------------
  free energy    TOTEN  =        -8.13594316 eV

  energy without entropy =       -8.13732303  energy(sigma->0) =       -8.13628813


--------------------------------------------------------------------------------------------------------




--------------------------------------- Iteration      1(   7)  ---------------------------------------


    POTLOK:  cpu time    0.0175: real time    0.0175
    SETDIJ:  cpu time    0.2629: real time    0.2632
    EDDIAG:  cpu time    0.2197: real time    0.2260
  RMM-DIIS:  cpu time    0.4508: real time    0.4513
    ORTHCH:  cpu time    0.0057: real time    0.0057
       DOS:  cpu time    0.0137: real time    0.0137
    CHARGE:  cpu time    0.0457: real time    0.0457
    MIXING:  cpu time    0.0006: real time    0.0010
    --------------------------------------------
      LOOP:  cpu time    1.0167: real time    1.0241

 eigenvalue-minimisations  :  9641
 total energy-change (2. order) :-0.8470842E-01  (-0.2382077E+00)
 number of electron      13.9999989 magnetization       2.2923427
 augmentation part        8.5402691 magnetization       1.8359012

 Broyden mixing:
  rms(total) = 0.47576E+00    rms(broyden)= 0.47564E+00
  rms(prec ) = 0.73319E+00
  weight for this iteration     100.00

 eigenvalues of (default mixing * dielectric matrix)
  average eigenvalue GAMMA=   0.8350
  0.8350

 Free energy of the ion-electron system (eV)
  ---------------------------------------------------
  alpha Z        PSCENC =       109.43524361
  Ewald energy   TEWEN  =     -1808.28038974
  -Hartree energ DENC   =      -544.51941538
  -exchange      EXHF   =         0.00000000
  -V(xc)+E(xc)   XCENC  =        70.29219040
  PAW double counting   =      2057.10787811    -2144.90670035
  entropy T*S    EENTRO =        -0.00100556
  eigenvalues    EBANDS =      -204.76680344
  atomic energy  EATOM  =      2457.41835078
  Solvation  Ediel_sol  =         0.00000000
  ---------------------------------------------------
  free energy    TOTEN  =        -8.22065158 eV

  energy without entropy =       -8.21964602  energy(sigma->0) =       -8.22040019


--------------------------------------------------------------------------------------------------------




--------------------------------------- Iteration      1(   8)  ---------------------------------------


    POTLOK:  cpu time    0.0169: real time    0.0169
    SETDIJ:  cpu time    0.2655: real time    0.2657
    EDDIAG:  cpu time    0.1997: real time    0.2010
  RMM-DIIS:  cpu time    0.4623: real time    0.4631
    ORTHCH:  cpu time    0.0057: real time    0.0057
       DOS:  cpu time    0.0136: real time    0.0136
    CHARGE:  cpu time    0.0440: real time    0.0440
    MIXING:  cpu time    0.0006: real time    0.0006
    --------------------------------------------
      LOOP:  cpu time    1.0083: real time    1.0106

 eigenvalue-minimisations  : 10098
 total energy-change (2. order) :-0.5012848E-01  (-0.1160532E-01)
 number of electron      13.9999989 magnetization       2.2274249
 augmentation part        8.3814043 magnetization       1.7660382

 Broyden mixing:
  rms(total) = 0.27986E+00    rms(broyden)= 0.27984E+00
  rms(prec ) = 0.43970E+00
  weight for this iteration     100.00

 eigenvalues of (default mixing * dielectric matrix)
  average eigenvalue GAMMA=   0.7743
  0.9929  0.5557

 Free energy of the ion-electron system (eV)
  ---------------------------------------------------
  alpha Z        PSCENC =       109.43524361
  Ewald energy   TEWEN  =     -1808.28038974
  -Hartree energ DENC   =      -549.92622242
  -exchange      EXHF   =         0.00000000
  -V(xc)+E(xc)   XCENC  =        70.68584596
  PAW double counting   =      2109.81189102    -2200.11244865
  entropy T*S    EENTRO =        -0.00085898
  eigenvalues    EBANDS =      -197.30219163
  atomic energy  EATOM  =      2457.41835078
  Solvation  Ediel_sol  =         0.00000000
  ---------------------------------------------------
  free energy    TOTEN  =        -8.27078006 eV

  energy without entropy =       -8.26992109  energy(sigma->0) =       -8.27056532


--------------------------------------------------------------------------------------------------------




--------------------------------------- Iteration      1(   9)  ---------------------------------------


    POTLOK:  cpu time    0.0175: real time    0.0176
    SETDIJ:  cpu time    0.2632: real time    0.2634
    EDDIAG:  cpu time    0.2029: real time    0.2041
  RMM-DIIS:  cpu time    0.4527: real time    0.4532
    ORTHCH:  cpu time    0.0057: real time    0.0057
       DOS:  cpu time    0.0138: real time    0.0138
    CHARGE:  cpu time    0.0444: real time    0.0444
    MIXING:  cpu time    0.0006: real time    0.0006
    --------------------------------------------
      LOOP:  cpu time    1.0008: real time    1.0028

 eigenvalue-minimisations  :  9715
 total energy-change (2. order) :-0.2938998E-02  (-0.6372860E-03)
 number of electron      13.9999989 magnetization       2.1567843
 augmentation part        8.4081820 magnetization       1.6943265

 Broyden mixing:
  rms(total) = 0.94505E-01    rms(broyden)= 0.94494E-01
  rms(prec ) = 0.18023E+00
  weight for this iteration     100.00

 eigenvalues of (default mixing * dielectric matrix)
  average eigenvalue GAMMA=   1.0680
  1.7799  0.8406  0.5835

 Free energy of the ion-electron system (eV)
  ---------------------------------------------------
  alpha Z        PSCENC =       109.43524361
  Ewald energy   TEWEN  =     -1808.28038974
  -Hartree energ DENC   =      -547.52547959
  -exchange      EXHF   =         0.00000000
  -V(xc)+E(xc)   XCENC  =        70.54587580
  PAW double counting   =      2135.78409831    -2226.85648879
  entropy T*S    EENTRO =        -0.00052866
  eigenvalues    EBANDS =      -198.79440078
  atomic energy  EATOM  =      2457.41835078
  Solvation  Ediel_sol  =         0.00000000
  ---------------------------------------------------
  free energy    TOTEN  =        -8.27371906 eV

  energy without entropy =       -8.27319040  energy(sigma->0) =       -8.27358690


--------------------------------------------------------------------------------------------------------




--------------------------------------- Iteration      1(  10)  ---------------------------------------


    POTLOK:  cpu time    0.0175: real time    0.0175
    SETDIJ:  cpu time    0.2634: real time    0.2634
    EDDIAG:  cpu time    0.1961: real time    0.1973
  RMM-DIIS:  cpu time    0.4226: real time    0.4232
    ORTHCH:  cpu time    0.0056: real time    0.0056
       DOS:  cpu time    0.0139: real time    0.0139
    CHARGE:  cpu time    0.0438: real time    0.0438
    MIXING:  cpu time    0.0006: real time    0.0006
    --------------------------------------------
      LOOP:  cpu time    0.9633: real time    0.9654

 eigenvalue-minimisations  :  9286
 total energy-change (2. order) : 0.4025475E-02  (-0.2002445E-03)
 number of electron      13.9999989 magnetization       2.1772641
 augmentation part        8.4234437 magnetization       1.7162044

 Broyden mixing:
  rms(total) = 0.22505E-01    rms(broyden)= 0.22489E-01
  rms(prec ) = 0.39136E-01
  weight for this iteration     100.00

 eigenvalues of (default mixing * dielectric matrix)
  average eigenvalue GAMMA=   1.1568
  2.2518  1.0579  0.7055  0.6119

 Free energy of the ion-electron system (eV)
  ---------------------------------------------------
  alpha Z        PSCENC =       109.43524361
  Ewald energy   TEWEN  =     -1808.28038974
  -Hartree energ DENC   =      -545.06165459
  -exchange      EXHF   =         0.00000000
  -V(xc)+E(xc)   XCENC  =        70.41036516
  PAW double counting   =      2175.63047029    -2267.97832037
  entropy T*S    EENTRO =         0.00025723
  eigenvalues    EBANDS =      -199.84401596
  atomic energy  EATOM  =      2457.41835078
  Solvation  Ediel_sol  =         0.00000000
  ---------------------------------------------------
  free energy    TOTEN  =        -8.26969359 eV

  energy without entropy =       -8.26995082  energy(sigma->0) =       -8.26975790


--------------------------------------------------------------------------------------------------------




--------------------------------------- Iteration      1(  11)  ---------------------------------------


    POTLOK:  cpu time    0.0173: real time    0.0173
    SETDIJ:  cpu time    0.2627: real time    0.2629
    EDDIAG:  cpu time    0.1964: real time    0.1979
  RMM-DIIS:  cpu time    0.4645: real time    0.4656
    ORTHCH:  cpu time    0.0057: real time    0.0057
       DOS:  cpu time    0.0138: real time    0.0138
    CHARGE:  cpu time    0.0450: real time    0.0450
    MIXING:  cpu time    0.0006: real time    0.0006
    --------------------------------------------
      LOOP:  cpu time    1.0061: real time    1.0089

 eigenvalue-minimisations  :  9838
 total energy-change (2. order) :-0.4926880E-04  (-0.9817081E-04)
 number of electron      13.9999989 magnetization       2.1814851
 augmentation part        8.4158724 magnetization       1.7206807

 Broyden mixing:
  rms(total) = 0.61755E-02    rms(broyden)= 0.61732E-02
  rms(prec ) = 0.10704E-01
  weight for this iteration     100.00

 eigenvalues of (default mixing * dielectric matrix)
  average eigenvalue GAMMA=   1.1477
[...]
  band No.  band energies     occupation 
      1     -41.8896      1.00000
      2     -41.8210      1.00000
      3     -41.7530      1.00000
      4       7.2453      1.00000
      5       7.3074      1.00000
      6      10.3583      0.00109
      7      11.1770      0.00000
      8      12.1222      0.00000
      9      17.6664      0.00000
     10      19.1200      0.00000
     11      21.8210      0.00000
     12      28.0011      0.00000
     13      30.2881      0.00000
     14      35.5349      0.00000

 k-point   156 :      -0.4118   -0.4706    0.2941
  band No.  band energies     occupation 
      1     -41.8742      1.00000
      2     -41.8463      1.00000
      3     -41.7542      1.00000
      4       7.2194      1.00000
      5       7.2587      1.00000
      6      10.3422      0.00145
      7      11.5613      0.00000
      8      11.9371      0.00000
      9      18.0217      0.00000
     10      19.8324      0.00000
     11      20.5004      0.00000
     12      28.7486      0.00000
     13      29.5433      0.00000
     14      35.0489      0.00000

 k-point   157 :      -0.3529    0.3529    0.3529
  band No.  band energies     occupation 
      1     -41.8390      1.00000
      2     -41.7879      1.00000
      3     -41.7879      1.00000
      4       7.0335      1.00000
      5       7.6286      1.00000
      6      10.7639      0.00000
      7      10.7639      0.00000
      8      11.5504      0.00000
      9      14.7713      0.00000
     10      23.2466      0.00000
     11      23.2466      0.00000
     12      27.0049      0.00000
     13      28.6621      0.00000
     14      38.0470      0.00000

 k-point   158 :      -0.4118    0.4118    0.3529
  band No.  band energies     occupation 
      1     -41.8612      1.00000
      2     -41.8089      1.00000
      3     -41.7956      1.00000
      4       7.0640      1.00000
      5       7.3415      1.00000
      6      10.9585      0.00000
      7      11.0640      0.00000
      8      11.8626      0.00000
      9      16.0497      0.00000
     10      21.6715      0.00000
     11      22.3095      0.00000
     12      27.1251      0.00000
     13      28.7555      0.00000
     14      35.9594      0.00000

 k-point   159 :      -0.4706    0.4706    0.3529
  band No.  band energies     occupation 
      1     -41.8800      1.00000
      2     -41.8202      1.00000
      3     -41.7928      1.00000
      4       7.0886      1.00000
      5       7.1648      1.00000
      6      10.9905      0.00000
      7      11.2153      0.00000
      8      12.1370      0.00000
      9      17.6044      0.00000
     10      19.8072      0.00000
     11      21.7887      0.00000
     12      27.2755      0.00000
     13      29.2023      0.00000
     14      34.5963      0.00000

 k-point   160 :      -0.4118    0.4706    0.3529
  band No.  band energies     occupation 
      1     -41.8675      1.00000
      2     -41.8344      1.00000
      3     -41.8012      1.00000
      4       7.0216      1.00000
      5       7.1261      1.00000
      6      11.0733      0.00000
      7      11.5084      0.00000
      8      12.0152      0.00000
      9      17.4602      0.00000
     10      20.8576      0.00000
     11      21.0382      0.00000
     12      27.3394      0.00000
     13      28.5419      0.00000
     14      34.2829      0.00000

 k-point   161 :      -0.4706   -0.4706    0.3529
  band No.  band energies     occupation 
      1     -41.8704      1.00000
      2     -41.8454      1.00000
      3     -41.8003      1.00000
      4       7.0226      1.00000
      5       7.0316      1.00000
      6      11.0860      0.00000
      7      11.6960      0.00000
      8      12.0762      0.00000
      9      18.8269      0.00000
     10      19.4956      0.00000
     11      20.7088      0.00000
     12      27.5982      0.00000
     13      28.4803      0.00000
     14      33.6061      0.00000

 k-point   162 :      -0.4118    0.4118    0.4118
  band No.  band energies     occupation 
      1     -41.8524      1.00000
      2     -41.8303      1.00000
      3     -41.8303      1.00000
      4       6.9498      1.00000
      5       7.0822      1.00000
      6      11.4895      0.00000
      7      11.4895      0.00000
      8      11.9018      0.00000
      9      17.2394      0.00000
     10      21.3101      0.00000
     11      21.3101      0.00000
     12      26.7614      0.00000
     13      28.1003      0.00000
     14      34.0316      0.00000

 k-point   163 :      -0.4706    0.4706    0.4118
  band No.  band energies     occupation 
      1     -41.8638      1.00000
      2     -41.8417      1.00000
      3     -41.8327      1.00000
      4       6.8912      1.00000
      5       6.9295      1.00000
      6      11.6430      0.00000
      7      11.7286      0.00000
      8      12.0995      0.00000
      9      18.6323      0.00000
     10      20.1721      0.00000
     11      20.7458      0.00000
     12      26.9090      0.00000
     13      27.7827      0.00000
     14      32.8738      0.00000

 k-point   164 :      -0.4706   -0.4706    0.4118
  band No.  band energies     occupation 
      1     -41.8577      1.00000
      2     -41.8577      1.00000
      3     -41.8351      1.00000
      4       6.8521      1.00000
      5       6.8521      1.00000
      6      11.7101      0.00000
      7      12.0455      0.00000
      8      12.0455      0.00000
      9      19.7605      0.00000
     10      19.7605      0.00000
     11      20.0521      0.00000
     12      27.1678      0.00000
     13      27.1678      0.00000
     14      32.3700      0.00000

 k-point   165 :      -0.4706    0.4706    0.4706
  band No.  band energies     occupation 
      1     -41.8559      1.00000
      2     -41.8532      1.00000
      3     -41.8532      1.00000
      4       6.7849      1.00000
      5       6.7954      1.00000
      6      12.0346      0.00000
      7      12.0347      0.00000
      8      12.0924      0.00000
      9      19.5567      0.00000
     10      20.1487      0.00000
     11      20.1487      0.00000
     12      26.6551      0.00000
     13      26.9555      0.00000
     14      31.9584      0.00000


--------------------------------------------------------------------------------------------------------


 soft charge-density along one line, spin component           1
         0         1         2         3         4         5         6         7         8         9
 total charge-density along one line
 
 soft charge-density along one line, spin component           2
         0         1         2         3         4         5         6         7         8         9
 total charge-density along one line
 
 pseudopotential strength for first ion, spin component:           1
-44.719   0.000   0.000   7.513  -0.000  -0.000   0.000   0.000
  0.000 -44.719   0.000  -0.000   7.513  -0.000   0.000  -0.000
  0.000   0.000 -44.719  -0.000  -0.000   7.513  -0.000   0.000
  7.513  -0.000  -0.000   5.651  -0.000  -0.000   0.000   0.000
 -0.000   7.513  -0.000  -0.000   5.651  -0.000  -0.000   0.000
 -0.000  -0.000   7.513  -0.000  -0.000   5.651   0.000  -0.000
  0.000   0.000  -0.000   0.000  -0.000   0.000  -1.842   0.000
  0.000  -0.000   0.000   0.000   0.000  -0.000   0.000  -1.842
  0.000  -0.000  -0.000  -0.000   0.000   0.000  -0.000   0.000
  0.000   0.000  -0.000  -0.000  -0.000   0.000   0.000   0.000
  0.000  -0.000   0.000  -0.000   0.000  -0.000  -0.000  -0.000
  0.000   0.000  -0.000   0.000  -0.000   0.000  -2.359   0.000
  0.000  -0.000   0.000   0.000   0.000  -0.000   0.000  -2.359
  0.000  -0.000  -0.000  -0.000   0.000   0.000  -0.000   0.000
  0.000   0.000  -0.000  -0.000  -0.000   0.000   0.000   0.000
  0.000  -0.000   0.000  -0.000   0.000  -0.000  -0.000  -0.000
  0.000   0.000  -0.000   0.000  -0.000  -0.000  -0.000  -0.000
  0.000   0.000  -0.000   0.000   0.000  -0.000  -0.000  -0.000
 pseudopotential strength for first ion, spin component:           2
-42.792   0.000   0.000   6.699  -0.000  -0.000   0.000  -0.000
  0.000 -42.792   0.000  -0.000   6.699  -0.000   0.000  -0.000
  0.000   0.000 -42.792  -0.000  -0.000   6.699  -0.000   0.000
  6.699  -0.000  -0.000   5.873  -0.000  -0.000   0.000   0.000
 -0.000   6.699  -0.000  -0.000   5.873  -0.000  -0.000   0.000
 -0.000  -0.000   6.699  -0.000  -0.000   5.873   0.000  -0.000
  0.000   0.000  -0.000   0.000  -0.000   0.000  -0.419   0.000
 -0.000  -0.000   0.000   0.000   0.000  -0.000   0.000  -0.419
  0.000  -0.000  -0.000  -0.000   0.000   0.000  -0.000   0.000
  0.000   0.000  -0.000  -0.000  -0.000   0.000   0.000   0.000
  0.000   0.000   0.000  -0.000  -0.000  -0.000  -0.000  -0.000
  0.000   0.000  -0.000   0.000   0.000   0.000  -0.960   0.000
 -0.000  -0.000   0.000   0.000   0.000   0.000   0.000  -0.960
  0.000  -0.000  -0.000  -0.000   0.000   0.000  -0.000   0.000
  0.000   0.000  -0.000   0.000  -0.000   0.000   0.000   0.000
  0.000   0.000   0.000  -0.000  -0.000  -0.000  -0.000  -0.000
  0.000   0.000  -0.000   0.000   0.000  -0.000  -0.000  -0.000
  0.000   0.000  -0.000   0.000   0.000  -0.000  -0.000  -0.000
 total augmentation occupancy for first ion, spin component:           1
  1.992   0.000  -0.000  -0.026  -0.000   0.000   0.000   0.000   0.000   0.000   0.000   0.000   0.000   0.000   0.000   0.000
  0.000   1.992  -0.000  -0.000  -0.026   0.000   0.000   0.000   0.000   0.000   0.000   0.000   0.000   0.000   0.000   0.000
 -0.000  -0.000   1.992   0.000   0.000  -0.026   0.000   0.000   0.000   0.000   0.000   0.000   0.000   0.000   0.000   0.000
 -0.026  -0.000   0.000   0.205  -0.000  -0.000   0.000   0.000   0.000   0.000   0.000   0.000   0.000   0.000   0.000   0.000
 -0.000  -0.026   0.000  -0.000   0.205  -0.000   0.000   0.000   0.000   0.000   0.000   0.000   0.000   0.000   0.000   0.000
  0.000   0.000  -0.026  -0.000  -0.000   0.205   0.000   0.000   0.000   0.000   0.000   0.000   0.000   0.000   0.000   0.000
  0.000   0.000   0.000   0.000   0.000   0.000   2.102  -0.000   0.000   0.000   0.000  -1.185   0.000  -0.000  -0.000  -0.000
  0.000   0.000   0.000   0.000   0.000   0.000  -0.000   2.102   0.000  -0.000  -0.000   0.000  -1.185  -0.000   0.000   0.000
  0.000   0.000   0.000   0.000   0.000   0.000   0.000   0.000   3.476  -0.000   0.000  -0.000  -0.000  -2.265   0.000  -0.000
  0.000   0.000   0.000   0.000   0.000   0.000   0.000  -0.000  -0.000   2.102  -0.000  -0.000   0.000   0.000  -1.185   0.000
  0.000   0.000   0.000   0.000   0.000   0.000   0.000  -0.000   0.000  -0.000   3.476  -0.000   0.000  -0.000  -0.000  -2.265
  0.000   0.000   0.000   0.000   0.000   0.000  -1.185   0.000  -0.000  -0.000  -0.000   1.649  -0.000   0.000   0.000  -0.000
  0.000   0.000   0.000   0.000   0.000   0.000   0.000  -1.185  -0.000   0.000   0.000  -0.000   1.649   0.000  -0.000  -0.000
  0.000   0.000   0.000   0.000   0.000   0.000  -0.000  -0.000  -2.265   0.000  -0.000   0.000   0.000   2.310  -0.000   0.000
  0.000   0.000   0.000   0.000   0.000   0.000  -0.000   0.000   0.000  -1.185  -0.000   0.000  -0.000  -0.000   1.649  -0.000
  0.000   0.000   0.000   0.000   0.000   0.000   0.000   0.000   0.000   0.000  -2.265  -0.000  -0.000   0.000  -0.000   2.310
  0.000   0.000   0.000   0.000   0.000   0.000   0.000  -0.000   0.000   0.000   0.000  -0.000   0.000   0.000  -0.000  -0.000
  0.000   0.000   0.000   0.000   0.000   0.000   0.000  -0.000   0.000  -0.000  -0.000   0.000  -0.000  -0.000   0.000   0.000
 total augmentation occupancy for first ion, spin component:           2
 -0.002  -0.000   0.000  -0.008  -0.000   0.000   0.000   0.000   0.000   0.000   0.000   0.000   0.000   0.000   0.000   0.000
 -0.000  -0.002   0.000  -0.000  -0.008   0.000   0.000   0.000   0.000   0.000   0.000   0.000   0.000   0.000   0.000   0.000
  0.000   0.000  -0.002   0.000   0.000  -0.008   0.000   0.000   0.000   0.000   0.000   0.000   0.000   0.000   0.000   0.000
 -0.008  -0.000   0.000  -0.018   0.000   0.000   0.000   0.000   0.000   0.000   0.000   0.000   0.000   0.000   0.000   0.000
 -0.000  -0.008   0.000   0.000  -0.018   0.000   0.000   0.000   0.000   0.000   0.000   0.000   0.000   0.000   0.000   0.000
  0.000   0.000  -0.008   0.000   0.000  -0.018   0.000   0.000   0.000   0.000   0.000   0.000   0.000   0.000   0.000   0.000
  0.000   0.000   0.000   0.000   0.000   0.000   1.674  -0.000   0.000   0.000   0.000  -0.633   0.000   0.000  -0.000  -0.000
  0.000   0.000   0.000   0.000   0.000   0.000  -0.000   1.674   0.000  -0.000   0.000   0.000  -0.633   0.000   0.000  -0.000
  0.000   0.000   0.000   0.000   0.000   0.000   0.000  -0.000   2.839   0.000   0.000   0.000   0.000  -1.165   0.000  -0.000
  0.000   0.000   0.000   0.000   0.000   0.000   0.000  -0.000  -0.000   1.674  -0.000  -0.000   0.000   0.000  -0.633  -0.000
  0.000   0.000   0.000   0.000   0.000   0.000   0.000   0.000   0.000   0.000   2.839  -0.000   0.000  -0.000  -0.000  -1.165
  0.000   0.000   0.000   0.000   0.000   0.000  -0.633   0.000  -0.000  -0.000  -0.000  -0.004   0.000   0.000   0.000   0.000
  0.000   0.000   0.000   0.000   0.000   0.000   0.000  -0.633   0.000   0.000   0.000   0.000  -0.004   0.000  -0.000   0.000
  0.000   0.000   0.000   0.000   0.000   0.000  -0.000  -0.000  -1.165   0.000  -0.000   0.000   0.000   0.232   0.000   0.000
  0.000   0.000   0.000   0.000   0.000   0.000  -0.000   0.000   0.000  -0.633   0.000   0.000  -0.000  -0.000  -0.004  -0.000
  0.000   0.000   0.000   0.000   0.000   0.000  -0.000  -0.000  -0.000  -0.000  -1.165   0.000   0.000   0.000  -0.000   0.232
  0.000   0.000   0.000   0.000   0.000   0.000  -0.000   0.000   0.000   0.000  -0.000  -0.000  -0.000  -0.000  -0.000   0.000
  0.000   0.000   0.000   0.000   0.000   0.000   0.000  -0.000  -0.000  -0.000   0.000  -0.000   0.000  -0.000  -0.000  -0.000


------------------------ aborting loop because EDIFF is reached ----------------------------------------





 total charge

# of ion       s       p       d       tot
------------------------------------------
    1        0.390   6.385   6.083  12.857



 magnetization (x)

# of ion       s       p       d       tot
------------------------------------------
    1       -0.007  -0.039   2.236   2.191
 
    CHARGE:  cpu time    0.0463: real time    0.0463
    FORLOC:  cpu time    0.0002: real time    0.0002
    FORNL :  cpu time    0.0377: real time    0.0377
    STRESS:  cpu time    0.1489: real time    0.1490
    FORCOR:  cpu time    0.0165: real time    0.0166
    FORHAR:  cpu time    0.0013: real time    0.0013
    MIXING:  cpu time    0.0009: real time    0.0009
    OFIELD:  cpu time    0.0000: real time    0.0000

  FORCE on cell =-STRESS in cart. coord.  units (eV):
  Direction    XX          YY          ZZ          XY          YZ          ZX
  --------------------------------------------------------------------------------------
  Alpha Z   110.79314   110.79314   110.79314
  Ewald    -605.24293  -605.24293  -605.24293     0.00000    -0.00000     0.00000
  Hartree   180.31650   180.31650   180.31650    -0.00000    -0.00000    -0.00000
  E(xc)     -89.90055   -89.90055   -89.90055    -0.00000    -0.00000    -0.00000
  Local     147.13809   147.13809   147.13809    -0.00004    -0.00004    -0.00004
  n-local   -28.76801   -26.91495   -26.32711     1.73518    -2.06632    -2.45174
  augment   142.69123   142.69123   142.69123     0.00003     0.00003     0.00003
  Kinetic   141.42483   141.39515   141.82405    -0.70695     1.82764     0.64140
  Fock        0.00000     0.00000     0.00000     0.00000     0.00000     0.00000
  -------------------------------------------------------------------------------------
  Total       0.00680     0.00680     0.00680    -0.00000    -0.00000     0.00000
  in kB       0.96328     0.96328     0.96328    -0.00000    -0.00000     0.00000
  external pressure =        0.96 kB  Pullay stress =        0.00 kB


 VOLUME and BASIS-vectors are now :
 -----------------------------------------------------------------------------
  energy-cutoff  :      600.00
  volume of cell :       11.31
      direct lattice vectors                 reciprocal lattice vectors
    -1.414200794  1.414200794  1.414200794    -0.000000000  0.353556583  0.353556583
     1.414200794 -1.414200794  1.414200794     0.353556583 -0.000000000  0.353556583
     1.414200794  1.414200794 -1.414200794     0.353556583  0.353556583 -0.000000000

  length of vectors
     2.449467628  2.449467628  2.449467628     0.500004514  0.500004514  0.500004514


 FORCES acting on ions
    electron-ion (+dipol)            ewald-force                    non-local-force                 convergence-correction
 -----------------------------------------------------------------------------------------------
   -.754E-13 -.553E-13 -.615E-13   0.206E-14 -.815E-14 -.642E-15   -.476E-23 0.517E-23 0.145E-23   0.550E-13 -.115E-12 -.179E-13
 -----------------------------------------------------------------------------------------------
   -.754E-13 -.553E-13 -.615E-13   0.206E-14 -.815E-14 -.642E-15   -.476E-23 0.517E-23 0.145E-23   0.550E-13 -.115E-12 -.179E-13
 
 
 POSITION                                       TOTAL-FORCE (eV/Angst)
 -----------------------------------------------------------------------------------
     -0.00000      0.00000     -0.00000         0.000000     -0.000000      0.000000
 -----------------------------------------------------------------------------------
    total drift:                               -0.000000     -0.000000     -0.000000


--------------------------------------------------------------------------------------------------------



  FREE ENERGIE OF THE ION-ELECTRON SYSTEM (eV)
  ---------------------------------------------------
  free  energy   TOTEN  =        -8.27069271 eV

  energy  without entropy=       -8.27146616  energy(sigma->0) =       -8.27088608
 
 d Force = 0.0000000E+00[ 0.000E+00, 0.000E+00]  d Energy = 0.4693325E-06-0.469E-06
 d Force = 0.0000000E+00[ 0.000E+00, 0.000E+00]  d Ewald  = 0.9762114E+00-0.976E+00


--------------------------------------------------------------------------------------------------------


    POTLOK:  cpu time    0.2832: real time    0.2833


--------------------------------------------------------------------------------------------------------




--------------------------------------------------------------------------------------------------------


  
 reached required accuracy - stopping structural energy minimisation
     LOOP+:  cpu time    5.3237: real time    5.3342
    4ORBIT:  cpu time    0.0000: real time    0.0000



 total charge

# of ion       s       p       d       tot
------------------------------------------
    1        0.390   6.385   6.083  12.857



 magnetization (x)

# of ion       s       p       d       tot
------------------------------------------
    1       -0.007  -0.039   2.236   2.191
 

 total amount of memory used by VASP MPI-rank0    55351. kBytes
=======================================================================

   base      :      30000. kBytes
   nonl-proj :       4874. kBytes
   fftplans  :       1242. kBytes
   grid      :       2720. kBytes
   one-center:         31. kBytes
   wavefun   :      16484. kBytes
 
  
  
 General timing and accounting informations for this job:
 ========================================================
  
                  Total CPU time used (sec):       31.976
                            User time (sec):       25.409
                          System time (sec):        6.567
                         Elapsed time (sec):       32.504
  
                   Maximum memory used (kb):      105012.
                   Average memory used (kb):          N/A
  
                          Minor page faults:       189824
                          Major page faults:          312
                 Voluntary context switches:         1100
