 vasp.5.2.12 11Nov11 complex                                                    
  
 executed on             LinuxIFC date 2016.04.26  06:03:45
 running on   16 nodes
 distr:  one band on    4 nodes,    4 groups


--------------------------------------------------------------------------------------------------------


 INCAR:
 POTCAR:   PAW_PBE Zn 06Sep2000                   
 POTCAR:   PAW_PBE Se 06Sep2000                   
 POTCAR:   PAW_PBE Zn 06Sep2000                   
   VRHFIN =Zn: d10 p2                                                           
   LEXCH  = PE                                                                  
   EATOM  =  1749.0928 eV,  128.5547 Ry                                         
                                                                                
   TITEL  = PAW_PBE Zn 06Sep2000                                                
   LULTRA =        F    use ultrasoft PP ?                                      
   IUNSCR =        1    unscreen: 0-lin 1-nonlin 2-no                           
   RPACOR =    2.000    partial core radius                                     
   POMASS =   65.390; ZVAL   =   12.000    mass and valenz                      
   RCORE  =    2.300    outmost cutoff radius                                   
   RWIGS  =    2.400; RWIGS  =    1.270    wigner-seitz radius (au A)           
   ENMAX  =  276.727; ENMIN  =  207.545 eV                                      
   RCLOC  =    1.828    cutoff for local pot                                    
   LCOR   =        T    correct aug charges                                     
   LPAW   =        T    paw PP                                                  
   EAUG   =  575.892                                                            
   DEXC   =    -.003                                                            
   RMAX   =    2.772    core radius for proj-oper                               
   RAUG   =    1.300    factor for augmentation sphere                          
   RDEP   =    2.324    radius for radial grids                                 
   QCUT   =   -4.510; QGAM   =    9.020    optimization parameters              
                                                                                
   Description                                                                  
     l     E      TYP  RCUT    TYP  RCUT                                        
     2   .000     23  2.300                                                     
     2   .000     23  2.300                                                     
     0   .000     23  2.300                                                     
     0   .000     23  2.300                                                     
     1  -.200     23  2.300                                                     
     1   .000     23  2.300                                                     
     3   .000      7   .000                                                     
  local pseudopotential read in
  partial core-charges read in
  atomic valenz-charges read in
  non local Contribution for L=           2  read in
    real space projection operators read in
  non local Contribution for L=           2  read in
    real space projection operators read in
  non local Contribution for L=           0  read in
    real space projection operators read in
  non local Contribution for L=           0  read in
    real space projection operators read in
  non local Contribution for L=           1  read in
    real space projection operators read in
  non local Contribution for L=           1  read in
    real space projection operators read in
    PAW grid and wavefunctions read in
 
   number of l-projection  operators is LMAX  =           6
   number of lm-projection operators is LMMAX =          18
 
 POTCAR:   PAW_PBE Se 06Sep2000                   
   VRHFIN =Se: s2p4                                                             
   LEXCH  = PE                                                                  
   EATOM  =   256.9644 eV,   18.8864 Ry                                         
                                                                                
   TITEL  = PAW_PBE Se 06Sep2000                                                
   LULTRA =        F    use ultrasoft PP ?                                      
   IUNSCR =        1    unscreen: 0-lin 1-nonlin 2-no                           
   RPACOR =    1.900    partial core radius                                     
   POMASS =   78.960; ZVAL   =    6.000    mass and valenz                      
   RCORE  =    2.100    outmost cutoff radius                                   
   RWIGS  =    2.200; RWIGS  =    1.164    wigner-seitz radius (au A)           
   ENMAX  =  211.534; ENMIN  =  158.651 eV                                      
   ICORE  =        3    local potential                                         
   LCOR   =        T    correct aug charges                                     
   LPAW   =        T    paw PP                                                  
   EAUG   =  446.842                                                            
   DEXC   =    -.031                                                            
   RMAX   =    3.170    core radius for proj-oper                               
   RAUG   =    1.300    factor for augmentation sphere                          
   RDEP   =    2.177    radius for radial grids                                 
   QCUT   =   -3.943; QGAM   =    7.886    optimization parameters              
                                                                                
   Description                                                                  
     l     E      TYP  RCUT    TYP  RCUT                                        
     0   .000     23  2.100                                                     
     0   .000     23  2.100                                                     
     1   .000     23  2.100                                                     
     1   .000     23  2.100                                                     
     2   .000     23  2.100                                                     
     3  -.100      7  2.100                                                     
  local pseudopotential read in
  partial core-charges read in
  atomic valenz-charges read in
  non local Contribution for L=           0  read in
    real space projection operators read in
  non local Contribution for L=           0  read in
    real space projection operators read in
  non local Contribution for L=           1  read in
    real space projection operators read in
  non local Contribution for L=           1  read in
    real space projection operators read in
  non local Contribution for L=           2  read in
    real space projection operators read in
    PAW grid and wavefunctions read in
 
   number of l-projection  operators is LMAX  =           5
   number of lm-projection operators is LMMAX =          13
 

 ----------------------------------------------------------------------------- 
|                                                                             |
|  ADVICE TO THIS USER RUNNING 'VASP/VAMP'   (HEAR YOUR MASTER'S VOICE ...):  |
|                                                                             |
|      You have a (more or less) 'small supercell' and for smaller cells      |
|      it is recommended  to use the reciprocal-space projection scheme!      |
|      The real space optimization is not  efficient for small cells and it   |
|      is also less accurate ...                                              |
|      Therefore set LREAL=.FALSE. in the  INCAR file                         |
|                                                                             |
 ----------------------------------------------------------------------------- 

 Optimization of the real space projectors (new method)

 maximal supplied QI-value         = 16.25
 optimisation between [QCUT,QGAM] = [ 11.54, 23.24] = [ 37.28,151.24] Ry 
 Optimized for a Real-space Cutoff    1.49 Angstroem

   l    n(q)    QCUT    max X(q) W(low)/X(q) W(high)/X(q)  e(spline) 
   2      9    11.539     5.523    0.17E-04    0.12E-04    0.43E-07
   2      9    11.539     9.671    0.18E-03    0.96E-04    0.20E-06
   0     10    11.539    11.246    0.19E-04    0.18E-05    0.16E-07
   0     10    11.539    34.692    0.51E-04    0.25E-04    0.27E-06
   1     10    11.539     4.877    0.13E-04    0.16E-04    0.26E-07
   1     10    11.539     6.599    0.48E-04    0.86E-04    0.10E-06
 Optimization of the real space projectors (new method)

 maximal supplied QI-value         = 17.95
 optimisation between [QCUT,QGAM] = [ 11.67, 23.34] = [ 38.13,152.52] Ry 
 Optimized for a Real-space Cutoff    1.25 Angstroem

   l    n(q)    QCUT    max X(q) W(low)/X(q) W(high)/X(q)  e(spline) 
   0      9    11.669     6.499    0.13E-04    0.81E-05    0.11E-07
   0      9    11.669    52.623    0.18E-03    0.46E-04    0.72E-07
   1      8    11.669     4.229    0.40E-04    0.45E-04    0.31E-07
   1      8    11.669    29.991    0.22E-03    0.36E-03    0.10E-06
   2      8    11.669     3.719    0.19E-03    0.46E-04    0.50E-07
 PAW_PBE Zn 06Sep2000                   :
 energy of atom  1       EATOM=-1749.0928
 kinetic energy error for atom=    0.0029 (will be added to EATOM!!)
 PAW_PBE Se 06Sep2000                   :
 energy of atom  2       EATOM= -256.9644
 kinetic energy error for atom=    0.0007 (will be added to EATOM!!)
 
 
 POSCAR: Zn1 Se1                                 
  positions in direct lattice
  No initial velocities read in
 exchange correlation table for  LEXCH =        8
   RHO(1)=    0.500       N(1)  =     2000
   RHO(2)=  100.500       N(2)  =     4000

 VTST: version 3.1, (03/28/14)

 CHAIN: initializing optimizer
 
 OPT: Using VASP Dynamics algorithm
 CHAIN: Read ICHAIN            0
 
 POSCAR: Zn1 Se1                                 
  positions in direct lattice
  No initial velocities read in
 


--------------------------------------------------------------------------------------------------------


 ion  position               nearest neighbor table
   1  0.000  0.000  0.000-   2 2.49   2 2.49   2 2.49   2 2.49
   2  0.250  0.250  0.250-   1 2.49   1 2.49   1 2.49   1 2.49
 

IMPORTANT INFORMATION: All symmetrisations will be switched off!
NOSYMM: (Re-)initialisation of all symmetry stuff for point group C_1.

 
 
 KPOINTS: Non SCF run on uniform grid             
  k-points in reciprocal lattice


--------------------------------------------------------------------------------------------------------




 Dimension of arrays:
   k-points           NKPTS =    165   k-points in BZ     NKDIM =    165   number of bands    NBANDS=     20
   number of dos      NEDOS =   2001   number of ions     NIONS =      2
   non local maximal  LDIM  =      6   non local SUM 2l+1 LMDIM =     18
   total plane-waves  NPLWV =  27000
   max r-space proj   IRMAX =   7939   max aug-charges    IRDMAX=  25071
   dimension x,y,z NGX =    30 NGY =   30 NGZ =   30
   dimension x,y,z NGXF=    60 NGYF=   60 NGZF=   60
   support grid    NGXF=    60 NGYF=   60 NGZF=   60
   ions per type =               1   1
 NGX,Y,Z   is equivalent  to a cutoff of  12.28, 12.28, 12.28 a.u.
 NGXF,Y,Z  is equivalent  to a cutoff of  24.57, 24.57, 24.57 a.u.


 I would recommend the setting:
   dimension x,y,z NGX =    30 NGY =   30 NGZ =   30
 SYSTEM =  unknown system                          
 POSCAR =  Zn1 Se1                                 

 Startparameter for this run:
   NWRITE =      2    write-flag & timer
   PREC   = accura    normal or accurate (medium, high low for compatibility)
   ISTART =      0    job   : 0-new  1-cont  2-samecut
   ICHARG =     11    charge: 1-file 2-atom 10-const
   ISPIN  =      1    spin polarized calculation?
   LNONCOLLINEAR =      F non collinear calculations
   LSORBIT =      F    spin-orbit coupling
   INIWAV =      1    electr: 0-lowe 1-rand  2-diag
   LASPH  =      F    aspherical Exc in radial PAW
   METAGGA=      F    non-selfconsistent MetaGGA calc.

 Electronic Relaxation 1
   ENCUT  =  520.0 eV  38.22 Ry    6.18 a.u.   7.55  7.55  7.55*2*pi/ulx,y,z
   ENINI  =  520.0     initial cutoff
   ENAUG  =  575.9 eV  augmentation charge cutoff
   NELM   =    100;   NELMIN=  2; NELMDL= -5     # of ELM steps 
   EDIFF  = 0.2E-05   stopping-criterion for ELM
   LREAL  =      T    real-space projection
   NLSPLINE    = F    spline interpolate recip. space projectors
   LCOMPAT=      F    compatible to vasp.4.4
   GGA_COMPAT  = T    GGA compatible to vasp.4.4-vasp.4.6
   LMAXPAW     = -100 max onsite density
   LMAXMIX     =    2 max onsite mixed and CHGCAR
   VOSKOWN=      0    Vosko Wilk Nusair interpolation
   ROPT   =   -0.00025  -0.00025
 Ionic relaxation
   EDIFFG = 0.2E-04   stopping-criterion for IOM
   NSW    =      0    number of steps for IOM
   NBLOCK =      1;   KBLOCK =      1    inner block; outer block 
   IBRION =     -1    ionic relax: 0-MD 1-quasi-New 2-CG
   NFREE  =      0    steps in history (QN), initial steepest desc. (CG)
   ISIF   =      3    stress and relaxation
   IWAVPR =     10    prediction:  0-non 1-charg 2-wave 3-comb
   ISYM   =      0    0-nonsym 1-usesym 2-fastsym
   LCORR  =      T    Harris-Foulkes like correction to forces

   POTIM  = 0.5000    time-step for ionic-motion
   TEIN   =    0.0    initial temperature
   TEBEG  =    0.0;   TEEND  =   0.0 temperature during run
   SMASS  =  -3.00    Nose mass-parameter (am)
   estimated Nose-frequenzy (Omega)   =  0.10E-29 period in steps =****** mass=  -0.377E-27a.u.
   SCALEE = 1.0000    scale energy and forces
   NPACO  =    256;   APACO  = 16.0  distance and # of slots for P.C.
   PSTRESS=    0.0 pullay stress

  Mass of Ions in am
   POMASS =  65.39 78.96
  Ionic Valenz
   ZVAL   =  12.00  6.00
  Atomic Wigner-Seitz radii
   RWIGS  =  -1.00 -1.00
  virtual crystal weights 
   VCA    =   1.00  1.00
   NELECT =      18.0000    total number of electrons
   NUPDOWN=      -1.0000    fix difference up-down

 DOS related values:
   EMIN   =  10.00;   EMAX   =-10.00  energy-range for DOS
   EFERMI =   0.00
   ISMEAR =     0;   SIGMA  =   0.00  broadening in eV -4-tet -1-fermi 0-gaus

 Electronic relaxation 2 (details)
   IALGO  =     38    algorithm
   LDIAG  =      T    sub-space diagonalisation (order eigenvalues)
   LSUBROT=      T    optimize rotation matrix (better conditioning)
   TURBO    =      0    0=normal 1=particle mesh
   IRESTART =      0    0=no restart 2=restart with 2 vectors
   NREBOOT  =      0    no. of reboots
   NMIN     =      0    reboot dimension
   EREF     =   0.00    reference energy to select bands
   IMIX   =      4    mixing-type and parameters
     AMIX     =   0.40;   BMIX     =  1.00
     AMIX_MAG =   1.60;   BMIX_MAG =  1.00
     AMIN     =   0.10
     WC   =   100.;   INIMIX=   1;  MIXPRE=   1

 Intra band minimization:
   WEIMIN = 0.0000     energy-eigenvalue tresh-hold
   EBREAK =  0.25E-07  absolut break condition
   DEPER  =   0.30     relativ break condition  

   TIME   =   0.40     timestep for ELM

  volume/ion in A,a.u.               =      23.67       159.73
  Fermi-wavevector in a.u.,A,eV,Ry     =   1.186033  2.241277 19.138964  1.406674
  Thomas-Fermi vector in A             =   2.322214
 
 Write flags
   LWAVE  =      F    write WAVECAR
   LCHARG =      F    write CHGCAR
   LVTOT  =      F    write LOCPOT, total local potential
   LVHAR  =      T    write LOCPOT, Hartree potential only
   LELF   =      F    write electronic localiz. function (ELF)
   LORBIT =     11    0 simple, 1 ext, 2 COOP (PROOUT)


 Dipole corrections
   LMONO  =      F    monopole corrections only (constant potential shift)
   LDIPOL =      F    correct potential (dipole corrections)
   IDIPOL =      0    1-x, 2-y, 3-z, 4-all directions 
   EPSILON=  1.0000000 bulk dielectric constant

 Exchange correlation treatment:
   GGA     =    --    GGA type
   LEXCH   =     8    internal setting for exchange type
   VOSKOWN=      0    Vosko Wilk Nusair interpolation
   LHFCALC =     F    Hartree Fock is set to
   LHFONE  =     F    Hartree Fock one center treatment
   AEXX    =    0.0000 exact exchange contribution

 Linear response parameters
   LEPSILON=     F    determine dielectric tensor
   LRPA    =     F    only Hartree local field effects (RPA)
   LNABLA  =     F    use nabla operator in PAW spheres
   LVEL    =     F    velocity operator in full k-point grid
   LINTERFAST=   F  fast interpolation
   KINTER  =     0    interpolate to denser k-point grid
   CSHIFT  =0.1000    complex shift for real part using Kramers Kronig
   OMEGAMAX=  -1.0    maximum frequency
   RTIME   =    0.100 relaxation time in fs

 Orbital magnetization related:
   ORBITALMAG=     F  switch on orbital magnetization
   LCHIMAG   =     F  perturbation theory with respect to B field
   DQ        =  0.001000  dq finite difference perturbation B field



--------------------------------------------------------------------------------------------------------


 Static calculation
 charge density and potential remain constant during run
 non-spin polarized calculation
 Variant of blocked Davidson
 Davidson routine will perform the subspace rotation
 perform sub-space diagonalisation
    after iterative eigenvector-optimisation
 no mixing
 using additional bands           11
 real space projection scheme for non local part
 use partial core corrections
 calculate Harris-corrections to forces 
   (improved forces if not selfconsistent)
 use gradient corrections 
 WARNING: stress and forces are not correct
  (second derivative of E(xc) not defined)
 use of overlap-Matrix (Vanderbilt PP)
 Gauss-broadening in eV      SIGMA  =   0.00


--------------------------------------------------------------------------------------------------------


  energy-cutoff  :      520.00
  volume of cell :       47.34
      direct lattice vectors                 reciprocal lattice vectors
     0.000000000  2.871170000  2.871170000    -0.174145035  0.174145035  0.174145035
     2.871170000  0.000000000  2.871170000     0.174145035 -0.174145035  0.174145035
     2.871170000  2.871170000  0.000000000     0.174145035  0.174145035 -0.174145035

  length of vectors
     4.060447554  4.060447554  4.060447554     0.301628048  0.301628048  0.301628048


 
 k-points in units of 2pi/SCALE and weight: Non SCF run on uniform grid             
   0.00000000  0.00000000  0.00000000       0.000
  -0.01024383  0.01024383  0.01024383       0.002
  -0.02048765  0.02048765  0.02048765       0.002
  -0.03073148  0.03073148  0.03073148       0.002
  -0.04097530  0.04097530  0.04097530       0.002
  -0.05121913  0.05121913  0.05121913       0.002
  -0.06146295  0.06146295  0.06146295       0.002
  -0.07170678  0.07170678  0.07170678       0.002
  -0.08195060  0.08195060  0.08195060       0.002
   0.00000000  0.00000000  0.02048765       0.001
  -0.01024383  0.01024383  0.03073148       0.005
  -0.02048765  0.02048765  0.04097530       0.005
  -0.03073148  0.03073148  0.05121913       0.005
  -0.04097530  0.04097530  0.06146295       0.005
  -0.05121913  0.05121913  0.07170678       0.005
  -0.06146295  0.06146295  0.08195060       0.005
  -0.07170678  0.07170678  0.09219443       0.005
   0.09219443 -0.09219443 -0.07170678       0.005
   0.08195060 -0.08195060 -0.06146295       0.005
   0.07170678 -0.07170678 -0.05121913       0.005
   0.06146295 -0.06146295 -0.04097530       0.005
   0.05121913 -0.05121913 -0.03073148       0.005
   0.04097530 -0.04097530 -0.02048765       0.005
   0.03073148 -0.03073148 -0.01024383       0.005
   0.02048765 -0.02048765  0.00000000       0.002
   0.00000000  0.00000000  0.04097530       0.001
  -0.01024383  0.01024383  0.05121913       0.005
  -0.02048765  0.02048765  0.06146295       0.005
  -0.03073148  0.03073148  0.07170678       0.005
  -0.04097530  0.04097530  0.08195060       0.005
  -0.05121913  0.05121913  0.09219443       0.005
  -0.06146295  0.06146295  0.10243826       0.005
   0.10243826 -0.10243826 -0.06146295       0.005
   0.09219443 -0.09219443 -0.05121913       0.005
   0.08195060 -0.08195060 -0.04097530       0.005
   0.07170678 -0.07170678 -0.03073148       0.005
   0.06146295 -0.06146295 -0.02048765       0.005
   0.05121913 -0.05121913 -0.01024383       0.005
   0.04097530 -0.04097530  0.00000000       0.002
   0.00000000  0.00000000  0.06146295       0.001
  -0.01024383  0.01024383  0.07170678       0.005
  -0.02048765  0.02048765  0.08195060       0.005
  -0.03073148  0.03073148  0.09219443       0.005
  -0.04097530  0.04097530  0.10243826       0.005
  -0.05121913  0.05121913  0.11268208       0.005
   0.11268208 -0.11268208 -0.05121913       0.005
   0.10243826 -0.10243826 -0.04097530       0.005
   0.09219443 -0.09219443 -0.03073148       0.005
   0.08195060 -0.08195060 -0.02048765       0.005
   0.07170678 -0.07170678 -0.01024383       0.005
   0.06146295 -0.06146295  0.00000000       0.002
   0.00000000  0.00000000  0.08195060       0.001
  -0.01024383  0.01024383  0.09219443       0.005
  -0.02048765  0.02048765  0.10243826       0.005
  -0.03073148  0.03073148  0.11268208       0.005
  -0.04097530  0.04097530  0.12292591       0.005
   0.12292591 -0.12292591 -0.04097530       0.005
   0.11268208 -0.11268208 -0.03073148       0.005
   0.10243826 -0.10243826 -0.02048765       0.005
   0.09219443 -0.09219443 -0.01024383       0.005
   0.08195060 -0.08195060  0.00000000       0.002
   0.00000000  0.00000000  0.10243826       0.001
  -0.01024383  0.01024383  0.11268208       0.005
  -0.02048765  0.02048765  0.12292591       0.005
  -0.03073148  0.03073148  0.13316973       0.005
   0.13316973 -0.13316973 -0.03073148       0.005
   0.12292591 -0.12292591 -0.02048765       0.005
   0.11268208 -0.11268208 -0.01024383       0.005
   0.10243826 -0.10243826  0.00000000       0.002
   0.00000000  0.00000000  0.12292591       0.001
  -0.01024383  0.01024383  0.13316973       0.005
  -0.02048765  0.02048765  0.14341356       0.005
   0.14341356 -0.14341356 -0.02048765       0.005
   0.13316973 -0.13316973 -0.01024383       0.005
   0.12292591 -0.12292591  0.00000000       0.002
   0.00000000  0.00000000  0.14341356       0.001
  -0.01024383  0.01024383  0.15365738       0.005
   0.15365738 -0.15365738 -0.01024383       0.005
   0.14341356 -0.14341356  0.00000000       0.002
   0.00000000  0.00000000  0.16390121       0.001
   0.16390121 -0.16390121  0.00000000       0.002
   0.00000000  0.02048765  0.04097530       0.005
  -0.01024383  0.03073148  0.05121913       0.010
  -0.02048765  0.04097530  0.06146295       0.010
  -0.03073148  0.05121913  0.07170678       0.010
  -0.04097530  0.06146295  0.08195060       0.010
  -0.05121913  0.07170678  0.09219443       0.010
   0.11268208 -0.09219443 -0.07170678       0.010
  -0.00000000  0.02048765  0.06146295       0.005
  -0.01024383  0.03073148  0.07170678       0.010
  -0.02048765  0.04097530  0.08195060       0.010
  -0.03073148  0.05121913  0.09219443       0.010
  -0.04097530  0.06146295  0.10243826       0.010
   0.12292591 -0.10243826 -0.06146295       0.010
   0.11268208 -0.09219443 -0.05121913       0.010
   0.10243826 -0.08195060 -0.04097530       0.010
   0.09219443 -0.07170678 -0.03073148       0.010
   0.08195060 -0.06146295 -0.02048765       0.010
   0.07170678 -0.05121913 -0.01024383       0.010
   0.06146295 -0.04097530 -0.00000000       0.005
  -0.00000000  0.02048765  0.08195060       0.005
  -0.01024383  0.03073148  0.09219443       0.010
  -0.02048765  0.04097530  0.10243826       0.010
  -0.03073148  0.05121913  0.11268208       0.010
   0.13316973 -0.11268208 -0.05121913       0.010
   0.12292591 -0.10243826 -0.04097530       0.010
   0.11268208 -0.09219443 -0.03073148       0.010
   0.10243826 -0.08195060 -0.02048765       0.010
   0.09219443 -0.07170678 -0.01024383       0.010
   0.08195060 -0.06146295  0.00000000       0.005
  -0.00000000  0.02048765  0.10243826       0.005
  -0.01024383  0.03073148  0.11268208       0.010
  -0.02048765  0.04097530  0.12292591       0.010
   0.14341356 -0.12292591 -0.04097530       0.010
   0.13316973 -0.11268208 -0.03073148       0.010
   0.12292591 -0.10243826 -0.02048765       0.010
   0.11268208 -0.09219443 -0.01024383       0.010
   0.10243826 -0.08195060  0.00000000       0.005
   0.00000000  0.02048765  0.12292591       0.005
  -0.01024383  0.03073148  0.13316973       0.010
   0.15365738 -0.13316973 -0.03073148       0.010
   0.14341356 -0.12292591 -0.02048765       0.010
   0.13316973 -0.11268208 -0.01024383       0.010
   0.12292591 -0.10243826  0.00000000       0.005
  -0.00000000  0.02048765  0.14341356       0.005
   0.16390121 -0.14341356 -0.02048765       0.010
   0.15365738 -0.13316973 -0.01024383       0.010
   0.14341356 -0.12292591 -0.00000000       0.005
   0.17414503 -0.15365738 -0.01024383       0.005
   0.16390121 -0.14341356  0.00000000       0.005
   0.00000000  0.04097530  0.08195060       0.005
  -0.01024383  0.05121913  0.09219443       0.010
  -0.02048765  0.06146295  0.10243826       0.010
   0.14341356 -0.10243826 -0.06146295       0.010
   0.13316973 -0.09219443 -0.05121913       0.010
   0.00000000  0.04097530  0.10243826       0.005
  -0.01024383  0.05121913  0.11268208       0.010
   0.15365738 -0.11268208 -0.05121913       0.010
   0.14341356 -0.10243826 -0.04097530       0.010
   0.13316973 -0.09219443 -0.03073148       0.010
   0.12292591 -0.08195060 -0.02048765       0.010
   0.11268208 -0.07170678 -0.01024383       0.010
   0.10243826 -0.06146295  0.00000000       0.005
   0.00000000  0.04097530  0.12292591       0.005
   0.16390121 -0.12292591 -0.04097530       0.010
   0.15365738 -0.11268208 -0.03073148       0.010
   0.14341356 -0.10243826 -0.02048765       0.010
   0.13316973 -0.09219443 -0.01024383       0.010
   0.12292591 -0.08195060 -0.00000000       0.005
   0.17414503 -0.13316973 -0.03073148       0.005
   0.16390121 -0.12292591 -0.02048765       0.010
   0.15365738 -0.11268208 -0.01024383       0.010
   0.14341356 -0.10243826 -0.00000000       0.005
   0.17414503 -0.13316973 -0.01024383       0.005
   0.16390121 -0.12292591 -0.00000000       0.005
   0.17414503 -0.11268208 -0.05121913       0.005
   0.16390121 -0.10243826 -0.04097530       0.010
   0.15365738 -0.09219443 -0.03073148       0.010
   0.17414503 -0.11268208 -0.03073148       0.005
   0.16390121 -0.10243826 -0.02048765       0.010
   0.15365738 -0.09219443 -0.01024383       0.010
   0.14341356 -0.08195060 -0.00000000       0.005
   0.17414503 -0.11268208 -0.01024383       0.005
   0.16390121 -0.10243826  0.00000000       0.005
   0.17414503 -0.09219443 -0.01024383       0.005
 
 k-points in reciprocal lattice and weights: Non SCF run on uniform grid             
   0.00000000  0.00000000  0.00000000       0.000
   0.05882353  0.00000000  0.00000000       0.002
   0.11764706  0.00000000  0.00000000       0.002
   0.17647059  0.00000000  0.00000000       0.002
   0.23529412  0.00000000  0.00000000       0.002
   0.29411765  0.00000000  0.00000000       0.002
   0.35294118  0.00000000  0.00000000       0.002
   0.41176471  0.00000000  0.00000000       0.002
   0.47058824  0.00000000  0.00000000       0.002
   0.05882353  0.05882353  0.00000000       0.001
   0.11764706  0.05882353  0.00000000       0.005
   0.17647059  0.05882353  0.00000000       0.005
   0.23529412  0.05882353  0.00000000       0.005
   0.29411765  0.05882353  0.00000000       0.005
   0.35294118  0.05882353  0.00000000       0.005
   0.41176471  0.05882353  0.00000000       0.005
   0.47058824  0.05882353  0.00000000       0.005
  -0.47058824  0.05882353  0.00000000       0.005
  -0.41176471  0.05882353  0.00000000       0.005
  -0.35294118  0.05882353  0.00000000       0.005
  -0.29411765  0.05882353  0.00000000       0.005
  -0.23529412  0.05882353  0.00000000       0.005
  -0.17647059  0.05882353  0.00000000       0.005
  -0.11764706  0.05882353  0.00000000       0.005
  -0.05882353  0.05882353  0.00000000       0.002
   0.11764706  0.11764706  0.00000000       0.001
   0.17647059  0.11764706  0.00000000       0.005
   0.23529412  0.11764706  0.00000000       0.005
   0.29411765  0.11764706  0.00000000       0.005
   0.35294118  0.11764706  0.00000000       0.005
   0.41176471  0.11764706  0.00000000       0.005
   0.47058824  0.11764706  0.00000000       0.005
  -0.47058824  0.11764706  0.00000000       0.005
  -0.41176471  0.11764706  0.00000000       0.005
  -0.35294118  0.11764706  0.00000000       0.005
  -0.29411765  0.11764706  0.00000000       0.005
  -0.23529412  0.11764706  0.00000000       0.005
  -0.17647059  0.11764706  0.00000000       0.005
  -0.11764706  0.11764706  0.00000000       0.002
   0.17647059  0.17647059  0.00000000       0.001
   0.23529412  0.17647059  0.00000000       0.005
   0.29411765  0.17647059  0.00000000       0.005
   0.35294118  0.17647059  0.00000000       0.005
   0.41176471  0.17647059  0.00000000       0.005
   0.47058824  0.17647059  0.00000000       0.005
  -0.47058824  0.17647059  0.00000000       0.005
  -0.41176471  0.17647059  0.00000000       0.005
  -0.35294118  0.17647059  0.00000000       0.005
  -0.29411765  0.17647059  0.00000000       0.005
  -0.23529412  0.17647059  0.00000000       0.005
  -0.17647059  0.17647059  0.00000000       0.002
   0.23529412  0.23529412  0.00000000       0.001
   0.29411765  0.23529412  0.00000000       0.005
   0.35294118  0.23529412  0.00000000       0.005
   0.41176471  0.23529412  0.00000000       0.005
   0.47058824  0.23529412  0.00000000       0.005
  -0.47058824  0.23529412  0.00000000       0.005
  -0.41176471  0.23529412  0.00000000       0.005
  -0.35294118  0.23529412  0.00000000       0.005
  -0.29411765  0.23529412  0.00000000       0.005
  -0.23529412  0.23529412  0.00000000       0.002
   0.29411765  0.29411765  0.00000000       0.001
   0.35294118  0.29411765  0.00000000       0.005
   0.41176471  0.29411765  0.00000000       0.005
   0.47058824  0.29411765  0.00000000       0.005
  -0.47058824  0.29411765  0.00000000       0.005
  -0.41176471  0.29411765  0.00000000       0.005
  -0.35294118  0.29411765  0.00000000       0.005
  -0.29411765  0.29411765  0.00000000       0.002
   0.35294118  0.35294118  0.00000000       0.001
   0.41176471  0.35294118  0.00000000       0.005
   0.47058824  0.35294118  0.00000000       0.005
  -0.47058824  0.35294118  0.00000000       0.005
  -0.41176471  0.35294118  0.00000000       0.005
  -0.35294118  0.35294118  0.00000000       0.002
   0.41176471  0.41176471  0.00000000       0.001
   0.47058824  0.41176471  0.00000000       0.005
  -0.47058824  0.41176471  0.00000000       0.005
  -0.41176471  0.41176471  0.00000000       0.002
   0.47058824  0.47058824  0.00000000       0.001
  -0.47058824  0.47058824  0.00000000       0.002
   0.17647059  0.11764706  0.05882353       0.005
   0.23529412  0.11764706  0.05882353       0.010
   0.29411765  0.11764706  0.05882353       0.010
   0.35294118  0.11764706  0.05882353       0.010
   0.41176471  0.11764706  0.05882353       0.010
   0.47058824  0.11764706  0.05882353       0.010
  -0.47058824  0.11764706  0.05882353       0.010
   0.23529412  0.17647059  0.05882353       0.005
   0.29411765  0.17647059  0.05882353       0.010
   0.35294118  0.17647059  0.05882353       0.010
   0.41176471  0.17647059  0.05882353       0.010
   0.47058824  0.17647059  0.05882353       0.010
  -0.47058824  0.17647059  0.05882353       0.010
  -0.41176471  0.17647059  0.05882353       0.010
  -0.35294118  0.17647059  0.05882353       0.010
  -0.29411765  0.17647059  0.05882353       0.010
  -0.23529412  0.17647059  0.05882353       0.010
  -0.17647059  0.17647059  0.05882353       0.010
  -0.11764706  0.17647059  0.05882353       0.005
   0.29411765  0.23529412  0.05882353       0.005
   0.35294118  0.23529412  0.05882353       0.010
   0.41176471  0.23529412  0.05882353       0.010
   0.47058824  0.23529412  0.05882353       0.010
  -0.47058824  0.23529412  0.05882353       0.010
  -0.41176471  0.23529412  0.05882353       0.010
  -0.35294118  0.23529412  0.05882353       0.010
  -0.29411765  0.23529412  0.05882353       0.010
  -0.23529412  0.23529412  0.05882353       0.010
  -0.17647059  0.23529412  0.05882353       0.005
   0.35294118  0.29411765  0.05882353       0.005
   0.41176471  0.29411765  0.05882353       0.010
   0.47058824  0.29411765  0.05882353       0.010
  -0.47058824  0.29411765  0.05882353       0.010
  -0.41176471  0.29411765  0.05882353       0.010
  -0.35294118  0.29411765  0.05882353       0.010
  -0.29411765  0.29411765  0.05882353       0.010
  -0.23529412  0.29411765  0.05882353       0.005
   0.41176471  0.35294118  0.05882353       0.005
   0.47058824  0.35294118  0.05882353       0.010
  -0.47058824  0.35294118  0.05882353       0.010
  -0.41176471  0.35294118  0.05882353       0.010
  -0.35294118  0.35294118  0.05882353       0.010
  -0.29411765  0.35294118  0.05882353       0.005
   0.47058824  0.41176471  0.05882353       0.005
  -0.47058824  0.41176471  0.05882353       0.010
  -0.41176471  0.41176471  0.05882353       0.010
  -0.35294118  0.41176471  0.05882353       0.005
  -0.47058824  0.47058824  0.05882353       0.005
  -0.41176471  0.47058824  0.05882353       0.005
   0.35294118  0.23529412  0.11764706       0.005
   0.41176471  0.23529412  0.11764706       0.010
   0.47058824  0.23529412  0.11764706       0.010
  -0.47058824  0.23529412  0.11764706       0.010
  -0.41176471  0.23529412  0.11764706       0.010
   0.41176471  0.29411765  0.11764706       0.005
   0.47058824  0.29411765  0.11764706       0.010
  -0.47058824  0.29411765  0.11764706       0.010
  -0.41176471  0.29411765  0.11764706       0.010
  -0.35294118  0.29411765  0.11764706       0.010
  -0.29411765  0.29411765  0.11764706       0.010
  -0.23529412  0.29411765  0.11764706       0.010
  -0.17647059  0.29411765  0.11764706       0.005
   0.47058824  0.35294118  0.11764706       0.005
  -0.47058824  0.35294118  0.11764706       0.010
  -0.41176471  0.35294118  0.11764706       0.010
  -0.35294118  0.35294118  0.11764706       0.010
  -0.29411765  0.35294118  0.11764706       0.010
  -0.23529412  0.35294118  0.11764706       0.005
  -0.47058824  0.41176471  0.11764706       0.005
  -0.41176471  0.41176471  0.11764706       0.010
  -0.35294118  0.41176471  0.11764706       0.010
  -0.29411765  0.41176471  0.11764706       0.005
  -0.41176471  0.47058824  0.11764706       0.005
  -0.35294118  0.47058824  0.11764706       0.005
  -0.47058824  0.35294118  0.17647059       0.005
  -0.41176471  0.35294118  0.17647059       0.010
  -0.35294118  0.35294118  0.17647059       0.010
  -0.41176471  0.41176471  0.17647059       0.005
  -0.35294118  0.41176471  0.17647059       0.010
  -0.29411765  0.41176471  0.17647059       0.010
  -0.23529412  0.41176471  0.17647059       0.005
  -0.35294118  0.47058824  0.17647059       0.005
  -0.29411765  0.47058824  0.17647059       0.005
  -0.29411765  0.47058824  0.23529412       0.005
 
 position of ions in fractional coordinates (direct lattice) 
   0.00000000  0.00000000  0.00000000
   0.25000000  0.25000000  0.25000000
 
 position of ions in cartesian coordinates  (Angst):
   0.00000000  0.00000000  0.00000000
   1.43558500  1.43558500  1.43558500
 


--------------------------------------------------------------------------------------------------------


 k-point  1 :  0.00000.00000.0000  plane waves:    1243
 k-point  2 :  0.05880.00000.0000  plane waves:    1261
 k-point  3 :  0.11760.00000.0000  plane waves:    1279
 k-point  4 :  0.17650.00000.0000  plane waves:    1290
 k-point  5 :  0.23530.00000.0000  plane waves:    1284
 k-point  6 :  0.29410.00000.0000  plane waves:    1281
 k-point  7 :  0.35290.00000.0000  plane waves:    1272
 k-point  8 :  0.41180.00000.0000  plane waves:    1269
 k-point  9 :  0.47060.00000.0000  plane waves:    1272
 k-point 10 :  0.05880.05880.0000  plane waves:    1263
 k-point 11 :  0.11760.05880.0000  plane waves:    1279
 k-point 12 :  0.17650.05880.0000  plane waves:    1285
 k-point 13 :  0.23530.05880.0000  plane waves:    1285
 k-point 14 :  0.29410.05880.0000  plane waves:    1283
 k-point 15 :  0.35290.05880.0000  plane waves:    1279
 k-point 16 :  0.41180.05880.0000  plane waves:    1272
 k-point 17 :  0.47060.05880.0000  plane waves:    1268
 k-point 18 :  -.47060.05880.0000  plane waves:    1273
 k-point 19 :  -.41180.05880.0000  plane waves:    1278
 k-point 20 :  -.35290.05880.0000  plane waves:    1277
 k-point 21 :  -.29410.05880.0000  plane waves:    1284
 k-point 22 :  -.23530.05880.0000  plane waves:    1290
 k-point 23 :  -.17650.05880.0000  plane waves:    1293
 k-point 24 :  -.11760.05880.0000  plane waves:    1287
 k-point 25 :  -.05880.05880.0000  plane waves:    1277
 k-point 26 :  0.11760.11760.0000  plane waves:    1287
 k-point 27 :  0.17650.11760.0000  plane waves:    1296
 k-point 28 :  0.23530.11760.0000  plane waves:    1288
 k-point 29 :  0.29410.11760.0000  plane waves:    1284
 k-point 30 :  0.35290.11760.0000  plane waves:    1288
 k-point 31 :  0.41180.11760.0000  plane waves:    1276
 k-point 32 :  0.47060.11760.0000  plane waves:    1273
 k-point 33 :  -.47060.11760.0000  plane waves:    1269
 k-point 34 :  -.41180.11760.0000  plane waves:    1267
 k-point 35 :  -.35290.11760.0000  plane waves:    1279
 k-point 36 :  -.29410.11760.0000  plane waves:    1282
 k-point 37 :  -.23530.11760.0000  plane waves:    1286
 k-point 38 :  -.17650.11760.0000  plane waves:    1285
 k-point 39 :  -.11760.11760.0000  plane waves:    1287
 k-point 40 :  0.17650.17650.0000  plane waves:    1303
 k-point 41 :  0.23530.17650.0000  plane waves:    1289
 k-point 42 :  0.29410.17650.0000  plane waves:    1290
 k-point 43 :  0.35290.17650.0000  plane waves:    1278
 k-point 44 :  0.41180.17650.0000  plane waves:    1274
 k-point 45 :  0.47060.17650.0000  plane waves:    1268
 k-point 46 :  -.47060.17650.0000  plane waves:    1269
 k-point 47 :  -.41180.17650.0000  plane waves:    1273
 k-point 48 :  -.35290.17650.0000  plane waves:    1269
 k-point 49 :  -.29410.17650.0000  plane waves:    1281
 k-point 50 :  -.23530.17650.0000  plane waves:    1279
 k-point 51 :  -.17650.17650.0000  plane waves:    1281
 k-point 52 :  0.23530.23530.0000  plane waves:    1299
 k-point 53 :  0.29410.23530.0000  plane waves:    1286
 k-point 54 :  0.35290.23530.0000  plane waves:    1279
 k-point 55 :  0.41180.23530.0000  plane waves:    1278
 k-point 56 :  0.47060.23530.0000  plane waves:    1269
 k-point 57 :  -.47060.23530.0000  plane waves:    1267
 k-point 58 :  -.41180.23530.0000  plane waves:    1274
 k-point 59 :  -.35290.23530.0000  plane waves:    1270
 k-point 60 :  -.29410.23530.0000  plane waves:    1280
 k-point 61 :  -.23530.23530.0000  plane waves:    1284
 k-point 62 :  0.29410.29410.0000  plane waves:    1283
 k-point 63 :  0.35290.29410.0000  plane waves:    1277
 k-point 64 :  0.41180.29410.0000  plane waves:    1272
 k-point 65 :  0.47060.29410.0000  plane waves:    1270
 k-point 66 :  -.47060.29410.0000  plane waves:    1267
 k-point 67 :  -.41180.29410.0000  plane waves:    1270
 k-point 68 :  -.35290.29410.0000  plane waves:    1275
 k-point 69 :  -.29410.29410.0000  plane waves:    1280
 k-point 70 :  0.35290.35290.0000  plane waves:    1274
 k-point 71 :  0.41180.35290.0000  plane waves:    1271
 k-point 72 :  0.47060.35290.0000  plane waves:    1273
 k-point 73 :  -.47060.35290.0000  plane waves:    1274
 k-point 74 :  -.41180.35290.0000  plane waves:    1268
 k-point 75 :  -.35290.35290.0000  plane waves:    1278
 k-point 76 :  0.41180.41180.0000  plane waves:    1270
 k-point 77 :  0.47060.41180.0000  plane waves:    1272
 k-point 78 :  -.47060.41180.0000  plane waves:    1273
 k-point 79 :  -.41180.41180.0000  plane waves:    1260
 k-point 80 :  0.47060.47060.0000  plane waves:    1278
 k-point 81 :  -.47060.47060.0000  plane waves:    1274
 k-point 82 :  0.17650.11760.0588  plane waves:    1284
 k-point 83 :  0.23530.11760.0588  plane waves:    1283
 k-point 84 :  0.29410.11760.0588  plane waves:    1284
 k-point 85 :  0.35290.11760.0588  plane waves:    1283
 k-point 86 :  0.41180.11760.0588  plane waves:    1275
 k-point 87 :  0.47060.11760.0588  plane waves:    1278
 k-point 88 :  -.47060.11760.0588  plane waves:    1268
 k-point 89 :  0.23530.17650.0588  plane waves:    1292
 k-point 90 :  0.29410.17650.0588  plane waves:    1288
 k-point 91 :  0.35290.17650.0588  plane waves:    1282
 k-point 92 :  0.41180.17650.0588  plane waves:    1278
 k-point 93 :  0.47060.17650.0588  plane waves:    1271
 k-point 94 :  -.47060.17650.0588  plane waves:    1267
 k-point 95 :  -.41180.17650.0588  plane waves:    1269
 k-point 96 :  -.35290.17650.0588  plane waves:    1271
 k-point 97 :  -.29410.17650.0588  plane waves:    1277
 k-point 98 :  -.23530.17650.0588  plane waves:    1282
 k-point 99 :  -.17650.17650.0588  plane waves:    1285
 k-point ** :  -.11760.17650.0588  plane waves:    1280
 k-point ** :  0.29410.23530.0588  plane waves:    1287
 k-point ** :  0.35290.23530.0588  plane waves:    1281
 k-point ** :  0.41180.23530.0588  plane waves:    1274
 k-point ** :  0.47060.23530.0588  plane waves:    1275
 k-point ** :  -.47060.23530.0588  plane waves:    1265
 k-point ** :  -.41180.23530.0588  plane waves:    1269
 k-point ** :  -.35290.23530.0588  plane waves:    1272
 k-point ** :  -.29410.23530.0588  plane waves:    1271
 k-point ** :  -.23530.23530.0588  plane waves:    1286
 k-point ** :  -.17650.23530.0588  plane waves:    1288
 k-point ** :  0.35290.29410.0588  plane waves:    1284
 k-point ** :  0.41180.29410.0588  plane waves:    1277
 k-point ** :  0.47060.29410.0588  plane waves:    1275
 k-point ** :  -.47060.29410.0588  plane waves:    1270
 k-point ** :  -.41180.29410.0588  plane waves:    1270
 k-point ** :  -.35290.29410.0588  plane waves:    1271
 k-point ** :  -.29410.29410.0588  plane waves:    1272
 k-point ** :  -.23530.29410.0588  plane waves:    1279
 k-point ** :  0.41180.35290.0588  plane waves:    1272
 k-point ** :  0.47060.35290.0588  plane waves:    1271
 k-point ** :  -.47060.35290.0588  plane waves:    1274
 k-point ** :  -.41180.35290.0588  plane waves:    1267
 k-point ** :  -.35290.35290.0588  plane waves:    1276
 k-point ** :  -.29410.35290.0588  plane waves:    1270
 k-point ** :  0.47060.41180.0588  plane waves:    1276
 k-point ** :  -.47060.41180.0588  plane waves:    1275
 k-point ** :  -.41180.41180.0588  plane waves:    1271
 k-point ** :  -.35290.41180.0588  plane waves:    1270
 k-point ** :  -.47060.47060.0588  plane waves:    1274
 k-point ** :  -.41180.47060.0588  plane waves:    1278
 k-point ** :  0.35290.23530.1176  plane waves:    1285
 k-point ** :  0.41180.23530.1176  plane waves:    1281
 k-point ** :  0.47060.23530.1176  plane waves:    1274
 k-point ** :  -.47060.23530.1176  plane waves:    1270
 k-point ** :  -.41180.23530.1176  plane waves:    1273
 k-point ** :  0.41180.29410.1176  plane waves:    1276
 k-point ** :  0.47060.29410.1176  plane waves:    1278
 k-point ** :  -.47060.29410.1176  plane waves:    1267
 k-point ** :  -.41180.29410.1176  plane waves:    1270
 k-point ** :  -.35290.29410.1176  plane waves:    1267
 k-point ** :  -.29410.29410.1176  plane waves:    1273
 k-point ** :  -.23530.29410.1176  plane waves:    1266
 k-point ** :  -.17650.29410.1176  plane waves:    1276
 k-point ** :  0.47060.35290.1176  plane waves:    1273
 k-point ** :  -.47060.35290.1176  plane waves:    1270
 k-point ** :  -.41180.35290.1176  plane waves:    1269
 k-point ** :  -.35290.35290.1176  plane waves:    1269
 k-point ** :  -.29410.35290.1176  plane waves:    1271
 k-point ** :  -.23530.35290.1176  plane waves:    1266
 k-point ** :  -.47060.41180.1176  plane waves:    1272
 k-point ** :  -.41180.41180.1176  plane waves:    1271
 k-point ** :  -.35290.41180.1176  plane waves:    1267
 k-point ** :  -.29410.41180.1176  plane waves:    1265
 k-point ** :  -.41180.47060.1176  plane waves:    1274
 k-point ** :  -.35290.47060.1176  plane waves:    1272
 k-point ** :  -.47060.35290.1765  plane waves:    1271
 k-point ** :  -.41180.35290.1765  plane waves:    1270
 k-point ** :  -.35290.35290.1765  plane waves:    1265
 k-point ** :  -.41180.41180.1765  plane waves:    1273
 k-point ** :  -.35290.41180.1765  plane waves:    1268
 k-point ** :  -.29410.41180.1765  plane waves:    1257
 k-point ** :  -.23530.41180.1765  plane waves:    1263
 k-point ** :  -.35290.47060.1765  plane waves:    1266
 k-point ** :  -.29410.47060.1765  plane waves:    1263
 k-point ** :  -.29410.47060.2353  plane waves:    1248

 maximum and minimum number of plane-waves per node :       330      307

 maximum number of plane-waves:      1303
 maximum index in each direction: 
   IXMAX=    8   IYMAX=    7   IZMAX=    7
   IXMIN=   -8   IYMIN=   -8   IZMIN=   -7

 WARNING: aliasing errors must be expected set NGX to  34 to avoid them
 WARNING: aliasing errors must be expected set NGY to  32 to avoid them
 NGZ is ok and might be reduce to  30
 aliasing errors are usually negligible using standard VASP settings
 and one can safely disregard these warnings

 real space projection operators:
  total allocation   :       1541.64 KBytes
  max/ min on nodes  :        423.79        345.84


 parallel 3D FFT for wavefunctions:
    minimum data exchange during FFTs selected (reduces bandwidth)
 parallel 3D FFT for charge:
    minimum data exchange during FFTs selected (reduces bandwidth)


 total amount of memory used by VASP on root node    37216. kBytes
========================================================================

   base      :      30000. kBytes
   nonlr-proj:        791. kBytes
   fftplans  :        700. kBytes
   grid      :       1117. kBytes
   one-center:         15. kBytes
   wavefun   :       4593. kBytes
 
 initial charge density was supplied:
 number of electron      18.0000015 magnetization 
 keeping initial charge density in first step


--------------------------------------------------------------------------------------------------------


 Maximum index for non-local projection operator         2139
 Maximum index for augmentation-charges         1528 (set IRDMAX)


--------------------------------------------------------------------------------------------------------


 First call to EWALD:  gamma=   0.490
 Maximum number of real-space cells 3x 3x 3
 Maximum number of reciprocal cells 3x 3x 3

    FEWALD:  cpu time    0.00: real time    0.00


----------------------------------------- Iteration    1(   1)  ---------------------------------------


    POTLOK:  cpu time    0.02: real time    0.02
    SETDIJ:  cpu time    0.01: real time    0.01
     EDDAV:  cpu time    3.25: real time    3.40
       DOS:  cpu time    0.00: real time    0.00
    --------------------------------------------
      LOOP:  cpu time    3.28: real time    3.45

 eigenvalue-minimisations  :  6624
 total energy-change (2. order) : 0.1034676E+03  (-0.8390706E+03)
 number of electron      18.0000015 magnetization 
 augmentation part       18.0000015 magnetization 

 Free energy of the ion-electron system (eV)
  ---------------------------------------------------
  alpha Z        PSCENC =        72.22953821
  Ewald energy   TEWEN  =     -1179.54151382
  -1/2 Hartree   DENC   =      -719.56209173
  -exchange  EXHF       =         0.00000000
  -V(xc)+E(xc)   XCENC  =        56.33253961
  PAW double counting   =      1455.13189237    -1619.28077267
  entropy T*S    EENTRO =        -0.00000278
  eigenvalues    EBANDS =        32.10443954
  atomic energy  EATOM  =      2006.05355231
  ---------------------------------------------------
  free energy    TOTEN  =       103.46758103 eV

  energy without entropy =      103.46758381  energy(sigma->0) =      103.46758242


--------------------------------------------------------------------------------------------------------




----------------------------------------- Iteration    1(   2)  ---------------------------------------


     EDDAV:  cpu time    3.16: real time    3.19
       DOS:  cpu time    0.00: real time    0.00
    --------------------------------------------
      LOOP:  cpu time    3.16: real time    3.20

 eigenvalue-minimisations  :  6764
 total energy-change (2. order) :-0.1011991E+03  (-0.9295755E+02)
 number of electron      18.0000015 magnetization 
 augmentation part       18.0000015 magnetization 

 Free energy of the ion-electron system (eV)
  ---------------------------------------------------
  alpha Z        PSCENC =        72.22953821
  Ewald energy   TEWEN  =     -1179.54151382
  -1/2 Hartree   DENC   =      -719.56209173
  -exchange  EXHF       =         0.00000000
  -V(xc)+E(xc)   XCENC  =        56.33253961
  PAW double counting   =      1455.13189237    -1619.28077267
  entropy T*S    EENTRO =        -0.00000000
  eigenvalues    EBANDS =       -69.09462584
  atomic energy  EATOM  =      2006.05355231
  ---------------------------------------------------
  free energy    TOTEN  =         2.26851843 eV

  energy without entropy =        2.26851843  energy(sigma->0) =        2.26851843


--------------------------------------------------------------------------------------------------------




----------------------------------------- Iteration    1(   3)  ---------------------------------------


     EDDAV:  cpu time    3.52: real time    3.55
       DOS:  cpu time    0.00: real time    0.00
    --------------------------------------------
      LOOP:  cpu time    3.52: real time    3.56

 eigenvalue-minimisations  :  7776
 total energy-change (2. order) :-0.8356288E+01  (-0.8265410E+01)
 number of electron      18.0000015 magnetization 
 augmentation part       18.0000015 magnetization 

 Free energy of the ion-electron system (eV)
  ---------------------------------------------------
  alpha Z        PSCENC =        72.22953821
  Ewald energy   TEWEN  =     -1179.54151382
  -1/2 Hartree   DENC   =      -719.56209173
  -exchange  EXHF       =         0.00000000
  -V(xc)+E(xc)   XCENC  =        56.33253961
  PAW double counting   =      1455.13189237    -1619.28077267
  entropy T*S    EENTRO =        -0.00000000
  eigenvalues    EBANDS =       -77.45091404
  atomic energy  EATOM  =      2006.05355231
  ---------------------------------------------------
  free energy    TOTEN  =        -6.08776977 eV

  energy without entropy =       -6.08776977  energy(sigma->0) =       -6.08776977


--------------------------------------------------------------------------------------------------------




----------------------------------------- Iteration    1(   4)  ---------------------------------------


     EDDAV:  cpu time    3.48: real time    3.51
       DOS:  cpu time    0.00: real time    0.00
    --------------------------------------------
      LOOP:  cpu time    3.48: real time    3.52

 eigenvalue-minimisations  :  7664
 total energy-change (2. order) :-0.9809283E-01  (-0.9802779E-01)
 number of electron      18.0000015 magnetization 
 augmentation part       18.0000015 magnetization 

 Free energy of the ion-electron system (eV)
  ---------------------------------------------------
  alpha Z        PSCENC =        72.22953821
  Ewald energy   TEWEN  =     -1179.54151382
  -1/2 Hartree   DENC   =      -719.56209173
  -exchange  EXHF       =         0.00000000
  -V(xc)+E(xc)   XCENC  =        56.33253961
  PAW double counting   =      1455.13189237    -1619.28077267
  entropy T*S    EENTRO =        -0.00000000
  eigenvalues    EBANDS =       -77.54900687
  atomic energy  EATOM  =      2006.05355231
  ---------------------------------------------------
  free energy    TOTEN  =        -6.18586260 eV

  energy without entropy =       -6.18586260  energy(sigma->0) =       -6.18586260


--------------------------------------------------------------------------------------------------------




----------------------------------------- Iteration    1(   5)  ---------------------------------------


     EDDAV:  cpu time    3.35: real time    3.38
       DOS:  cpu time    0.00: real time    0.00
    --------------------------------------------
      LOOP:  cpu time    3.36: real time    3.39

 eigenvalue-minimisations  :  7288
 total energy-change (2. order) :-0.3188424E-03  (-0.3188374E-03)
 number of electron      18.0000015 magnetization 
 augmentation part       18.0000015 magnetization 

 Free energy of the ion-electron system (eV)
  ---------------------------------------------------
  alpha Z        PSCENC =        72.22953821
  Ewald energy   TEWEN  =     -1179.54151382
  -1/2 Hartree   DENC   =      -719.56209173
  -exchange  EXHF       =         0.00000000
  -V(xc)+E(xc)   XCENC  =        56.33253961
  PAW double counting   =      1455.13189237    -1619.28077267
  entropy T*S    EENTRO =        -0.00000000
  eigenvalues    EBANDS =       -77.54932572
  atomic energy  EATOM  =      2006.05355231
  ---------------------------------------------------
  free energy    TOTEN  =        -6.18618144 eV

  energy without entropy =       -6.18618144  energy(sigma->0) =       -6.18618144


--------------------------------------------------------------------------------------------------------




----------------------------------------- Iteration    1(   6)  ---------------------------------------


     EDDAV:  cpu time    3.52: real time    3.55
       DOS:  cpu time    0.00: real time    0.00
    --------------------------------------------
      LOOP:  cpu time    3.52: real time    3.56

 eigenvalue-minimisations  :  7768
 total energy-change (2. order) :-0.1865097E-05  (-0.1865085E-05)
 number of electron      18.0000015 magnetization 
 augmentation part       18.0000015 magnetization 

 Free energy of the ion-electron system (eV)
  ---------------------------------------------------
  alpha Z        PSCENC =        72.22953821
  Ewald energy   TEWEN  =     -1179.54151382
  -1/2 Hartree   DENC   =      -719.56209173
  -exchange  EXHF       =         0.00000000
  -V(xc)+E(xc)   XCENC  =        56.33253961
  PAW double counting   =      1455.13189237    -1619.28077267
  entropy T*S    EENTRO =        -0.00000000
  eigenvalues    EBANDS =       -77.54932758
  atomic energy  EATOM  =      2006.05355231
  ---------------------------------------------------
  free energy    TOTEN  =        -6.18618330 eV

  energy without entropy =       -6.18618330  energy(sigma->0) =       -6.18618330


--------------------------------------------------------------------------------------------------------




 average (electrostatic) potential at core
  the test charge radii are     0.9521  1.0808
  (the norm of the test charge is              1.0000)
       1 -37.3420       2 -56.2997
 
 
 
 E-fermi :   1.3043     XC(G=0):  -9.1454     alpha+bet : -6.9410


 k-point   1 :       0.0000    0.0000    0.0000
  band No.  band energies     occupation 
      1     -11.6951      2.00000
      2      -5.1442      2.00000
      3      -5.1442      2.00000
      4      -5.1442      2.00000
      5      -4.8096      2.00000
      6      -4.8096      2.00000
      7       1.2900      2.00000
      8       1.2900      2.00000
      9       1.2900      2.00000
     10       2.4593      0.00000
     11       7.1014      0.00000
     12       7.1014      0.00000
     13       7.1014      0.00000
     14      11.0828      0.00000
     15      12.6593      0.00000
     16      12.6593      0.00000
     17      14.2648      0.00000
     18      14.2648      0.00000
     19      14.2648      0.00000
     20      17.0081      0.00000

 k-point   2 :       0.0588    0.0000    0.0000
  band No.  band energies     occupation 
      1     -11.6739      2.00000
      2      -5.1425      2.00000
      3      -5.1408      2.00000
      4      -5.1408      2.00000
      5      -4.8099      2.00000
      6      -4.8099      2.00000
      7       0.8590      2.00000
      8       1.2565      2.00000
      9       1.2565      2.00000
     10       2.8315      0.00000
     11       7.0548      0.00000
     12       7.1606      0.00000
     13       7.1606      0.00000
     14      11.3157      0.00000
     15      12.3883      0.00000
     16      12.3883      0.00000
     17      14.0425      0.00000
     18      14.6797      0.00000
     19      14.6797      0.00000
     20      17.3868      0.00000

 k-point   3 :       0.1176    0.0000    0.0000
  band No.  band energies     occupation 
      1     -11.6120      2.00000
      2      -5.1360      2.00000
      3      -5.1313      2.00000
      4      -5.1313      2.00000
      5      -4.8107      2.00000
      6      -4.8107      2.00000
      7       0.1030      2.00000
      8       1.1637      2.00000
      9       1.1637      2.00000
     10       3.3859      0.00000
     11       7.0157      0.00000
     12       7.3181      0.00000
     13       7.3181      0.00000
     14      11.8671      0.00000
     15      11.9577      0.00000
     16      11.9577      0.00000
     17      13.6806      0.00000
     18      15.5539      0.00000
     19      15.5539      0.00000
     20      18.2849      0.00000

 k-point   4 :       0.1765    0.0000    0.0000
  band No.  band energies     occupation 
      1     -11.5150      2.00000
      2      -5.1200      2.00000
      3      -5.1175      2.00000
      4      -5.1175      2.00000
      5      -4.8110      2.00000
      6      -4.8110      2.00000
      7      -0.6936      2.00000
      8       1.0313      2.00000
      9       1.0313      2.00000
     10       3.7804      0.00000
     11       7.1703      0.00000
     12       7.5169      0.00000
     13       7.5169      0.00000
     14      11.6683      0.00000
     15      11.6684      0.00000
     16      12.2019      0.00000
     17      13.8232      0.00000
     18      16.6215      0.00000
     19      16.6215      0.00000
     20      19.4421      0.00000

 k-point   5 :       0.2353    0.0000    0.0000
  band No.  band energies     occupation 
      1     -11.3928      2.00000
      2      -5.1019      2.00000
      3      -5.1019      2.00000
      4      -5.0870      2.00000
      5      -4.8100      2.00000
      6      -4.8100      2.00000
      7      -1.4669      2.00000
      8       0.8827      2.00000
      9       0.8827      2.00000
     10       3.9447      0.00000
     11       7.6081      0.00000
     12       7.6802      0.00000
     13       7.6802      0.00000
     14      11.6361      0.00000
     15      11.6361      0.00000
     16      12.0115      0.00000
     17      14.7525      0.00000
     18      17.8105      0.00000
     19      17.8105      0.00000
     20      20.5509      0.00000

 k-point   6 :       0.2941    0.0000    0.0000
  band No.  band energies     occupation 
      1     -11.2592      2.00000
      2      -5.0873      2.00000
      3      -5.0873      2.00000
      4      -5.0278      2.00000
      5      -4.8069      2.00000
      6      -4.8069      2.00000
      7      -2.1828      2.00000
      8       0.7391      2.00000
      9       0.7391      2.00000
     10       3.9477      0.00000
     11       7.7545      0.00000
     12       7.7545      0.00000
     13       8.2523      0.00000
     14      11.7508      0.00000
     15      11.9110      0.00000
     16      11.9110      0.00000
     17      15.8954      0.00000
     18      18.9830      0.00000
     19      18.9833      0.00000
     20      19.5793      0.00000

 k-point   7 :       0.3529    0.0000    0.0000
  band No.  band energies     occupation 
      1     -11.1322      2.00000
      2      -5.0758      2.00000
      3      -5.0758      2.00000
      4      -4.9339      2.00000
      5      -4.8021      2.00000
      6      -4.8021      2.00000
      7      -2.8123      2.00000
      8       0.6175      2.00000
      9       0.6175      2.00000
     10       3.8879      0.00000
     11       7.7482      0.00000
     12       7.7482      0.00000
     13       8.9406      0.00000
     14      11.6303      0.00000
     15      12.4700      0.00000
     16      12.4700      0.00000
     17      16.5006      0.00000
     18      18.2067      0.00000
     19      18.2067      0.00000
     20      19.1045      0.00000

 k-point   8 :       0.4118    0.0000    0.0000
  band No.  band energies     occupation 
      1     -11.0317      2.00000
      2      -5.0682      2.00000
      3      -5.0682      2.00000
      4      -4.8064      2.00000
      5      -4.7970      2.00000
      6      -4.7970      2.00000
      7      -3.3203      2.00000
      8       0.5300      2.00000
      9       0.5300      2.00000
     10       3.8257      0.00000
     11       7.7086      0.00000
     12       7.7086      0.00000
     13       9.4759      0.00000
     14      11.7542      0.00000
     15      13.2363      0.00000
     16      13.2363      0.00000
     17      15.9405      0.00000
     18      16.9136      0.00000
     19      16.9136      0.00000
     20      20.0502      0.00000

 k-point   9 :       0.4706    0.0000    0.0000
  band No.  band energies     occupation 
      1     -10.9758      2.00000
      2      -5.0646      2.00000
      3      -5.0646      2.00000
      4      -4.7938      2.00000
      5      -4.7938      2.00000
      6      -4.6863      2.00000
      7      -3.6385      2.00000
      8       0.4843      2.00000
      9       0.4843      2.00000
     10       3.7893      0.00000
     11       7.6781      0.00000
     12       7.6781      0.00000
     13       9.7272      0.00000
     14      12.0319      0.00000
     15      14.0423      0.00000
     16      14.0423      0.00000
     17      15.2787      0.00000
     18      15.8472      0.00000
     19      15.8472      0.00000
     20      21.3330      0.00000

 k-point  10 :       0.0588    0.0588    0.0000
  band No.  band energies     occupation 
      1     -11.6668      2.00000
      2      -5.1453      2.00000
      3      -5.1380      2.00000
      4      -5.1380      2.00000
      5      -4.8120      2.00000
      6      -4.8081      2.00000
      7       0.8265      2.00000
      8       1.1935      2.00000
      9       1.1935      2.00000
     10       2.9535      0.00000
     11       6.9014      0.00000
     12       7.2501      0.00000
     13       7.2501      0.00000
     14      11.3809      0.00000
     15      11.9800      0.00000
     16      12.7075      0.00000
     17      14.3846      0.00000
     18      14.3846      0.00000
     19      14.7135      0.00000
     20      17.5486      0.00000

 k-point  11 :       0.1176    0.0588    0.0000
  band No.  band energies     occupation 
      1     -11.6184      2.00000
      2      -5.1433      2.00000
      3      -5.1293      2.00000
      4      -5.1289      2.00000
      5      -4.8145      2.00000
      6      -4.8070      2.00000
      7       0.2567      2.00000
      8       1.0762      2.00000
      9       1.1259      2.00000
     10       3.4252      0.00000
     11       6.7557      0.00000
     12       7.4140      0.00000
     13       7.4385      0.00000
     14      11.4112      0.00000
     15      11.9064      0.00000
     16      12.5219      0.00000
     17      14.0988      0.00000
     18      14.8886      0.00000
     19      15.4846      0.00000
     20      18.3149      0.00000

 k-point  12 :       0.1765    0.0588    0.0000
  band No.  band energies     occupation 
      1     -11.5331      2.00000
      2      -5.1338      2.00000
      3      -5.1151      2.00000
      4      -5.1150      2.00000
      5      -4.8166      2.00000
      6      -4.8059      2.00000
      7      -0.4807      2.00000
      8       0.9275      2.00000
      9       1.0260      2.00000
     10       3.8637      0.00000
     11       6.7624      0.00000
     12       7.6183      0.00000
     13       7.6695      0.00000
     14      11.0789      0.00000
     15      12.2347      0.00000
     16      12.4215      0.00000
     17      13.9097      0.00000
     18      15.8205      0.00000
     19      16.5533      0.00000
     20      19.3873      0.00000

 k-point  13 :       0.2353    0.0588    0.0000
  band No.  band energies     occupation 
      1     -11.4191      2.00000
      2      -5.1153      2.00000
      3      -5.0993      2.00000
      4      -5.0923      2.00000
      5      -4.8170      2.00000
      6      -4.8042      2.00000
      7      -1.2358      2.00000
      8       0.7720      2.00000
      9       0.8833      2.00000
     10       4.1062      0.00000
     11       7.0003      0.00000
     12       7.8395      0.00000
     13       7.8660      0.00000
     14      10.9882      0.00000
     15      12.1370      0.00000
     16      12.4491      0.00000
     17      14.5081      0.00000
     18      16.9360      0.00000
     19      17.7594      0.00000
     20      20.5555      0.00000

 k-point  14 :       0.2941    0.0588    0.0000
  band No.  band energies     occupation 
      1     -11.2890      2.00000
      2      -5.0957      2.00000
      3      -5.0841      2.00000
      4      -5.0475      2.00000
      5      -4.8145      2.00000
      6      -4.8014      2.00000
      7      -1.9556      2.00000
      8       0.6304      2.00000
      9       0.7219      2.00000
     10       4.1583      0.00000
     11       7.3416      0.00000
     12       7.9645      0.00000
     13       8.1279      0.00000
     14      11.2010      0.00000
     15      12.2203      0.00000
     16      12.3288      0.00000
     17      15.5735      0.00000
     18      18.1394      0.00000
     19      19.0299      0.00000
     20      19.6071      0.00000

 k-point  15 :       0.3529    0.0588    0.0000
  band No.  band energies     occupation 
      1     -11.1592      2.00000
      2      -5.0810      2.00000
      3      -5.0719      2.00000
      4      -4.9686      2.00000
      5      -4.8081      2.00000
      6      -4.7975      2.00000
      7      -2.6051      2.00000
      8       0.5185      2.00000
      9       0.5650      2.00000
     10       4.1156      0.00000
     11       7.5013      0.00000
     12       7.9591      0.00000
     13       8.6474      0.00000
     14      11.5846      0.00000
     15      12.1747      0.00000
     16      12.8119      0.00000
     17      16.3601      0.00000
     18      18.0811      0.00000
     19      18.6789      0.00000
     20      19.6598      0.00000

 k-point  16 :       0.4118    0.0588    0.0000
  band No.  band energies     occupation 
      1     -11.0491      2.00000
      2      -5.0710      2.00000
      3      -5.0638      2.00000
      4      -4.8597      2.00000
      5      -4.7940      2.00000
      6      -4.7932      2.00000
      7      -3.1501      2.00000
      8       0.4309      2.00000
      9       0.4469      2.00000
     10       4.0532      0.00000
     11       7.5158      0.00000
     12       7.8949      0.00000
     13       9.2556      0.00000
     14      11.7807      0.00000
     15      12.6940      0.00000
     16      13.5117      0.00000
     17      15.9313      0.00000
     18      16.7977      0.00000
     19      18.2232      0.00000
     20      19.6438      0.00000

 k-point  17 :       0.4706    0.0588    0.0000
  band No.  band energies     occupation 
      1     -10.9777      2.00000
      2      -5.0651      2.00000
      3      -5.0599      2.00000
      4      -4.8061      2.00000
      5      -4.7925      2.00000
      6      -4.7104      2.00000
      7      -3.5368      2.00000
      8       0.3326      2.00000
      9       0.4216      2.00000
     10       4.0083      0.00000
     11       7.5108      0.00000
     12       7.8219      0.00000
     13       9.6874      0.00000
     14      12.0086      0.00000
     15      13.4559      0.00000
     16      14.2021      0.00000
     17      15.1659      0.00000
     18      15.7815      0.00000
     19      17.0973      0.00000
     20      20.9025      0.00000

 k-point  18 :      -0.4706    0.0588    0.0000
  band No.  band energies     occupation 
      1     -10.9589      2.00000
      2      -5.0629      2.00000
      3      -5.0598      2.00000
      4      -4.7991      2.00000
      5      -4.7943      2.00000
      6      -4.6627      2.00000
      7      -3.6528      2.00000
      8       0.2788      2.00000
      9       0.4445      2.00000
     10       3.9961      0.00000
     11       7.5348      0.00000
     12       7.7713      0.00000
     13       9.8048      0.00000
     14      12.1602      0.00000
     15      13.9163      0.00000
     16      14.0445      0.00000
     17      14.9148      0.00000
     18      16.0046      0.00000
     19      16.3328      0.00000
     20      21.4933      0.00000

 k-point  19 :      -0.4118    0.0588    0.0000
  band No.  band energies     occupation 
      1     -10.9963      2.00000
      2      -5.0641      2.00000
      3      -5.0633      2.00000
      4      -4.8056      2.00000
      5      -4.7994      2.00000
      6      -4.7468      2.00000
      7      -3.4305      2.00000
      8       0.2744      2.00000
      9       0.5132      2.00000
     10       4.0196      0.00000
     11       7.5975      0.00000
     12       7.7520      0.00000
     13       9.5922      0.00000
     14      11.9843      0.00000
     15      13.0246      0.00000
     16      14.0948      0.00000
     17      15.1009      0.00000
     18      16.7294      0.00000
     19      17.0931      0.00000
     20      20.3934      0.00000

 k-point  20 :      -0.3529    0.0588    0.0000
  band No.  band energies     occupation 
      1     -11.0826      2.00000
      2      -5.0708      2.00000
      3      -5.0691      2.00000
      4      -4.8954      2.00000
      5      -4.8060      2.00000
      6      -4.7911      2.00000
      7      -2.9820      2.00000
      8       0.3206      2.00000
      9       0.6216      2.00000
     10       4.0720      0.00000
     11       7.6803      0.00000
     12       7.7520      0.00000
     13       9.0766      0.00000
     14      11.8478      0.00000
     15      12.2022      0.00000
     16      13.3924      0.00000
     17      15.9569      0.00000
     18      17.6551      0.00000
     19      18.3804      0.00000
     20      19.2575      0.00000

 k-point  21 :      -0.2941    0.0588    0.0000
  band No.  band energies     occupation 
      1     -11.2016      2.00000
      2      -5.0822      2.00000
      3      -5.0784      2.00000
      4      -4.9985      2.00000
      5      -4.8120      2.00000
      6      -4.7980      2.00000
      7      -2.3982      2.00000
      8       0.4149      2.00000
      9       0.7592      2.00000
     10       4.1313      0.00000
     11       7.7147      0.00000
     12       7.7369      0.00000
     13       8.4400      0.00000
     14      11.5781      0.00000
     15      11.8710      0.00000
     16      12.7720      0.00000
     17      16.1363      0.00000
     18      18.2450      0.00000
     19      18.9914      0.00000
     20      19.6377      0.00000

 k-point  22 :      -0.2353    0.0588    0.0000
  band No.  band energies     occupation 
      1     -11.3335      2.00000
      2      -5.0967      2.00000
      3      -5.0926      2.00000
      4      -5.0669      2.00000
      5      -4.8156      2.00000
      6      -4.8026      2.00000
      7      -1.7232      2.00000
      8       0.5508      2.00000
      9       0.9116      2.00000
     10       4.1476      0.00000
     11       7.4760      0.00000
     12       7.6612      0.00000
     13       8.0398      0.00000
     14      11.2281      0.00000
     15      11.8560      0.00000
     16      12.5437      0.00000
     17      15.1829      0.00000
     18      17.6274      0.00000
     19      18.8330      0.00000
     20      19.5248      0.00000

 k-point  23 :      -0.1765    0.0588    0.0000
  band No.  band energies     occupation 
      1     -11.4599      2.00000
      2      -5.1146      2.00000
      3      -5.1125      2.00000
      4      -5.1010      2.00000
      5      -4.8163      2.00000
      6      -4.8056      2.00000
      7      -0.9918      2.00000
      8       0.7179      2.00000
      9       1.0595      2.00000
     10       4.0316      0.00000
     11       7.0748      0.00000
     12       7.5091      0.00000
     13       7.8694      0.00000
     14      11.1880      0.00000
     15      11.8063      0.00000
     16      12.6103      0.00000
     17      14.2356      0.00000
     18      16.3966      0.00000
     19      17.6020      0.00000
     20      20.1095      0.00000

 k-point  24 :      -0.1176    0.0588    0.0000
  band No.  band energies     occupation 
      1     -11.5654      2.00000
      2      -5.1330      2.00000
      3      -5.1267      2.00000
      4      -5.1188      2.00000
      5      -4.8149      2.00000
      6      -4.8073      2.00000
      7      -0.2469      2.00000
      8       0.9026      2.00000
      9       1.1805      2.00000
     10       3.7046      0.00000
     11       6.8920      0.00000
     12       7.3273      0.00000
     13       7.6484      0.00000
     14      11.4254      0.00000
     15      11.9277      0.00000
     16      12.3303      0.00000
     17      13.9838      0.00000
     18      15.2981      0.00000
     19      16.4661      0.00000
     20      18.9270      0.00000

 k-point  25 :      -0.0588    0.0588    0.0000
  band No.  band energies     occupation 
      1     -11.6391      2.00000
      2      -5.1410      2.00000
      3      -5.1368      2.00000
      4      -5.1323      2.00000
      5      -4.8124      2.00000
      6      -4.8085      2.00000
      7       0.4315      2.00000
      8       1.0938      2.00000
      9       1.2515      2.00000
     10       3.2212      0.00000
     11       6.9377      0.00000
     12       7.1922      0.00000
     13       7.3853      0.00000
     14      11.6523      0.00000
     15      11.8634      0.00000
     16      12.3183      0.00000
     17      14.2202      0.00000
     18      14.5168      0.00000
     19      15.4663      0.00000
     20      17.9469      0.00000

 k-point  26 :       0.1176    0.1176    0.0000
  band No.  band energies     occupation 
      1     -11.5842      2.00000
      2      -5.1475      2.00000
      3      -5.1199      2.00000
      4      -5.1199      2.00000
      5      -4.8186      2.00000
      6      -4.8039      2.00000
      7       0.0816      2.00000
      8       0.9363      2.00000
      9       0.9363      2.00000
     10       3.7689      0.00000
     11       6.4407      0.00000
     12       7.6641      0.00000
     13       7.6641      0.00000
     14      10.8460      0.00000
     15      12.2372      0.00000
     16      12.8515      0.00000
     17      14.7434      0.00000
     18      14.7434      0.00000
     19      15.2647      0.00000
     20      18.9757      0.00000

 k-point  27 :       0.1765    0.1176    0.0000
  band No.  band energies     occupation 
      1     -11.5124      2.00000
      2      -5.1442      2.00000
      3      -5.1058      2.00000
      4      -5.1055      2.00000
      5      -4.8222      2.00000
      6      -4.8014      2.00000
      7      -0.4351      2.00000
      8       0.7701      2.00000
      9       0.8040      2.00000
     10       4.1818      0.00000
     11       6.2674      0.00000
     12       7.9186      0.00000
     13       7.9399      0.00000
     14      10.4499      0.00000
     15      12.7789      0.00000
     16      12.7965      0.00000
     17      14.5352      0.00000
     18      15.3138      0.00000
     19      16.1303      0.00000
     20      19.9642      0.00000

 k-point  28 :       0.2353    0.1176    0.0000
  band No.  band energies     occupation 
      1     -11.4099      2.00000
      2      -5.1306      2.00000
      3      -5.0892      2.00000
      4      -5.0852      2.00000
      5      -4.8236      2.00000
      6      -4.7989      2.00000
      7      -1.0873      2.00000
      8       0.6034      2.00000
      9       0.6573      2.00000
     10       4.4892      0.00000
     11       6.3247      0.00000
     12       8.0945      0.00000
     13       8.1891      0.00000
     14      10.3818      0.00000
     15      12.6751      0.00000
     16      13.1588      0.00000
     17      14.6283      0.00000
     18      16.2767      0.00000
     19      17.3446      0.00000
     20      20.9073      0.00000

 k-point  29 :       0.2941    0.1176    0.0000
  band No.  band energies     occupation 
      1     -11.2876      2.00000
      2      -5.1080      2.00000
      3      -5.0729      2.00000
      4      -5.0529      2.00000
      5      -4.8210      2.00000
      6      -4.7959      2.00000
      7      -1.7579      2.00000
      8       0.4572      2.00000
      9       0.4751      2.00000
     10       4.6049      0.00000
     11       6.6325      0.00000
     12       8.1626      0.00000
     13       8.3371      0.00000
     14      10.7053      0.00000
     15      12.7950      0.00000
     16      13.0275      0.00000
     17      15.4354      0.00000
     18      17.4130      0.00000
     19      18.6867      0.00000
     20      19.5407      0.00000

 k-point  30 :       0.3529    0.1176    0.0000
  band No.  band energies     occupation 
      1     -11.1603      2.00000
      2      -5.0866      2.00000
      3      -5.0595      2.00000
      4      -4.9941      2.00000
      5      -4.8118      2.00000
      6      -4.7928      2.00000
      7      -2.3907      2.00000
      8       0.2798      2.00000
      9       0.3472      2.00000
     10       4.5907      0.00000
     11       6.9938      0.00000
     12       8.3166      0.00000
     13       8.3584      0.00000
     14      11.2776      0.00000
     15      12.8517      0.00000
     16      13.1991      0.00000
     17      16.2109      0.00000
     18      17.9941      0.00000
     19      18.5416      0.00000
     20      18.8661      0.00000

 k-point  31 :       0.4118    0.1176    0.0000
  band No.  band energies     occupation 
      1     -11.0462      2.00000
      2      -5.0726      2.00000
      3      -5.0505      2.00000
      4      -4.9069      2.00000
      5      -4.7904      2.00000
      6      -4.7887      2.00000
      7      -2.9442      2.00000
      8       0.0969      2.00000
      9       0.2835      2.00000
     10       4.5378      0.00000
     11       7.1648      0.00000
     12       8.2894      0.00000
     13       8.7706      0.00000
     14      11.8089      0.00000
     15      12.9409      0.00000
     16      13.8259      0.00000
     17      15.8750      0.00000
     18      16.7539      0.00000
     19      18.9383      0.00000
     20      20.1534      0.00000

 k-point  32 :       0.4706    0.1176    0.0000
  band No.  band energies     occupation 
      1     -10.9640      2.00000
      2      -5.0645      2.00000
      3      -5.0460      2.00000
      4      -4.8387      2.00000
      5      -4.7905      2.00000
      6      -4.7210      2.00000
      7      -3.3694      2.00000
      8      -0.0544      2.00000
      9       0.2715      2.00000
     10       4.4934      0.00000
     11       7.2048      0.00000
     12       8.1865      0.00000
     13       9.3682      0.00000
     14      12.0672      0.00000
     15      13.3799      0.00000
     16      14.3704      0.00000
     17      15.1321      0.00000
     18      15.8213      0.00000
     19      18.6003      0.00000
     20      20.4411      0.00000

 k-point  33 :      -0.4706    0.1176    0.0000
  band No.  band energies     occupation 
      1     -10.9287      2.00000
      2      -5.0603      2.00000
      3      -5.0458      2.00000
      4      -4.8161      2.00000
      5      -4.7940      2.00000
      6      -4.6501      2.00000
      7      -3.5767      2.00000
      8      -0.1602      2.00000
      9       0.3118      2.00000
[...]
   37.436535    0.001950    0.001951    0.001715    0.000211   -0.000052    0.000011
   37.635665    0.001910    0.001912    0.001678    0.000208   -0.000052    0.000012
   37.834796    0.001871    0.001873    0.001642    0.000206   -0.000052    0.000012
   38.033926    0.001833    0.001836    0.001607    0.000203   -0.000052    0.000013
   38.233057    0.001796    0.001801    0.001573    0.000201   -0.000052    0.000013
   38.432187    0.001761    0.001766    0.001540    0.000198   -0.000052    0.000013
   38.631318    0.001726    0.001732    0.001509    0.000196   -0.000051    0.000014
   38.830448    0.001693    0.001699    0.001478    0.000194   -0.000051    0.000014
   39.029579    0.001660    0.001667    0.001448    0.000191   -0.000051    0.000014
   39.228709    0.001628    0.001636    0.001419    0.000189   -0.000051    0.000015
   39.427840    0.001597    0.001605    0.001391    0.000186   -0.000051    0.000015
   39.626970    0.001567    0.001576    0.001363    0.000184   -0.000051    0.000015
   39.826101    0.001538    0.001547    0.001337    0.000182   -0.000050    0.000015

  frequency dependent      REAL DIELECTRIC FUNCTION (independent particle, no local field effects)
     E(ev)      X         Y         Z        XY        YZ        ZX
  --------------------------------------------------------------------------------------
    0.000000    8.969388   10.010822    5.411308    3.734008   -1.649526    0.883225
    0.199131    8.993543   10.037553    5.426443    3.745044   -1.655683    0.887322
    0.398261    9.068767   10.120610    5.474056    3.778907   -1.674683    0.900062
    0.597392    9.205067   10.270286    5.562315    3.838109   -1.708299    0.922979
    0.796522    9.427398   10.512035    5.712424    3.927864   -1.760322    0.959432
    0.995653    9.799370   10.910291    5.980781    4.058803   -1.838821    1.016811
    1.194783    9.812067   10.957299    5.843353    4.255397   -1.963544    1.113869
    1.393914   10.393370   11.582781    6.190445    4.581410   -2.188397    1.302997
    1.593044   10.201451   11.447611    5.580998    4.360998   -1.812629    0.881172
    1.792175    9.735512   11.055402    5.776304    4.647633   -1.819998    0.828502
    1.991305    9.952560   11.370808    6.710609    4.500582   -2.338209    1.266463
    2.190436   11.094865   12.651157    5.711966    4.856963   -2.808930    1.624836
    2.389566    9.908356   11.678343    5.159058    5.462614   -2.009889    0.654165
    2.588697   10.269496   12.425244    6.665183    4.673159   -2.883265    1.226102
    2.787827   12.076465   13.449163    6.641807    5.920382   -2.664045    1.334303
    2.986958   11.733903   13.343864    6.264804    6.143161   -2.584782    1.032733
    3.186088   12.727452   15.990540    7.714572    7.111949   -3.692414    1.528126
    3.385219   11.504997   13.332213    5.206952    6.704394   -1.840649    0.476085
    3.584349    8.626752   10.965616    5.510774    3.659246   -2.205334    0.429826
    3.783480    7.372873   10.175770    1.222735    4.706860   -0.089276   -1.846066
    3.982610    9.527798    8.057996    0.997672    4.975463    2.126287   -0.242823
    4.181741    8.936432    8.271757    2.420746    3.934056    1.263303    0.294353
    4.380871    7.729852    9.208979    2.477849    3.157053   -0.060657   -0.932704
    4.580002    8.894920    9.481380    2.195133    3.637350    0.367228   -0.705770
    4.779132    9.341224    7.699155    1.944324    2.853815    1.712009   -0.144589
    4.978263   11.943894   11.055720    2.956932    4.319838    0.939726   -0.083301
    5.177393   12.139630   10.670286    3.298382    3.043115    1.054346    0.244125
    5.376524    2.223530    1.069587    2.852957   -4.908661    1.957531    0.402423
    5.575654   -5.408286   -6.351262    3.418607  -11.529391    1.183950   -0.012015
    5.774785   -5.234484   -5.913802    3.987725   -7.867388    0.692599    0.298693
    5.973915   -2.731988   -4.483809    4.378545   -6.640216    0.813540    0.781128
    6.173046   -3.000653   -4.443691    4.393744   -6.924775    0.017627    0.472361
    6.372176   -4.087985   -5.402395    4.875747   -4.720196   -0.122043    0.661370
    6.571307   -2.367745   -4.244949    5.274299   -3.701003   -0.302807    0.796413
    6.770437   -0.429964   -2.310415    5.295625   -2.938118   -0.254666    1.019084
    6.969568   -2.190916   -1.996250    4.111942   -3.510103   -0.676554   -1.063848
    7.168698   -3.412384   -3.172645    3.431354   -3.907174   -0.683528   -1.343347
    7.367829   -4.078966   -3.693822    3.046582   -2.730643   -0.194810   -1.028463
    7.566959   -3.676654   -3.874196    2.127214   -3.228247    0.413342   -0.910961
    7.766090   -2.533161   -3.352031    1.066147   -3.051561    0.888146   -0.505759
    7.965220   -1.601333   -2.150911    1.819816   -2.593373    0.589539   -0.543106
    8.164351   -2.203729   -2.494470   -0.171589   -1.694665    1.015500   -0.512808
    8.363481   -1.975211   -2.276283   -0.656863   -1.743645    1.211452   -0.277246
    8.562612   -1.157888   -1.376378   -0.017545   -1.531387    0.841164    0.068348
    8.761742   -0.938522   -1.040343   -0.258145   -1.263094    0.650345    0.058828
    8.960873   -1.007795   -0.728742   -0.829818   -1.038888    0.747537   -0.298664
    9.160003   -0.592167   -0.425484   -0.391154   -0.998763    0.835022   -0.359534
    9.359134   -0.186612   -0.098856    0.143079   -1.099488    0.687065   -0.206827
    9.558264    0.156509    0.155258    0.566449   -0.982478    0.698376   -0.228830
    9.757395    0.136472    0.003576    0.678040   -0.888138    0.643929   -0.343120
    9.956525    0.043639   -0.239746    0.390913   -0.815163    0.540964   -0.408522
   10.155656   -0.275483   -0.493329    0.038413   -1.040816    0.585157   -0.400822
   10.354786   -0.830601   -1.010060    0.221581   -1.331629    0.633595   -0.333291
   10.553917   -0.773963   -1.058203    0.323566   -1.291673    0.656043   -0.243097
   10.753047   -0.605735   -0.823987    0.556328   -1.186479    0.544666   -0.197262
   10.952178   -0.210730   -0.439931    1.048322   -1.028392    0.560446   -0.211339
   11.151308    0.015328   -0.030402    0.726933   -0.958384    0.444477   -0.173360
   11.350439    0.098860   -0.128925    0.840640   -0.857908    0.349435   -0.124687
   11.549569    0.203771   -0.057515    1.193577   -0.674059    0.294405   -0.089916
   11.748700    0.100881    0.071651    1.140148   -0.438757    0.246902   -0.064589
   11.947830    0.061727    0.102172    1.064765   -0.502091    0.164609   -0.141494
   12.146961   -0.050069   -0.061115    0.833589   -0.439658    0.278973   -0.225323
   12.346091    0.081686   -0.024486    0.642697   -0.415464    0.412254   -0.293994
   12.545222    0.226966    0.320073    0.765070   -0.419832    0.428658   -0.321439
   12.744352    0.179656    0.491887    0.912783   -0.435593    0.352107   -0.287768
   12.943483    0.051554    0.269919    0.785148   -0.505155    0.365615   -0.266423
   13.142613   -0.531258   -0.350764    0.259468   -0.648400    0.349973   -0.266562
   13.341744   -0.596113   -1.072337   -0.227027   -0.636963    0.419055   -0.313703
   13.540874   -0.625091   -1.295092   -0.297186   -0.551885    0.416812   -0.360426
   13.740005   -0.591124   -1.279554   -0.215327   -0.494274    0.424769   -0.313737
   13.939135   -0.450889   -0.917638   -0.030134   -0.592984    0.442927   -0.343432
   14.138266   -0.318886   -1.011238    0.062122   -0.514169    0.455178   -0.205549
   14.337396   -0.298644   -0.939791    0.183442   -0.459474    0.528136   -0.194753
   14.536527   -0.324999   -0.878296    0.060334   -0.421428    0.500973   -0.229628
   14.735657   -0.080998   -0.524161    0.382301   -0.466809    0.495077   -0.204665
   14.934788   -0.203145   -0.771633    0.468090   -0.385759    0.430389   -0.189467
   15.133918   -0.206288   -0.773433    0.305410   -0.403370    0.463233   -0.317736
   15.333049   -0.039380   -0.507997    0.513263   -0.428361    0.494226   -0.344657
   15.532179    0.089086   -0.387874    0.687113   -0.397832    0.408695   -0.248698
   15.731310    0.060523   -0.515846    0.678228   -0.374737    0.309214   -0.292543
   15.930440   -0.086456   -0.474565    0.409202   -0.341839    0.262002   -0.306108
   16.129571   -0.007917   -0.425284    0.440056   -0.270025    0.274852   -0.276338
   16.328701   -0.053989   -0.438468    0.376491   -0.269983    0.228020   -0.225014
   16.527832   -0.152140   -0.458498    0.205669   -0.244141    0.167248   -0.198694
   16.726962   -0.124534   -0.325045    0.151843   -0.285447    0.159241   -0.119819
   16.926093   -0.193177   -0.492260    0.119976   -0.192258    0.128128   -0.103550
   17.125223   -0.346282   -0.454032   -0.014384   -0.243257    0.180075   -0.120727
   17.324354   -0.086122   -0.271607    0.139089   -0.316201    0.233699   -0.121426
   17.523484   -0.002040   -0.218594    0.291001   -0.289249    0.222128   -0.174165
   17.722615    0.077998   -0.140719    0.441780   -0.264553    0.182814   -0.161515
   17.921745    0.039360   -0.133206    0.470379   -0.235371    0.163070   -0.168321
   18.120876    0.119447   -0.058464    0.503780   -0.209754    0.200986   -0.222859
   18.320006    0.195924   -0.010487    0.562355   -0.223625    0.210900   -0.185333
   18.519137    0.186234    0.072899    0.625937   -0.241072    0.207685   -0.194599
   18.718267    0.182731    0.124017    0.387202   -0.175382    0.157914   -0.111897
   18.917398    0.268952    0.120132    0.349076   -0.159085    0.157059   -0.050060
   19.116528    0.221483    0.095057    0.417599   -0.149632    0.120467   -0.046290
   19.315659    0.333493    0.098052    0.358221   -0.194914    0.100706   -0.080274
   19.514789    0.436520    0.239502    0.466900   -0.184621    0.121704   -0.133721
   19.713920    0.412426    0.192557    0.535995   -0.102578    0.111521   -0.148656
   19.913050    0.345548   -0.077544    0.279685   -0.112357   -0.066587   -0.101500
   20.112181    0.181474   -0.144792    0.185878   -0.131926   -0.007282    0.017610
   20.311311   -0.021677   -0.193278    0.006011   -0.174490   -0.000426    0.098270
   20.510442   -0.219095   -0.212288    0.035700   -0.232759    0.065914    0.122285
   20.709572   -0.229927   -0.309983   -0.122837   -0.186110    0.063166    0.113993
   20.908703   -0.249944   -0.342186   -0.201556   -0.095716    0.017187    0.163439
   21.107833   -0.250931   -0.373395   -0.135486   -0.200563    0.012531    0.118200
   21.306964   -0.422410   -0.397685   -0.147132   -0.169150   -0.011303    0.075313
   21.506094   -0.456545   -0.307914   -0.252464   -0.207937    0.010232   -0.004344
   21.705225   -0.461477   -0.240180   -0.227829   -0.203540   -0.004289   -0.018192
   21.904355   -0.316961   -0.105520   -0.086357   -0.188918    0.021694   -0.006912
   22.103486   -0.197590   -0.016700   -0.042256   -0.199475    0.040132   -0.028667
   22.302616   -0.183488   -0.102676    0.001195   -0.194076    0.038928   -0.047242
   22.501747   -0.181600   -0.104866    0.018691   -0.187143    0.035906   -0.038053
   22.700877   -0.124939   -0.033727   -0.033438   -0.167386    0.049018   -0.031428
   22.900008   -0.043979    0.009901    0.074978   -0.170694    0.061324   -0.049859
   23.099138   -0.061902    0.006653    0.147005   -0.174784    0.019476   -0.039242
   23.298269   -0.063035    0.042874    0.145920   -0.185595    0.060054   -0.041731
   23.497399   -0.020225    0.002091    0.102088   -0.168589    0.048913   -0.036644
   23.696530   -0.068611    0.015323    0.096348   -0.130473    0.052482   -0.041210
   23.895660   -0.071756   -0.041769    0.045504   -0.099391    0.026757   -0.025923
   24.094791    0.014185    0.007139    0.114585   -0.091643    0.031752   -0.050999
   24.293921    0.066354   -0.001953    0.149191   -0.091381    0.045111   -0.048457
   24.493052    0.029408   -0.035236    0.138663   -0.095599    0.037212   -0.049987
   24.692183   -0.071521   -0.078979    0.079808   -0.055642    0.009104   -0.003941
   24.891313   -0.122452   -0.096929   -0.036851   -0.052497    0.016115    0.014360
   25.090444   -0.114898   -0.121561   -0.027907   -0.047095   -0.004519   -0.001203
   25.289574   -0.134783   -0.097535   -0.062421   -0.027720   -0.024540    0.029757
   25.488705   -0.094661   -0.034744   -0.021590   -0.046119   -0.003422    0.011267
   25.687835   -0.029589    0.011310    0.017516   -0.044493   -0.012320    0.026988
   25.886966   -0.006419    0.037252    0.047288   -0.053357   -0.010087    0.026865
   26.086096    0.035388    0.073444    0.094512   -0.052806   -0.012942    0.031421
   26.285227    0.072676    0.100463    0.130959   -0.049085   -0.015345    0.031659
   26.484357    0.117797    0.140629    0.181414   -0.056826   -0.005791    0.021319
   26.683488    0.156561    0.175591    0.224536   -0.059946   -0.000483    0.015488
   26.882618    0.188939    0.204940    0.258813   -0.061848    0.002991    0.011768
   27.081749    0.217118    0.230384    0.287733   -0.063138    0.005238    0.009198
   27.280879    0.242213    0.253464    0.314085   -0.064165    0.007279    0.006867
   27.480010    0.264862    0.274451    0.337067   -0.064740    0.008854    0.005165
   27.679140    0.285760    0.293841    0.358486   -0.065193    0.010176    0.003687
   27.878271    0.305325    0.311991    0.378023   -0.065404    0.011263    0.002458
   28.077401    0.323520    0.329087    0.396195   -0.065511    0.012264    0.001331
   28.276532    0.340523    0.345144    0.413147   -0.065501    0.013124    0.000400
   28.475662    0.356111    0.359814    0.428811   -0.065377    0.013689   -0.000519
   28.674793    0.371284    0.374175    0.443640   -0.065258    0.014220   -0.001218
   28.873923    0.385656    0.387721    0.457498   -0.064864    0.014611   -0.001667
   29.073054    0.399293    0.400694    0.470649   -0.064604    0.015128   -0.002319
   29.272184    0.412430    0.413350    0.483354   -0.064340    0.015554   -0.002781
   29.471315    0.424928    0.425179    0.495368   -0.063975    0.015833   -0.003141
   29.670445    0.436834    0.436221    0.506525   -0.063522    0.015996   -0.003507
   29.869576    0.447800    0.446838    0.517006   -0.062812    0.016070   -0.003895
   30.068706    0.458701    0.457202    0.527291   -0.062182    0.016265   -0.004235
   30.267837    0.469036    0.466995    0.537252   -0.061556    0.016343   -0.004436
   30.466967    0.479236    0.476596    0.546729   -0.060990    0.016562   -0.004798
   30.666098    0.488783    0.485867    0.555862   -0.060541    0.016746   -0.005086
   30.865228    0.497764    0.494430    0.564526   -0.059668    0.016703   -0.005129
   31.064359    0.506932    0.503225    0.572996   -0.059228    0.016770   -0.005340
   31.263489    0.515659    0.511458    0.580800   -0.058629    0.016671   -0.005480
   31.462620    0.524089    0.519855    0.588552   -0.057995    0.016525   -0.005374
   31.661750    0.532478    0.528128    0.596297   -0.057597    0.016669   -0.005560
   31.860881    0.540468    0.536008    0.603642   -0.057055    0.016640   -0.005619
   32.060011    0.548087    0.543508    0.610621   -0.056400    0.016495   -0.005570
   32.259142    0.555627    0.550915    0.617540   -0.055894    0.016497   -0.005670
   32.458272    0.562883    0.558041    0.624184   -0.055332    0.016436   -0.005713
   32.657403    0.569968    0.565003    0.630655   -0.054812    0.016408   -0.005786
   32.856533    0.576892    0.571815    0.636972   -0.054337    0.016419   -0.005897
   33.055664    0.583599    0.578418    0.643075   -0.053842    0.016399   -0.005978
   33.254794    0.590111    0.584834    0.648987   -0.053339    0.016362   -0.006041
   33.453925    0.596440    0.591075    0.654721   -0.052833    0.016313   -0.006093
   33.653055    0.602596    0.597152    0.660288   -0.052328    0.016257   -0.006136
   33.852186    0.608589    0.603071    0.665696   -0.051823    0.016193   -0.006171
   34.051316    0.614425    0.608840    0.670954   -0.051321    0.016124   -0.006199
   34.250447    0.620111    0.614465    0.676067   -0.050822    0.016049   -0.006222
   34.449577    0.625653    0.619953    0.681044   -0.050327    0.015971   -0.006239
   34.648708    0.631058    0.625308    0.685888   -0.049835    0.015889   -0.006252
   34.847838    0.636329    0.630536    0.690606   -0.049348    0.015803   -0.006261
   35.046969    0.641474    0.635642    0.695204   -0.048865    0.015715   -0.006266
   35.246099    0.646496    0.640629    0.699685   -0.048386    0.015625   -0.006268
   35.445230    0.651400    0.645503    0.704054   -0.047913    0.015532   -0.006267
   35.644360    0.656190    0.650266    0.708316   -0.047444    0.015438   -0.006263
   35.843491    0.660870    0.654923    0.712475   -0.046981    0.015341   -0.006256
   36.042621    0.665444    0.659478    0.716534   -0.046522    0.015244   -0.006247
   36.241752    0.669916    0.663934    0.720496   -0.046068    0.015145   -0.006235
   36.440882    0.674288    0.668294    0.724367   -0.045620    0.015046   -0.006222
   36.640013    0.678566    0.672561    0.728147   -0.045177    0.014945   -0.006207
   36.839143    0.682750    0.676739    0.731842   -0.044738    0.014844   -0.006190
   37.038274    0.686845    0.680829    0.735454   -0.044305    0.014742   -0.006171
   37.237404    0.690854    0.684835    0.738985   -0.043877    0.014640   -0.006151
   37.436535    0.694778    0.688760    0.742437   -0.043455    0.014538   -0.006130
   37.635665    0.698621    0.692605    0.745815   -0.043037    0.014435   -0.006108
   37.834796    0.702385    0.696373    0.749120   -0.042624    0.014332   -0.006084
   38.033926    0.706073    0.700066    0.752354   -0.042217    0.014229   -0.006059
   38.233057    0.709687    0.703687    0.755520   -0.041814    0.014127   -0.006034
   38.432187    0.713228    0.707238    0.758620   -0.041417    0.014024   -0.006007
   38.631318    0.716700    0.710720    0.761655   -0.041024    0.013921   -0.005980
   38.830448    0.720103    0.714135    0.764628   -0.040636    0.013819   -0.005952
   39.029579    0.723441    0.717486    0.767541   -0.040253    0.013717   -0.005924
   39.228709    0.726714    0.720774    0.770396   -0.039875    0.013615   -0.005895
   39.427840    0.729925    0.724001    0.773193   -0.039502    0.013514   -0.005865
   39.626970    0.733076    0.727168    0.775935   -0.039133    0.013413   -0.005835
   39.826101    0.736167    0.730277    0.778623   -0.038769    0.013312   -0.005804
 
 The outermost node in the dielectric function lies at epsilon=  25.6


--------------------------------------------------------------------------------------------------------


    4ORBIT:  cpu time    0.00: real time    0.00
 


 total charge     
 
# of ion     s       p       d       tot
----------------------------------------
  1        0.524   0.417   9.783  10.724
  2        1.436   2.406   0.027   3.869
------------------------------------------------
tot        1.959   2.823   9.810  14.593
 

 total amount of memory used by VASP on root node    37216. kBytes
========================================================================

   base      :      30000. kBytes
   nonlr-proj:        791. kBytes
   fftplans  :        700. kBytes
   grid      :       1117. kBytes
   one-center:         15. kBytes
   wavefun   :       4593. kBytes
 
  
  
 General timing and accounting informations for this job:
 ========================================================
  
                  Total CPU time used (sec):       34.362
                            User time (sec):       27.790
                          System time (sec):        6.572
                         Elapsed time (sec):       35.973
  
                   Maximum memory used (kb):       54580.
                   Average memory used (kb):           0.
  
                          Minor page faults:      1202563
                          Major page faults:          122
                 Voluntary context switches:         1488
