 vasp.5.2.2 15Apr09 complex 
 executed on              unknown date 2014.10.30  16:25:45
 running on   32 nodes
 distr:  one band on   16 nodes,    2 groups


--------------------------------------------------------------------------------------------------------


 INCAR:
 POTCAR:   PAW_PBE Al 04Jan2001                   
 POTCAR:   PAW_PBE Al 04Jan2001                   
   VRHFIN =Al: s2p1                                                             
   LEXCH  = PE                                                                  
   EATOM  =    53.5387 eV,    3.9350 Ry                                         
                                                                                
   TITEL  = PAW_PBE Al 04Jan2001                                                
   LULTRA =        F    use ultrasoft PP ?                                      
   IUNSCR =        1    unscreen: 0-lin 1-nonlin 2-no                           
   RPACOR =    1.500    partial core radius                                     
   POMASS =   26.982; ZVAL   =    3.000    mass and valenz                      
   RCORE  =    1.900    outmost cutoff radius                                   
   RWIGS  =    2.650; RWIGS  =    1.402    wigner-seitz radius (au A)           
   ENMAX  =  240.300; ENMIN  =  180.225 eV                                      
   ICORE  =        2    local potential                                         
   LCOR   =        T    correct aug charges                                     
   LPAW   =        T    paw PP                                                  
   EAUG   =  291.052                                                            
   DEXC   =    -.041                                                            
   RMAX   =    2.974    core radius for proj-oper                               
   RAUG   =    1.300    factor for augmentation sphere                          
   RDEP   =    1.966    radius for radial grids                                 
   QCUT   =   -4.203; QGAM   =    8.405    optimization parameters              
                                                                                
   Description                                                                  
     l     E      TYP  RCUT    TYP  RCUT                                        
     0   .000     23  1.900                                                     
     0   .000     23  1.900                                                     
     1   .000     23  1.900                                                     
     1  1.000     23  1.900                                                     
     2   .000      7  1.900                                                     
  local pseudopotential read in
  partial core-charges read in
  atomic valenz-charges read in
  non local Contribution for L=            0  read in
    real space projection operators read in
  non local Contribution for L=            0  read in
    real space projection operators read in
  non local Contribution for L=            1  read in
    real space projection operators read in
  non local Contribution for L=            1  read in
    real space projection operators read in
    PAW grid and wavefunctions read in
 
   number of l-projection  operators is LMAX  =            4
   number of lm-projection operators is LMMAX =            8
 
 PAW_PBE Al 04Jan2001                   :
 energy of atom  1       EATOM=  -53.5387
 kinetic energy error for atom=    0.0002 (will be added to EATOM!!)
 
 
 POSCAR: Al1                                     
  positions in direct lattice
  No initial velocities read in
 exchange correlation table for  LEXCH =        8
   RHO(1)=    0.500       N(1)  =     2000
   RHO(2)=  100.500       N(2)  =     4000

 VTST: version 2.03d, (02/18/09)

 CHAIN: initializing optimizer
 
 OPT: Using VASP Dynamics algorithm
 CHAIN: Read ICHAIN             0
 


--------------------------------------------------------------------------------------------------------


 ion  position               nearest neighbor table
   1  0.000  0.000  0.000-
 
  LATTYP: Found a face centered cubic cell.
 ALAT       =     4.0326380000
  
  Lattice vectors:
  
 A1 = (   0.0000000000,   2.0163190000,   2.0163190000)
 A2 = (   2.0163190000,   0.0000000000,   2.0163190000)
 A3 = (   2.0163190000,   2.0163190000,   0.0000000000)
 Subroutine PRICEL returns:
 Original cell was already a primitive cell.
 

Analysis of symmetry for initial positions (statically):

 Routine SETGRP: Setting up the symmetry group for a 
 face centered cubic supercell.


 Subroutine GETGRP returns: Found 48 space group operations
 (whereof 48 operations were pure point group operations)
 out of a pool of 48 trial point group operations.


The static configuration has the point symmetry O_h .

Analysis of symmetry for dynamics (positions and initial velocities):

 Subroutine DYNSYM returns: Found 48 space group operations
 (whereof 48 operations were pure point group operations)
 out of a pool of 48 trial space group operations
 (whereof 48 operations were pure point group operations)
 and found also     1 'primitive' translations


The dynamic configuration has the point symmetry O_h .

Analysis of magnetic symmetry:

 Subroutine MAGSYM returns: Found 48 space group operations
 (whereof 48 operations were pure point group operations)
 out of a pool of 48 trial space group operations
 (whereof 48 operations were pure point group operations)
 and found also     1 'primitive' translations


The magnetic configuration has the point symmetry O_h .
 
 
 KPOINTS: Automatic kpoint scheme                 

Automatic generation of k-mesh.
 
 Subroutine IBZKPT returns following result:
 ===========================================
 
 Found    220 irreducible k-points:
 
 Following reciprocal coordinates:
            Coordinates               Weight
  0.000000  0.000000  0.000000      1.000000
  0.052632  0.000000  0.000000      8.000000
  0.105263  0.000000  0.000000      8.000000
  0.157895  0.000000  0.000000      8.000000
  0.210526  0.000000  0.000000      8.000000
  0.263158  0.000000  0.000000      8.000000
  0.315789  0.000000  0.000000      8.000000
  0.368421  0.000000  0.000000      8.000000
  0.421053  0.000000  0.000000      8.000000
  0.473684  0.000000  0.000000      8.000000
  0.052632  0.052632  0.000000      6.000000
  0.105263  0.052632  0.000000     24.000000
  0.157895  0.052632  0.000000     24.000000
  0.210526  0.052632  0.000000     24.000000
  0.263158  0.052632  0.000000     24.000000
  0.315789  0.052632  0.000000     24.000000
  0.368421  0.052632  0.000000     24.000000
  0.421053  0.052632  0.000000     24.000000
  0.473684  0.052632  0.000000     24.000000
 -0.473684  0.052632  0.000000     24.000000
 -0.421053  0.052632  0.000000     24.000000
 -0.368421  0.052632  0.000000     24.000000
 -0.315789  0.052632  0.000000     24.000000
 -0.263158  0.052632  0.000000     24.000000
 -0.210526  0.052632  0.000000     24.000000
 -0.157895  0.052632  0.000000     24.000000
 -0.105263  0.052632  0.000000     24.000000
 -0.052632  0.052632  0.000000     12.000000
  0.105263  0.105263  0.000000      6.000000
  0.157895  0.105263  0.000000     24.000000
  0.210526  0.105263  0.000000     24.000000
  0.263158  0.105263  0.000000     24.000000
  0.315789  0.105263  0.000000     24.000000
  0.368421  0.105263  0.000000     24.000000
  0.421053  0.105263  0.000000     24.000000
  0.473684  0.105263  0.000000     24.000000
 -0.473684  0.105263  0.000000     24.000000
 -0.421053  0.105263  0.000000     24.000000
 -0.368421  0.105263  0.000000     24.000000
 -0.315789  0.105263  0.000000     24.000000
 -0.263158  0.105263  0.000000     24.000000
 -0.210526  0.105263  0.000000     24.000000
 -0.157895  0.105263  0.000000     24.000000
 -0.105263  0.105263  0.000000     12.000000
  0.157895  0.157895  0.000000      6.000000
  0.210526  0.157895  0.000000     24.000000
  0.263158  0.157895  0.000000     24.000000
  0.315789  0.157895  0.000000     24.000000
  0.368421  0.157895  0.000000     24.000000
  0.421053  0.157895  0.000000     24.000000
  0.473684  0.157895  0.000000     24.000000
 -0.473684  0.157895  0.000000     24.000000
 -0.421053  0.157895  0.000000     24.000000
 -0.368421  0.157895  0.000000     24.000000
 -0.315789  0.157895  0.000000     24.000000
 -0.263158  0.157895  0.000000     24.000000
 -0.210526  0.157895  0.000000     24.000000
 -0.157895  0.157895  0.000000     12.000000
  0.210526  0.210526  0.000000      6.000000
  0.263158  0.210526  0.000000     24.000000
  0.315789  0.210526  0.000000     24.000000
  0.368421  0.210526  0.000000     24.000000
  0.421053  0.210526  0.000000     24.000000
  0.473684  0.210526  0.000000     24.000000
 -0.473684  0.210526  0.000000     24.000000
 -0.421053  0.210526  0.000000     24.000000
 -0.368421  0.210526  0.000000     24.000000
 -0.315789  0.210526  0.000000     24.000000
 -0.263158  0.210526  0.000000     24.000000
 -0.210526  0.210526  0.000000     12.000000
  0.263158  0.263158  0.000000      6.000000
  0.315789  0.263158  0.000000     24.000000
  0.368421  0.263158  0.000000     24.000000
  0.421053  0.263158  0.000000     24.000000
  0.473684  0.263158  0.000000     24.000000
 -0.473684  0.263158  0.000000     24.000000
 -0.421053  0.263158  0.000000     24.000000
 -0.368421  0.263158  0.000000     24.000000
 -0.315789  0.263158  0.000000     24.000000
 -0.263158  0.263158  0.000000     12.000000
  0.315789  0.315789  0.000000      6.000000
  0.368421  0.315789  0.000000     24.000000
  0.421053  0.315789  0.000000     24.000000
  0.473684  0.315789  0.000000     24.000000
 -0.473684  0.315789  0.000000     24.000000
 -0.421053  0.315789  0.000000     24.000000
 -0.368421  0.315789  0.000000     24.000000
 -0.315789  0.315789  0.000000     12.000000
  0.368421  0.368421  0.000000      6.000000
  0.421053  0.368421  0.000000     24.000000
  0.473684  0.368421  0.000000     24.000000
 -0.473684  0.368421  0.000000     24.000000
 -0.421053  0.368421  0.000000     24.000000
 -0.368421  0.368421  0.000000     12.000000
  0.421053  0.421053  0.000000      6.000000
  0.473684  0.421053  0.000000     24.000000
 -0.473684  0.421053  0.000000     24.000000
 -0.421053  0.421053  0.000000     12.000000
  0.473684  0.473684  0.000000      6.000000
 -0.473684  0.473684  0.000000     12.000000
  0.157895  0.105263  0.052632     24.000000
  0.210526  0.105263  0.052632     48.000000
  0.263158  0.105263  0.052632     48.000000
  0.315789  0.105263  0.052632     48.000000
  0.368421  0.105263  0.052632     48.000000
  0.421053  0.105263  0.052632     48.000000
  0.473684  0.105263  0.052632     48.000000
 -0.473684  0.105263  0.052632     48.000000
  0.210526  0.157895  0.052632     24.000000
  0.263158  0.157895  0.052632     48.000000
  0.315789  0.157895  0.052632     48.000000
  0.368421  0.157895  0.052632     48.000000
  0.421053  0.157895  0.052632     48.000000
  0.473684  0.157895  0.052632     48.000000
 -0.473684  0.157895  0.052632     48.000000
 -0.421053  0.157895  0.052632     48.000000
 -0.368421  0.157895  0.052632     48.000000
 -0.315789  0.157895  0.052632     48.000000
 -0.263158  0.157895  0.052632     48.000000
 -0.210526  0.157895  0.052632     48.000000
 -0.157895  0.157895  0.052632     48.000000
 -0.105263  0.157895  0.052632     24.000000
  0.263158  0.210526  0.052632     24.000000
  0.315789  0.210526  0.052632     48.000000
  0.368421  0.210526  0.052632     48.000000
  0.421053  0.210526  0.052632     48.000000
  0.473684  0.210526  0.052632     48.000000
 -0.473684  0.210526  0.052632     48.000000
 -0.421053  0.210526  0.052632     48.000000
 -0.368421  0.210526  0.052632     48.000000
 -0.315789  0.210526  0.052632     48.000000
 -0.263158  0.210526  0.052632     48.000000
 -0.210526  0.210526  0.052632     48.000000
 -0.157895  0.210526  0.052632     24.000000
  0.315789  0.263158  0.052632     24.000000
  0.368421  0.263158  0.052632     48.000000
  0.421053  0.263158  0.052632     48.000000
  0.473684  0.263158  0.052632     48.000000
 -0.473684  0.263158  0.052632     48.000000
 -0.421053  0.263158  0.052632     48.000000
 -0.368421  0.263158  0.052632     48.000000
 -0.315789  0.263158  0.052632     48.000000
 -0.263158  0.263158  0.052632     48.000000
 -0.210526  0.263158  0.052632     24.000000
  0.368421  0.315789  0.052632     24.000000
  0.421053  0.315789  0.052632     48.000000
  0.473684  0.315789  0.052632     48.000000
 -0.473684  0.315789  0.052632     48.000000
 -0.421053  0.315789  0.052632     48.000000
 -0.368421  0.315789  0.052632     48.000000
 -0.315789  0.315789  0.052632     48.000000
 -0.263158  0.315789  0.052632     24.000000
  0.421053  0.368421  0.052632     24.000000
  0.473684  0.368421  0.052632     48.000000
 -0.473684  0.368421  0.052632     48.000000
 -0.421053  0.368421  0.052632     48.000000
 -0.368421  0.368421  0.052632     48.000000
 -0.315789  0.368421  0.052632     24.000000
  0.473684  0.421053  0.052632     24.000000
 -0.473684  0.421053  0.052632     48.000000
 -0.421053  0.421053  0.052632     48.000000
 -0.368421  0.421053  0.052632     24.000000
 -0.473684  0.473684  0.052632     24.000000
 -0.421053  0.473684  0.052632     24.000000
  0.315789  0.210526  0.105263     24.000000
  0.368421  0.210526  0.105263     48.000000
  0.421053  0.210526  0.105263     48.000000
  0.473684  0.210526  0.105263     48.000000
 -0.473684  0.210526  0.105263     48.000000
 -0.421053  0.210526  0.105263     48.000000
  0.368421  0.263158  0.105263     24.000000
  0.421053  0.263158  0.105263     48.000000
  0.473684  0.263158  0.105263     48.000000
 -0.473684  0.263158  0.105263     48.000000
 -0.421053  0.263158  0.105263     48.000000
 -0.368421  0.263158  0.105263     48.000000
 -0.315789  0.263158  0.105263     48.000000
 -0.263158  0.263158  0.105263     48.000000
 -0.210526  0.263158  0.105263     48.000000
 -0.157895  0.263158  0.105263     24.000000
  0.421053  0.315789  0.105263     24.000000
  0.473684  0.315789  0.105263     48.000000
 -0.473684  0.315789  0.105263     48.000000
 -0.421053  0.315789  0.105263     48.000000
 -0.368421  0.315789  0.105263     48.000000
 -0.315789  0.315789  0.105263     48.000000
 -0.263158  0.315789  0.105263     48.000000
 -0.210526  0.315789  0.105263     24.000000
  0.473684  0.368421  0.105263     24.000000
 -0.473684  0.368421  0.105263     48.000000
 -0.421053  0.368421  0.105263     48.000000
 -0.368421  0.368421  0.105263     48.000000
 -0.315789  0.368421  0.105263     48.000000
 -0.263158  0.368421  0.105263     24.000000
 -0.473684  0.421053  0.105263     24.000000
 -0.421053  0.421053  0.105263     48.000000
 -0.368421  0.421053  0.105263     48.000000
 -0.315789  0.421053  0.105263     24.000000
 -0.421053  0.473684  0.105263     24.000000
 -0.368421  0.473684  0.105263     24.000000
  0.473684  0.315789  0.157895     24.000000
 -0.473684  0.315789  0.157895     48.000000
 -0.421053  0.315789  0.157895     48.000000
 -0.368421  0.315789  0.157895     48.000000
 -0.473684  0.368421  0.157895     24.000000
 -0.421053  0.368421  0.157895     48.000000
 -0.368421  0.368421  0.157895     48.000000
 -0.315789  0.368421  0.157895     48.000000
 -0.263158  0.368421  0.157895     48.000000
 -0.210526  0.368421  0.157895     24.000000
 -0.421053  0.421053  0.157895     24.000000
 -0.368421  0.421053  0.157895     48.000000
 -0.315789  0.421053  0.157895     48.000000
 -0.263158  0.421053  0.157895     24.000000
 -0.368421  0.473684  0.157895     24.000000
 -0.315789  0.473684  0.157895     24.000000
 -0.368421  0.421053  0.210526     24.000000
 -0.315789  0.421053  0.210526     48.000000
 -0.315789  0.473684  0.210526     24.000000
 -0.263158  0.473684  0.210526     24.000000
 
 Following cartesian coordinates:
            Coordinates               Weight
  0.000000  0.000000  0.000000      1.000000
 -0.013051  0.013051  0.013051      8.000000
 -0.026103  0.026103  0.026103      8.000000
 -0.039154  0.039154  0.039154      8.000000
 -0.052206  0.052206  0.052206      8.000000
 -0.065257  0.065257  0.065257      8.000000
 -0.078308  0.078308  0.078308      8.000000
 -0.091360  0.091360  0.091360      8.000000
 -0.104411  0.104411  0.104411      8.000000
 -0.117463  0.117463  0.117463      8.000000
  0.000000  0.000000  0.026103      6.000000
 -0.013051  0.013051  0.039154     24.000000
 -0.026103  0.026103  0.052206     24.000000
 -0.039154  0.039154  0.065257     24.000000
 -0.052206  0.052206  0.078308     24.000000
 -0.065257  0.065257  0.091360     24.000000
 -0.078308  0.078308  0.104411     24.000000
 -0.091360  0.091360  0.117463     24.000000
 -0.104411  0.104411  0.130514     24.000000
  0.130514 -0.130514 -0.104411     24.000000
  0.117463 -0.117463 -0.091360     24.000000
  0.104411 -0.104411 -0.078308     24.000000
  0.091360 -0.091360 -0.065257     24.000000
  0.078308 -0.078308 -0.052206     24.000000
  0.065257 -0.065257 -0.039154     24.000000
  0.052206 -0.052206 -0.026103     24.000000
  0.039154 -0.039154 -0.013051     24.000000
  0.026103 -0.026103  0.000000     12.000000
  0.000000  0.000000  0.052206      6.000000
 -0.013051  0.013051  0.065257     24.000000
 -0.026103  0.026103  0.078308     24.000000
 -0.039154  0.039154  0.091360     24.000000
 -0.052206  0.052206  0.104411     24.000000
 -0.065257  0.065257  0.117463     24.000000
 -0.078308  0.078308  0.130514     24.000000
 -0.091360  0.091360  0.143565     24.000000
  0.143565 -0.143565 -0.091360     24.000000
  0.130514 -0.130514 -0.078308     24.000000
  0.117463 -0.117463 -0.065257     24.000000
  0.104411 -0.104411 -0.052206     24.000000
  0.091360 -0.091360 -0.039154     24.000000
  0.078308 -0.078308 -0.026103     24.000000
  0.065257 -0.065257 -0.013051     24.000000
  0.052206 -0.052206  0.000000     12.000000
  0.000000  0.000000  0.078308      6.000000
 -0.013051  0.013051  0.091360     24.000000
 -0.026103  0.026103  0.104411     24.000000
 -0.039154  0.039154  0.117463     24.000000
 -0.052206  0.052206  0.130514     24.000000
 -0.065257  0.065257  0.143565     24.000000
 -0.078308  0.078308  0.156617     24.000000
  0.156617 -0.156617 -0.078308     24.000000
  0.143565 -0.143565 -0.065257     24.000000
  0.130514 -0.130514 -0.052206     24.000000
  0.117463 -0.117463 -0.039154     24.000000
  0.104411 -0.104411 -0.026103     24.000000
  0.091360 -0.091360 -0.013051     24.000000
  0.078308 -0.078308  0.000000     12.000000
  0.000000  0.000000  0.104411      6.000000
 -0.013051  0.013051  0.117463     24.000000
 -0.026103  0.026103  0.130514     24.000000
 -0.039154  0.039154  0.143565     24.000000
 -0.052206  0.052206  0.156617     24.000000
 -0.065257  0.065257  0.169668     24.000000
  0.169668 -0.169668 -0.065257     24.000000
  0.156617 -0.156617 -0.052206     24.000000
  0.143565 -0.143565 -0.039154     24.000000
  0.130514 -0.130514 -0.026103     24.000000
  0.117463 -0.117463 -0.013051     24.000000
  0.104411 -0.104411  0.000000     12.000000
  0.000000  0.000000  0.130514      6.000000
 -0.013051  0.013051  0.143565     24.000000
 -0.026103  0.026103  0.156617     24.000000
 -0.039154  0.039154  0.169668     24.000000
 -0.052206  0.052206  0.182720     24.000000
  0.182720 -0.182720 -0.052206     24.000000
  0.169668 -0.169668 -0.039154     24.000000
  0.156617 -0.156617 -0.026103     24.000000
  0.143565 -0.143565 -0.013051     24.000000
  0.130514 -0.130514  0.000000     12.000000
  0.000000  0.000000  0.156617      6.000000
 -0.013051  0.013051  0.169668     24.000000
 -0.026103  0.026103  0.182720     24.000000
 -0.039154  0.039154  0.195771     24.000000
  0.195771 -0.195771 -0.039154     24.000000
  0.182720 -0.182720 -0.026103     24.000000
  0.169668 -0.169668 -0.013051     24.000000
  0.156617 -0.156617  0.000000     12.000000
  0.000000  0.000000  0.182720      6.000000
 -0.013051  0.013051  0.195771     24.000000
 -0.026103  0.026103  0.208822     24.000000
  0.208822 -0.208822 -0.026103     24.000000
  0.195771 -0.195771 -0.013051     24.000000
  0.182720 -0.182720  0.000000     12.000000
  0.000000  0.000000  0.208822      6.000000
 -0.013051  0.013051  0.221874     24.000000
  0.221874 -0.221874 -0.013051     24.000000
  0.208822 -0.208822  0.000000     12.000000
  0.000000  0.000000  0.234925      6.000000
  0.234925 -0.234925  0.000000     12.000000
  0.000000  0.026103  0.052206     24.000000
 -0.013051  0.039154  0.065257     48.000000
 -0.026103  0.052206  0.078308     48.000000
 -0.039154  0.065257  0.091360     48.000000
 -0.052206  0.078308  0.104411     48.000000
 -0.065257  0.091360  0.117463     48.000000
 -0.078308  0.104411  0.130514     48.000000
  0.156617 -0.130514 -0.104411     48.000000
  0.000000  0.026103  0.078308     24.000000
 -0.013051  0.039154  0.091360     48.000000
 -0.026103  0.052206  0.104411     48.000000
 -0.039154  0.065257  0.117463     48.000000
 -0.052206  0.078308  0.130514     48.000000
 -0.065257  0.091360  0.143565     48.000000
  0.169668 -0.143565 -0.091360     48.000000
  0.156617 -0.130514 -0.078308     48.000000
  0.143565 -0.117463 -0.065257     48.000000
  0.130514 -0.104411 -0.052206     48.000000
  0.117463 -0.091360 -0.039154     48.000000
  0.104411 -0.078308 -0.026103     48.000000
  0.091360 -0.065257 -0.013051     48.000000
  0.078308 -0.052206  0.000000     24.000000
  0.000000  0.026103  0.104411     24.000000
 -0.013051  0.039154  0.117463     48.000000
 -0.026103  0.052206  0.130514     48.000000
 -0.039154  0.065257  0.143565     48.000000
 -0.052206  0.078308  0.156617     48.000000
  0.182720 -0.156617 -0.078308     48.000000
  0.169668 -0.143565 -0.065257     48.000000
  0.156617 -0.130514 -0.052206     48.000000
  0.143565 -0.117463 -0.039154     48.000000
  0.130514 -0.104411 -0.026103     48.000000
  0.117463 -0.091360 -0.013051     48.000000
  0.104411 -0.078308  0.000000     24.000000
  0.000000  0.026103  0.130514     24.000000
 -0.013051  0.039154  0.143565     48.000000
 -0.026103  0.052206  0.156617     48.000000
 -0.039154  0.065257  0.169668     48.000000
  0.195771 -0.169668 -0.065257     48.000000
  0.182720 -0.156617 -0.052206     48.000000
  0.169668 -0.143565 -0.039154     48.000000
  0.156617 -0.130514 -0.026103     48.000000
  0.143565 -0.117463 -0.013051     48.000000
  0.130514 -0.104411  0.000000     24.000000
  0.000000  0.026103  0.156617     24.000000
 -0.013051  0.039154  0.169668     48.000000
 -0.026103  0.052206  0.182720     48.000000
  0.208822 -0.182720 -0.052206     48.000000
  0.195771 -0.169668 -0.039154     48.000000
  0.182720 -0.156617 -0.026103     48.000000
  0.169668 -0.143565 -0.013051     48.000000
  0.156617 -0.130514  0.000000     24.000000
  0.000000  0.026103  0.182720     24.000000
 -0.013051  0.039154  0.195771     48.000000
  0.221874 -0.195771 -0.039154     48.000000
  0.208822 -0.182720 -0.026103     48.000000
  0.195771 -0.169668 -0.013051     48.000000
  0.182720 -0.156617  0.000000     24.000000
  0.000000  0.026103  0.208822     24.000000
  0.234925 -0.208822 -0.026103     48.000000
  0.221874 -0.195771 -0.013051     48.000000
  0.208822 -0.182720  0.000000     24.000000
  0.247977 -0.221874 -0.013051     24.000000
  0.234925 -0.208822  0.000000     24.000000
  0.000000  0.052206  0.104411     24.000000
 -0.013051  0.065257  0.117463     48.000000
 -0.026103  0.078308  0.130514     48.000000
 -0.039154  0.091360  0.143565     48.000000
  0.195771 -0.143565 -0.091360     48.000000
  0.182720 -0.130514 -0.078308     48.000000
  0.000000  0.052206  0.130514     24.000000
 -0.013051  0.065257  0.143565     48.000000
 -0.026103  0.078308  0.156617     48.000000
  0.208822 -0.156617 -0.078308     48.000000
  0.195771 -0.143565 -0.065257     48.000000
  0.182720 -0.130514 -0.052206     48.000000
  0.169668 -0.117463 -0.039154     48.000000
  0.156617 -0.104411 -0.026103     48.000000
  0.143565 -0.091360 -0.013051     48.000000
  0.130514 -0.078308  0.000000     24.000000
  0.000000  0.052206  0.156617     24.000000
 -0.013051  0.065257  0.169668     48.000000
  0.221874 -0.169668 -0.065257     48.000000
  0.208822 -0.156617 -0.052206     48.000000
  0.195771 -0.143565 -0.039154     48.000000
  0.182720 -0.130514 -0.026103     48.000000
  0.169668 -0.117463 -0.013051     48.000000
  0.156617 -0.104411  0.000000     24.000000
  0.000000  0.052206  0.182720     24.000000
  0.234925 -0.182720 -0.052206     48.000000
  0.221874 -0.169668 -0.039154     48.000000
  0.208822 -0.156617 -0.026103     48.000000
  0.195771 -0.143565 -0.013051     48.000000
  0.182720 -0.130514  0.000000     24.000000
  0.247977 -0.195771 -0.039154     24.000000
  0.234925 -0.182720 -0.026103     48.000000
  0.221874 -0.169668 -0.013051     48.000000
  0.208822 -0.156617  0.000000     24.000000
  0.247977 -0.195771 -0.013051     24.000000
  0.234925 -0.182720  0.000000     24.000000
  0.000000  0.078308  0.156617     24.000000
  0.234925 -0.156617 -0.078308     48.000000
  0.221874 -0.143565 -0.065257     48.000000
  0.208822 -0.130514 -0.052206     48.000000
  0.247977 -0.169668 -0.065257     24.000000
  0.234925 -0.156617 -0.052206     48.000000
  0.221874 -0.143565 -0.039154     48.000000
  0.208822 -0.130514 -0.026103     48.000000
  0.195771 -0.117463 -0.013051     48.000000
  0.182720 -0.104411  0.000000     24.000000
  0.247977 -0.169668 -0.039154     24.000000
  0.234925 -0.156617 -0.026103     48.000000
  0.221874 -0.143565 -0.013051     48.000000
  0.208822 -0.130514  0.000000     24.000000
  0.247977 -0.169668 -0.013051     24.000000
  0.234925 -0.156617  0.000000     24.000000
  0.247977 -0.143565 -0.039154     24.000000
  0.234925 -0.130514 -0.026103     48.000000
  0.247977 -0.143565 -0.013051     24.000000
  0.234925 -0.130514  0.000000     24.000000
 
 TETIRR: Found    955 inequivalent tetrahedra from    41154


--------------------------------------------------------------------------------------------------------




 Dimension of arrays:
   k-points           NKPTS =    220   k-points in BZ     NKDIM =    220   number of bands    NBANDS=      6
   number of dos      NEDOS =    301   number of ions     NIONS =      1
   non local maximal  LDIM  =      4   non local SUM 2l+1 LMDIM =      8
   total plane-waves  NPLWV =  13824
   max r-space proj   IRMAX =      1   max aug-charges    IRDMAX=  33012
   dimension x,y,z NGX =    24 NGY =   24 NGZ =   24
   dimension x,y,z NGXF=    48 NGYF=   48 NGZF=   48
   support grid    NGXF=    48 NGYF=   48 NGZF=   48
   ions per type =               1
 NGX,Y,Z   is equivalent  to a cutoff of  13.99, 13.99, 13.99 a.u.
 NGXF,Y,Z  is equivalent  to a cutoff of  27.98, 27.98, 27.98 a.u.


 I would recommend the setting:
   dimension x,y,z NGX =    21 NGY =   21 NGZ =   21
 SYSTEM =  unknown system                          
 POSCAR =  Al1                                     

 Startparameter for this run:
   NWRITE =      2    write-flag & timer
   PREC   = accura    medium, high low
   ISTART =      0    job   : 0-new  1-cont  2-samecut
   ICHARG =      2    charge: 1-file 2-atom 10-const
   ISPIN  =      2    spin polarized calculation?
   LNONCOLLINEAR =      F non collinear calculations
   LSORBIT =      F    spin-orbit coupling
   INIWAV =      1    electr: 0-lowe 1-rand  2-diag
   LASPH  =      F    aspherical Exc in radial PAW
   METAGGA=      F    non-selfconsistent MetaGGA calc.

 Electronic Relaxation 1
   ENCUT  =  520.0 eV  38.22 Ry    6.18 a.u.   5.30  5.30  5.30*2*pi/ulx,y,z
   ENINI  =  520.0     initial cutoff
   ENAUG  =  291.1 eV  augmentation charge cutoff
   NELM   =    100;   NELMIN=  2; NELMDL=  0     # of ELM steps 
   EDIFF  = 0.1E-05   stopping-criterion for ELM
   LREAL  =      F    real-space projection
   LCOMPAT=      F    compatible to vasp.4.4
   LREAL_COMPAT= F    compatible to vasp.4.5.1-3
   GGA_COMPAT  = T    GGA compatible to vasp.4.4-vasp.4.6
   LMAXPAW     = -100 max onsite density
   LMAXMIX     =    2 max onsite mixed and CHGCAR
   VOSKOWN=      0    Vosko Wilk Nusair interpolation
   ROPT   =    0.00000
 Ionic relaxation
   EDIFFG = 0.1E-04   stopping-criterion for IOM
   NSW    =      0    number of steps for IOM
   NBLOCK =      1;   KBLOCK =      1    inner block; outer block 
   IBRION =     -1    ionic relax: 0-MD 1-quasi-New 2-CG
   NFREE  =      0    steps in history (QN), initial steepest desc. (CG)
   ISIF   =      3    stress and relaxation
   IWAVPR =     10    prediction:  0-non 1-charg 2-wave 3-comb
   ISYM   =      2    0-nonsym 1-usesym 2-fastsym
   LCORR  =      T    Harris-Foulkes like correction to forces

   POTIM  = 0.5000    time-step for ionic-motion
   TEIN   =    0.0    initial temperature
   TEBEG  =    0.0;   TEEND  =   0.0 temperature during run
   SMASS  =  -3.00    Nose mass-parameter (am)
   estimated Nose-frequenzy (Omega)   =  0.10E-29 period in steps =****** mass=  -0.186E-27a.u.
   NPACO  =    256;   APACO  = 16.0  distance and # of slots for P.C.
   PSTRESS=    0.0 pullay stress

  Mass of Ions in am
   POMASS =  26.98
  Ionic Valenz
   ZVAL   =   3.00
  Atomic Wigner-Seitz radii
   RWIGS  =  -1.00
   NELECT =       3.0000    total number of electrons
   NUPDOWN=      -1.0000    fix difference up-down

 DOS related values:
   EMIN   =  10.00;   EMAX   =-10.00  energy-range for DOS
   EFERMI =   0.00
   ISMEAR =    -5;   SIGMA  =   0.20  broadening in eV -4-tet -1-fermi 0-gaus

 Electronic relaxation 2 (details)
   IALGO  =     38    algorithm
   LDIAG  =      T    sub-space diagonalisation
   IMIX   =      4    mixing-type and parameters
     AMIX     =   0.40;   BMIX     =  1.00
     AMIX_MAG =   1.60;   BMIX_MAG =  1.00
     AMIN     =   0.10
     WC   =   100.;   INIMIX=   1;  MIXPRE=   1

 Intra band minimization:
   WEIMIN = 0.0000     energy-eigenvalue tresh-hold
   EBREAK =  0.50E-07  absolut break condition
   DEPER  =   0.30     relativ break condition  

   TIME   =   0.40     timestep for ELM

  volume/ion in A,a.u.               =      16.39       110.64
  Fermi-wavevector in a.u.,A,eV,Ry     =   0.929421  1.756352 11.753041  0.863824
  Thomas-Fermi vector in A             =   2.055702
 
 Write flags
   LWAVE  =      F    write WAVECAR
   LCHARG =      T    write CHGCAR
   LVTOT  =      F    write LOCPOT, local potential
   LELF   =      F    write electronic localiz. function (ELF)
   LORBIT =     11    0 simple, 1 ext, 2 COOP (PROOUT)


 Dipole corrections
   LMONO  =      F    monopole corrections only (constant potential shift)
   LDIPOL =      F    correct potential (dipole corrections)
   IDIPOL =      0    1-x, 2-y, 3-z, 4-all directions 
   EPSILON=  1.0000000 bulk dielectric constant

 Exchange correlation treatment:
   GGA     =    --    GGA type
   LEXCH   =     8    internal setting for exchange type
   VOSKOWN=      0    Vosko Wilk Nusair interpolation
   LHFCALC =     F    Hartree Fock is set to
   LHFONE  =     F    Hartree Fock one center treatment
   AEXX    =    0.0000 exact exchange contribution

 Linear response parameters
   LEPSILON=     F    determine dielectric tensor
   LRPA    =     F    only Hartree local field effects (RPA)
   LNABLA  =     F    use nabla operator in PAW spheres
   LVEL    =     F    velocity operator in full k-point grid
   LINTERFAST=   F  fast interpolation
   KINTER  =     0    interpolate to denser k-point grid
   CSHIFT  =0.1000    complex shift for real part using Kramers Kronig
   OMEGAMAX=  -1.0    maximum frequency

 Orbital magnetization related:
   ORBITALMAG=     F  switch on orbital magnetization
   LCHIMAG   =     F  perturbation theory with respect to B field



--------------------------------------------------------------------------------------------------------


 Static calculation
 charge density and potential will be updated during run
 spin polarized calculation
 Variant of blocked Davidson
 Davidson routine will perform the subspace rotation
 perform sub-space diagonalisation
    after iterative eigenvector-optimisation
 modified Broyden-mixing scheme, WC =      100.0
 initial mixing is a Kerker type mixing with AMIX =  0.4000 and BMIX =      1.0000
 Hartree-type preconditioning will be used
 using additional bands             4
 reciprocal scheme for non local part
 use partial core corrections
 calculate Harris-corrections to forces 
   (improved forces if not selfconsistent)
 use gradient corrections 
 use of overlap-Matrix (Vanderbilt PP)
 Fermi weights with tetrahedron method with Bloechl corrections


--------------------------------------------------------------------------------------------------------


  energy-cutoff  :      520.00
  volume of cell :       16.39
      direct lattice vectors                 reciprocal lattice vectors
     0.000000000  2.016319000  2.016319000    -0.247976635  0.247976635  0.247976635
     2.016319000  0.000000000  2.016319000     0.247976635 -0.247976635  0.247976635
     2.016319000  2.016319000  0.000000000     0.247976635  0.247976635 -0.247976635

  length of vectors
     2.851505676  2.851505676  2.851505676     0.429508130  0.429508130  0.429508130


 
 k-points in units of 2pi/SCALE and weight: Automatic kpoint scheme                 
   0.00000000  0.00000000  0.00000000       0.000
  -0.01305140  0.01305140  0.01305140       0.001
  -0.02610280  0.02610280  0.02610280       0.001
  -0.03915421  0.03915421  0.03915421       0.001
  -0.05220561  0.05220561  0.05220561       0.001
  -0.06525701  0.06525701  0.06525701       0.001
  -0.07830841  0.07830841  0.07830841       0.001
  -0.09135981  0.09135981  0.09135981       0.001
  -0.10441121  0.10441121  0.10441121       0.001
  -0.11746262  0.11746262  0.11746262       0.001
   0.00000000  0.00000000  0.02610280       0.001
  -0.01305140  0.01305140  0.03915421       0.003
  -0.02610280  0.02610280  0.05220561       0.003
  -0.03915421  0.03915421  0.06525701       0.003
  -0.05220561  0.05220561  0.07830841       0.003
  -0.06525701  0.06525701  0.09135981       0.003
  -0.07830841  0.07830841  0.10441121       0.003
  -0.09135981  0.09135981  0.11746262       0.003
  -0.10441121  0.10441121  0.13051402       0.003
   0.13051402 -0.13051402 -0.10441121       0.003
   0.11746262 -0.11746262 -0.09135981       0.003
   0.10441121 -0.10441121 -0.07830841       0.003
   0.09135981 -0.09135981 -0.06525701       0.003
   0.07830841 -0.07830841 -0.05220561       0.003
   0.06525701 -0.06525701 -0.03915421       0.003
   0.05220561 -0.05220561 -0.02610280       0.003
   0.03915421 -0.03915421 -0.01305140       0.003
   0.02610280 -0.02610280  0.00000000       0.002
   0.00000000  0.00000000  0.05220561       0.001
  -0.01305140  0.01305140  0.06525701       0.003
  -0.02610280  0.02610280  0.07830841       0.003
  -0.03915421  0.03915421  0.09135981       0.003
  -0.05220561  0.05220561  0.10441121       0.003
  -0.06525701  0.06525701  0.11746262       0.003
  -0.07830841  0.07830841  0.13051402       0.003
  -0.09135981  0.09135981  0.14356542       0.003
   0.14356542 -0.14356542 -0.09135981       0.003
   0.13051402 -0.13051402 -0.07830841       0.003
   0.11746262 -0.11746262 -0.06525701       0.003
   0.10441121 -0.10441121 -0.05220561       0.003
   0.09135981 -0.09135981 -0.03915421       0.003
   0.07830841 -0.07830841 -0.02610280       0.003
   0.06525701 -0.06525701 -0.01305140       0.003
   0.05220561 -0.05220561  0.00000000       0.002
   0.00000000  0.00000000  0.07830841       0.001
  -0.01305140  0.01305140  0.09135981       0.003
  -0.02610280  0.02610280  0.10441121       0.003
  -0.03915421  0.03915421  0.11746262       0.003
  -0.05220561  0.05220561  0.13051402       0.003
  -0.06525701  0.06525701  0.14356542       0.003
  -0.07830841  0.07830841  0.15661682       0.003
   0.15661682 -0.15661682 -0.07830841       0.003
   0.14356542 -0.14356542 -0.06525701       0.003
   0.13051402 -0.13051402 -0.05220561       0.003
   0.11746262 -0.11746262 -0.03915421       0.003
   0.10441121 -0.10441121 -0.02610280       0.003
   0.09135981 -0.09135981 -0.01305140       0.003
   0.07830841 -0.07830841  0.00000000       0.002
   0.00000000  0.00000000  0.10441121       0.001
  -0.01305140  0.01305140  0.11746262       0.003
  -0.02610280  0.02610280  0.13051402       0.003
  -0.03915421  0.03915421  0.14356542       0.003
  -0.05220561  0.05220561  0.15661682       0.003
  -0.06525701  0.06525701  0.16966822       0.003
   0.16966822 -0.16966822 -0.06525701       0.003
   0.15661682 -0.15661682 -0.05220561       0.003
   0.14356542 -0.14356542 -0.03915421       0.003
   0.13051402 -0.13051402 -0.02610280       0.003
   0.11746262 -0.11746262 -0.01305140       0.003
   0.10441121 -0.10441121  0.00000000       0.002
   0.00000000  0.00000000  0.13051402       0.001
  -0.01305140  0.01305140  0.14356542       0.003
  -0.02610280  0.02610280  0.15661682       0.003
  -0.03915421  0.03915421  0.16966822       0.003
  -0.05220561  0.05220561  0.18271963       0.003
   0.18271963 -0.18271963 -0.05220561       0.003
   0.16966822 -0.16966822 -0.03915421       0.003
   0.15661682 -0.15661682 -0.02610280       0.003
   0.14356542 -0.14356542 -0.01305140       0.003
   0.13051402 -0.13051402  0.00000000       0.002
   0.00000000  0.00000000  0.15661682       0.001
  -0.01305140  0.01305140  0.16966822       0.003
  -0.02610280  0.02610280  0.18271963       0.003
  -0.03915421  0.03915421  0.19577103       0.003
   0.19577103 -0.19577103 -0.03915421       0.003
   0.18271963 -0.18271963 -0.02610280       0.003
   0.16966822 -0.16966822 -0.01305140       0.003
   0.15661682 -0.15661682  0.00000000       0.002
   0.00000000  0.00000000  0.18271963       0.001
  -0.01305140  0.01305140  0.19577103       0.003
  -0.02610280  0.02610280  0.20882243       0.003
   0.20882243 -0.20882243 -0.02610280       0.003
   0.19577103 -0.19577103 -0.01305140       0.003
   0.18271963 -0.18271963  0.00000000       0.002
   0.00000000  0.00000000  0.20882243       0.001
  -0.01305140  0.01305140  0.22187383       0.003
   0.22187383 -0.22187383 -0.01305140       0.003
   0.20882243 -0.20882243  0.00000000       0.002
   0.00000000  0.00000000  0.23492523       0.001
   0.23492523 -0.23492523  0.00000000       0.002
   0.00000000  0.02610280  0.05220561       0.003
  -0.01305140  0.03915421  0.06525701       0.007
  -0.02610280  0.05220561  0.07830841       0.007
  -0.03915421  0.06525701  0.09135981       0.007
  -0.05220561  0.07830841  0.10441121       0.007
  -0.06525701  0.09135981  0.11746262       0.007
  -0.07830841  0.10441121  0.13051402       0.007
   0.15661682 -0.13051402 -0.10441121       0.007
   0.00000000  0.02610280  0.07830841       0.003
  -0.01305140  0.03915421  0.09135981       0.007
  -0.02610280  0.05220561  0.10441121       0.007
  -0.03915421  0.06525701  0.11746262       0.007
  -0.05220561  0.07830841  0.13051402       0.007
  -0.06525701  0.09135981  0.14356542       0.007
   0.16966822 -0.14356542 -0.09135981       0.007
   0.15661682 -0.13051402 -0.07830841       0.007
   0.14356542 -0.11746262 -0.06525701       0.007
   0.13051402 -0.10441121 -0.05220561       0.007
   0.11746262 -0.09135981 -0.03915421       0.007
   0.10441121 -0.07830841 -0.02610280       0.007
   0.09135981 -0.06525701 -0.01305140       0.007
   0.07830841 -0.05220561  0.00000000       0.003
   0.00000000  0.02610280  0.10441121       0.003
  -0.01305140  0.03915421  0.11746262       0.007
  -0.02610280  0.05220561  0.13051402       0.007
  -0.03915421  0.06525701  0.14356542       0.007
  -0.05220561  0.07830841  0.15661682       0.007
   0.18271963 -0.15661682 -0.07830841       0.007
   0.16966822 -0.14356542 -0.06525701       0.007
   0.15661682 -0.13051402 -0.05220561       0.007
   0.14356542 -0.11746262 -0.03915421       0.007
   0.13051402 -0.10441121 -0.02610280       0.007
   0.11746262 -0.09135981 -0.01305140       0.007
   0.10441121 -0.07830841  0.00000000       0.003
   0.00000000  0.02610280  0.13051402       0.003
  -0.01305140  0.03915421  0.14356542       0.007
  -0.02610280  0.05220561  0.15661682       0.007
  -0.03915421  0.06525701  0.16966822       0.007
   0.19577103 -0.16966822 -0.06525701       0.007
   0.18271963 -0.15661682 -0.05220561       0.007
   0.16966822 -0.14356542 -0.03915421       0.007
   0.15661682 -0.13051402 -0.02610280       0.007
   0.14356542 -0.11746262 -0.01305140       0.007
   0.13051402 -0.10441121  0.00000000       0.003
   0.00000000  0.02610280  0.15661682       0.003
  -0.01305140  0.03915421  0.16966822       0.007
  -0.02610280  0.05220561  0.18271963       0.007
   0.20882243 -0.18271963 -0.05220561       0.007
   0.19577103 -0.16966822 -0.03915421       0.007
   0.18271963 -0.15661682 -0.02610280       0.007
   0.16966822 -0.14356542 -0.01305140       0.007
   0.15661682 -0.13051402  0.00000000       0.003
   0.00000000  0.02610280  0.18271963       0.003
  -0.01305140  0.03915421  0.19577103       0.007
   0.22187383 -0.19577103 -0.03915421       0.007
   0.20882243 -0.18271963 -0.02610280       0.007
   0.19577103 -0.16966822 -0.01305140       0.007
   0.18271963 -0.15661682  0.00000000       0.003
   0.00000000  0.02610280  0.20882243       0.003
   0.23492523 -0.20882243 -0.02610280       0.007
   0.22187383 -0.19577103 -0.01305140       0.007
   0.20882243 -0.18271963  0.00000000       0.003
   0.24797663 -0.22187383 -0.01305140       0.003
   0.23492523 -0.20882243  0.00000000       0.003
   0.00000000  0.05220561  0.10441121       0.003
  -0.01305140  0.06525701  0.11746262       0.007
  -0.02610280  0.07830841  0.13051402       0.007
  -0.03915421  0.09135981  0.14356542       0.007
   0.19577103 -0.14356542 -0.09135981       0.007
   0.18271963 -0.13051402 -0.07830841       0.007
   0.00000000  0.05220561  0.13051402       0.003
  -0.01305140  0.06525701  0.14356542       0.007
  -0.02610280  0.07830841  0.15661682       0.007
   0.20882243 -0.15661682 -0.07830841       0.007
   0.19577103 -0.14356542 -0.06525701       0.007
   0.18271963 -0.13051402 -0.05220561       0.007
   0.16966822 -0.11746262 -0.03915421       0.007
   0.15661682 -0.10441121 -0.02610280       0.007
   0.14356542 -0.09135981 -0.01305140       0.007
   0.13051402 -0.07830841  0.00000000       0.003
   0.00000000  0.05220561  0.15661682       0.003
  -0.01305140  0.06525701  0.16966822       0.007
   0.22187383 -0.16966822 -0.06525701       0.007
   0.20882243 -0.15661682 -0.05220561       0.007
   0.19577103 -0.14356542 -0.03915421       0.007
   0.18271963 -0.13051402 -0.02610280       0.007
   0.16966822 -0.11746262 -0.01305140       0.007
   0.15661682 -0.10441121  0.00000000       0.003
   0.00000000  0.05220561  0.18271963       0.003
   0.23492523 -0.18271963 -0.05220561       0.007
   0.22187383 -0.16966822 -0.03915421       0.007
   0.20882243 -0.15661682 -0.02610280       0.007
   0.19577103 -0.14356542 -0.01305140       0.007
   0.18271963 -0.13051402  0.00000000       0.003
   0.24797663 -0.19577103 -0.03915421       0.003
   0.23492523 -0.18271963 -0.02610280       0.007
   0.22187383 -0.16966822 -0.01305140       0.007
   0.20882243 -0.15661682  0.00000000       0.003
   0.24797663 -0.19577103 -0.01305140       0.003
   0.23492523 -0.18271963  0.00000000       0.003
   0.00000000  0.07830841  0.15661682       0.003
   0.23492523 -0.15661682 -0.07830841       0.007
   0.22187383 -0.14356542 -0.06525701       0.007
   0.20882243 -0.13051402 -0.05220561       0.007
   0.24797663 -0.16966822 -0.06525701       0.003
   0.23492523 -0.15661682 -0.05220561       0.007
   0.22187383 -0.14356542 -0.03915421       0.007
   0.20882243 -0.13051402 -0.02610280       0.007
   0.19577103 -0.11746262 -0.01305140       0.007
   0.18271963 -0.10441121  0.00000000       0.003
   0.24797663 -0.16966822 -0.03915421       0.003
   0.23492523 -0.15661682 -0.02610280       0.007
   0.22187383 -0.14356542 -0.01305140       0.007
   0.20882243 -0.13051402  0.00000000       0.003
   0.24797663 -0.16966822 -0.01305140       0.003
   0.23492523 -0.15661682  0.00000000       0.003
   0.24797663 -0.14356542 -0.03915421       0.003
   0.23492523 -0.13051402 -0.02610280       0.007
   0.24797663 -0.14356542 -0.01305140       0.003
   0.23492523 -0.13051402  0.00000000       0.003
 
 k-points in reciprocal lattice and weights: Automatic kpoint scheme                 
   0.00000000  0.00000000  0.00000000       0.000
   0.05263158  0.00000000  0.00000000       0.001
   0.10526316  0.00000000  0.00000000       0.001
   0.15789474  0.00000000  0.00000000       0.001
   0.21052632  0.00000000  0.00000000       0.001
   0.26315789  0.00000000  0.00000000       0.001
   0.31578947  0.00000000  0.00000000       0.001
   0.36842105  0.00000000  0.00000000       0.001
   0.42105263  0.00000000  0.00000000       0.001
   0.47368421  0.00000000  0.00000000       0.001
   0.05263158  0.05263158  0.00000000       0.001
   0.10526316  0.05263158  0.00000000       0.003
   0.15789474  0.05263158  0.00000000       0.003
   0.21052632  0.05263158  0.00000000       0.003
   0.26315789  0.05263158  0.00000000       0.003
   0.31578947  0.05263158  0.00000000       0.003
   0.36842105  0.05263158  0.00000000       0.003
   0.42105263  0.05263158  0.00000000       0.003
   0.47368421  0.05263158  0.00000000       0.003
  -0.47368421  0.05263158  0.00000000       0.003
  -0.42105263  0.05263158  0.00000000       0.003
  -0.36842105  0.05263158  0.00000000       0.003
  -0.31578947  0.05263158  0.00000000       0.003
  -0.26315789  0.05263158  0.00000000       0.003
  -0.21052632  0.05263158  0.00000000       0.003
  -0.15789474  0.05263158  0.00000000       0.003
  -0.10526316  0.05263158  0.00000000       0.003
  -0.05263158  0.05263158  0.00000000       0.002
   0.10526316  0.10526316  0.00000000       0.001
   0.15789474  0.10526316  0.00000000       0.003
   0.21052632  0.10526316  0.00000000       0.003
   0.26315789  0.10526316  0.00000000       0.003
   0.31578947  0.10526316  0.00000000       0.003
   0.36842105  0.10526316  0.00000000       0.003
   0.42105263  0.10526316  0.00000000       0.003
   0.47368421  0.10526316  0.00000000       0.003
  -0.47368421  0.10526316  0.00000000       0.003
  -0.42105263  0.10526316  0.00000000       0.003
  -0.36842105  0.10526316  0.00000000       0.003
  -0.31578947  0.10526316  0.00000000       0.003
  -0.26315789  0.10526316  0.00000000       0.003
  -0.21052632  0.10526316  0.00000000       0.003
  -0.15789474  0.10526316  0.00000000       0.003
  -0.10526316  0.10526316  0.00000000       0.002
   0.15789474  0.15789474  0.00000000       0.001
   0.21052632  0.15789474  0.00000000       0.003
   0.26315789  0.15789474  0.00000000       0.003
   0.31578947  0.15789474  0.00000000       0.003
   0.36842105  0.15789474  0.00000000       0.003
   0.42105263  0.15789474  0.00000000       0.003
   0.47368421  0.15789474  0.00000000       0.003
  -0.47368421  0.15789474  0.00000000       0.003
  -0.42105263  0.15789474  0.00000000       0.003
  -0.36842105  0.15789474  0.00000000       0.003
  -0.31578947  0.15789474  0.00000000       0.003
  -0.26315789  0.15789474  0.00000000       0.003
  -0.21052632  0.15789474  0.00000000       0.003
  -0.15789474  0.15789474  0.00000000       0.002
   0.21052632  0.21052632  0.00000000       0.001
   0.26315789  0.21052632  0.00000000       0.003
   0.31578947  0.21052632  0.00000000       0.003
   0.36842105  0.21052632  0.00000000       0.003
   0.42105263  0.21052632  0.00000000       0.003
   0.47368421  0.21052632  0.00000000       0.003
  -0.47368421  0.21052632  0.00000000       0.003
  -0.42105263  0.21052632  0.00000000       0.003
  -0.36842105  0.21052632  0.00000000       0.003
  -0.31578947  0.21052632  0.00000000       0.003
  -0.26315789  0.21052632  0.00000000       0.003
  -0.21052632  0.21052632  0.00000000       0.002
   0.26315789  0.26315789  0.00000000       0.001
   0.31578947  0.26315789  0.00000000       0.003
   0.36842105  0.26315789  0.00000000       0.003
   0.42105263  0.26315789  0.00000000       0.003
   0.47368421  0.26315789  0.00000000       0.003
  -0.47368421  0.26315789  0.00000000       0.003
  -0.42105263  0.26315789  0.00000000       0.003
  -0.36842105  0.26315789  0.00000000       0.003
  -0.31578947  0.26315789  0.00000000       0.003
  -0.26315789  0.26315789  0.00000000       0.002
   0.31578947  0.31578947  0.00000000       0.001
   0.36842105  0.31578947  0.00000000       0.003
   0.42105263  0.31578947  0.00000000       0.003
   0.47368421  0.31578947  0.00000000       0.003
  -0.47368421  0.31578947  0.00000000       0.003
  -0.42105263  0.31578947  0.00000000       0.003
  -0.36842105  0.31578947  0.00000000       0.003
  -0.31578947  0.31578947  0.00000000       0.002
   0.36842105  0.36842105  0.00000000       0.001
   0.42105263  0.36842105  0.00000000       0.003
   0.47368421  0.36842105  0.00000000       0.003
  -0.47368421  0.36842105  0.00000000       0.003
  -0.42105263  0.36842105  0.00000000       0.003
  -0.36842105  0.36842105  0.00000000       0.002
   0.42105263  0.42105263  0.00000000       0.001
   0.47368421  0.42105263  0.00000000       0.003
  -0.47368421  0.42105263  0.00000000       0.003
  -0.42105263  0.42105263  0.00000000       0.002
   0.47368421  0.47368421  0.00000000       0.001
  -0.47368421  0.47368421  0.00000000       0.002
   0.15789474  0.10526316  0.05263158       0.003
   0.21052632  0.10526316  0.05263158       0.007
   0.26315789  0.10526316  0.05263158       0.007
   0.31578947  0.10526316  0.05263158       0.007
   0.36842105  0.10526316  0.05263158       0.007
   0.42105263  0.10526316  0.05263158       0.007
   0.47368421  0.10526316  0.05263158       0.007
  -0.47368421  0.10526316  0.05263158       0.007
   0.21052632  0.15789474  0.05263158       0.003
   0.26315789  0.15789474  0.05263158       0.007
   0.31578947  0.15789474  0.05263158       0.007
   0.36842105  0.15789474  0.05263158       0.007
   0.42105263  0.15789474  0.05263158       0.007
   0.47368421  0.15789474  0.05263158       0.007
  -0.47368421  0.15789474  0.05263158       0.007
  -0.42105263  0.15789474  0.05263158       0.007
  -0.36842105  0.15789474  0.05263158       0.007
  -0.31578947  0.15789474  0.05263158       0.007
  -0.26315789  0.15789474  0.05263158       0.007
  -0.21052632  0.15789474  0.05263158       0.007
  -0.15789474  0.15789474  0.05263158       0.007
  -0.10526316  0.15789474  0.05263158       0.003
   0.26315789  0.21052632  0.05263158       0.003
   0.31578947  0.21052632  0.05263158       0.007
   0.36842105  0.21052632  0.05263158       0.007
   0.42105263  0.21052632  0.05263158       0.007
   0.47368421  0.21052632  0.05263158       0.007
  -0.47368421  0.21052632  0.05263158       0.007
  -0.42105263  0.21052632  0.05263158       0.007
  -0.36842105  0.21052632  0.05263158       0.007
  -0.31578947  0.21052632  0.05263158       0.007
  -0.26315789  0.21052632  0.05263158       0.007
  -0.21052632  0.21052632  0.05263158       0.007
  -0.15789474  0.21052632  0.05263158       0.003
   0.31578947  0.26315789  0.05263158       0.003
   0.36842105  0.26315789  0.05263158       0.007
   0.42105263  0.26315789  0.05263158       0.007
   0.47368421  0.26315789  0.05263158       0.007
  -0.47368421  0.26315789  0.05263158       0.007
  -0.42105263  0.26315789  0.05263158       0.007
  -0.36842105  0.26315789  0.05263158       0.007
  -0.31578947  0.26315789  0.05263158       0.007
  -0.26315789  0.26315789  0.05263158       0.007
  -0.21052632  0.26315789  0.05263158       0.003
   0.36842105  0.31578947  0.05263158       0.003
   0.42105263  0.31578947  0.05263158       0.007
   0.47368421  0.31578947  0.05263158       0.007
  -0.47368421  0.31578947  0.05263158       0.007
  -0.42105263  0.31578947  0.05263158       0.007
  -0.36842105  0.31578947  0.05263158       0.007
  -0.31578947  0.31578947  0.05263158       0.007
  -0.26315789  0.31578947  0.05263158       0.003
   0.42105263  0.36842105  0.05263158       0.003
   0.47368421  0.36842105  0.05263158       0.007
  -0.47368421  0.36842105  0.05263158       0.007
  -0.42105263  0.36842105  0.05263158       0.007
  -0.36842105  0.36842105  0.05263158       0.007
  -0.31578947  0.36842105  0.05263158       0.003
   0.47368421  0.42105263  0.05263158       0.003
  -0.47368421  0.42105263  0.05263158       0.007
  -0.42105263  0.42105263  0.05263158       0.007
  -0.36842105  0.42105263  0.05263158       0.003
  -0.47368421  0.47368421  0.05263158       0.003
  -0.42105263  0.47368421  0.05263158       0.003
   0.31578947  0.21052632  0.10526316       0.003
   0.36842105  0.21052632  0.10526316       0.007
   0.42105263  0.21052632  0.10526316       0.007
   0.47368421  0.21052632  0.10526316       0.007
  -0.47368421  0.21052632  0.10526316       0.007
  -0.42105263  0.21052632  0.10526316       0.007
   0.36842105  0.26315789  0.10526316       0.003
   0.42105263  0.26315789  0.10526316       0.007
   0.47368421  0.26315789  0.10526316       0.007
  -0.47368421  0.26315789  0.10526316       0.007
  -0.42105263  0.26315789  0.10526316       0.007
  -0.36842105  0.26315789  0.10526316       0.007
  -0.31578947  0.26315789  0.10526316       0.007
  -0.26315789  0.26315789  0.10526316       0.007
  -0.21052632  0.26315789  0.10526316       0.007
  -0.15789474  0.26315789  0.10526316       0.003
   0.42105263  0.31578947  0.10526316       0.003
   0.47368421  0.31578947  0.10526316       0.007
  -0.47368421  0.31578947  0.10526316       0.007
  -0.42105263  0.31578947  0.10526316       0.007
  -0.36842105  0.31578947  0.10526316       0.007
  -0.31578947  0.31578947  0.10526316       0.007
  -0.26315789  0.31578947  0.10526316       0.007
  -0.21052632  0.31578947  0.10526316       0.003
   0.47368421  0.36842105  0.10526316       0.003
  -0.47368421  0.36842105  0.10526316       0.007
  -0.42105263  0.36842105  0.10526316       0.007
  -0.36842105  0.36842105  0.10526316       0.007
  -0.31578947  0.36842105  0.10526316       0.007
  -0.26315789  0.36842105  0.10526316       0.003
  -0.47368421  0.42105263  0.10526316       0.003
  -0.42105263  0.42105263  0.10526316       0.007
  -0.36842105  0.42105263  0.10526316       0.007
  -0.31578947  0.42105263  0.10526316       0.003
  -0.42105263  0.47368421  0.10526316       0.003
  -0.36842105  0.47368421  0.10526316       0.003
   0.47368421  0.31578947  0.15789474       0.003
  -0.47368421  0.31578947  0.15789474       0.007
  -0.42105263  0.31578947  0.15789474       0.007
  -0.36842105  0.31578947  0.15789474       0.007
  -0.47368421  0.36842105  0.15789474       0.003
  -0.42105263  0.36842105  0.15789474       0.007
  -0.36842105  0.36842105  0.15789474       0.007
  -0.31578947  0.36842105  0.15789474       0.007
  -0.26315789  0.36842105  0.15789474       0.007
  -0.21052632  0.36842105  0.15789474       0.003
  -0.42105263  0.42105263  0.15789474       0.003
  -0.36842105  0.42105263  0.15789474       0.007
  -0.31578947  0.42105263  0.15789474       0.007
  -0.26315789  0.42105263  0.15789474       0.003
  -0.36842105  0.47368421  0.15789474       0.003
  -0.31578947  0.47368421  0.15789474       0.003
  -0.36842105  0.42105263  0.21052632       0.003
  -0.31578947  0.42105263  0.21052632       0.007
  -0.31578947  0.47368421  0.21052632       0.003
  -0.26315789  0.47368421  0.21052632       0.003
 
 position of ions in fractional coordinates (direct lattice) 
   0.00000000  0.00000000  0.00000000
 
 position of ions in cartesian coordinates  (Angst):
   0.00000000  0.00000000  0.00000000
 


--------------------------------------------------------------------------------------------------------


 k-point  1 :  0.00000.00000.0000  plane waves:     459
 k-point  2 :  0.05260.00000.0000  plane waves:     441
 k-point  3 :  0.10530.00000.0000  plane waves:     441
 k-point  4 :  0.15790.00000.0000  plane waves:     450
 k-point  5 :  0.21050.00000.0000  plane waves:     453
 k-point  6 :  0.26320.00000.0000  plane waves:     450
 k-point  7 :  0.31580.00000.0000  plane waves:     438
 k-point  8 :  0.36840.00000.0000  plane waves:     431
 k-point  9 :  0.42110.00000.0000  plane waves:     431
 k-point 10 :  0.47370.00000.0000  plane waves:     434
 k-point 11 :  0.05260.05260.0000  plane waves:     435
 k-point 12 :  0.10530.05260.0000  plane waves:     435
 k-point 13 :  0.15790.05260.0000  plane waves:     446
 k-point 14 :  0.21050.05260.0000  plane waves:     450
 k-point 15 :  0.26320.05260.0000  plane waves:     445
 k-point 16 :  0.31580.05260.0000  plane waves:     438
 k-point 17 :  0.36840.05260.0000  plane waves:     441
 k-point 18 :  0.42110.05260.0000  plane waves:     436
 k-point 19 :  0.47370.05260.0000  plane waves:     447
 k-point 20 :  -.47370.05260.0000  plane waves:     443
 k-point 21 :  -.42110.05260.0000  plane waves:     441
 k-point 22 :  -.36840.05260.0000  plane waves:     439
 k-point 23 :  -.31580.05260.0000  plane waves:     439
 k-point 24 :  -.26320.05260.0000  plane waves:     443
 k-point 25 :  -.21050.05260.0000  plane waves:     448
 k-point 26 :  -.15790.05260.0000  plane waves:     447
 k-point 27 :  -.10530.05260.0000  plane waves:     447
 k-point 28 :  -.05260.05260.0000  plane waves:     435
 k-point 29 :  0.10530.10530.0000  plane waves:     443
 k-point 30 :  0.15790.10530.0000  plane waves:     447
 k-point 31 :  0.21050.10530.0000  plane waves:     450
 k-point 32 :  0.26320.10530.0000  plane waves:     447
 k-point 33 :  0.31580.10530.0000  plane waves:     441
 k-point 34 :  0.36840.10530.0000  plane waves:     440
 k-point 35 :  0.42110.10530.0000  plane waves:     438
 k-point 36 :  0.47370.10530.0000  plane waves:     441
 k-point 37 :  -.47370.10530.0000  plane waves:     445
 k-point 38 :  -.42110.10530.0000  plane waves:     443
 k-point 39 :  -.36840.10530.0000  plane waves:     439
 k-point 40 :  -.31580.10530.0000  plane waves:     442
 k-point 41 :  -.26320.10530.0000  plane waves:     445
 k-point 42 :  -.21050.10530.0000  plane waves:     449
 k-point 43 :  -.15790.10530.0000  plane waves:     447
 k-point 44 :  -.10530.10530.0000  plane waves:     447
 k-point 45 :  0.15790.15790.0000  plane waves:     451
 k-point 46 :  0.21050.15790.0000  plane waves:     447
 k-point 47 :  0.26320.15790.0000  plane waves:     440
 k-point 48 :  0.31580.15790.0000  plane waves:     442
 k-point 49 :  0.36840.15790.0000  plane waves:     444
 k-point 50 :  0.42110.15790.0000  plane waves:     444
 k-point 51 :  0.47370.15790.0000  plane waves:     440
 k-point 52 :  -.47370.15790.0000  plane waves:     440
 k-point 53 :  -.42110.15790.0000  plane waves:     445
 k-point 54 :  -.36840.15790.0000  plane waves:     443
 k-point 55 :  -.31580.15790.0000  plane waves:     438
 k-point 56 :  -.26320.15790.0000  plane waves:     443
 k-point 57 :  -.21050.15790.0000  plane waves:     441
 k-point 58 :  -.15790.15790.0000  plane waves:     445
 k-point 59 :  0.21050.21050.0000  plane waves:     443
 k-point 60 :  0.26320.21050.0000  plane waves:     442
 k-point 61 :  0.31580.21050.0000  plane waves:     445
 k-point 62 :  0.36840.21050.0000  plane waves:     447
 k-point 63 :  0.42110.21050.0000  plane waves:     442
 k-point 64 :  0.47370.21050.0000  plane waves:     443
 k-point 65 :  -.47370.21050.0000  plane waves:     442
 k-point 66 :  -.42110.21050.0000  plane waves:     443
 k-point 67 :  -.36840.21050.0000  plane waves:     440
 k-point 68 :  -.31580.21050.0000  plane waves:     438
 k-point 69 :  -.26320.21050.0000  plane waves:     436
 k-point 70 :  -.21050.21050.0000  plane waves:     441
 k-point 71 :  0.26320.26320.0000  plane waves:     444
 k-point 72 :  0.31580.26320.0000  plane waves:     439
 k-point 73 :  0.36840.26320.0000  plane waves:     443
 k-point 74 :  0.42110.26320.0000  plane waves:     443
 k-point 75 :  0.47370.26320.0000  plane waves:     440
 k-point 76 :  -.47370.26320.0000  plane waves:     442
 k-point 77 :  -.42110.26320.0000  plane waves:     443
 k-point 78 :  -.36840.26320.0000  plane waves:     443
 k-point 79 :  -.31580.26320.0000  plane waves:     437
 k-point 80 :  -.26320.26320.0000  plane waves:     437
 k-point 81 :  0.31580.31580.0000  plane waves:     444
 k-point 82 :  0.36840.31580.0000  plane waves:     443
 k-point 83 :  0.42110.31580.0000  plane waves:     442
 k-point 84 :  0.47370.31580.0000  plane waves:     440
 k-point 85 :  -.47370.31580.0000  plane waves:     442
 k-point 86 :  -.42110.31580.0000  plane waves:     442
 k-point 87 :  -.36840.31580.0000  plane waves:     443
 k-point 88 :  -.31580.31580.0000  plane waves:     443
 k-point 89 :  0.36840.36840.0000  plane waves:     444
 k-point 90 :  0.42110.36840.0000  plane waves:     449
 k-point 91 :  0.47370.36840.0000  plane waves:     449
 k-point 92 :  -.47370.36840.0000  plane waves:     444
 k-point 93 :  -.42110.36840.0000  plane waves:     435
 k-point 94 :  -.36840.36840.0000  plane waves:     440
 k-point 95 :  0.42110.42110.0000  plane waves:     452
 k-point 96 :  0.47370.42110.0000  plane waves:     451
 k-point 97 :  -.47370.42110.0000  plane waves:     448
 k-point 98 :  -.42110.42110.0000  plane waves:     444
 k-point 99 :  0.47370.47370.0000  plane waves:     444
 k-point ** :  -.47370.47370.0000  plane waves:     446
 k-point ** :  0.15790.10530.0526  plane waves:     443
 k-point ** :  0.21050.10530.0526  plane waves:     449
 k-point ** :  0.26320.10530.0526  plane waves:     454
 k-point ** :  0.31580.10530.0526  plane waves:     447
 k-point ** :  0.36840.10530.0526  plane waves:     444
 k-point ** :  0.42110.10530.0526  plane waves:     440
 k-point ** :  0.47370.10530.0526  plane waves:     441
 k-point ** :  -.47370.10530.0526  plane waves:     440
 k-point ** :  0.21050.15790.0526  plane waves:     452
 k-point ** :  0.26320.15790.0526  plane waves:     448
 k-point ** :  0.31580.15790.0526  plane waves:     444
 k-point ** :  0.36840.15790.0526  plane waves:     439
 k-point ** :  0.42110.15790.0526  plane waves:     441
 k-point ** :  0.47370.15790.0526  plane waves:     438
 k-point ** :  -.47370.15790.0526  plane waves:     440
 k-point ** :  -.42110.15790.0526  plane waves:     442
 k-point ** :  -.36840.15790.0526  plane waves:     443
 k-point ** :  -.31580.15790.0526  plane waves:     437
 k-point ** :  -.26320.15790.0526  plane waves:     440
 k-point ** :  -.21050.15790.0526  plane waves:     441
 k-point ** :  -.15790.15790.0526  plane waves:     451
 k-point ** :  -.10530.15790.0526  plane waves:     451
 k-point ** :  0.26320.21050.0526  plane waves:     444
 k-point ** :  0.31580.21050.0526  plane waves:     443
 k-point ** :  0.36840.21050.0526  plane waves:     445
 k-point ** :  0.42110.21050.0526  plane waves:     441
 k-point ** :  0.47370.21050.0526  plane waves:     440
 k-point ** :  -.47370.21050.0526  plane waves:     438
 k-point ** :  -.42110.21050.0526  plane waves:     439
 k-point ** :  -.36840.21050.0526  plane waves:     439
 k-point ** :  -.31580.21050.0526  plane waves:     439
 k-point ** :  -.26320.21050.0526  plane waves:     437
 k-point ** :  -.21050.21050.0526  plane waves:     439
 k-point ** :  -.15790.21050.0526  plane waves:     445
 k-point ** :  0.31580.26320.0526  plane waves:     441
 k-point ** :  0.36840.26320.0526  plane waves:     441
 k-point ** :  0.42110.26320.0526  plane waves:     444
 k-point ** :  0.47370.26320.0526  plane waves:     439
 k-point ** :  -.47370.26320.0526  plane waves:     440
 k-point ** :  -.42110.26320.0526  plane waves:     441
 k-point ** :  -.36840.26320.0526  plane waves:     440
 k-point ** :  -.31580.26320.0526  plane waves:     436
 k-point ** :  -.26320.26320.0526  plane waves:     434
 k-point ** :  -.21050.26320.0526  plane waves:     438
 k-point ** :  0.36840.31580.0526  plane waves:     441
 k-point ** :  0.42110.31580.0526  plane waves:     441
 k-point ** :  0.47370.31580.0526  plane waves:     440
 k-point ** :  -.47370.31580.0526  plane waves:     442
 k-point ** :  -.42110.31580.0526  plane waves:     440
 k-point ** :  -.36840.31580.0526  plane waves:     444
 k-point ** :  -.31580.31580.0526  plane waves:     442
 k-point ** :  -.26320.31580.0526  plane waves:     436
 k-point ** :  0.42110.36840.0526  plane waves:     442
 k-point ** :  0.47370.36840.0526  plane waves:     446
 k-point ** :  -.47370.36840.0526  plane waves:     444
 k-point ** :  -.42110.36840.0526  plane waves:     441
 k-point ** :  -.36840.36840.0526  plane waves:     440
 k-point ** :  -.31580.36840.0526  plane waves:     440
 k-point ** :  0.47370.42110.0526  plane waves:     448
 k-point ** :  -.47370.42110.0526  plane waves:     447
 k-point ** :  -.42110.42110.0526  plane waves:     443
 k-point ** :  -.36840.42110.0526  plane waves:     437
 k-point ** :  -.47370.47370.0526  plane waves:     448
 k-point ** :  -.42110.47370.0526  plane waves:     450
 k-point ** :  0.31580.21050.1053  plane waves:     441
 k-point ** :  0.36840.21050.1053  plane waves:     444
 k-point ** :  0.42110.21050.1053  plane waves:     440
 k-point ** :  0.47370.21050.1053  plane waves:     438
 k-point ** :  -.47370.21050.1053  plane waves:     438
 k-point ** :  -.42110.21050.1053  plane waves:     440
 k-point ** :  0.36840.26320.1053  plane waves:     445
 k-point ** :  0.42110.26320.1053  plane waves:     444
 k-point ** :  0.47370.26320.1053  plane waves:     440
 k-point ** :  -.47370.26320.1053  plane waves:     442
 k-point ** :  -.42110.26320.1053  plane waves:     441
 k-point ** :  -.36840.26320.1053  plane waves:     436
 k-point ** :  -.31580.26320.1053  plane waves:     435
 k-point ** :  -.26320.26320.1053  plane waves:     437
 k-point ** :  -.21050.26320.1053  plane waves:     437
 k-point ** :  -.15790.26320.1053  plane waves:     444
 k-point ** :  0.42110.31580.1053  plane waves:     443
 k-point ** :  0.47370.31580.1053  plane waves:     441
 k-point ** :  -.47370.31580.1053  plane waves:     441
 k-point ** :  -.42110.31580.1053  plane waves:     438
 k-point ** :  -.36840.31580.1053  plane waves:     438
 k-point ** :  -.31580.31580.1053  plane waves:     436
 k-point ** :  -.26320.31580.1053  plane waves:     433
 k-point ** :  -.21050.31580.1053  plane waves:     437
 k-point ** :  0.47370.36840.1053  plane waves:     446
 k-point ** :  -.47370.36840.1053  plane waves:     438
 k-point ** :  -.42110.36840.1053  plane waves:     439
 k-point ** :  -.36840.36840.1053  plane waves:     441
 k-point ** :  -.31580.36840.1053  plane waves:     441
 k-point ** :  -.26320.36840.1053  plane waves:     438
 k-point ** :  -.47370.42110.1053  plane waves:     444
 k-point ** :  -.42110.42110.1053  plane waves:     441
 k-point ** :  -.36840.42110.1053  plane waves:     442
 k-point ** :  -.31580.42110.1053  plane waves:     439
 k-point ** :  -.42110.47370.1053  plane waves:     446
 k-point ** :  -.36840.47370.1053  plane waves:     445
 k-point ** :  0.47370.31580.1579  plane waves:     435
 k-point ** :  -.47370.31580.1579  plane waves:     442
 k-point ** :  -.42110.31580.1579  plane waves:     439
 k-point ** :  -.36840.31580.1579  plane waves:     436
 k-point ** :  -.47370.36840.1579  plane waves:     438
 k-point ** :  -.42110.36840.1579  plane waves:     441
 k-point ** :  -.36840.36840.1579  plane waves:     438
 k-point ** :  -.31580.36840.1579  plane waves:     440
 k-point ** :  -.26320.36840.1579  plane waves:     439
 k-point ** :  -.21050.36840.1579  plane waves:     440
 k-point ** :  -.42110.42110.1579  plane waves:     440
 k-point ** :  -.36840.42110.1579  plane waves:     439
 k-point ** :  -.31580.42110.1579  plane waves:     439
 k-point ** :  -.26320.42110.1579  plane waves:     442
 k-point ** :  -.36840.47370.1579  plane waves:     440
 k-point ** :  -.31580.47370.1579  plane waves:     439
 k-point ** :  -.36840.42110.2105  plane waves:     442
 k-point ** :  -.31580.42110.2105  plane waves:     442
 k-point ** :  -.31580.47370.2105  plane waves:     441
 k-point ** :  -.26320.47370.2105  plane waves:     444

 maximum and minimum number of plane-waves per node :      35     21

 maximum number of plane-waves:     459
 maximal index in each direction: 
   IXMAX=  5   IYMAX=  5   IZMAX=  5
   IXMIN= -5   IYMIN= -5   IZMIN= -5

 NGX is ok and might be reduce to  22
 NGY is ok and might be reduce to  22
 NGZ is ok and might be reduce to  22

 parallel 3D FFT for wavefunctions:
    minimum data exchange during FFTs selected (reduces bandwidth)
 parallel 3D FFT for charge:
    minimum data exchange during FFTs selected (reduces bandwidth)


 total amount of memory used by VASP on root node  33617. kBytes
========================================================================

   base      :    30000. kBytes
   nonl-proj :      451. kBytes
   fftplans  :      185. kBytes
   grid      :     2131. kBytes
   one-center:        6. kBytes
   wavefun   :      844. kBytes
 
 Broyden mixing: mesh for mixing (old mesh)
   NGX = 11   NGY = 11   NGZ = 11
  (NGX  = 48   NGY  = 48   NGZ  = 48)
  gives a total of   1331 points

 initial charge density was supplied:
 charge density of overlapping atoms calculated
 number of electron    3.0000000 magnetization    0.6000000
 keeping initial charge density in first step


--------------------------------------------------------------------------------------------------------


 Maximum index for augmentation-charges          1603 (set IRDMAX)


--------------------------------------------------------------------------------------------------------


 First call to EWALD:  gamma=   0.698
 Maximum number of real-space cells 3x 3x 3
 Maximum number of reciprocal cells 3x 3x 3

    FEWALD:  cpu time    0.00: real time    0.00
   RESPFUN:  cpu time    0.00: real time    0.00


----------------------------------------- Iteration    1(   1)  ---------------------------------------


    POTLOK:  cpu time    0.19: real time    0.22
    SETDIJ:  cpu time    0.01: real time    0.02
     EDDAV:  cpu time    3.31: real time    3.39
 BZINTS: Fermi energy:  9.578122;  3.000000 electrons
         Band energy:  12.818451;  BLOECHL correction: -0.111649
       DOS:  cpu time    0.03: real time    0.03
    --------------------------------------------
      LOOP:  cpu time    3.54: real time    3.66

 eigenvalue-minimisations  :  5364
 total energy-change (2. order) :-0.1839857E+01  (-0.8490176E+02)
 number of electron    3.0000000 magnetization    0.6000000
 augmentation part     3.0000000 magnetization    0.6000000

 Free energy of the ion-electron system (eV)
  ---------------------------------------------------
  alpha Z        PSCENC =        -0.20486981
  Ewald energy   TEWEN  =       -73.67253674
  -1/2 Hartree   DENC   =        -0.09905503
  -exchange  EXHF       =         0.00000000
  -V(xc)+E(xc)   XCENC  =       -26.17475841
  PAW double counting   =        35.53514605       -3.58069100
  entropy T*S    EENTRO =         0.00000000
  eigenvalues    EBANDS =        12.81845108
  atomic energy  EATOM  =        53.53845706
  ---------------------------------------------------
  free energy    TOTEN  =        -1.83985680 eV

  energy without entropy =       -1.83985680  energy(sigma->0) =       -1.83985680


--------------------------------------------------------------------------------------------------------




----------------------------------------- Iteration    1(   2)  ---------------------------------------


     EDDAV:  cpu time    3.90: real time    3.90
 BZINTS: Fermi energy:  8.133411;  3.000000 electrons
         Band energy:  10.991366;  BLOECHL correction: -0.045115
       DOS:  cpu time    0.02: real time    0.02
    --------------------------------------------
      LOOP:  cpu time    3.92: real time    3.92

 eigenvalue-minimisations  :  6840
 total energy-change (2. order) :-0.1827085E+01  (-0.1781267E+01)
 number of electron    3.0000000 magnetization    0.6000000
 augmentation part     3.0000000 magnetization    0.6000000

 Free energy of the ion-electron system (eV)
  ---------------------------------------------------
  alpha Z        PSCENC =        -0.20486981
  Ewald energy   TEWEN  =       -73.67253674
  -1/2 Hartree   DENC   =        -0.09905503
  -exchange  EXHF       =         0.00000000
  -V(xc)+E(xc)   XCENC  =       -26.17475841
  PAW double counting   =        35.53514605       -3.58069100
  entropy T*S    EENTRO =         0.00000000
  eigenvalues    EBANDS =        10.99136572
  atomic energy  EATOM  =        53.53845706
  ---------------------------------------------------
  free energy    TOTEN  =        -3.66694216 eV

  energy without entropy =       -3.66694216  energy(sigma->0) =       -3.66694216


--------------------------------------------------------------------------------------------------------




----------------------------------------- Iteration    1(   3)  ---------------------------------------


     EDDAV:  cpu time    4.01: real time    4.01
 BZINTS: Fermi energy:  8.120605;  3.000000 electrons
         Band energy:  10.976373;  BLOECHL correction: -0.044931
       DOS:  cpu time    0.02: real time    0.02
    --------------------------------------------
      LOOP:  cpu time    4.03: real time    4.04

 eigenvalue-minimisations  :  7050
 total energy-change (2. order) :-0.1499319E-01  (-0.1501025E-01)
 number of electron    3.0000000 magnetization    0.6000000
 augmentation part     3.0000000 magnetization    0.6000000

 Free energy of the ion-electron system (eV)
  ---------------------------------------------------
  alpha Z        PSCENC =        -0.20486981
  Ewald energy   TEWEN  =       -73.67253674
  -1/2 Hartree   DENC   =        -0.09905503
  -exchange  EXHF       =         0.00000000
  -V(xc)+E(xc)   XCENC  =       -26.17475841
  PAW double counting   =        35.53514605       -3.58069100
  entropy T*S    EENTRO =         0.00000000
  eigenvalues    EBANDS =        10.97637253
  atomic energy  EATOM  =        53.53845706
  ---------------------------------------------------
  free energy    TOTEN  =        -3.68193534 eV

  energy without entropy =       -3.68193534  energy(sigma->0) =       -3.68193534


--------------------------------------------------------------------------------------------------------




----------------------------------------- Iteration    1(   4)  ---------------------------------------


     EDDAV:  cpu time    4.04: real time    4.04
 BZINTS: Fermi energy:  8.120565;  3.000000 electrons
         Band energy:  10.976334;  BLOECHL correction: -0.044930
       DOS:  cpu time    0.02: real time    0.02
    --------------------------------------------
      LOOP:  cpu time    4.06: real time    4.07

 eigenvalue-minimisations  :  7044
 total energy-change (2. order) :-0.3812864E-04  (-0.3835956E-04)
 number of electron    3.0000000 magnetization    0.6000000
 augmentation part     3.0000000 magnetization    0.6000000

 Free energy of the ion-electron system (eV)
  ---------------------------------------------------
  alpha Z        PSCENC =        -0.20486981
  Ewald energy   TEWEN  =       -73.67253674
  -1/2 Hartree   DENC   =        -0.09905503
  -exchange  EXHF       =         0.00000000
  -V(xc)+E(xc)   XCENC  =       -26.17475841
  PAW double counting   =        35.53514605       -3.58069100
  entropy T*S    EENTRO =         0.00000000
  eigenvalues    EBANDS =        10.97633440
  atomic energy  EATOM  =        53.53845706
  ---------------------------------------------------
  free energy    TOTEN  =        -3.68197347 eV

  energy without entropy =       -3.68197347  energy(sigma->0) =       -3.68197347


--------------------------------------------------------------------------------------------------------




----------------------------------------- Iteration    1(   5)  ---------------------------------------


     EDDAV:  cpu time    4.08: real time    4.08
 BZINTS: Fermi energy:  8.120565;  3.000000 electrons
         Band energy:  10.976334;  BLOECHL correction: -0.044930
       DOS:  cpu time    0.02: real time    0.02
    CHARGE:  cpu time    0.11: real time    0.11
    MIXING:  cpu time    0.00: real time    0.01
    --------------------------------------------
      LOOP:  cpu time    4.21: real time    4.22

 eigenvalue-minimisations  :  7146
 total energy-change (2. order) :-0.1967941E-06  (-0.1963461E-06)
 number of electron    3.0000000 magnetization   -0.0426071
 augmentation part    -0.0369119 magnetization   -0.1858986

 Broyden mixing:
  rms(total) = 0.14891E+00    rms(broyden)= 0.14891E+00
  rms(prec ) = 0.37033E+00
  weight for this iteration     100.00

 Free energy of the ion-electron system (eV)
  ---------------------------------------------------
  alpha Z        PSCENC =        -0.20486981
  Ewald energy   TEWEN  =       -73.67253674
  -1/2 Hartree   DENC   =        -0.09905503
  -exchange  EXHF       =         0.00000000
  -V(xc)+E(xc)   XCENC  =       -26.17475841
  PAW double counting   =        35.53514605       -3.58069100
  entropy T*S    EENTRO =         0.00000000
  eigenvalues    EBANDS =        10.97633421
  atomic energy  EATOM  =        53.53845706
  ---------------------------------------------------
  free energy    TOTEN  =        -3.68197367 eV

  energy without entropy =       -3.68197367  energy(sigma->0) =       -3.68197367


--------------------------------------------------------------------------------------------------------




----------------------------------------- Iteration    1(   6)  ---------------------------------------


    POTLOK:  cpu time    0.02: real time    0.02
    SETDIJ:  cpu time    0.01: real time    0.01
     EDDAV:  cpu time    3.51: real time    3.51
 BZINTS: Fermi energy:  8.109014;  3.000000 electrons
         Band energy:  10.911058;  BLOECHL correction: -0.041621
       DOS:  cpu time    0.02: real time    0.02
    CHARGE:  cpu time    0.10: real time    0.10
    MIXING:  cpu time    0.00: real time    0.00
    --------------------------------------------
      LOOP:  cpu time    3.67: real time    3.67

 eigenvalue-minimisations  :  5952
 total energy-change (2. order) :-0.7030407E-01  (-0.5750471E-03)
 number of electron    3.0000000 magnetization    0.0494010
 augmentation part    -0.0370819 magnetization    0.0567525

 Broyden mixing:
  rms(total) = 0.61067E-01    rms(broyden)= 0.61067E-01
  rms(prec ) = 0.22482E+00
  weight for this iteration     100.00

 eigenvalues of (default mixing * dielectric matrix)
  average eigenvalue GAMMA=   0.9444
  0.9444

 Free energy of the ion-electron system (eV)
  ---------------------------------------------------
  alpha Z        PSCENC =        -0.20486981
  Ewald energy   TEWEN  =       -73.67253674
  -1/2 Hartree   DENC   =        -0.08405912
  -exchange  EXHF       =         0.00000000
  -V(xc)+E(xc)   XCENC  =       -26.19176888
  PAW double counting   =        35.59867548       -3.64723334
  entropy T*S    EENTRO =         0.00000000
  eigenvalues    EBANDS =        10.91105761
  atomic energy  EATOM  =        53.53845706
  ---------------------------------------------------
  free energy    TOTEN  =        -3.75227774 eV

  energy without entropy =       -3.75227774  energy(sigma->0) =       -3.75227774


--------------------------------------------------------------------------------------------------------




----------------------------------------- Iteration    1(   7)  ---------------------------------------


    POTLOK:  cpu time    0.02: real time    0.02
    SETDIJ:  cpu time    0.01: real time    0.01
     EDDAV:  cpu time    3.61: real time    3.61
 BZINTS: Fermi energy:  8.097372;  3.000000 electrons
         Band energy:  10.882812;  BLOECHL correction: -0.041776
       DOS:  cpu time    0.02: real time    0.02
    CHARGE:  cpu time    0.10: real time    0.10
    MIXING:  cpu time    0.00: real time    0.00
    --------------------------------------------
      LOOP:  cpu time    3.76: real time    3.76

 eigenvalue-minimisations  :  5964
 total energy-change (2. order) : 0.8846572E-02  (-0.7642311E-03)
 number of electron    3.0000000 magnetization   -0.0048252
 augmentation part    -0.0378173 magnetization   -0.0127380

 Broyden mixing:
[...]
      5      19.0514      0.00000
      6      21.6270      0.00000

 k-point 183 :      -0.4737    0.3158    0.1053
  band No.  band energies     occupation 
      1       2.7107      1.00000
      2       8.5215      0.13872
      3      11.7809      0.00000
      4      12.5305      0.00000
      5      19.3331      0.00000
      6      23.0753      0.00000

 k-point 184 :      -0.4211    0.3158    0.1053
  band No.  band energies     occupation 
      1       3.8349      1.00000
      2       6.9932      1.07147
      3      11.1940      0.00000
      4      12.6272      0.00000
      5      19.6263      0.00000
      6      24.5002      0.00000

 k-point 185 :      -0.3684    0.3158    0.1053
  band No.  band energies     occupation 
      1       5.0547      1.00000
      2       5.6005      1.00000
      3      10.6999      0.00000
      4      12.9343      0.00000
      5      20.0092      0.00000
      6      24.4570      0.00000

 k-point 186 :      -0.3158    0.3158    0.1053
  band No.  band energies     occupation 
      1       4.2465      1.00000
      2       6.4667      1.00000
      3      10.3554      0.00000
      4      13.3983      0.00000
      5      20.5031      0.00000
      6      24.0803      0.00000

 k-point 187 :      -0.2632    0.3158    0.1053
  band No.  band energies     occupation 
      1       3.0760      1.00000
      2       7.8779      0.80414
      3      10.2219      0.00000
      4      14.0059      0.00000
      5      21.1106      0.00000
      6      23.7134      0.00000

 k-point 188 :      -0.2105    0.3158    0.1053
  band No.  band energies     occupation 
      1       2.0367      1.00000
      2       9.0611     -0.09706
      3      10.5821      0.00000
      4      14.7509      0.00000
      5      21.8204      0.00000
      6      23.0969      0.00000

 k-point 189 :       0.4737    0.3684    0.1053
  band No.  band energies     occupation 
      1       2.1293      1.00000
      2      10.9190      0.00000
      3      11.2452      0.00000
      4      12.4667      0.00000
      5      17.9930      0.00000
      6      20.1677      0.00000

 k-point 190 :      -0.4737    0.3684    0.1053
  band No.  band energies     occupation 
      1       3.0670      1.00000
      2       9.6202      0.00000
      3      10.4523      0.00000
      4      12.0391      0.00000
      5      18.6040      0.00000
      6      21.2334      0.00000

 k-point 191 :      -0.4211    0.3684    0.1053
  band No.  band energies     occupation 
      1       4.1338      1.00000
      2       8.1333      0.46401
      3       9.7705      0.00000
      4      12.0738      0.00000
      5      18.9806      0.00000
      6      22.7831      0.00000

 k-point 192 :      -0.3684    0.3684    0.1053
  band No.  band energies     occupation 
      1       5.3085      1.00000
      2       6.7071      1.00822
      3       9.2321     -0.01561
      4      12.3263      0.00000
      5      19.3664      0.00000
      6      24.5033      0.00000

 k-point 193 :      -0.3158    0.3684    0.1053
  band No.  band energies     occupation 
      1       5.3520      1.00000
      2       6.5755      1.00000
      3       8.9035     -0.00832
      4      12.7417      0.00000
      5      19.8401      0.00000
      6      25.7047      0.00000

 k-point 194 :      -0.2632    0.3684    0.1053
  band No.  band energies     occupation 
      1       4.1526      1.00000
      2       7.5774      1.00899
      3       9.0754      0.00000
      4      13.3040      0.00000
      5      20.4220      0.00000
      6      25.1166      0.00000

 k-point 195 :      -0.4737    0.4211    0.1053
  band No.  band energies     occupation 
      1       3.5601      1.00000
      2       9.1691     -0.05435
      3      10.5471      0.00000
      4      12.0538      0.00000
      5      17.6294      0.00000
      6      19.8366      0.00000

 k-point 196 :      -0.4211    0.4211    0.1053
  band No.  band energies     occupation 
      1       4.5577      1.00000
      2       8.4122      0.21353
      3       9.3976      0.00000
      4      11.7352      0.00000
      5      18.3334      0.00000
      6      20.9911      0.00000

 k-point 197 :      -0.3684    0.4211    0.1053
  band No.  band energies     occupation 
      1       5.6225      1.00000
      2       7.7148      1.02543
      3       8.1775      0.04018
      4      11.8781      0.00000
      5      18.8026      0.00000
      6      22.6307      0.00000

 k-point 198 :      -0.3158    0.4211    0.1053
  band No.  band energies     occupation 
      1       6.4667      1.00000
      2       6.5650      1.00000
      3       7.9527      0.34011
      4      12.2301      0.00000
      5      19.2790      0.00000
      6      24.4554      0.00000

 k-point 199 :      -0.4211    0.4737    0.1053
  band No.  band energies     occupation 
      1       5.0619      1.00000
      2       7.3288      1.02599
      3      10.3611      0.00000
      4      11.8617      0.00000
      5      17.4471      0.00000
      6      19.6684      0.00000

 k-point 200 :      -0.3684    0.4737    0.1053
  band No.  band energies     occupation 
      1       5.7275      1.00000
      2       7.0860      1.02472
      3       9.2918     -0.01587
      4      11.6382      0.00000
      5      18.2429      0.00000
      6      20.9094      0.00000

 k-point 201 :       0.4737    0.3158    0.1579
  band No.  band energies     occupation 
      1       1.3544      1.00000
      2      10.1754      0.00000
      3      11.6584      0.00000
      4      14.1482      0.00000
      5      20.7407      0.00000
      6      22.4635      0.00000

 k-point 202 :      -0.4737    0.3158    0.1579
  band No.  band energies     occupation 
      1       2.3022      1.00000
      2       8.9019     -0.03514
      3      11.2163      0.00000
      4      13.3140      0.00000
      5      21.3026      0.00000
      6      23.2586      0.00000

 k-point 203 :      -0.4211    0.3158    0.1579
  band No.  band energies     occupation 
      1       3.3857      1.00000
      2       7.4032      1.00313
      3      11.2426      0.00000
      4      12.6291      0.00000
      5      21.6170      0.00000
      6      23.0141      0.00000

 k-point 204 :      -0.3684    0.3158    0.1579
  band No.  band energies     occupation 
      1       4.5932      1.00000
      2       5.9647      1.00000
      3      11.4182      0.00000
      4      12.1461      0.00000
      5      21.9121      0.00000
      6      22.5539      0.00000

 k-point 205 :      -0.4737    0.3684    0.1579
  band No.  band energies     occupation 
      1       2.6140      1.00000
      2       9.6183      0.00000
      3      10.9939      0.00000
      4      11.9717      0.00000
      5      20.2106      0.00000
      6      22.0534      0.00000

 k-point 206 :      -0.4211    0.3684    0.1579
  band No.  band energies     occupation 
      1       3.6439      1.00000
      2       8.4319      0.18290
      3      10.5687      0.00000
      4      11.3029      0.00000
      5      20.8748      0.00000
      6      23.1770      0.00000

 k-point 207 :      -0.3684    0.3684    0.1579
  band No.  band energies     occupation 
      1       4.7984      1.00000
      2       7.0256      1.07347
      3      10.2964      0.00000
      4      11.1087      0.00000
      5      21.2977      0.00000
      6      24.1036      0.00000

 k-point 208 :      -0.3158    0.3684    0.1579
  band No.  band energies     occupation 
      1       5.6205      1.00000
      2       6.1184      1.00000
      3       9.9353      0.00000
      4      11.3747      0.00000
      5      21.7361      0.00000
      6      23.7835      0.00000

 k-point 209 :      -0.2632    0.3684    0.1579
  band No.  band energies     occupation 
      1       4.4085      1.00000
      2       7.4103      1.03163
      3       9.7253      0.00000
      4      11.8641      0.00000
      5      22.2478      0.00000
      6      23.3342      0.00000

 k-point 210 :      -0.2105    0.3684    0.1579
  band No.  band energies     occupation 
      1       3.2897      1.00000
      2       8.5044      0.17657
      3       9.9954      0.00000
      4      12.5159      0.00000
      5      22.5927      0.00000
      6      22.8157      0.00000

 k-point 211 :      -0.4211    0.4211    0.1579
  band No.  band energies     occupation 
      1       4.0386      1.00000
      2       9.2469     -0.05375
      3       9.5712      0.00000
      4      10.9065      0.00000
      5      19.8524      0.00000
      6      21.7564      0.00000

 k-point 212 :      -0.3684    0.4211    0.1579
  band No.  band energies     occupation 
      1       5.1251      1.00000
      2       8.1306      0.62678
      3       8.9981      0.00000
      4      10.6153      0.00000
      5      20.6126      0.00000
      6      22.9978      0.00000

 k-point 213 :      -0.3158    0.4211    0.1579
  band No.  band energies     occupation 
      1       6.2630      1.00000
      2       6.8311      1.00084
      3       8.5966     -0.01660
      4      10.8192      0.00000
      5      21.1306      0.00000
      6      24.5947      0.00000

 k-point 214 :      -0.2632    0.4211    0.1579
  band No.  band energies     occupation 
      1       5.5547      1.00000
      2       7.2070      1.00013
      3       8.6719     -0.00125
      4      11.2561      0.00000
      5      21.6602      0.00000
      6      24.7904      0.00000

 k-point 215 :      -0.3684    0.4737    0.1579
  band No.  band energies     occupation 
      1       5.5300      1.00000
      2       7.7896      0.91748
      3       9.0612      0.00000
      4      10.6629      0.00000
      5      19.6722      0.00000
      6      21.6029      0.00000

 k-point 216 :      -0.3158    0.4737    0.1579
  band No.  band energies     occupation 
      1       6.2818      1.00000
      2       7.5875      1.00147
      3       8.1449      0.02051
      4      10.4946      0.00000
      5      20.5246      0.00000
      6      22.9307      0.00000

 k-point 217 :      -0.3684    0.4211    0.2105
  band No.  band energies     occupation 
      1       4.7052      1.00000
      2       8.1335      0.61614
      3       9.4964      0.00000
      4      10.5372      0.00000
      5      22.2451      0.00000
      6      23.5208      0.00000

 k-point 218 :      -0.3158    0.4211    0.2105
  band No.  band energies     occupation 
      1       5.8741      1.00000
      2       7.1294      1.01462
      3       9.2563      0.00000
      4      10.0727      0.00000
      5      22.9952      0.00000
      6      23.5935      0.00000

 k-point 219 :      -0.3158    0.4737    0.2105
  band No.  band energies     occupation 
      1       6.1827      1.00000
      2       7.9481      1.01234
      3       8.3597      0.00000
      4       9.6617      0.00000
      5      22.0690      0.00000
      6      23.5832      0.00000

 k-point 220 :      -0.2632    0.4737    0.2105
  band No.  band energies     occupation 
      1       7.0104      1.00000
      2       7.0218      1.00000
      3       8.3554      0.00000
      4       9.5848      0.00000
      5      22.9451      0.00000
      6      24.6219      0.00000


--------------------------------------------------------------------------------------------------------


 soft charge-density along one line, spin component            1
         0         1         2         3         4         5         6         7         8         9
 total charge-density along one line
 
 soft charge-density along one line, spin component            2
         0         1         2         3         4         5         6         7         8         9
 total charge-density along one line
 
 pseudopotential strength for first ion, spin component:            1
  8.442  -0.006   0.000   0.000   0.000   0.000   0.000   0.000
 -0.006   0.000   0.000   0.000   0.000   0.000   0.000   0.000
  0.000   0.000   1.988   0.000   0.000  -0.027   0.000   0.000
  0.000   0.000   0.000   1.988   0.000   0.000  -0.027   0.000
  0.000   0.000   0.000   0.000   1.988   0.000   0.000  -0.027
  0.000   0.000  -0.027   0.000   0.000  -0.012   0.000   0.000
  0.000   0.000   0.000  -0.027   0.000   0.000  -0.012   0.000
  0.000   0.000   0.000   0.000  -0.027   0.000   0.000  -0.012
 pseudopotential strength for first ion, spin component:            2
  8.442  -0.006   0.000   0.000   0.000   0.000   0.000   0.000
 -0.006   0.000   0.000   0.000   0.000   0.000   0.000   0.000
  0.000   0.000   1.988   0.000   0.000  -0.027   0.000   0.000
  0.000   0.000   0.000   1.988   0.000   0.000  -0.027   0.000
  0.000   0.000   0.000   0.000   1.988   0.000   0.000  -0.027
  0.000   0.000  -0.027   0.000   0.000  -0.012   0.000   0.000
  0.000   0.000   0.000  -0.027   0.000   0.000  -0.012   0.000
  0.000   0.000   0.000   0.000  -0.027   0.000   0.000  -0.012
 total augmentation occupancy for first ion, spin component:            1
  1.315  -0.489   0.000   0.000   0.000   0.000   0.000   0.000
 -0.489   0.477   0.000   0.000   0.000   0.000   0.000   0.000
  0.000   0.000   0.742   0.000   0.000  -0.149   0.000   0.000
  0.000   0.000   0.000   0.742   0.000   0.000  -0.149   0.000
  0.000   0.000   0.000   0.000   0.742   0.000   0.000  -0.149
  0.000   0.000  -0.149   0.000   0.000   0.035   0.000   0.000
  0.000   0.000   0.000  -0.149   0.000   0.000   0.035   0.000
  0.000   0.000   0.000   0.000  -0.149   0.000   0.000   0.035
 total augmentation occupancy for first ion, spin component:            2
  0.000   0.000   0.000   0.000   0.000   0.000   0.000   0.000
  0.000   0.000   0.000   0.000   0.000   0.000   0.000   0.000
  0.000   0.000   0.000   0.000   0.000   0.000   0.000   0.000
  0.000   0.000   0.000   0.000   0.000   0.000   0.000   0.000
  0.000   0.000   0.000   0.000   0.000   0.000   0.000   0.000
  0.000   0.000   0.000   0.000   0.000   0.000   0.000   0.000
  0.000   0.000   0.000   0.000   0.000   0.000   0.000   0.000
  0.000   0.000   0.000   0.000   0.000   0.000   0.000   0.000


------------------------ aborting loop because EDIFF is reached ----------------------------------------


 


 total charge     
 
# of ion     s       p       d       tot
----------------------------------------
  1        0.425   0.343   0.000   0.768
 


 magnetization (x)
 
# of ion     s       p       d       tot
----------------------------------------
  1        0.000   0.000   0.000   0.000
 


--------------------------------------------------------------------------------------------------------



  FREE ENERGIE OF THE ION-ELECTRON SYSTEM (eV)
  ---------------------------------------------------
  free  energy   TOTEN  =        -3.743359 eV

  energy  without entropy=       -3.743359  energy(sigma->0) =       -3.743359
 
    CHARGE:  cpu time    0.10: real time    0.10
    FORLOC:  cpu time    0.00: real time    0.00
    FORNL :  cpu time    0.28: real time    0.28
    STRESS:  cpu time    0.82: real time    0.82
    FORCOR:  cpu time    0.06: real time    0.06
    FORHAR:  cpu time    0.01: real time    0.01
    MIXING:  cpu time    0.00: real time    0.00

  FORCE on cell =-STRESS in cart. coord.  units (eV):
  Direction    XX          YY          ZZ          XY          YZ          ZX
  --------------------------------------------------------------------------------------
  Alpha Z    -0.20487    -0.20487    -0.20487
  Ewald     -24.55751   -24.55751   -24.55751     0.00000     0.00000     0.00000
  Hartree     0.03549     0.03549     0.03549     0.00000     0.00000     0.00000
  E(xc)      -8.57786    -8.57786    -8.57786     0.00000     0.00000     0.00000
  Local       0.39110     0.39110     0.39110     0.00000     0.00000     0.00000
  n-local    18.94530    18.59888    19.03840     0.46272    -0.60732     0.54193
  augment    -1.01915    -1.01915    -1.01915     0.00000     0.00000     0.00000
  Kinetic    12.48013    11.05239    21.71112    -9.68929     8.44714    -6.26264
  Fock        0.00000     0.00000     0.00000     0.00000     0.00000     0.00000
  -------------------------------------------------------------------------------------
  Total       0.00927     0.00927     0.00927     0.00000     0.00000     0.00000
  in kB       0.90594     0.90594     0.90594     0.00000     0.00000     0.00000
  external pressure =        0.91 kB  Pullay stress =        0.00 kB


 VOLUME and BASIS-vectors are now :
 -----------------------------------------------------------------------------
  energy-cutoff  :      520.00
  volume of cell :       16.39
      direct lattice vectors                 reciprocal lattice vectors
     0.000000000  2.016319000  2.016319000    -0.247976635  0.247976635  0.247976635
     2.016319000  0.000000000  2.016319000     0.247976635 -0.247976635  0.247976635
     2.016319000  2.016319000  0.000000000     0.247976635  0.247976635 -0.247976635

  length of vectors
     2.851505676  2.851505676  2.851505676     0.429508130  0.429508130  0.429508130


 FORCES acting on ions
    electron-ion (+dipol)            ewald-force                    non-local-force                 convergence-correction
 -----------------------------------------------------------------------------------------------
   -.178E-15 0.423E-16 -.250E-14   -.794E-16 -.361E-16 0.105E-15   0.000E+00 -.207E-24 0.207E-24   -.803E-17 -.461E-17 -.195E-17
 -----------------------------------------------------------------------------------------------
   -.178E-15 0.423E-16 -.250E-14   -.794E-16 -.361E-16 0.105E-15   0.000E+00 -.207E-24 0.207E-24   -.803E-17 -.461E-17 -.195E-17
 
 
 POSITION                                       TOTAL-FORCE (eV/Angst)
 -----------------------------------------------------------------------------------
      0.00000      0.00000      0.00000         0.000000      0.000000      0.000000
 -----------------------------------------------------------------------------------
    total drift:                                0.000000      0.000000      0.000000


--------------------------------------------------------------------------------------------------------


    POTLOK:  cpu time    0.03: real time    0.03


--------------------------------------------------------------------------------------------------------


  FORCES: max atom, RMS     0.000000    0.000000
  FORCE total and by dimension    0.000000    0.000000
     LOOP+:  cpu time   46.44: real time   46.60
    4ORBIT:  cpu time    0.00: real time    0.00
 


 total charge     
 
# of ion     s       p       d       tot
----------------------------------------
  1        0.425   0.343   0.000   0.768
 


 magnetization (x)
 
# of ion     s       p       d       tot
----------------------------------------
  1        0.000   0.000   0.000   0.000
 
 BZINTS: Fermi energy:  8.094245;  3.000000 electrons
         Band energy:  10.876169;  BLOECHL correction: -0.041851

 total amount of memory used by VASP on root node  33617. kBytes
========================================================================

   base      :    30000. kBytes
   nonl-proj :      451. kBytes
   fftplans  :      185. kBytes
   grid      :     2131. kBytes
   one-center:        6. kBytes
   wavefun   :      844. kBytes
 
  
  
 General timing and accounting informations for this job:
 ========================================================
  
                  Total CPU time used (sec):       50.194
                            User time (sec):       49.602
                          System time (sec):        0.592
                         Elapsed time (sec):       52.337
  
                   Maximum memory used (kb):       62900.
                   Average memory used (kb):           0.
  
                          Minor page faults:       277580
                          Major page faults:            5
                 Voluntary context switches:        18669
