PROCAR new format
# of k-points:   10         # of bands:  10         # of ions:   3

 k-point    1 :    0.12500000 0.12500000 0.12500000     weight = 0.03125000

band   1 # energy  -14.51487969 # occ.  1.00000000
 
ion      s      p      d    tot
  1  0.025  0.002  0.000  0.027
  2  0.025  0.002  0.000  0.027
  3  0.741  0.000  0.000  0.741
tot  0.792  0.004  0.000  0.795
 
band   2 # energy    0.41588795 # occ.  1.00000000
 
ion      s      p      d    tot
  1  0.015  0.016  0.000  0.031
  2  0.015  0.016  0.000  0.031
  3  0.006  0.633  0.000  0.639
tot  0.036  0.666  0.000  0.702
 
band   3 # energy    0.85214119 # occ.  1.00000000
 
ion      s      p      d    tot
  1  0.000  0.015  0.000  0.015
  2  0.000  0.015  0.000  0.015
  3  0.000  0.699  0.000  0.699
tot  0.000  0.730  0.000  0.730
 
band   4 # energy    0.85214119 # occ.  1.00000000
 
ion      s      p      d    tot
  1  0.000  0.015  0.000  0.015
  2  0.000  0.015  0.000  0.015
  3  0.000  0.699  0.000  0.699
tot  0.000  0.730  0.000  0.730
 
band   5 # energy    6.56855442 # occ.  0.00000000
 
ion      s      p      d    tot
  1  0.137  0.015  0.000  0.152
  2  0.137  0.015  0.000  0.152
  3  0.130  0.055  0.000  0.185
tot  0.404  0.085  0.000  0.489
 
band   6 # energy   12.85125834 # occ.  0.00000000
 
ion      s      p      d    tot
  1  0.017  0.308  0.000  0.324
  2  0.017  0.308  0.000  0.324
  3  0.001  0.045  0.000  0.046
tot  0.034  0.661  0.000  0.695
 
band   7 # energy   13.05278280 # occ.  0.00000000
 
ion      s      p      d    tot
  1  0.000  0.342  0.000  0.342
  2  0.000  0.342  0.000  0.342
  3  0.000  0.011  0.000  0.011
tot  0.000  0.694  0.000  0.694
 
band   8 # energy   13.05278280 # occ.  0.00000000
 
ion      s      p      d    tot
  1  0.000  0.342  0.000  0.342
  2  0.000  0.342  0.000  0.342
  3  0.000  0.011  0.000  0.011
tot  0.000  0.694  0.000  0.694
 
band   9 # energy   18.55336273 # occ.  0.00000000
 
ion      s      p      d    tot
  1  0.000  0.160  0.000  0.160
  2  0.000  0.160  0.000  0.160
  3  0.000  0.000  0.000  0.000
tot  0.000  0.320  0.000  0.320
 
band  10 # energy   18.55336365 # occ.  0.00000000
 
ion      s      p      d    tot
  1  0.000  0.160  0.000  0.160
  2  0.000  0.160  0.000  0.160
  3  0.000  0.000  0.000  0.000
tot  0.000  0.321  0.000  0.321
 

 k-point    2 :    0.37500000 0.12500000 0.12500000     weight = 0.09375000

band   1 # energy  -14.37190297 # occ.  1.00000000
 
ion      s      p      d    tot
  1  0.013  0.009  0.000  0.022
  2  0.013  0.009  0.000  0.022
  3  0.757  0.000  0.000  0.757
tot  0.784  0.018  0.000  0.801
 
band   2 # energy   -0.93609783 # occ.  1.00000000
 
ion      s      p      d    tot
  1  0.039  0.035  0.000  0.074
  2  0.039  0.035  0.000  0.074
  3  0.007  0.501  0.000  0.507
tot  0.085  0.571  0.000  0.656
 
band   3 # energy    0.26649929 # occ.  1.00000000
 
ion      s      p      d    tot
  1  0.006  0.035  0.000  0.042
  2  0.006  0.035  0.000  0.042
  3  0.000  0.637  0.000  0.638
tot  0.013  0.708  0.000  0.721
 
band   4 # energy    0.67826620 # occ.  1.00000000
 
ion      s      p      d    tot
  1  0.000  0.026  0.000  0.026
  2  0.000  0.026  0.000  0.026
  3  0.000  0.684  0.000  0.684
tot  0.000  0.735  0.000  0.735
 
band   5 # energy    8.08443561 # occ.  0.00000000
 
ion      s      p      d    tot
  1  0.074  0.059  0.000  0.134
  2  0.074  0.059  0.000  0.134
  3  0.082  0.173  0.000  0.255
tot  0.230  0.292  0.000  0.522
 
band   6 # energy   12.02538771 # occ.  0.00000000
 
ion      s      p      d    tot
  1  0.044  0.209  0.000  0.254
  2  0.044  0.209  0.000  0.254
  3  0.029  0.072  0.000  0.101
tot  0.118  0.491  0.000  0.609
 
band   7 # energy   13.50465689 # occ.  0.00000000
 
ion      s      p      d    tot
  1  0.054  0.211  0.000  0.265
  2  0.054  0.211  0.000  0.265
  3  0.000  0.130  0.000  0.130
tot  0.108  0.552  0.000  0.660
 
band   8 # energy   14.06289062 # occ.  0.00000000
 
ion      s      p      d    tot
  1  0.000  0.271  0.000  0.271
  2  0.000  0.271  0.000  0.271
  3  0.000  0.002  0.000  0.002
tot  0.000  0.543  0.000  0.543
 
band   9 # energy   15.98335061 # occ.  0.00000000
 
ion      s      p      d    tot
  1  0.000  0.243  0.000  0.243
  2  0.000  0.243  0.000  0.243
  3  0.000  0.039  0.000  0.039
tot  0.000  0.524  0.000  0.524
 
band  10 # energy   19.60448333 # occ.  0.00000000
 
ion      s      p      d    tot
  1  0.039  0.184  0.000  0.223
  2  0.039  0.184  0.000  0.223
  3  0.000  0.079  0.000  0.079
tot  0.078  0.447  0.000  0.525
 

 k-point    3 :   -0.37500000 0.12500000 0.12500000     weight = 0.09375000

band   1 # energy  -14.28206944 # occ.  1.00000000
 
ion      s      p      d    tot
  1  0.006  0.013  0.000  0.019
  2  0.006  0.013  0.000  0.019
  3  0.767  0.000  0.000  0.767
tot  0.779  0.026  0.000  0.805
 
band   2 # energy   -1.67504175 # occ.  1.00000000
 
ion      s      p      d    tot
  1  0.047  0.048  0.000  0.095
  2  0.047  0.048  0.000  0.095
  3  0.000  0.451  0.000  0.451
tot  0.095  0.546  0.000  0.641
 
band   3 # energy    0.30099298 # occ.  1.00000000
 
ion      s      p      d    tot
  1  0.009  0.033  0.000  0.041
  2  0.009  0.033  0.000  0.041
  3  0.001  0.645  0.000  0.645
tot  0.018  0.710  0.000  0.728
 
band   4 # energy    0.33387005 # occ.  1.00000000
 
ion      s      p      d    tot
  1  0.000  0.041  0.000  0.041
  2  0.000  0.041  0.000  0.041
  3  0.000  0.649  0.000  0.649
tot  0.000  0.731  0.000  0.731
 
band   5 # energy    9.27680882 # occ.  0.00000000
 
ion      s      p      d    tot
  1  0.020  0.086  0.000  0.106
  2  0.020  0.086  0.000  0.106
  3  0.020  0.244  0.000  0.264
tot  0.060  0.416  0.000  0.476
 
band   6 # energy   11.15770421 # occ.  0.00000000
 
ion      s      p      d    tot
  1  0.116  0.125  0.000  0.241
  2  0.116  0.125  0.000  0.241
  3  0.093  0.060  0.000  0.153
tot  0.324  0.311  0.000  0.635
 
band   7 # energy   13.23324830 # occ.  0.00000000
 
ion      s      p      d    tot
  1  0.000  0.239  0.000  0.239
  2  0.000  0.239  0.000  0.239
  3  0.000  0.049  0.000  0.049
tot  0.000  0.527  0.000  0.527
 
band   8 # energy   13.67922986 # occ.  0.00000000
 
ion      s      p      d    tot
  1  0.040  0.179  0.000  0.219
  2  0.040  0.179  0.000  0.219
  3  0.000  0.094  0.000  0.094
tot  0.081  0.452  0.000  0.533
 
band   9 # energy   18.06273175 # occ.  0.00000000
 
ion      s      p      d    tot
  1  0.035  0.253  0.000  0.288
  2  0.035  0.253  0.000  0.288
  3  0.002  0.108  0.000  0.110
tot  0.072  0.613  0.000  0.686
 
band  10 # energy   19.20989620 # occ.  0.00000000
 
ion      s      p      d    tot
  1  0.000  0.293  0.000  0.293
  2  0.000  0.293  0.000  0.293
  3  0.000  0.123  0.000  0.123
tot  0.000  0.709  0.000  0.709
 

 k-point    4 :   -0.12500000 0.12500000 0.12500000     weight = 0.09375000

band   1 # energy  -14.43421774 # occ.  1.00000000
 
ion      s      p      d    tot
  1  0.018  0.006  0.000  0.024
  2  0.018  0.006  0.000  0.024
  3  0.750  0.000  0.000  0.750
tot  0.786  0.012  0.000  0.798
 
band   2 # energy   -0.26898719 # occ.  1.00000000
 
ion      s      p      d    tot
  1  0.032  0.023  0.000  0.054
  2  0.032  0.023  0.000  0.054
  3  0.009  0.559  0.000  0.568
tot  0.072  0.605  0.000  0.677
 
band   3 # energy    0.48353780 # occ.  1.00000000
 
ion      s      p      d    tot
  1  0.000  0.033  0.000  0.033
  2  0.000  0.033  0.000  0.033
  3  0.000  0.659  0.000  0.659
tot  0.000  0.725  0.000  0.725
 
band   4 # energy    0.62968445 # occ.  1.00000000
 
ion      s      p      d    tot
  1  0.005  0.021  0.000  0.026
  2  0.005  0.021  0.000  0.026
  3  0.001  0.674  0.000  0.675
tot  0.011  0.716  0.000  0.727
 
band   5 # energy    7.23295933 # occ.  0.00000000
 
ion      s      p      d    tot
  1  0.091  0.053  0.000  0.143
  2  0.091  0.053  0.000  0.143
  3  0.100  0.118  0.000  0.218
tot  0.282  0.223  0.000  0.505
 
band   6 # energy   12.87630571 # occ.  0.00000000
 
ion      s      p      d    tot
  1  0.030  0.251  0.000  0.281
  2  0.030  0.251  0.000  0.281
  3  0.009  0.098  0.000  0.107
tot  0.068  0.600  0.000  0.668
 
band   7 # energy   13.19644116 # occ.  0.00000000
 
ion      s      p      d    tot
  1  0.000  0.301  0.000  0.301
  2  0.000  0.301  0.000  0.301
  3  0.000  0.080  0.000  0.080
tot  0.000  0.681  0.000  0.681
 
band   8 # energy   13.86811989 # occ.  0.00000000
 
ion      s      p      d    tot
  1  0.038  0.284  0.000  0.323
  2  0.038  0.284  0.000  0.323
  3  0.000  0.005  0.000  0.006
tot  0.077  0.574  0.000  0.651
 
band   9 # energy   15.80230017 # occ.  0.00000000
 
ion      s      p      d    tot
  1  0.034  0.146  0.000  0.180
  2  0.034  0.146  0.000  0.180
  3  0.005  0.037  0.000  0.041
tot  0.073  0.328  0.000  0.402
 
band  10 # energy   20.28885047 # occ.  0.00000000
 
ion      s      p      d    tot
  1  0.000  0.184  0.000  0.184
  2  0.000  0.184  0.000  0.184
  3  0.000  0.011  0.000  0.011
tot  0.000  0.380  0.000  0.380
 

 k-point    5 :    0.37500000 0.37500000 0.12500000     weight = 0.09375000

band   1 # energy  -14.32049658 # occ.  1.00000000
 
ion      s      p      d    tot
  1  0.008  0.012  0.000  0.021
  2  0.008  0.012  0.000  0.021
  3  0.762  0.000  0.000  0.762
tot  0.779  0.024  0.000  0.803
 
band   2 # energy   -0.74476892 # occ.  1.00000000
 
ion      s      p      d    tot
  1  0.041  0.030  0.000  0.071
  2  0.041  0.030  0.000  0.071
  3  0.005  0.526  0.000  0.531
tot  0.087  0.586  0.000  0.673
 
band   3 # energy    0.00192907 # occ.  1.00000000
 
ion      s      p      d    tot
  1  0.000  0.054  0.000  0.054
  2  0.000  0.054  0.000  0.054
  3  0.000  0.613  0.000  0.613
tot  0.000  0.721  0.000  0.721
 
band   4 # energy    0.09458982 # occ.  1.00000000
 
ion      s      p      d    tot
  1  0.016  0.032  0.000  0.048
  2  0.016  0.032  0.000  0.048
  3  0.001  0.621  0.000  0.622
tot  0.033  0.686  0.000  0.719
 
band   5 # energy    7.14699747 # occ.  0.00000000
 
ion      s      p      d    tot
  1  0.025  0.116  0.000  0.141
  2  0.025  0.116  0.000  0.141
  3  0.059  0.097  0.000  0.156
tot  0.108  0.329  0.000  0.437
 
band   6 # energy   13.13765494 # occ.  0.00000000
 
ion      s      p      d    tot
  1  0.051  0.188  0.000  0.239
  2  0.051  0.188  0.000  0.239
  3  0.026  0.151  0.000  0.177
tot  0.129  0.527  0.000  0.655
 
band   7 # energy   13.70132494 # occ.  0.00000000
 
ion      s      p      d    tot
  1  0.000  0.257  0.000  0.257
  2  0.000  0.257  0.000  0.257
  3  0.000  0.168  0.000  0.168
tot  0.000  0.682  0.000  0.682
 
band   8 # energy   14.80649488 # occ.  0.00000000
 
ion      s      p      d    tot
  1  0.111  0.093  0.000  0.204
  2  0.111  0.093  0.000  0.204
  3  0.005  0.145  0.000  0.150
tot  0.227  0.331  0.000  0.558
 
band   9 # energy   15.58581882 # occ.  0.00000000
 
ion      s      p      d    tot
  1  0.104  0.180  0.000  0.283
  2  0.104  0.180  0.000  0.283
  3  0.001  0.042  0.000  0.043
tot  0.208  0.401  0.000  0.609
 
band  10 # energy   22.30814162 # occ.  0.00000000
 
ion      s      p      d    tot
  1  0.000  0.241  0.000  0.241
  2  0.000  0.241  0.000  0.241
  3  0.000  0.044  0.000  0.044
tot  0.000  0.526  0.000  0.526
 

 k-point    6 :   -0.37500000 0.37500000 0.12500000     weight = 0.18750000

band   1 # energy  -14.23269818 # occ.  1.00000000
 
ion      s      p      d    tot
  1  0.001  0.016  0.000  0.017
  2  0.001  0.016  0.000  0.017
  3  0.772  0.000  0.000  0.772
tot  0.774  0.033  0.000  0.806
 
band   2 # energy   -1.10661071 # occ.  1.00000000
 
ion      s      p      d    tot
  1  0.026  0.062  0.000  0.087
  2  0.026  0.062  0.000  0.087
  3  0.000  0.494  0.000  0.494
tot  0.052  0.617  0.000  0.669
 
band   3 # energy   -0.42534587 # occ.  1.00000000
 
ion      s      p      d    tot
  1  0.035  0.031  0.000  0.066
  2  0.035  0.031  0.000  0.066
  3  0.000  0.576  0.000  0.576
tot  0.070  0.638  0.000  0.708
 
band   4 # energy   -0.24382149 # occ.  1.00000000
 
ion      s      p      d    tot
  1  0.010  0.054  0.000  0.063
  2  0.010  0.054  0.000  0.063
  3  0.000  0.588  0.000  0.588
tot  0.020  0.696  0.000  0.715
 
band   5 # energy    7.84680197 # occ.  0.00000000
 
ion      s      p      d    tot
  1  0.001  0.101  0.000  0.103
  2  0.001  0.101  0.000  0.103
  3  0.016  0.176  0.000  0.192
tot  0.019  0.378  0.000  0.397
 
band   6 # energy   11.80694980 # occ.  0.00000000
 
ion      s      p      d    tot
  1  0.023  0.224  0.000  0.247
  2  0.023  0.224  0.000  0.247
  3  0.077  0.067  0.000  0.143
tot  0.122  0.515  0.000  0.637
 
band   7 # energy   14.50344265 # occ.  0.00000000
 
ion      s      p      d    tot
  1  0.061  0.148  0.000  0.208
  2  0.061  0.148  0.000  0.208
  3  0.001  0.247  0.000  0.248
tot  0.122  0.542  0.000  0.664
 
band   8 # energy   15.01639129 # occ.  0.00000000
 
ion      s      p      d    tot
  1  0.129  0.060  0.000  0.189
  2  0.129  0.060  0.000  0.189
  3  0.000  0.280  0.000  0.280
tot  0.259  0.399  0.000  0.657
 
band   9 # energy   17.83016397 # occ.  0.00000000
 
ion      s      p      d    tot
  1  0.138  0.146  0.000  0.285
  2  0.138  0.146  0.000  0.285
  3  0.003  0.009  0.000  0.011
tot  0.280  0.301  0.000  0.581
 
band  10 # energy   20.08644411 # occ.  0.00000000
 
ion      s      p      d    tot
  1  0.042  0.257  0.000  0.299
  2  0.042  0.257  0.000  0.299
  3  0.002  0.012  0.000  0.014
tot  0.086  0.526  0.000  0.612
 

 k-point    7 :   -0.12500000 0.37500000 0.12500000     weight = 0.18750000

band   1 # energy  -14.28843457 # occ.  1.00000000
 
ion      s      p      d    tot
  1  0.006  0.013  0.000  0.019
  2  0.006  0.013  0.000  0.019
  3  0.766  0.000  0.000  0.766
tot  0.778  0.026  0.000  0.804
 
band   2 # energy   -1.26676587 # occ.  1.00000000
 
ion      s      p      d    tot
  1  0.039  0.047  0.000  0.086
  2  0.039  0.047  0.000  0.086
  3  0.003  0.479  0.000  0.482
tot  0.082  0.573  0.000  0.654
 
band   3 # energy   -0.09215594 # occ.  1.00000000
 
ion      s      p      d    tot
  1  0.014  0.041  0.000  0.056
  2  0.014  0.041  0.000  0.056
  3  0.000  0.604  0.000  0.605
tot  0.029  0.687  0.000  0.716
 
band   4 # energy    0.29059290 # occ.  1.00000000
 
ion      s      p      d    tot
  1  0.006  0.037  0.000  0.043
  2  0.006  0.037  0.000  0.043
  3  0.000  0.642  0.000  0.642
tot  0.012  0.716  0.000  0.728
 
band   5 # energy    8.37132015 # occ.  0.00000000
 
ion      s      p      d    tot
  1  0.020  0.092  0.000  0.113
  2  0.020  0.092  0.000  0.113
  3  0.036  0.199  0.000  0.235
tot  0.076  0.383  0.000  0.460
 
band   6 # energy   11.60629924 # occ.  0.00000000
 
ion      s      p      d    tot
  1  0.064  0.184  0.000  0.248
  2  0.064  0.184  0.000  0.248
  3  0.067  0.054  0.000  0.120
tot  0.194  0.422  0.000  0.616
 
band   7 # energy   13.96420783 # occ.  0.00000000
 
ion      s      p      d    tot
  1  0.049  0.182  0.000  0.231
  2  0.049  0.182  0.000  0.231
  3  0.001  0.175  0.000  0.176
tot  0.099  0.540  0.000  0.639
 
band   8 # energy   14.41944259 # occ.  0.00000000
 
ion      s      p      d    tot
  1  0.060  0.142  0.000  0.202
  2  0.060  0.142  0.000  0.202
  3  0.001  0.138  0.000  0.139
tot  0.120  0.421  0.000  0.542
 
band   9 # energy   16.67261090 # occ.  0.00000000
 
ion      s      p      d    tot
  1  0.043  0.257  0.000  0.300
  2  0.043  0.257  0.000  0.300
  3  0.000  0.036  0.000  0.036
tot  0.087  0.550  0.000  0.637
 
band  10 # energy   20.20017573 # occ.  0.00000000
 
ion      s      p      d    tot
  1  0.048  0.217  0.000  0.264
  2  0.048  0.217  0.000  0.264
  3  0.006  0.077  0.000  0.083
tot  0.101  0.511  0.000  0.612
 

 k-point    8 :   -0.37500000-0.37500000 0.12500000     weight = 0.09375000

band   1 # energy  -14.24063256 # occ.  1.00000000
 
ion      s      p      d    tot
  1  0.001  0.017  0.000  0.018
  2  0.001  0.017  0.000  0.018
  3  0.770  0.000  0.000  0.770
tot  0.773  0.033  0.000  0.806
 
band   2 # energy   -0.78367407 # occ.  1.00000000
 
ion      s      p      d    tot
  1  0.039  0.037  0.000  0.076
  2  0.039  0.037  0.000  0.076
  3  0.001  0.536  0.000  0.537
tot  0.080  0.609  0.000  0.689
 
band   3 # energy   -0.44616858 # occ.  1.00000000
 
ion      s      p      d    tot
  1  0.029  0.039  0.000  0.068
  2  0.029  0.039  0.000  0.068
  3  0.000  0.572  0.000  0.572
tot  0.058  0.649  0.000  0.708
 
band   4 # energy   -0.31449929 # occ.  1.00000000
 
ion      s      p      d    tot
  1  0.000  0.067  0.000  0.067
  2  0.000  0.067  0.000  0.067
  3  0.000  0.585  0.000  0.585
tot  0.000  0.719  0.000  0.719
 
band   5 # energy    6.48570555 # occ.  0.00000000
 
ion      s      p      d    tot
  1  0.002  0.139  0.000  0.141
  2  0.002  0.139  0.000  0.141
  3  0.041  0.049  0.000  0.090
tot  0.044  0.328  0.000  0.372
 
band   6 # energy   13.67469187 # occ.  0.00000000
 
ion      s      p      d    tot
  1  0.026  0.199  0.000  0.224
  2  0.026  0.199  0.000  0.224
  3  0.027  0.213  0.000  0.241
tot  0.078  0.611  0.000  0.689
 
band   7 # energy   14.25675958 # occ.  0.00000000
 
ion      s      p      d    tot
  1  0.000  0.226  0.000  0.226
  2  0.000  0.226  0.000  0.226
  3  0.000  0.240  0.000  0.240
tot  0.000  0.692  0.000  0.692
 
band   8 # energy   15.36162325 # occ.  0.00000000
 
ion      s      p      d    tot
  1  0.159  0.019  0.000  0.179
  2  0.159  0.019  0.000  0.179
  3  0.001  0.302  0.000  0.303
tot  0.320  0.340  0.000  0.660
 
band   9 # energy   16.69602000 # occ.  0.00000000
 
ion      s      p      d    tot
  1  0.220  0.056  0.000  0.276
  2  0.220  0.056  0.000  0.276
  3  0.001  0.004  0.000  0.004
tot  0.441  0.115  0.000  0.556
 
band  10 # energy   21.64628589 # occ.  0.00000000
 
ion      s      p      d    tot
  1  0.000  0.145  0.000  0.145
  2  0.000  0.145  0.000  0.145
  3  0.088  0.048  0.000  0.136
tot  0.089  0.337  0.000  0.426
 

 k-point    9 :    0.37500000 0.37500000 0.37500000     weight = 0.03125000

band   1 # energy  -14.33198670 # occ.  1.00000000
 
ion      s      p      d    tot
  1  0.010  0.011  0.000  0.021
  2  0.010  0.011  0.000  0.021
  3  0.761  0.000  0.000  0.761
tot  0.782  0.021  0.000  0.803
 
band   2 # energy   -1.48891685 # occ.  1.00000000
 
ion      s      p      d    tot
  1  0.047  0.041  0.000  0.089
  2  0.047  0.041  0.000  0.089
  3  0.003  0.462  0.000  0.465
tot  0.098  0.545  0.000  0.642
 
band   3 # energy    0.54331301 # occ.  1.00000000
 
ion      s      p      d    tot
  1  0.000  0.031  0.000  0.031
  2  0.000  0.031  0.000  0.031
  3  0.000  0.671  0.000  0.671
tot  0.000  0.733  0.000  0.733
 
band   4 # energy    0.54331301 # occ.  1.00000000
 
ion      s      p      d    tot
  1  0.000  0.031  0.000  0.031
  2  0.000  0.031  0.000  0.031
  3  0.000  0.671  0.000  0.671
tot  0.000  0.733  0.000  0.733
 
band   5 # energy    8.87957074 # occ.  0.00000000
 
ion      s      p      d    tot
  1  0.077  0.060  0.000  0.137
  2  0.077  0.060  0.000  0.137
  3  0.073  0.191  0.000  0.263
tot  0.227  0.311  0.000  0.538
 
band   6 # energy   11.77248348 # occ.  0.00000000
 
ion      s      p      d    tot
  1  0.089  0.127  0.000  0.215
  2  0.089  0.127  0.000  0.215
  3  0.043  0.147  0.000  0.190
tot  0.220  0.400  0.000  0.621
 
band   7 # energy   13.12978599 # occ.  0.00000000
 
ion      s      p      d    tot
  1  0.000  0.258  0.000  0.258
  2  0.000  0.258  0.000  0.258
  3  0.000  0.007  0.000  0.007
tot  0.000  0.523  0.000  0.523
 
band   8 # energy   13.12978599 # occ.  0.00000000
 
ion      s      p      d    tot
  1  0.000  0.258  0.000  0.258
  2  0.000  0.258  0.000  0.258
  3  0.000  0.007  0.000  0.007
tot  0.000  0.523  0.000  0.523
 
band   9 # energy   18.20992607 # occ.  0.00000000
 
ion      s      p      d    tot
  1  0.000  0.263  0.000  0.263
  2  0.000  0.263  0.000  0.263
  3  0.000  0.101  0.000  0.101
tot  0.000  0.628  0.000  0.628
 
band  10 # energy   18.20992607 # occ.  0.00000000
 
ion      s      p      d    tot
  1  0.000  0.263  0.000  0.263
  2  0.000  0.263  0.000  0.263
  3  0.000  0.101  0.000  0.101
tot  0.000  0.628  0.000  0.628
 

 k-point   10 :   -0.37500000 0.37500000 0.37500000     weight = 0.09375000

band   1 # energy  -14.25201001 # occ.  1.00000000
 
ion      s      p      d    tot
  1  0.003  0.015  0.000  0.018
  2  0.003  0.015  0.000  0.018
  3  0.770  0.000  0.000  0.770
tot  0.776  0.030  0.000  0.806
 
band   2 # energy   -1.41451738 # occ.  1.00000000
 
ion      s      p      d    tot
  1  0.035  0.057  0.000  0.092
  2  0.035  0.057  0.000  0.092
  3  0.000  0.468  0.000  0.468
tot  0.071  0.582  0.000  0.653
 
band   3 # energy   -0.28008265 # occ.  1.00000000
 
ion      s      p      d    tot
  1  0.029  0.032  0.000  0.061
  2  0.029  0.032  0.000  0.061
  3  0.000  0.588  0.000  0.588
tot  0.059  0.651  0.000  0.710
 
band   4 # energy    0.17589215 # occ.  1.00000000
 
ion      s      p      d    tot
  1  0.000  0.048  0.000  0.048
  2  0.000  0.048  0.000  0.048
  3  0.000  0.632  0.000  0.632
tot  0.000  0.729  0.000  0.729
 
band   5 # energy    8.68905466 # occ.  0.00000000
 
ion      s      p      d    tot
  1  0.001  0.093  0.000  0.093
  2  0.001  0.093  0.000  0.093
  3  0.002  0.231  0.000  0.234
tot  0.003  0.416  0.000  0.420
 
band   6 # energy   11.29724885 # occ.  0.00000000
 
ion      s      p      d    tot
  1  0.082  0.171  0.000  0.253
  2  0.082  0.171  0.000  0.253
  3  0.103  0.046  0.000  0.149
tot  0.267  0.387  0.000  0.654
 
band   7 # energy   13.94818839 # occ.  0.00000000
 
ion      s      p      d    tot
  1  0.000  0.209  0.000  0.209
  2  0.000  0.209  0.000  0.209
  3  0.000  0.122  0.000  0.122
tot  0.000  0.539  0.000  0.539
 
band   8 # energy   14.56354908 # occ.  0.00000000
 
ion      s      p      d    tot
  1  0.113  0.092  0.000  0.205
  2  0.113  0.092  0.000  0.205
  3  0.000  0.240  0.000  0.240
tot  0.226  0.424  0.000  0.650
 
band   9 # energy   18.38133151 # occ.  0.00000000
 
ion      s      p      d    tot
  1  0.000  0.312  0.000  0.312
  2  0.000  0.312  0.000  0.312
  3  0.000  0.026  0.000  0.026
tot  0.000  0.651  0.000  0.651
 
band  10 # energy   18.63600067 # occ.  0.00000000
 
ion      s      p      d    tot
  1  0.120  0.153  0.000  0.273
  2  0.120  0.153  0.000  0.273
  3  0.009  0.052  0.000  0.061
tot  0.249  0.358  0.000  0.607
 
# of k-points:   10         # of bands:  10         # of ions:   3

 k-point    1 :    0.12500000 0.12500000 0.12500000     weight = 0.03125000

band   1 # energy  -14.51488523 # occ.  1.00000000
 
ion      s      p      d    tot
  1  0.025  0.002  0.000  0.027
  2  0.025  0.002  0.000  0.027
  3  0.741  0.000  0.000  0.741
tot  0.792  0.004  0.000  0.795
 
band   2 # energy    0.41588478 # occ.  1.00000000
 
ion      s      p      d    tot
  1  0.015  0.016  0.000  0.031
  2  0.015  0.016  0.000  0.031
  3  0.006  0.633  0.000  0.639
tot  0.036  0.666  0.000  0.702
 
band   3 # energy    0.85213770 # occ.  1.00000000
 
ion      s      p      d    tot
  1  0.000  0.015  0.000  0.015
  2  0.000  0.015  0.000  0.015
  3  0.000  0.699  0.000  0.699
tot  0.000  0.730  0.000  0.730
 
band   4 # energy    0.85213770 # occ.  1.00000000
 
ion      s      p      d    tot
  1  0.000  0.015  0.000  0.015
  2  0.000  0.015  0.000  0.015
  3  0.000  0.699  0.000  0.699
tot  0.000  0.730  0.000  0.730
 
band   5 # energy    6.56854791 # occ.  0.00000000
 
ion      s      p      d    tot
  1  0.137  0.015  0.000  0.152
  2  0.137  0.015  0.000  0.152
  3  0.130  0.055  0.000  0.185
tot  0.404  0.085  0.000  0.489
 
band   6 # energy   12.85126202 # occ.  0.00000000
 
ion      s      p      d    tot
  1  0.017  0.308  0.000  0.324
  2  0.017  0.308  0.000  0.324
  3  0.001  0.045  0.000  0.046
tot  0.034  0.661  0.000  0.695
 
band   7 # energy   13.05278760 # occ.  0.00000000
 
ion      s      p      d    tot
  1  0.000  0.342  0.000  0.342
  2  0.000  0.342  0.000  0.342
  3  0.000  0.011  0.000  0.011
tot  0.000  0.694  0.000  0.694
 
band   8 # energy   13.05278760 # occ.  0.00000000
 
ion      s      p      d    tot
  1  0.000  0.342  0.000  0.342
  2  0.000  0.342  0.000  0.342
  3  0.000  0.011  0.000  0.011
tot  0.000  0.694  0.000  0.694
 
band   9 # energy   18.55336321 # occ.  0.00000000
 
ion      s      p      d    tot
  1  0.000  0.160  0.000  0.160
  2  0.000  0.160  0.000  0.160
  3  0.000  0.000  0.000  0.000
tot  0.000  0.321  0.000  0.321
 
band  10 # energy   18.55336358 # occ.  0.00000000
 
ion      s      p      d    tot
  1  0.000  0.160  0.000  0.160
  2  0.000  0.160  0.000  0.160
  3  0.000  0.000  0.000  0.000
tot  0.000  0.321  0.000  0.321
 

 k-point    2 :    0.37500000 0.12500000 0.12500000     weight = 0.09375000

band   1 # energy  -14.37190866 # occ.  1.00000000
 
ion      s      p      d    tot
  1  0.013  0.009  0.000  0.022
  2  0.013  0.009  0.000  0.022
  3  0.757  0.000  0.000  0.757
tot  0.784  0.018  0.000  0.801
 
band   2 # energy   -0.93609993 # occ.  1.00000000
 
ion      s      p      d    tot
  1  0.039  0.035  0.000  0.074
  2  0.039  0.035  0.000  0.074
  3  0.007  0.501  0.000  0.507
tot  0.085  0.571  0.000  0.656
 
band   3 # energy    0.26649667 # occ.  1.00000000
 
ion      s      p      d    tot
  1  0.006  0.035  0.000  0.042
  2  0.006  0.035  0.000  0.042
  3  0.000  0.637  0.000  0.638
tot  0.013  0.708  0.000  0.721
 
band   4 # energy    0.67826303 # occ.  1.00000000
 
ion      s      p      d    tot
  1  0.000  0.026  0.000  0.026
  2  0.000  0.026  0.000  0.026
  3  0.000  0.684  0.000  0.684
tot  0.000  0.735  0.000  0.735
 
band   5 # energy    8.08442876 # occ.  0.00000000
 
ion      s      p      d    tot
  1  0.074  0.059  0.000  0.134
  2  0.074  0.059  0.000  0.134
  3  0.082  0.173  0.000  0.255
tot  0.230  0.292  0.000  0.522
 
band   6 # energy   12.02538830 # occ.  0.00000000
 
ion      s      p      d    tot
  1  0.044  0.209  0.000  0.254
  2  0.044  0.209  0.000  0.254
  3  0.029  0.072  0.000  0.101
tot  0.118  0.491  0.000  0.609
 
band   7 # energy   13.50465791 # occ.  0.00000000
 
ion      s      p      d    tot
  1  0.054  0.211  0.000  0.265
  2  0.054  0.211  0.000  0.265
  3  0.000  0.130  0.000  0.130
tot  0.108  0.552  0.000  0.660
 
band   8 # energy   14.06289414 # occ.  0.00000000
 
ion      s      p      d    tot
  1  0.000  0.271  0.000  0.271
  2  0.000  0.271  0.000  0.271
  3  0.000  0.002  0.000  0.002
tot  0.000  0.543  0.000  0.543
 
band   9 # energy   15.98335304 # occ.  0.00000000
 
ion      s      p      d    tot
  1  0.000  0.243  0.000  0.243
  2  0.000  0.243  0.000  0.243
  3  0.000  0.039  0.000  0.039
tot  0.000  0.524  0.000  0.524
 
band  10 # energy   19.60448554 # occ.  0.00000000
 
ion      s      p      d    tot
  1  0.039  0.184  0.000  0.223
  2  0.039  0.184  0.000  0.223
  3  0.000  0.079  0.000  0.079
tot  0.078  0.447  0.000  0.525
 

 k-point    3 :   -0.37500000 0.12500000 0.12500000     weight = 0.09375000

band   1 # energy  -14.28207522 # occ.  1.00000000
 
ion      s      p      d    tot
  1  0.006  0.013  0.000  0.019
  2  0.006  0.013  0.000  0.019
  3  0.767  0.000  0.000  0.767
tot  0.779  0.026  0.000  0.805
 
band   2 # energy   -1.67504329 # occ.  1.00000000
 
ion      s      p      d    tot
  1  0.047  0.048  0.000  0.095
  2  0.047  0.048  0.000  0.095
  3  0.000  0.451  0.000  0.451
tot  0.095  0.546  0.000  0.641
 
band   3 # energy    0.30099032 # occ.  1.00000000
 
ion      s      p      d    tot
  1  0.009  0.033  0.000  0.041
  2  0.009  0.033  0.000  0.041
  3  0.001  0.645  0.000  0.645
tot  0.018  0.710  0.000  0.728
 
band   4 # energy    0.33386740 # occ.  1.00000000
 
ion      s      p      d    tot
  1  0.000  0.041  0.000  0.041
  2  0.000  0.041  0.000  0.041
  3  0.000  0.649  0.000  0.649
tot  0.000  0.731  0.000  0.731
 
band   5 # energy    9.27680125 # occ.  0.00000000
 
ion      s      p      d    tot
  1  0.020  0.086  0.000  0.106
  2  0.020  0.086  0.000  0.106
  3  0.020  0.244  0.000  0.264
tot  0.060  0.416  0.000  0.476
 
band   6 # energy   11.15770370 # occ.  0.00000000
 
ion      s      p      d    tot
  1  0.116  0.125  0.000  0.241
  2  0.116  0.125  0.000  0.241
  3  0.093  0.060  0.000  0.153
tot  0.324  0.311  0.000  0.635
 
band   7 # energy   13.23325015 # occ.  0.00000000
 
ion      s      p      d    tot
  1  0.000  0.239  0.000  0.239
  2  0.000  0.239  0.000  0.239
  3  0.000  0.049  0.000  0.049
tot  0.000  0.527  0.000  0.527
 
band   8 # energy   13.67923043 # occ.  0.00000000
 
ion      s      p      d    tot
  1  0.040  0.179  0.000  0.219
  2  0.040  0.179  0.000  0.219
  3  0.000  0.094  0.000  0.094
tot  0.081  0.452  0.000  0.533
 
band   9 # energy   18.06273423 # occ.  0.00000000
 
ion      s      p      d    tot
  1  0.035  0.253  0.000  0.288
  2  0.035  0.253  0.000  0.288
  3  0.002  0.108  0.000  0.110
tot  0.072  0.613  0.000  0.686
 
band  10 # energy   19.20989831 # occ.  0.00000000
 
ion      s      p      d    tot
  1  0.000  0.293  0.000  0.293
  2  0.000  0.293  0.000  0.293
  3  0.000  0.123  0.000  0.123
tot  0.000  0.709  0.000  0.709
 

 k-point    4 :   -0.12500000 0.12500000 0.12500000     weight = 0.09375000

band   1 # energy  -14.43422336 # occ.  1.00000000
 
ion      s      p      d    tot
  1  0.018  0.006  0.000  0.024
  2  0.018  0.006  0.000  0.024
  3  0.750  0.000  0.000  0.750
tot  0.786  0.012  0.000  0.798
 
band   2 # energy   -0.26898980 # occ.  1.00000000
 
ion      s      p      d    tot
  1  0.032  0.023  0.000  0.054
  2  0.032  0.023  0.000  0.054
  3  0.009  0.559  0.000  0.568
tot  0.072  0.605  0.000  0.677
 
band   3 # energy    0.48353491 # occ.  1.00000000
 
ion      s      p      d    tot
  1  0.000  0.033  0.000  0.033
  2  0.000  0.033  0.000  0.033
  3  0.000  0.659  0.000  0.659
tot  0.000  0.725  0.000  0.725
 
band   4 # energy    0.62968128 # occ.  1.00000000
 
ion      s      p      d    tot
  1  0.005  0.021  0.000  0.026
  2  0.005  0.021  0.000  0.026