PROCAR lm decomposed + phase
# of k-points:   13         # of bands:   20         # of ions:    4

 k-point     1 :    0.00000000 0.00000000 0.00000000     weight = 0.01562500

band     1 # energy  -12.28198856 # occ.  1.00000000
 
ion      s     py     pz     px    dxy    dyz    dz2    dxz  x2-y2    tot
    1  0.060  0.000  0.000  0.000  0.000  0.000  0.000  0.000  0.000  0.060
    2  0.059  0.000  0.000  0.000  0.000  0.000  0.000  0.000  0.000  0.059
    3  0.339  0.000  0.000  0.000  0.000  0.000  0.000  0.000  0.000  0.339
    4  0.339  0.000  0.000  0.000  0.000  0.000  0.000  0.000  0.000  0.339
tot    0.796  0.000  0.000  0.000  0.000  0.000  0.000  0.000  0.000  0.796
ion          s             py             pz             px             dxy            dyz            dz2            dxz          dx2-y2  
    1 -0.130  0.199  -0.000 -0.000   0.000  0.000   0.000 -0.000   0.000 -0.000   0.000 -0.000   0.000  0.000   0.000 -0.000   0.000  0.000   0.057
    2 -0.129  0.197  -0.000 -0.000  -0.000  0.000  -0.000 -0.000  -0.000  0.000  -0.000  0.000  -0.000  0.000  -0.000  0.000   0.000 -0.000   0.055
    3 -0.314  0.480  -0.001  0.001  -0.001  0.001  -0.001  0.001   0.000  0.000   0.000  0.000   0.000  0.000   0.000  0.000   0.000  0.000   0.329
    4 -0.314  0.480   0.001 -0.001   0.001 -0.001   0.001 -0.001   0.000  0.000   0.000  0.000   0.000  0.000   0.000  0.000   0.000  0.000   0.329
charge 0.769          0.000          0.000          0.000          0.000          0.000          0.000          0.000          0.000          0.769       
 
band     2 # energy  -10.87401691 # occ.  1.00000000
 
ion      s     py     pz     px    dxy    dyz    dz2    dxz  x2-y2    tot
    1  0.000  0.010  0.010  0.010  0.000  0.000  0.000  0.000  0.000  0.031
    2  0.000  0.010  0.010  0.010  0.000  0.000  0.000  0.000  0.000  0.030
    3  0.389  0.000  0.000  0.000  0.000  0.000  0.000  0.000  0.000  0.389
    4  0.389  0.000  0.000  0.000  0.000  0.000  0.000  0.000  0.000  0.389
tot    0.778  0.020  0.020  0.020  0.000  0.000  0.000  0.000  0.000  0.839
ion          s             py             pz             px             dxy            dyz            dz2            dxz          dx2-y2  
    1 -0.000 -0.000   0.095 -0.024   0.095 -0.024   0.095 -0.024  -0.000 -0.000   0.000  0.000   0.000 -0.000  -0.000  0.000  -0.000  0.000   0.029
    2  0.000  0.000  -0.095  0.024  -0.095  0.024  -0.095  0.024  -0.000  0.000   0.000 -0.000   0.000 -0.000   0.000  0.000   0.000  0.000   0.029
    3 -0.597  0.152  -0.002  0.000  -0.002  0.000  -0.002  0.000   0.000  0.000   0.000  0.000   0.000  0.000   0.000  0.000   0.000  0.000   0.380
    4  0.597 -0.152  -0.002  0.000  -0.002  0.000  -0.002  0.000   0.000  0.000   0.000  0.000   0.000  0.000   0.000  0.000   0.000  0.000   0.380
charge 0.759          0.019          0.019          0.019          0.000          0.000          0.000          0.000          0.000          0.817       
 
band     3 # energy   -0.14190548 # occ.  1.00000000
 
ion      s     py     pz     px    dxy    dyz    dz2    dxz  x2-y2    tot
    1  0.100  0.000  0.000  0.000  0.023  0.023  0.000  0.023  0.000  0.169
    2  0.101  0.000  0.000  0.000  0.019  0.019  0.000  0.019  0.000  0.159
    3  0.000  0.062  0.062  0.062  0.000  0.000  0.000  0.000  0.000  0.187
    4  0.000  0.062  0.062  0.062  0.000  0.000  0.000  0.000  0.000  0.187
tot    0.202  0.125  0.125  0.125  0.042  0.042  0.000  0.042  0.000  0.702
ion          s             py             pz             px             dxy            dyz            dz2            dxz          dx2-y2  
    1  0.192 -0.247   0.000  0.000   0.000 -0.000   0.000  0.000  -0.088  0.114  -0.088  0.114   0.000  0.000  -0.088  0.114  -0.000  0.000   0.160
    2 -0.193  0.248   0.000  0.000  -0.000 -0.000   0.000  0.000   0.080 -0.103   0.080 -0.103  -0.000  0.000   0.080 -0.103   0.000 -0.000   0.149
    3 -0.001  0.001   0.147 -0.190   0.147 -0.190   0.147 -0.190   0.000  0.000   0.000  0.000   0.000  0.000   0.000  0.000   0.000  0.000   0.173
    4 -0.001  0.001  -0.147  0.190  -0.147  0.190  -0.147  0.190   0.000  0.000   0.000  0.000   0.000  0.000   0.000  0.000   0.000  0.000   0.173
charge 0.197          0.115          0.115          0.115          0.038          0.038          0.000          0.038          0.000          0.656       
 
band     4 # energy    2.45553846 # occ.  1.00000000
 
ion      s     py     pz     px    dxy    dyz    dz2    dxz  x2-y2    tot
    1  0.000  0.000  0.000  0.000  0.018  0.003  0.322  0.007  0.006  0.355
    2  0.000  0.000  0.000  0.000  0.012  0.002  0.098  0.005  0.002  0.119
    3  0.000  0.048  0.126  0.019  0.000  0.000  0.000  0.000  0.000  0.193
    4  0.000  0.048  0.126  0.019  0.000  0.000  0.000  0.000  0.000  0.193
tot    0.000  0.096  0.253  0.038  0.030  0.004  0.421  0.011  0.007  0.860
ion          s             py             pz             px             dxy            dyz            dz2            dxz          dx2-y2  
    1 -0.000 -0.000   0.000 -0.000   0.000 -0.000   0.000 -0.000  -0.046  0.124   0.018 -0.048  -0.197  0.530   0.028 -0.076  -0.026  0.070   0.352
    2  0.000  0.000   0.000  0.000  -0.000  0.000  -0.000  0.000   0.038 -0.101  -0.015  0.039   0.105 -0.283  -0.023  0.062   0.014 -0.038   0.111
    3 -0.000  0.000   0.074 -0.199  -0.120  0.324   0.046 -0.125   0.000  0.000   0.000  0.000   0.000  0.000   0.000  0.000   0.000  0.000   0.182
    4 -0.000  0.000  -0.074  0.199   0.120 -0.324  -0.046  0.125   0.000  0.000   0.000  0.000   0.000  0.000   0.000  0.000   0.000  0.000   0.182
charge 0.000          0.090          0.239          0.035          0.029          0.004          0.411          0.011          0.007          0.827       
 
band     5 # energy    2.45562050 # occ.  1.00000000
 
ion      s     py     pz     px    dxy    dyz    dz2    dxz  x2-y2    tot
    1  0.000  0.000  0.000  0.000  0.000  0.016  0.006  0.011  0.322  0.355
    2  0.000  0.000  0.000  0.000  0.000  0.011  0.002  0.008  0.098  0.119
    3  0.000  0.081  0.002  0.110  0.000  0.000  0.000  0.000  0.000  0.193
    4  0.000  0.081  0.002  0.110  0.000  0.000  0.000  0.000  0.000  0.193
tot    0.000  0.162  0.004  0.220  0.001  0.026  0.007  0.019  0.421  0.860
ion          s             py             pz             px             dxy            dyz            dz2            dxz          dx2-y2  
    1 -0.000 -0.000  -0.000 -0.000  -0.000 -0.000   0.000  0.000   0.017 -0.004  -0.120  0.027   0.073 -0.016   0.103 -0.023  -0.552  0.123   0.352
    2  0.000  0.000  -0.000  0.000   0.000 -0.000   0.000  0.000  -0.014  0.003   0.098 -0.022  -0.039  0.009  -0.084  0.019   0.295 -0.066   0.111
    3  0.000 -0.000   0.270 -0.060   0.045 -0.010  -0.314  0.070   0.000  0.000   0.000  0.000   0.000  0.000   0.000  0.000   0.000  0.000   0.182
    4 -0.000 -0.000  -0.270  0.060  -0.045  0.010   0.314 -0.070   0.000  0.000   0.000  0.000   0.000  0.000   0.000  0.000   0.000  0.000   0.182
charge 0.000          0.153          0.004          0.207          0.001          0.025          0.007          0.019          0.411          0.827       
 
band     6 # energy    5.13231468 # occ.  1.00000000
 
ion      s     py     pz     px    dxy    dyz    dz2    dxz  x2-y2    tot
    1  0.000  0.009  0.010  0.000  0.000  0.000  0.000  0.000  0.000  0.019
    2  0.000  0.009  0.010  0.000  0.000  0.000  0.000  0.000  0.000  0.019
    3  0.000  0.177  0.204  0.001  0.000  0.000  0.000  0.000  0.000  0.382
    4  0.000  0.177  0.204  0.001  0.000  0.000  0.000  0.000  0.000  0.382
tot    0.000  0.372  0.428  0.002  0.000  0.000  0.000  0.000  0.000  0.801
ion          s             py             pz             px             dxy            dyz            dz2            dxz          dx2-y2  
    1  0.000  0.000  -0.090  0.023   0.097 -0.025  -0.007  0.002  -0.000 -0.000   0.000 -0.000   0.000  0.000  -0.000  0.000  -0.000  0.000   0.019
    2 -0.000 -0.000  -0.089  0.023   0.096 -0.025  -0.006  0.002  -0.000 -0.000   0.000 -0.000   0.000  0.000  -0.000 -0.000  -0.000  0.000   0.018
    3 -0.000 -0.000   0.399 -0.103  -0.428  0.110   0.029 -0.007   0.000  0.000   0.000  0.000   0.000  0.000   0.000  0.000   0.000  0.000   0.366
    4 -0.000  0.000   0.399 -0.103  -0.428  0.110   0.029 -0.007   0.000  0.000   0.000  0.000   0.000  0.000   0.000  0.000   0.000  0.000   0.366
charge 0.000          0.357          0.411          0.002          0.000          0.000          0.000          0.000          0.000          0.769       
 
band     7 # energy    5.13231629 # occ.  1.00000000
 
ion      s     py     pz     px    dxy    dyz    dz2    dxz  x2-y2    tot
    1  0.000  0.004  0.003  0.013  0.000  0.000  0.000  0.000  0.000  0.019
    2  0.000  0.004  0.002  0.012  0.000  0.000  0.000  0.000  0.000  0.019
    3  0.000  0.078  0.051  0.253  0.000  0.000  0.000  0.000  0.000  0.382
    4  0.000  0.078  0.051  0.253  0.000  0.000  0.000  0.000  0.000  0.382
tot    0.000  0.163  0.107  0.532  0.000  0.000  0.000  0.000  0.000  0.801
ion          s             py             pz             px             dxy            dyz            dz2            dxz          dx2-y2  
    1  0.000 -0.000   0.060 -0.015   0.048 -0.012  -0.108  0.028  -0.000 -0.000  -0.000  0.000  -0.000  0.000   0.000 -0.000   0.000 -0.000   0.019
    2 -0.000 -0.000   0.059 -0.015   0.048 -0.012  -0.107  0.027   0.000  0.000  -0.000 -0.000  -0.000 -0.000  -0.000  0.000  -0.000  0.000   0.018
    3  0.000 -0.000  -0.264  0.067  -0.214  0.055   0.478 -0.122   0.000  0.000   0.000  0.000   0.000  0.000   0.000  0.000   0.000  0.000   0.366
    4  0.000 -0.000  -0.264  0.067  -0.214  0.055   0.478 -0.122   0.000  0.000   0.000  0.000   0.000  0.000   0.000  0.000   0.000  0.000   0.366
charge 0.000          0.156          0.103          0.511          0.000          0.000          0.000          0.000          0.000          0.769       
 
band     8 # energy    5.13420912 # occ.  1.00000000
 
ion      s     py     pz     px    dxy    dyz    dz2    dxz  x2-y2    tot
    1  0.000  0.006  0.006  0.006  0.000  0.000  0.000  0.000  0.000  0.018
    2  0.000  0.006  0.006  0.006  0.000  0.000  0.000  0.000  0.000  0.019
    3  0.000  0.127  0.127  0.127  0.000  0.000  0.000  0.000  0.000  0.382
    4  0.000  0.127  0.127  0.127  0.000  0.000  0.000  0.000  0.000  0.382
tot    0.000  0.267  0.267  0.267  0.000  0.000  0.000  0.000  0.000  0.801
ion          s             py             pz             px             dxy            dyz            dz2            dxz          dx2-y2  
    1 -0.000  0.000  -0.075  0.019  -0.075  0.019  -0.075  0.019  -0.000  0.000  -0.000 -0.000  -0.000 -0.000   0.000 -0.000   0.000 -0.000   0.018
    2 -0.000 -0.000  -0.077  0.020  -0.077  0.020  -0.077  0.020   0.000 -0.000   0.000  0.000  -0.000  0.000  -0.000 -0.000  -0.000 -0.000   0.019
    3 -0.002  0.000   0.338 -0.086   0.338 -0.086   0.339 -0.086   0.000  0.000   0.000  0.000   0.000  0.000   0.000  0.000   0.000  0.000   0.366
    4  0.002 -0.000   0.338 -0.086   0.338 -0.086   0.339 -0.086   0.000  0.000   0.000  0.000   0.000  0.000   0.000  0.000   0.000  0.000   0.366
charge 0.000          0.256          0.256          0.257          0.000          0.000          0.000          0.000          0.000          0.769       
 
band     9 # energy    5.54921517 # occ.  1.00000000
 
ion      s     py     pz     px    dxy    dyz    dz2    dxz  x2-y2    tot
    1  0.000  0.000  0.000  0.000  0.490  0.160  0.111  0.090  0.001  0.851
    2  0.000  0.000  0.000  0.000  0.053  0.017  0.018  0.010  0.000  0.098
    3  0.000  0.000  0.001  0.000  0.000  0.000  0.000  0.000  0.000  0.001
    4  0.000  0.000  0.001  0.000  0.000  0.000  0.000  0.000  0.000  0.001
tot    0.000  0.000  0.001  0.000  0.542  0.177  0.129  0.099  0.001  0.951
ion          s             py             pz             px             dxy            dyz            dz2            dxz          dx2-y2  
    1  0.000 -0.000   0.000 -0.000   0.000 -0.000   0.000 -0.000   0.060 -0.696  -0.034  0.398  -0.028  0.328  -0.026  0.298   0.002 -0.027   0.846
    2 -0.000  0.000   0.000 -0.000   0.000  0.000   0.000  0.000   0.020 -0.229  -0.011  0.131  -0.012  0.133  -0.008  0.098   0.001 -0.011   0.097
    3  0.000 -0.000  -0.001  0.011   0.002 -0.026  -0.001  0.015   0.000  0.000   0.000  0.000   0.000  0.000   0.000  0.000   0.000  0.000   0.001
    4  0.000 -0.000   0.001 -0.011  -0.002  0.026   0.001 -0.015   0.000  0.000   0.000  0.000   0.000  0.000   0.000  0.000   0.000  0.000   0.001
charge 0.000          0.000          0.001          0.000          0.540          0.176          0.127          0.099          0.001          0.945       
 
band    10 # energy    5.54925971 # occ.  1.00000000
 
ion      s     py     pz     px    dxy    dyz    dz2    dxz  x2-y2    tot
    1  0.000  0.000  0.000  0.000  0.003  0.333  0.001  0.403  0.111  0.851
    2  0.000  0.000  0.000  0.000  0.000  0.036  0.000  0.043  0.018  0.098
    3  0.000  0.001  0.000  0.000  0.000  0.000  0.000  0.000  0.000  0.001
    4  0.000  0.001  0.000  0.000  0.000  0.000  0.000  0.000  0.000  0.001
tot    0.000  0.001  0.000  0.001  0.004  0.369  0.001  0.446  0.129  0.951
ion          s             py             pz             px             dxy            dyz            dz2            dxz          dx2-y2  
    1  0.000 -0.000   0.000 -0.000   0.000 -0.000   0.000  0.000   0.056 -0.014   0.557 -0.144  -0.026  0.007  -0.613  0.159  -0.319  0.083   0.846
    2 -0.000  0.000   0.000 -0.000  -0.000 -0.000   0.000  0.000   0.018 -0.005   0.183 -0.047  -0.011  0.003  -0.201  0.052  -0.129  0.033   0.097
    3 -0.000  0.000  -0.023  0.006   0.002 -0.001   0.021 -0.005   0.000  0.000   0.000  0.000   0.000  0.000   0.000  0.000   0.000  0.000   0.001
    4 -0.000  0.000   0.023 -0.006  -0.002  0.001  -0.021  0.005   0.000  0.000   0.000  0.000   0.000  0.000   0.000  0.000   0.000  0.000   0.001
charge 0.000          0.001          0.000          0.001          0.004          0.367          0.001          0.445          0.126          0.945       
 
band    11 # energy    5.64105622 # occ.  1.00000000
 
ion      s     py     pz     px    dxy    dyz    dz2    dxz  x2-y2    tot
    1  0.001  0.000  0.000  0.000  0.230  0.230  0.000  0.231  0.000  0.693
    2  0.001  0.000  0.000  0.000  0.080  0.081  0.000  0.081  0.000  0.243
    3  0.000  0.001  0.001  0.001  0.000  0.000  0.000  0.000  0.000  0.004
    4  0.000  0.001  0.001  0.001  0.000  0.000  0.000  0.000  0.000  0.004
tot    0.003  0.003  0.003  0.003  0.311  0.311  0.000  0.311  0.000  0.943
ion          s             py             pz             px             dxy            dyz            dz2            dxz          dx2-y2  
    1  0.025 -0.028  -0.000 -0.000  -0.000 -0.000  -0.000 -0.000   0.317 -0.359   0.317 -0.359   0.000 -0.000   0.317 -0.359   0.000 -0.000   0.689
    2 -0.025  0.028  -0.000  0.000   0.000  0.000  -0.000  0.000   0.188 -0.213   0.188 -0.213   0.000 -0.000   0.188 -0.213   0.000 -0.000   0.243
    3 -0.000  0.000   0.023 -0.027   0.023 -0.027   0.023 -0.027   0.000  0.000   0.000  0.000   0.000  0.000   0.000  0.000   0.000  0.000   0.004
    4 -0.000  0.000  -0.023  0.027  -0.023  0.027  -0.023  0.027   0.000  0.000   0.000  0.000   0.000  0.000   0.000  0.000   0.000  0.000   0.004
charge 0.003          0.003          0.003          0.003          0.310          0.310          0.000          0.310          0.000          0.939       
 
band    12 # energy    5.88004800 # occ.  1.00000000
 
ion      s     py     pz     px    dxy    dyz    dz2    dxz  x2-y2    tot
    1  0.000  0.000  0.000  0.000  0.025  0.002  0.414  0.013  0.028  0.482
    2  0.000  0.000  0.000  0.000  0.110  0.008  0.214  0.058  0.014  0.404
    3  0.000  0.011  0.020  0.002  0.000  0.000  0.000  0.000  0.000  0.032
    4  0.000  0.011  0.020  0.002  0.000  0.000  0.000  0.000  0.000  0.032
tot    0.000  0.021  0.040  0.003  0.135  0.010  0.627  0.071  0.042  0.950
ion          s             py             pz             px             dxy            dyz            dz2            dxz          dx2-y2  
    1  0.000 -0.000  -0.000  0.000  -0.000  0.000  -0.000  0.000   0.050 -0.151  -0.014  0.041   0.200 -0.601  -0.036  0.109   0.052 -0.156   0.468
    2  0.000 -0.000   0.000 -0.000   0.000 -0.000   0.000 -0.000   0.105 -0.314  -0.029  0.086   0.146 -0.438  -0.076  0.228   0.038 -0.114   0.403
    3 -0.000  0.000   0.032 -0.096  -0.044  0.132   0.012 -0.036   0.000  0.000   0.000  0.000   0.000  0.000   0.000  0.000   0.000  0.000   0.031
    4 -0.000  0.000  -0.032  0.096   0.044 -0.132  -0.012  0.036   0.000  0.000   0.000  0.000   0.000  0.000   0.000  0.000   0.000  0.000   0.031
charge 0.000          0.020          0.039          0.003          0.135          0.010          0.614          0.071          0.041          0.933       
 
band    13 # energy    5.88010188 # occ.  1.00000000
 
ion      s     py     pz     px    dxy    dyz    dz2    dxz  x2-y2    tot
    1  0.000  0.000  0.000  0.000  0.002  0.025  0.028  0.014  0.414  0.482
    2  0.000  0.000  0.000  0.000  0.007  0.109  0.014  0.059  0.214  0.404
    3  0.000  0.011  0.001  0.020  0.000  0.000  0.000  0.000  0.000  0.032
    4  0.000  0.011  0.001  0.020  0.000  0.000  0.000  0.000  0.000  0.032
tot    0.000  0.022  0.003  0.040  0.009  0.134  0.042  0.073  0.627  0.950
ion          s             py             pz             px             dxy            dyz            dz2            dxz          dx2-y2  
    1  0.000  0.000  -0.000 -0.000   0.000 -0.000   0.000  0.000   0.041  0.003  -0.158 -0.012   0.164  0.012   0.117  0.009  -0.631 -0.047   0.468
    2  0.000  0.000  -0.000 -0.000   0.000  0.000   0.000  0.000   0.086  0.006  -0.329 -0.024   0.120  0.009   0.243  0.018  -0.460 -0.034   0.403
    3 -0.000 -0.000  -0.102 -0.008  -0.036 -0.003   0.138  0.010   0.000  0.000   0.000  0.000   0.000  0.000   0.000  0.000   0.000  0.000   0.031
    4 -0.000 -0.000   0.102  0.008   0.036  0.003  -0.138 -0.010   0.000  0.000   0.000  0.000   0.000  0.000   0.000  0.000   0.000  0.000   0.031
charge 0.000          0.021          0.003          0.038          0.009          0.134          0.041          0.073          0.614          0.933       
 
band    14 # energy    6.81747693 # occ.  1.00000000
 
ion      s     py     pz     px    dxy    dyz    dz2    dxz  x2-y2    tot
    1  0.000  0.000  0.000  0.000  0.005  0.090  0.000  0.053  0.008  0.155
    2  0.000  0.000  0.000  0.000  0.022  0.411  0.006  0.241  0.107  0.787
    3  0.000  0.005  0.000  0.009  0.000  0.000  0.000  0.000  0.000  0.015
    4  0.000  0.005  0.000  0.009  0.000  0.000  0.000  0.000  0.000  0.015
tot    0.000  0.011  0.001  0.018  0.027  0.500  0.006  0.294  0.116  0.973
ion          s             py             pz             px             dxy            dyz            dz2            dxz          dx2-y2  
    1  0.000  0.000   0.000  0.000  -0.000 -0.000  -0.000 -0.000  -0.068 -0.006   0.294  0.028  -0.020 -0.002  -0.225 -0.021   0.087  0.008   0.151
    2 -0.000 -0.000   0.000 -0.000  -0.000 -0.000  -0.000 -0.000   0.148  0.014  -0.636 -0.060  -0.075 -0.007   0.487  0.046   0.326  0.031   0.782
    3  0.000  0.000   0.072  0.007   0.022  0.002  -0.094 -0.009   0.000  0.000   0.000  0.000   0.000  0.000   0.000  0.000   0.000  0.000   0.015
    4  0.000  0.000  -0.072 -0.007  -0.022 -0.002   0.094  0.009   0.000  0.000   0.000  0.000   0.000  0.000   0.000  0.000   0.000  0.000   0.015
charge 0.000          0.010          0.001          0.018          0.027          0.495          0.006          0.291          0.115          0.962       
 
band    15 # energy    6.81762489 # occ.  1.00000000
 
ion      s     py     pz     px    dxy    dyz    dz2    dxz  x2-y2    tot
    1  0.000  0.000  0.000  0.000  0.093  0.009  0.008  0.045  0.000  0.155
    2  0.000  0.000  0.000  0.000  0.427  0.039  0.107  0.208  0.006  0.788
    3  0.000  0.005  0.009  0.001  0.000  0.000  0.000  0.000  0.000  0.015
    4  0.000  0.005  0.009  0.001  0.000  0.000  0.000  0.000  0.000  0.015
tot    0.000  0.009  0.019  0.002  0.520  0.048  0.115  0.254  0.006  0.973
ion          s             py             pz             px             dxy            dyz            dz2            dxz          dx2-y2  
    1  0.000 -0.000   0.000 -0.000   0.000 -0.000   0.000 -0.000  -0.087  0.288   0.026 -0.087  -0.025  0.083   0.061 -0.201  -0.006  0.019   0.151
    2 -0.000  0.000  -0.000  0.000  -0.000  0.000  -0.000  0.000   0.189 -0.623  -0.057  0.188  -0.095  0.314  -0.132  0.435  -0.022  0.072   0.782
    3  0.000 -0.000  -0.019  0.064   0.028 -0.092  -0.008  0.028   0.000  0.000   0.000  0.000   0.000  0.000   0.000  0.000   0.000  0.000   0.015
    4  0.000 -0.000   0.019 -0.064  -0.028  0.092   0.008 -0.028   0.000  0.000   0.000  0.000   0.000  0.000   0.000  0.000   0.000  0.000   0.015
charge 0.000          0.009          0.018          0.002          0.514          0.047          0.115          0.251          0.006          0.962       
 
band    16 # energy    7.09875416 # occ.  0.99999999
 
ion      s     py     pz     px    dxy    dyz    dz2    dxz  x2-y2    tot
    1  0.012  0.000  0.000  0.000  0.067  0.067  0.000  0.067  0.000  0.213
    2  0.013  0.000  0.000  0.000  0.219  0.219  0.000  0.219  0.000  0.669
    3  0.000  0.015  0.014  0.015  0.000  0.000  0.000  0.000  0.000  0.044
    4  0.000  0.015  0.014  0.015  0.000  0.000  0.000  0.000  0.000  0.044
tot    0.025  0.029  0.029  0.029  0.286  0.285  0.000  0.286  0.000  0.970
ion          s             py             pz             px             dxy            dyz            dz2            dxz          dx2-y2  
    1  0.074 -0.083  -0.000 -0.000  -0.000 -0.000  -0.000 -0.000   0.169 -0.189   0.169 -0.189   0.000 -0.000   0.169 -0.189  -0.000  0.000   0.206
    2 -0.075  0.084  -0.000  0.000   0.000  0.000  -0.000  0.000  -0.310  0.347  -0.310  0.346   0.000 -0.000  -0.310  0.347  -0.000  0.000   0.661
    3  0.000 -0.000   0.079 -0.088   0.079 -0.088   0.079 -0.088   0.000  0.000   0.000  0.000   0.000  0.000   0.000  0.000   0.000  0.000   0.042
    4  0.000 -0.000  -0.079  0.088  -0.079  0.088  -0.079  0.088   0.000  0.000   0.000  0.000   0.000  0.000   0.000  0.000   0.000  0.000   0.042
charge 0.025          0.028          0.028          0.028          0.281          0.280          0.000          0.281          0.000          0.951       
 
band    17 # energy    9.50073972 # occ.  0.00000000
 
ion      s     py     pz     px    dxy    dyz    dz2    dxz  x2-y2    tot
    1  0.000  0.000  0.000  0.000  0.000  0.003  0.002  0.004  0.114  0.123
    2  0.000  0.000  0.000  0.000  0.000  0.004  0.008  0.006  0.533  0.552
    3  0.000  0.082  0.001  0.061  0.000  0.000  0.000  0.000  0.000  0.145
    4  0.000  0.082  0.001  0.061  0.000  0.000  0.000  0.000  0.000  0.145
tot    0.000  0.163  0.003  0.123  0.000  0.007  0.010  0.010  0.647  0.964
ion          s             py             pz             px             dxy            dyz            dz2            dxz          dx2-y2  
    1  0.000 -0.000  -0.000  0.000  -0.000  0.000  -0.000  0.000   0.007 -0.004   0.043 -0.026   0.031 -0.019  -0.049  0.030   0.254 -0.154   0.095
    2  0.000 -0.000  -0.000 -0.000  -0.000 -0.000  -0.000  0.000  -0.008  0.005  -0.054  0.033  -0.075  0.045   0.062 -0.038  -0.608  0.369   0.522
    3 -0.000  0.000   0.242 -0.147  -0.032  0.020  -0.210  0.127   0.000  0.000   0.000  0.000   0.000  0.000   0.000  0.000   0.000  0.000   0.142
    4 -0.000  0.000  -0.242  0.147   0.032 -0.020   0.210 -0.127   0.000  0.000   0.000  0.000   0.000  0.000   0.000  0.000   0.000  0.000   0.142
charge 0.000          0.160          0.003          0.121          0.000          0.006          0.009          0.009          0.593          0.901       
 
band    18 # energy    9.50105015 # occ.  0.00000000
 
ion      s     py     pz     px    dxy    dyz    dz2    dxz  x2-y2    tot
    1  0.000  0.000  0.000  0.000  0.005  0.002  0.114  0.001  0.002  0.123
    2  0.000  0.000  0.000  0.000  0.007  0.002  0.533  0.001  0.008  0.552
    3  0.000  0.015  0.095  0.035  0.000  0.000  0.000  0.000  0.000  0.145
    4  0.000  0.015  0.095  0.035  0.000  0.000  0.000  0.000  0.000  0.145
tot    0.000  0.029  0.190  0.070  0.011  0.004  0.647  0.002  0.010  0.964
ion          s             py             pz             px             dxy            dyz            dz2            dxz          dx2-y2  
    1  0.000 -0.000   0.000  0.000   0.000 -0.000   0.000 -0.000  -0.015  0.060   0.009 -0.037  -0.071  0.288   0.006 -0.024   0.009 -0.035   0.095
    2  0.000 -0.000  -0.000  0.000  -0.000  0.000  -0.000  0.000   0.019 -0.076  -0.011  0.046   0.170 -0.690  -0.007  0.030  -0.021  0.085   0.522
    3 -0.000  0.000  -0.029  0.117   0.073 -0.296  -0.044  0.180   0.000  0.000   0.000  0.000   0.000  0.000   0.000  0.000   0.000  0.000   0.142
    4 -0.000  0.000   0.029 -0.117  -0.073  0.296   0.044 -0.180   0.000  0.000   0.000  0.000   0.000  0.000   0.000  0.000   0.000  0.000   0.142
charge 0.000          0.029          0.186          0.069          0.010          0.004          0.593          0.002          0.009          0.901       
 
band    19 # energy    9.67487562 # occ.  0.00000000
 
ion      s     py     pz     px    dxy    dyz    dz2    dxz  x2-y2    tot
    1  0.213  0.000  0.000  0.000  0.000  0.000  0.000  0.000  0.000  0.213
    2  0.202  0.000  0.000  0.000  0.000  0.000  0.000  0.000  0.000  0.202
    3  0.133  0.000  0.000  0.000  0.000  0.000  0.000  0.000  0.000  0.133
    4  0.133  0.000  0.000  0.000  0.000  0.000  0.000  0.000  0.000  0.133
tot    0.681  0.000  0.000  0.000  0.000  0.000  0.000  0.000  0.000  0.681
ion          s             py             pz             px             dxy            dyz            dz2            dxz          dx2-y2  
    1 -0.295  0.354   0.000 -0.000   0.000  0.000   0.000  0.000  -0.000  0.000  -0.000  0.000  -0.000  0.000  -0.000  0.000   0.000 -0.000   0.213
    2 -0.287  0.345   0.000  0.000   0.000 -0.000   0.000  0.000   0.000 -0.000   0.000 -0.000   0.000 -0.000   0.000 -0.000  -0.000  0.000   0.201
    3  0.231 -0.277   0.002 -0.002   0.002 -0.002   0.001 -0.002   0.000  0.000   0.000  0.000   0.000  0.000   0.000  0.000   0.000  0.000   0.130
    4  0.231 -0.277  -0.002  0.002  -0.002  0.002  -0.001  0.002   0.000  0.000   0.000  0.000   0.000  0.000   0.000  0.000   0.000  0.000   0.130
charge 0.674          0.000          0.000          0.000          0.000          0.000          0.000          0.000          0.000          0.675       
 
band    20 # energy   13.64623372 # occ.  0.00000000
 
ion      s     py     pz     px    dxy    dyz    dz2    dxz  x2-y2    tot
    1  0.000  0.059  0.059  0.059  0.000  0.000  0.000  0.000  0.000  0.178
    2  0.000  0.058  0.058  0.058  0.000  0.000  0.000  0.000  0.000  0.174
    3  0.057  0.000  0.000  0.000  0.000  0.000  0.000  0.000  0.000  0.057
    4  0.057  0.000  0.000  0.000  0.000  0.000  0.000  0.000  0.000  0.057
tot    0.113  0.117  0.117  0.117  0.000  0.000  0.000  0.000  0.000  0.465
ion          s             py             pz             px             dxy            dyz            dz2            dxz          dx2-y2  
    1 -0.000  0.000  -0.235  0.060  -0.235  0.060  -0.235  0.060   0.000 -0.000   0.000 -0.000   0.000  0.000  -0.000 -0.000  -0.000  0.000   0.177
    2  0.000 -0.000   0.232 -0.059   0.232 -0.059   0.232 -0.059   0.000  0.000  -0.000 -0.000   0.000  0.000   0.000 -0.000  -0.000  0.000   0.173
    3 -0.225  0.057  -0.000  0.000  -0.000  0.000  -0.000  0.000   0.000  0.000   0.000  0.000   0.000  0.000   0.000  0.000   0.000  0.000   0.054
    4  0.225 -0.057  -0.000  0.000  -0.000  0.000  -0.000  0.000   0.000  0.000   0.000  0.000   0.000  0.000   0.000  0.000   0.000  0.000   0.054
charge 0.108          0.117          0.117          0.117          0.000          0.000          0.000          0.000          0.000          0.458       
 

 k-point     2 :    0.25000000-0.00000000-0.00000000     weight = 0.09375000

band     1 # energy  -11.69643751 # occ.  1.00000000
 
ion      s     py     pz     px    dxy    dyz    dz2    dxz  x2-y2    tot
    1  0.037  0.001  0.001  0.008  0.000  0.000  0.000  0.000  0.001  0.050
    2  0.037  0.001  0.001  0.008  0.000  0.000  0.000  0.000  0.001  0.049
    3  0.357  0.000  0.000  0.000  0.000  0.000  0.000  0.000  0.000  0.357
    4  0.357  0.000  0.000  0.000  0.000  0.000  0.000  0.000  0.000  0.357
tot    0.787  0.003  0.003  0.018  0.000  0.000  0.001  0.000  0.003  0.814
ion          s             py             pz             px             dxy            dyz            dz2            dxz          dx2-y2  
    1 -0.087 -0.166  -0.031  0.016  -0.031  0.016   0.079 -0.042  -0.001 -0.002   0.000  0.001  -0.008 -0.015  -0.001 -0.002   0.014  0.026   0.047
    2 -0.087 -0.164  -0.031  0.016  -0.031  0.016   0.078 -0.041  -0.001 -0.002   0.000  0.000  -0.007 -0.013  -0.001 -0.002   0.012  0.023   0.046
    3 -0.276 -0.520  -0.007  0.002  -0.007  0.002   0.017 -0.011   0.000  0.000   0.000  0.000   0.000  0.000   0.000  0.000   0.000  0.000   0.347
    4 -0.274 -0.521  -0.006  0.005  -0.006  0.005   0.019 -0.008   0.000  0.000   0.000  0.000   0.000  0.000   0.000  0.000   0.000  0.000   0.347
charge 0.763          0.003          0.003          0.017          0.000          0.000          0.001          0.000          0.002          0.787       
 
band     2 # energy  -10.78153074 # occ.  1.00000000
 
ion      s     py     pz     px    dxy    dyz    dz2    dxz  x2-y2    tot
    1  0.000  0.009  0.009  0.002  0.000  0.000  0.003  0.000  0.010  0.033
    2  0.000  0.009  0.009  0.002  0.000  0.000  0.003  0.000  0.009  0.031
    3  0.392  0.000  0.000  0.000  0.000  0.000  0.000  0.000  0.000  0.392