<?xml version="1.0" encoding="ISO-8859-1"?>
<modeling>
 <generator>
  <i name="program" type="string">vasp </i>
  <i name="version" type="string">5.4.4.18Apr17-6-g9f103f2a35  </i>
  <i name="subversion" type="string">(build Feb 28 2019 12:03:04) complex            parallel </i>
  <i name="platform" type="string">LinuxIFC </i>
  <i name="date" type="string">2019 06 13 </i>
  <i name="time" type="string">07:00:08 </i>
 </generator>
 <incar>
  <i type="string" name="SYSTEM"> TbO2</i>
  <i type="int" name="ISTART">     0</i>
  <i type="string" name="PREC">accurate</i>
  <i type="string" name="ALGO"> Normal</i>
  <i type="logical" name="LDIAG"> T  </i>
  <i type="int" name="ISPIN">     2</i>
  <i type="int" name="IMIX">     1</i>
  <i name="AMIX">      0.10000000</i>
  <i name="BMIX">      0.01000000</i>
  <i type="int" name="ICHARG">     2</i>
  <i type="int" name="NELM">    60</i>
  <i type="int" name="IBRION">     2</i>
  <i type="int" name="NFREE">     4</i>
  <i name="EDIFF">      0.00000010</i>
  <i name="EDIFFG">      0.00001000</i>
  <i type="int" name="NSW">    20</i>
  <i type="int" name="ISIF">     3</i>
  <i name="ENCUT">    600.00000000</i>
  <i type="int" name="NBANDS">   140</i>
  <i name="POTIM">      0.01000000</i>
  <i type="int" name="NEDOS">  1400</i>
  <v name="MAGMOM">      7.00000000      7.00000000      7.00000000      7.00000000      0.20000000      0.20000000      0.20000000      0.20000000      0.20000000      0.20000000      0.20000000      0.20000000</v>
  <i type="logical" name="LREAL"> F  </i>
  <i name="TIME">      0.40000000</i>
  <i type="int" name="ISMEAR">     0</i>
  <i name="SIGMA">      0.01000000</i>
  <i type="int" name="LMAXMIX">     6</i>
  <i type="logical" name="LWAVE"> T  </i>
  <i type="logical" name="LCHARG"> T  </i>
  <i type="logical" name="LVHAR"> T  </i>
  <i type="int" name="LORBIT">    11</i>
  <i type="logical" name="LASPH"> T  </i>
  <i type="logical" name="LAECHG"> T  </i>
  <v type="int" name="KPOINT_BSE">    -1     0     0     0</v>
  <i type="int" name="NELM">    60</i>
  <i type="logical" name="LPEAD"> F  </i>
  <i type="logical" name="LHFCALC"> T  </i>
  <i type="string" name="GGA"> PS</i>
  <i name="HFSCREEN">      0.20700000</i>
  <i name="AEXX">      0.25000000</i>
  <i type="string" name="PRECFOCK">accur.</i>
  <i type="logical" name="LASPH"> T  </i>
  <i type="int" name="LMIXTAU">    -1</i>
 </incar>
 <structure name="primitive_cell" >
  <crystal>
   <varray name="basis" >
    <v>       2.63597500       2.63597500       0.00000000 </v>
    <v>       2.63597500       0.00000000      -2.63597500 </v>
    <v>       0.00000000       2.63597500      -2.63597500 </v>
   </varray>
   <i name="volume">     36.63142865 </i>
   <varray name="rec_basis" >
    <v>       0.18968313       0.18968313       0.18968313 </v>
    <v>       0.18968313      -0.18968313      -0.18968313 </v>
    <v>      -0.18968313       0.18968313      -0.18968313 </v>
   </varray>
  </crystal>
  <varray name="positions" >
   <v>       0.00000000       0.00000000       0.00000000 </v>
   <v>      -0.25000000      -0.25000000      -0.25000000 </v>
   <v>       0.25000000       0.25000000       0.25000000 </v>
  </varray>
 </structure>
 <varray name="primitive_index" >
  <v type="int" >        1 </v>
  <v type="int" >        5 </v>
  <v type="int" >        6 </v>
 </varray>
 <kpoints>
  <generation param="Monkhorst-Pack">
   <v type="int" name="divisions">       4        4        4 </v>
   <v name="usershift">      0.00000000       0.00000000       0.00000000 </v>
   <v name="genvec1">      0.25000000       0.00000000       0.00000000 </v>
   <v name="genvec2">      0.00000000       0.25000000       0.00000000 </v>
   <v name="genvec3">      0.00000000       0.00000000       0.25000000 </v>
   <v name="shift">      0.50000000       0.50000000       0.50000000 </v>
  </generation>
  <varray name="kpointlist" >
   <v>       0.12500000       0.12500000       0.12500000 </v>
   <v>       0.37500000       0.12500000       0.12500000 </v>
   <v>       0.37500000       0.37500000       0.12500000 </v>
   <v>       0.37500000       0.37500000       0.37500000 </v>
  </varray>
  <varray name="weights" >
   <v>       0.12500000 </v>
   <v>       0.37500000 </v>
   <v>       0.37500000 </v>
   <v>       0.12500000 </v>
  </varray>
 </kpoints>
 <parameters>
  <separator name="general" >
   <i type="string" name="SYSTEM">TbO2</i>
   <i type="logical" name="LCOMPAT"> F  </i>
  </separator>
  <separator name="electronic" >
   <i type="string" name="PREC">accura</i>
   <i name="ENMAX">    600.00000000</i>
   <i name="ENAUG">    605.39200000</i>
   <i name="EDIFF">      0.00000010</i>
   <i type="int" name="IALGO">    38</i>
   <i type="int" name="IWAVPR">    11</i>
   <i type="int" name="NBANDS">   160</i>
   <i name="NELECT">    124.00000000</i>
   <i type="int" name="TURBO">     0</i>
   <i type="int" name="IRESTART">     0</i>
   <i type="int" name="NREBOOT">     0</i>
   <i type="int" name="NMIN">     0</i>
   <i name="EREF">      0.00000000</i>
   <separator name="electronic smearing" >
    <i type="int" name="ISMEAR">     0</i>
    <i name="SIGMA">      0.01000000</i>
    <i name="KSPACING">      0.50000000</i>
    <i type="logical" name="KGAMMA"> T  </i>
   </separator>
   <separator name="electronic projectors" >
    <i type="logical" name="LREAL"> F  </i>
    <v name="ROPT">      0.00000000      0.00000000</v>
    <i type="int" name="LMAXPAW">  -100</i>
    <i type="int" name="LMAXMIX">     6</i>
    <i type="logical" name="NLSPLINE"> F  </i>
   </separator>
   <separator name="electronic startup" >
    <i type="int" name="ISTART">     0</i>
    <i type="int" name="ICHARG">     2</i>
    <i type="int" name="INIWAV">     1</i>
   </separator>
   <separator name="electronic spin" >
    <i type="int" name="ISPIN">     2</i>
    <i type="logical" name="LNONCOLLINEAR"> F  </i>
    <v name="MAGMOM">      7.00000000      7.00000000      7.00000000      7.00000000      0.20000000      0.20000000      0.20000000      0.20000000      0.20000000      0.20000000      0.20000000      0.20000000</v>
    <i name="NUPDOWN">     -1.00000000</i>
    <i type="logical" name="LSORBIT"> F  </i>
    <v name="SAXIS">      0.00000000      0.00000000      1.00000000</v>
    <i type="logical" name="LSPIRAL"> F  </i>
    <v name="QSPIRAL">      0.00000000      0.00000000      0.00000000</v>
    <i type="logical" name="LZEROZ"> F  </i>
   </separator>
   <separator name="electronic exchange-correlation" >
    <i type="logical" name="LASPH"> T  </i>
    <i type="logical" name="LMETAGGA"> F  </i>
   </separator>
   <separator name="electronic convergence" >
    <i type="int" name="NELM">    60</i>
    <i type="int" name="NELMDL">    -5</i>
    <i type="int" name="NELMIN">     2</i>
    <i name="ENINI">    600.00000000</i>
    <separator name="electronic convergence detail" >
     <i type="logical" name="LDIAG"> T  </i>
     <i type="logical" name="LSUBROT"> F  </i>
     <i name="WEIMIN">      0.00100000</i>
     <i name="EBREAK">      0.00000000</i>
     <i name="DEPER">      0.30000000</i>
     <i type="int" name="NRMM">     4</i>
     <i name="TIME">      0.40000000</i>
    </separator>
   </separator>
   <separator name="electronic mixer" >
    <i name="AMIX">      0.10000000</i>
    <i name="BMIX">      0.01000000</i>
    <i name="AMIN">      0.10000000</i>
    <i name="AMIX_MAG">      0.40000000</i>
    <i name="BMIX_MAG">      0.01000000</i>
    <separator name="electronic mixer details" >
     <i type="int" name="IMIX">     1</i>
     <i type="logical" name="MIXFIRST"> F  </i>
     <i type="int" name="MAXMIX">   -45</i>
     <i name="WC">    100.00000000</i>
     <i type="int" name="INIMIX">     1</i>
     <i type="int" name="MIXPRE">     1</i>
     <i type="int" name="MREMOVE">     5</i>
    </separator>
   </separator>
   <separator name="electronic dipolcorrection" >
    <i type="logical" name="LDIPOL"> F  </i>
    <i type="logical" name="LMONO"> F  </i>
    <i type="int" name="IDIPOL">     0</i>
    <i name="EPSILON">      1.00000000</i>
    <v name="DIPOL">   -100.00000000   -100.00000000   -100.00000000</v>
    <i name="EFIELD">      0.00000000</i>
   </separator>
  </separator>
  <separator name="grids" >
   <i type="int" name="NGX">    42</i>
   <i type="int" name="NGY">    42</i>
   <i type="int" name="NGZ">    42</i>
   <i type="int" name="NGXF">    84</i>
   <i type="int" name="NGYF">    84</i>
   <i type="int" name="NGZF">    84</i>
   <i type="logical" name="ADDGRID"> F  </i>
  </separator>
  <separator name="ionic" >
   <i type="int" name="NSW">    20</i>
   <i type="int" name="IBRION">     2</i>
   <i type="int" name="MDALGO">     0</i>
   <i type="int" name="ISIF">     3</i>
   <i name="PSTRESS">      0.00000000</i>
   <i name="EDIFFG">      0.00001000</i>
   <i type="int" name="NFREE">     4</i>
   <i name="POTIM">      0.01000000</i>
   <i name="SMASS">     -3.00000000</i>
   <i name="SCALEE">      1.00000000</i>
  </separator>
  <separator name="ionic md" >
   <i name="TEBEG">      0.00010000</i>
   <i name="TEEND">      0.00010000</i>
   <i type="int" name="NBLOCK">     1</i>
   <i type="int" name="KBLOCK">    20</i>
   <i type="int" name="NPACO">   256</i>
   <i name="APACO">     16.00000000</i>
  </separator>
  <separator name="symmetry" >
   <i type="int" name="ISYM">     3</i>
   <i name="SYMPREC">      0.00001000</i>
  </separator>
  <separator name="dos" >
   <i type="int" name="LORBIT">    11</i>
   <v name="RWIGS">     -1.00000000     -1.00000000</v>
   <i type="int" name="NEDOS">  1400</i>
   <i name="EMIN">     10.00000000</i>
   <i name="EMAX">    -10.00000000</i>
   <i name="EFERMI">      0.00000000</i>
  </separator>
  <separator name="writing" >
   <i type="int" name="NWRITE">     2</i>
   <i type="logical" name="LWAVE"> T  </i>
   <i type="logical" name="LDOWNSAMPLE"> F  </i>
   <i type="logical" name="LCHARG"> T  </i>
   <i type="logical" name="LPARD"> F  </i>
   <i type="logical" name="LVTOT"> F  </i>
   <i type="logical" name="LVHAR"> T  </i>
   <i type="logical" name="LELF"> F  </i>
   <i type="logical" name="LOPTICS"> F  </i>
   <v name="STM">      0.00000000      0.00000000      0.00000000      0.00000000      0.00000000      0.00000000      0.00000000</v>
  </separator>
  <separator name="performance" >
   <i type="int" name="NPAR">    32</i>
   <i type="int" name="NSIM">     4</i>
   <i type="int" name="NBLK">    -1</i>
   <i type="logical" name="LPLANE"> T  </i>
   <i type="logical" name="LSCALAPACK"> F  </i>
   <i type="logical" name="LSCAAWARE"> F  </i>
   <i type="logical" name="LSCALU"> F  </i>
   <i type="logical" name="LASYNC"> F  </i>
   <i type="logical" name="LORBITALREAL"> F  </i>
  </separator>
  <separator name="miscellaneous" >
   <i type="int" name="IDIOT">     3</i>
   <i type="int" name="ISPECIAL">     0</i>
   <i type="logical" name="LMUSIC"> F  </i>
   <v name="POMASS">    158.92500000     16.00000000</v>
   <v name="DARWINR">      0.00000000      0.00000000</v>
   <v name="DARWINV">      1.00000000      1.00000000</v>
   <i type="logical" name="LCORR"> T  </i>
  </separator>
  <i type="logical" name="GGA_COMPAT"> T  </i>
  <i type="logical" name="LBERRY"> F  </i>
  <i type="int" name="ICORELEVEL">     0</i>
  <i type="logical" name="LDAU"> F  </i>
  <i type="int" name="I_CONSTRAINED_M">     0</i>
  <separator name="electronic exchange-correlation" >
   <i type="string" name="GGA">PS</i>
   <i type="int" name="VOSKOWN">     0</i>
   <i type="logical" name="LHFCALC"> T  </i>
   <i type="string" name="PRECFOCK">accur.</i>
   <i type="logical" name="LSYMGRAD"> F  </i>
   <i type="logical" name="LHFONE"> F  </i>
   <i type="logical" name="LRHFCALC"> F  </i>
   <i type="logical" name="LTHOMAS"> F  </i>
   <i type="logical" name="LMODELHF"> F  </i>
   <i name="ENCUT4O">     -1.00000000</i>
   <i type="int" name="EXXOEP">     0</i>
   <i type="int" name="FOURORBIT">     0</i>
   <i name="AEXX">      0.25000000</i>
   <i name="HFALPHA">     -1.00000000</i>
   <i name="MCALPHA">      0.00000000</i>
   <i name="ALDAX">      0.75000000</i>
   <i name="AGGAX">      0.75000000</i>
   <i name="ALDAC">      1.00000000</i>
   <i name="AGGAC">      1.00000000</i>
   <i type="int" name="NKREDX">     1</i>
   <i type="int" name="NKREDY">     1</i>
   <i type="int" name="NKREDZ">     1</i>
   <i type="logical" name="SHIFTRED"> F  </i>
   <i type="logical" name="ODDONLY"> F  </i>
   <i type="logical" name="EVENONLY"> F  </i>
   <i type="int" name="LMAXFOCK">     4</i>
   <i type="int" name="NMAXFOCKAE">     1</i>
   <i type="logical" name="LFOCKAEDFT"> F  </i>
   <i name="HFSCREEN">      0.20700000</i>
   <i name="HFSCREENC">      0.20700000</i>
   <i type="int" name="NBANDSGWLOW">     1</i>
  </separator>
  <separator name="vdW DFT" >
   <i type="logical" name="LUSE_VDW"> F  </i>
   <i name="Zab_VDW">     -0.84910000</i>
   <i name="PARAM1">      0.12340000</i>
   <i name="PARAM2">      1.00000000</i>
   <i name="PARAM3">      0.00000000</i>
  </separator>
  <separator name="model GW" >
   <i type="int" name="MODEL_GW">     0</i>
   <i name="MODEL_EPS0">      7.32628573</i>
   <i name="MODEL_ALPHA">      1.00000000</i>
  </separator>
  <separator name="linear response parameters" >
   <i type="logical" name="LEPSILON"> F  </i>
   <i type="logical" name="LRPA"> F  </i>
   <i type="logical" name="LNABLA"> F  </i>
   <i type="logical" name="LVEL"> F  </i>
   <i type="int" name="KINTER">     0</i>
   <i name="CSHIFT">      0.10000000</i>
   <i name="OMEGAMAX">     -1.00000000</i>
   <i name="DEG_THRESHOLD">      0.00200000</i>
   <i name="RTIME">     -0.10000000</i>
   <i name="WPLASMAI">      0.00000000</i>
   <v name="DFIELD">      0.00000000      0.00000000      0.00000000</v>
   <v name="WPLASMA">      0.00000000      0.00000000      0.00000000      0.00000000      0.00000000      0.00000000      0.00000000      0.00000000      0.00000000</v>
  </separator>
  <separator name="orbital magnetization" >
   <i type="logical" name="NUCIND"> F  </i>
   <v name="MAGPOS">      0.00000000      0.00000000      0.00000000</v>
   <i type="logical" name="LNICSALL"> T  </i>
   <i type="logical" name="ORBITALMAG"> F  </i>
   <i type="logical" name="LMAGBLOCH"> F  </i>
   <i type="logical" name="LCHIMAG"> F  </i>
   <i type="logical" name="LGAUGE"> T  </i>
   <i type="int" name="MAGATOM">     0</i>
   <v name="MAGDIPOL">      0.00000000      0.00000000      0.00000000</v>
   <v name="AVECCONST">      0.00000000      0.00000000      0.00000000</v>
  </separator>
  <separator name="response functions" >
   <i type="logical" name="LADDER"> F  </i>
   <i type="logical" name="LRPAFORCE"> F  </i>
   <i type="logical" name="LFXC"> F  </i>
   <i type="logical" name="LHARTREE"> T  </i>
   <i type="int" name="IBSE">     0</i>
   <v type="int" name="KPOINT">    -1     0     0     0</v>
   <i type="logical" name="LTCTE"> F  </i>
   <i type="logical" name="LTETE"> F  </i>
   <i type="logical" name="LTRIPLET"> F  </i>
   <i type="logical" name="LFXCEPS"> F  </i>
   <i type="logical" name="LFXHEG"> F  </i>
   <i type="int" name="NATURALO">     2</i>
   <i type="logical" name="L2ORDER"> F  </i>
   <i type="logical" name="LMP2LT"> F  </i>
   <i type="logical" name="LUSEW"> F  </i>
   <i name="ENCUTGW">     -2.00000000</i>
   <i name="ENCUTGWSOFT">     -2.00000000</i>
   <i name="ENCUTLF">     -1.00000000</i>
   <i type="int" name="LMAXMP2">    -1</i>
   <i name="SCISSOR">      0.00000000</i>
   <i type="int" name="NOMEGA">     0</i>
   <i type="int" name="NOMEGAR">     0</i>
   <i type="int" name="NBANDSGW">    -1</i>
   <i type="int" name="NBANDSO">    -1</i>
   <i type="int" name="NBANDSV">    -1</i>
   <i type="int" name="NELM">    60</i>
   <i type="int" name="NELMHF">     1</i>
   <i type="int" name="DIM">     3</i>
   <i type="int" name="ANTIRES">     0</i>
   <i name="OMEGAMAX">    -30.00000000</i>
   <i name="OMEGAMIN">    -30.00000000</i>
   <i name="OMEGATL">   -200.00000000</i>
   <i type="int" name="OMEGAGRID">   140</i>
   <i name="CSHIFT">     -0.10000000</i>
   <i type="logical" name="SELFENERGY"> F  </i>
   <i type="logical" name="LSPECTRAL"> F  </i>
   <i type="logical" name="LSPECTRALGW"> F  </i>
   <i type="logical" name="LSINGLES"> F  </i>
   <i type="logical" name="LFERMIGW"> F  </i>
   <i type="logical" name="ODDONLYGW"> F  </i>
   <i type="logical" name="EVENONLYGW"> F  </i>
   <i type="int" name="NKREDLFX">     1</i>
   <i type="int" name="NKREDLFY">     1</i>
   <i type="int" name="NKREDLFZ">     1</i>
   <i type="int" name="MAXMEM">  2800</i>
   <i type="int" name="TELESCOPE">     0</i>
   <i type="int" name="TAUPAR">     1</i>
   <i type="int" name="OMEGAPAR">    -1</i>
   <i name="LAMBDA">      1.00000000</i>
  </separator>
  <separator name="External order field" >
   <i name="OFIELD_KAPPA">      0.00000000</i>
   <v name="OFIELD_K">      0.00000000      0.00000000      0.00000000</v>
   <i name="OFIELD_Q6_NEAR">      0.00000000</i>
   <i name="OFIELD_Q6_FAR">      0.00000000</i>
   <i name="OFIELD_A">      0.00000000</i>
  </separator>
 </parameters>
 <atominfo>
  <atoms>      12 </atoms>
  <types>       2 </types>
  <array name="atoms" >
   <dimension dim="1">ion</dimension>
   <field type="string">element</field>
   <field type="int">atomtype</field>
   <set>
    <rc><c>Tb</c><c>   1</c></rc>
    <rc><c>Tb</c><c>   1</c></rc>
    <rc><c>Tb</c><c>   1</c></rc>
    <rc><c>Tb</c><c>   1</c></rc>
    <rc><c>O </c><c>   2</c></rc>
    <rc><c>O </c><c>   2</c></rc>
    <rc><c>O </c><c>   2</c></rc>
    <rc><c>O </c><c>   2</c></rc>
    <rc><c>O </c><c>   2</c></rc>
    <rc><c>O </c><c>   2</c></rc>
    <rc><c>O </c><c>   2</c></rc>
    <rc><c>O </c><c>   2</c></rc>
   </set>
  </array>
  <array name="atomtypes" >
   <dimension dim="1">type</dimension>
   <field type="int">atomspertype</field>
   <field type="string">element</field>
   <field>mass</field>
   <field>valence</field>
   <field type="string">pseudopotential</field>
   <set>
    <rc><c>   4</c><c>Tb</c><c>    158.92500000</c><c>     19.00000000</c><c>  PAW_PBE Tb 23Dec2003                  </c></rc>
    <rc><c>   8</c><c>O </c><c>     16.00000000</c><c>      6.00000000</c><c>  PAW_PBE O 08Apr2002                   </c></rc>
   </set>
  </array>
 </atominfo>
 <structure name="initialpos" >
  <crystal>
   <varray name="basis" >
    <v>       5.27195000       0.00000000       0.00000000 </v>
    <v>       0.00000000       5.27195000       0.00000000 </v>
    <v>       0.00000000       0.00000000       5.27195000 </v>
   </varray>
   <i name="volume">    146.52571459 </i>
   <varray name="rec_basis" >
    <v>       0.18968313       0.00000000       0.00000000 </v>
    <v>       0.00000000       0.18968313       0.00000000 </v>
    <v>       0.00000000       0.00000000       0.18968313 </v>
   </varray>
  </crystal>
  <varray name="positions" >
   <v>       0.00000000       0.00000000       0.00000000 </v>
   <v>       0.50000000       0.50000000       0.00000000 </v>
   <v>       0.50000000       0.00000000       0.50000000 </v>
   <v>       0.00000000       0.50000000       0.50000000 </v>
   <v>       0.25000000       0.25000000       0.25000000 </v>
   <v>       0.75000000       0.75000000       0.75000000 </v>
   <v>       0.75000000       0.25000000       0.25000000 </v>
   <v>       0.25000000       0.75000000       0.75000000 </v>
   <v>       0.75000000       0.25000000       0.75000000 </v>
   <v>       0.25000000       0.75000000       0.25000000 </v>
   <v>       0.25000000       0.25000000       0.75000000 </v>
   <v>       0.75000000       0.75000000       0.25000000 </v>
  </varray>
 </structure>
 <calculation>
  <scstep>
   <time name="dav">    0.54    0.54</time>
   <time name="total">    4.68    4.77</time>
   <energy>
    <i name="alphaZ">   1257.75742604 </i>
    <i name="ewald"> -13271.25038779 </i>
    <i name="hartreedc">  -4131.39647843 </i>
    <i name="XCdc">    491.72007401 </i>
    <i name="pawpsdc">  14446.69719568 </i>
    <i name="pawaedc"> -15549.37367748 </i>
    <i name="eentropy">     -0.00097199 </i>
    <i name="bandstr">    421.77835886 </i>
    <i name="atom">  17492.06157551 </i>
    <i name="e_fr_energy">   1157.99311442 </i>
    <i name="e_wo_entrp">   1157.99408640 </i>
    <i name="e_0_energy">   1157.99360041 </i>
   </energy>
  </scstep>
  <scstep>
   <time name="dav">    0.54    0.54</time>
   <time name="total">    0.55    0.55</time>
   <energy>
    <i name="e_fr_energy">    251.91753337 </i>
    <i name="e_wo_entrp">    251.91753337 </i>
    <i name="e_0_energy">    251.91753337 </i>
   </energy>
  </scstep>
  <scstep>
   <time name="dav">    0.55    0.55</time>
   <time name="total">    0.55    0.56</time>
   <energy>
    <i name="e_fr_energy">    157.90651104 </i>
    <i name="e_wo_entrp">    157.90651104 </i>
    <i name="e_0_energy">    157.90651104 </i>
   </energy>
  </scstep>
  <scstep>
   <time name="dav">    0.55    0.55</time>
   <time name="total">    0.55    0.55</time>
   <energy>
    <i name="e_fr_energy">    154.66385668 </i>
    <i name="e_wo_entrp">    154.66385668 </i>
    <i name="e_0_energy">    154.66385668 </i>
   </energy>
  </scstep>
  <scstep>
   <time name="dav">  881.47  882.44</time>
   <time name="total">  881.56  882.52</time>
   <energy>
    <i name="e_fr_energy">   -208.00060591 </i>
    <i name="e_wo_entrp">   -208.00060591 </i>
    <i name="e_0_energy">   -208.00060591 </i>
   </energy>
  </scstep>
  <scstep>
   <time name="dav">  888.50  889.28</time>
   <time name="total">  892.67  893.45</time>
   <energy>
    <i name="e_fr_energy">   -200.68690375 </i>
    <i name="e_wo_entrp">   -200.68690375 </i>
    <i name="e_0_energy">   -200.68690375 </i>
   </energy>
  </scstep>
  <scstep>
   <time name="dav">  953.75  954.15</time>
   <time name="total">  957.91  958.32</time>
   <energy>
    <i name="e_fr_energy">   -194.20814921 </i>
    <i name="e_wo_entrp">   -194.20814921 </i>
    <i name="e_0_energy">   -194.20814921 </i>
   </energy>
  </scstep>
  <scstep>
   <time name="dav">  976.02  976.43</time>
   <time name="total">  980.25  980.67</time>
   <energy>
    <i name="e_fr_energy">   -191.35628045 </i>
    <i name="e_wo_entrp">   -191.35628045 </i>
    <i name="e_0_energy">   -191.35628045 </i>
   </energy>
  </scstep>
  <scstep>
   <time name="dav">  991.70  992.12</time>
   <time name="total">  995.88  996.30</time>
   <energy>
    <i name="e_fr_energy">   -190.69056145 </i>
    <i name="e_wo_entrp">   -190.69056145 </i>
    <i name="e_0_energy">   -190.69056145 </i>
   </energy>
  </scstep>
  <scstep>
   <time name="dav">  997.54  997.96</time>
   <time name="total"> 1001.70 1002.12</time>
   <energy>
    <i name="e_fr_energy">   -190.92430816 </i>
    <i name="e_wo_entrp">   -190.92430816 </i>
    <i name="e_0_energy">   -190.92430816 </i>
   </energy>
  </scstep>
  <scstep>
   <time name="dav">  868.10  868.47</time>
   <time name="total">  872.29  872.66</time>
   <energy>
    <i name="e_fr_energy">   -191.17318321 </i>
    <i name="e_wo_entrp">   -191.17318321 </i>
    <i name="e_0_energy">   -191.17318321 </i>
   </energy>
  </scstep>
  <scstep>
   <time name="dav">  897.68  898.06</time>
   <time name="total">  901.94  902.32</time>
   <energy>
    <i name="e_fr_energy">   -191.13682713 </i>
    <i name="e_wo_entrp">   -191.13682713 </i>
    <i name="e_0_energy">   -191.13682713 </i>
   </energy>
  </scstep>
  <scstep>
   <time name="dav">  880.95  881.32</time>
   <time name="total">  885.20  885.58</time>
   <energy>
    <i name="e_fr_energy">   -191.03517419 </i>
    <i name="e_wo_entrp">   -191.03517419 </i>
    <i name="e_0_energy">   -191.03517419 </i>
   </energy>
  </scstep>
  <scstep>
   <time name="dav">  950.39  950.79</time>
   <time name="total">  954.52  954.93</time>
   <energy>
    <i name="e_fr_energy">   -191.00197951 </i>
    <i name="e_wo_entrp">   -191.00197951 </i>
    <i name="e_0_energy">   -191.00197951 </i>
   </energy>
  </scstep>
  <scstep>
   <time name="dav">  821.84  822.19</time>
   <time name="total">  826.00  826.36</time>
   <energy>
    <i name="e_fr_energy">   -190.98547242 </i>
    <i name="e_wo_entrp">   -190.98547242 </i>
    <i name="e_0_energy">   -190.98547242 </i>
   </energy>
  </scstep>
  <scstep>
   <time name="dav">  852.32  852.68</time>
   <time name="total">  856.49  856.86</time>
   <energy>
    <i name="e_fr_energy">   -190.96032499 </i>
    <i name="e_wo_entrp">   -190.96032499 </i>
    <i name="e_0_energy">   -190.96032499 </i>
   </energy>
  </scstep>
  <scstep>
   <time name="dav">  884.71  885.09</time>
   <time name="total">  888.93  889.31</time>
   <energy>
    <i name="e_fr_energy">   -190.93800858 </i>
    <i name="e_wo_entrp">   -190.93800858 </i>
    <i name="e_0_energy">   -190.93800858 </i>
   </energy>
  </scstep>
  <scstep>
   <time name="dav">  901.68  902.10</time>
   <time name="total">  905.90  906.31</time>
   <energy>
    <i name="e_fr_energy">   -190.92312878 </i>
    <i name="e_wo_entrp">   -190.92312878 </i>
    <i name="e_0_energy">   -190.92312878 </i>
   </energy>
  </scstep>
  <scstep>
   <time name="dav">  820.99  821.34</time>
   <time name="total">  825.26  825.61</time>
   <energy>
    <i name="e_fr_energy">   -190.91236428 </i>
    <i name="e_wo_entrp">   -190.91236428 </i>
    <i name="e_0_energy">   -190.91236428 </i>
   </energy>
  </scstep>
  <scstep>
   <time name="dav">  801.81  802.15</time>
   <time name="total">  806.05  806.40</time>
   <energy>
    <i name="e_fr_energy">   -190.90358472 </i>
    <i name="e_wo_entrp">   -190.90358472 </i>
    <i name="e_0_energy">   -190.90358472 </i>
   </energy>
  </scstep>
  <scstep>
   <time name="dav">  819.01  819.35</time>
   <time name="total">  823.23  823.58</time>
   <energy>
    <i name="e_fr_energy">   -190.89670012 </i>
    <i name="e_wo_entrp">   -190.89670012 </i>
    <i name="e_0_energy">   -190.89670012 </i>
   </energy>
  </scstep>
  <scstep>
   <time name="dav">  830.72  831.07</time>
   <time name="total">  835.02  835.37</time>
   <energy>
    <i name="e_fr_energy">   -190.89152824 </i>
    <i name="e_wo_entrp">   -190.89152824 </i>
    <i name="e_0_energy">   -190.89152824 </i>
   </energy>
  </scstep>
  <scstep>
   <time name="dav">  821.30  823.01</time>
   <time name="total">  825.34  827.06</time>
   <energy>
    <i name="e_fr_energy">   -190.88762120 </i>
    <i name="e_wo_entrp">   -190.88762120 </i>
    <i name="e_0_energy">   -190.88762120 </i>
   </energy>
  </scstep>
  <scstep>
   <time name="dav">  821.04  821.89</time>
   <time name="total">  825.14  825.99</time>
   <energy>
    <i name="e_fr_energy">   -190.88461779 </i>
    <i name="e_wo_entrp">   -190.88461779 </i>
    <i name="e_0_energy">   -190.88461779 </i>
   </energy>
  </scstep>
  <scstep>
   <time name="dav">  810.21  811.83</time>
   <time name="total">  814.34  815.98</time>
   <energy>
    <i name="e_fr_energy">   -190.88231845 </i>
    <i name="e_wo_entrp">   -190.88231845 </i>
    <i name="e_0_energy">   -190.88231845 </i>
   </energy>
  </scstep>
  <scstep>
   <time name="dav">  835.03  837.77</time>
   <time name="total">  839.17  841.92</time>
   <energy>
    <i name="e_fr_energy">   -190.88058004 </i>
    <i name="e_wo_entrp">   -190.88058004 </i>
    <i name="e_0_energy">   -190.88058004 </i>
   </energy>
  </scstep>
  <scstep>
   <time name="dav">  793.92  796.58</time>
   <time name="total">  798.01  800.68</time>
   <energy>
    <i name="e_fr_energy">   -190.87925738 </i>
    <i name="e_wo_entrp">   -190.87925738 </i>
    <i name="e_0_energy">   -190.87925738 </i>
   </energy>
  </scstep>
  <scstep>
   <time name="dav">  814.96  815.84</time>
   <time name="total">  819.03  819.92</time>
   <energy>
    <i name="e_fr_energy">   -190.87825202 </i>
    <i name="e_wo_entrp">   -190.87825202 </i>
    <i name="e_0_energy">   -190.87825202 </i>
   </energy>
  </scstep>
  <scstep>
   <time name="dav">  856.22  857.42</time>
   <time name="total">  860.31  861.52</time>
   <energy>
    <i name="e_fr_energy">   -190.87749635 </i>
    <i name="e_wo_entrp">   -190.87749635 </i>
    <i name="e_0_energy">   -190.87749635 </i>
   </energy>
  </scstep>
  <scstep>
   <time name="dav">  873.21  874.15</time>
   <time name="total">  877.32  878.26</time>
   <energy>
    <i name="e_fr_energy">   -190.87692127 </i>
    <i name="e_wo_entrp">   -190.87692127 </i>
    <i name="e_0_energy">   -190.87692127 </i>
   </energy>
  </scstep>
  <scstep>
   <time name="dav">  841.13  843.62</time>
   <time name="total">  845.45  847.93</time>
   <energy>
    <i name="e_fr_energy">   -190.87648695 </i>
    <i name="e_wo_entrp">   -190.87648695 </i>
    <i name="e_0_energy">   -190.87648695 </i>
   </energy>
  </scstep>
  <scstep>
   <time name="dav">  878.89  880.38</time>
   <time name="total">  883.08  884.57</time>
   <energy>
    <i name="e_fr_energy">   -190.87616219 </i>
    <i name="e_wo_entrp">   -190.87616219 </i>
    <i name="e_0_energy">   -190.87616219 </i>
   </energy>
  </scstep>
  <scstep>
   <time name="dav">  876.84  878.32</time>
   <time name="total">  881.06  882.54</time>
   <energy>
    <i name="e_fr_energy">   -190.87591820 </i>
    <i name="e_wo_entrp">   -190.87591820 </i>
    <i name="e_0_energy">   -190.87591820 </i>
   </energy>
  </scstep>
  <scstep>
   <time name="dav">  816.36  817.33</time>
   <time name="total">  820.63  821.60</time>
   <energy>
    <i name="e_fr_energy">   -190.87573413 </i>
    <i name="e_wo_entrp">   -190.87573413 </i>
    <i name="e_0_energy">   -190.87573413 </i>
   </energy>
  </scstep>
  <scstep>
   <time name="dav">  896.91  901.52</time>
   <time name="total">  901.00  905.62</time>
   <energy>
    <i name="e_fr_energy">   -190.87559604 </i>
    <i name="e_wo_entrp">   -190.87559604 </i>
    <i name="e_0_energy">   -190.87559604 </i>
   </energy>
  </scstep>
  <scstep>
   <time name="dav">  773.85  775.34</time>
   <time name="total">  777.90  779.40</time>
   <energy>
    <i name="e_fr_energy">   -190.87549672 </i>
    <i name="e_wo_entrp">   -190.87549672 </i>
    <i name="e_0_energy">   -190.87549672 </i>
   </energy>
  </scstep>
  <scstep>
   <time name="dav">  812.42  813.50</time>
   <time name="total">  816.51  817.61</time>
   <energy>
    <i name="e_fr_energy">   -190.87542335 </i>
    <i name="e_wo_entrp">   -190.87542335 </i>
    <i name="e_0_energy">   -190.87542335 </i>
   </energy>
  </scstep>
  <scstep>
   <time name="dav">  789.77  791.73</time>
   <time name="total">  793.89  795.86</time>
   <energy>
    <i name="e_fr_energy">   -190.87536920 </i>
    <i name="e_wo_entrp">   -190.87536920 </i>
    <i name="e_0_energy">   -190.87536920 </i>
   </energy>
  </scstep>
  <scstep>
   <time name="dav">  790.88  791.66</time>
   <time name="total">  794.96  795.74</time>
   <energy>
    <i name="e_fr_energy">   -190.87532981 </i>
    <i name="e_wo_entrp">   -190.87532981 </i>
    <i name="e_0_energy">   -190.87532981 </i>
   </energy>
  </scstep>
  <scstep>
   <time name="dav">  791.72  793.59</time>
   <time name="total">  795.81  797.68</time>
   <energy>
    <i name="e_fr_energy">   -190.87530141 </i>
    <i name="e_wo_entrp">   -190.87530141 </i>
    <i name="e_0_energy">   -190.87530141 </i>
   </energy>
  </scstep>
  <scstep>
   <time name="dav">  698.98  700.39</time>
   <time name="total">  703.24  704.66</time>
   <energy>
    <i name="e_fr_energy">   -190.87528152 </i>
    <i name="e_wo_entrp">   -190.87528152 </i>
    <i name="e_0_energy">   -190.87528152 </i>
   </energy>
  </scstep>
  <scstep>
   <time name="dav">  718.97  719.69</time>
   <time name="total">  723.14  723.87</time>
   <energy>
    <i name="e_fr_energy">   -190.87526760 </i>
    <i name="e_wo_entrp">   -190.87526760 </i>
    <i name="e_0_energy">   -190.87526760 </i>
   </energy>
  </scstep>
  <scstep>
   <time name="dav">  672.31  673.33</time>
   <time name="total">  676.53  677.55</time>
   <energy>
    <i name="e_fr_energy">   -190.87525751 </i>
    <i name="e_wo_entrp">   -190.87525751 </i>
    <i name="e_0_energy">   -190.87525751 </i>
   </energy>
  </scstep>
  <scstep>
   <time name="dav">  696.02  697.83</time>
   <time name="total">  699.72  702.00</time>
   <energy>
    <i name="e_fr_energy">   -190.87525101 </i>
    <i name="e_wo_entrp">   -190.87525101 </i>
    <i name="e_0_energy">   -190.87525101 </i>
   </energy>
  </scstep>
  <scstep>
   <time name="dav">  636.13  638.95</time>
   <time name="total">  640.26  643.10</time>
   <energy>
    <i name="e_fr_energy">   -190.87524734 </i>
    <i name="e_wo_entrp">   -190.87524734 </i>
    <i name="e_0_energy">   -190.87524734 </i>
   </energy>
  </scstep>
  <scstep>
   <time name="dav">  676.05  676.95</time>
   <time name="total">  680.12  681.03</time>
   <energy>
    <i name="e_fr_energy">   -190.87524471 </i>
    <i name="e_wo_entrp">   -190.87524471 </i>
    <i name="e_0_energy">   -190.87524471 </i>
   </energy>
  </scstep>
  <scstep>
   <time name="dav">  696.31  697.70</time>
   <time name="total">  700.37  701.76</time>
   <energy>
    <i name="e_fr_energy">   -190.87524358 </i>
    <i name="e_wo_entrp">   -190.87524358 </i>
    <i name="e_0_energy">   -190.87524358 </i>
   </energy>
  </scstep>
  <scstep>
   <time name="dav">  647.59  648.35</time>
   <time name="total">  651.65  652.41</time>
   <energy>
    <i name="e_fr_energy">   -190.87524313 </i>
    <i name="e_wo_entrp">   -190.87524313 </i>
    <i name="e_0_energy">   -190.87524313 </i>
   </energy>
  </scstep>
  <scstep>
   <time name="dav">  635.88  636.57</time>
   <time name="total">  639.95  640.65</time>
   <energy>
    <i name="e_fr_energy">   -190.87524348 </i>
    <i name="e_wo_entrp">   -190.87524348 </i>
    <i name="e_0_energy">   -190.87524348 </i>
   </energy>
  </scstep>
  <scstep>
   <time name="dav">  621.69  623.15</time>
   <time name="total">  625.76  627.23</time>
   <energy>
    <i name="e_fr_energy">   -190.87524465 </i>
    <i name="e_wo_entrp">   -190.87524465 </i>
    <i name="e_0_energy">   -190.87524465 </i>
   </energy>
  </scstep>
  <scstep>
   <time name="dav">  607.36  608.51</time>
   <time name="total">  611.44  612.59</time>
   <energy>
    <i name="e_fr_energy">   -190.87524462 </i>
    <i name="e_wo_entrp">   -190.87524462 </i>
    <i name="e_0_energy">   -190.87524462 </i>
   </energy>
  </scstep>
  <scstep>
   <time name="dav">  633.72  635.86</time>
   <time name="total">  637.80  639.94</time>
   <energy>
    <i name="e_fr_energy">   -190.87524573 </i>
    <i name="e_wo_entrp">   -190.87524573 </i>
    <i name="e_0_energy">   -190.87524573 </i>
   </energy>
  </scstep>
  <scstep>
   <time name="dav">  606.48  607.74</time>
   <time name="total">  610.56  611.82</time>
   <energy>
    <i name="e_fr_energy">   -190.87524721 </i>
    <i name="e_wo_entrp">   -190.87524721 </i>
    <i name="e_0_energy">   -190.87524721 </i>
   </energy>
  </scstep>
  <scstep>
   <time name="dav">  607.07  608.60</time>
   <time name="total">  611.14  612.67</time>
   <energy>
    <i name="e_fr_energy">   -190.87524750 </i>
    <i name="e_wo_entrp">   -190.87524750 </i>
    <i name="e_0_energy">   -190.87524750 </i>
   </energy>
  </scstep>
  <scstep>
   <time name="dav">  635.68  636.66</time>
   <time name="total">  639.74  640.72</time>
   <energy>
    <i name="e_fr_energy">   -190.87524810 </i>
    <i name="e_wo_entrp">   -190.87524810 </i>
    <i name="e_0_energy">   -190.87524810 </i>
   </energy>
  </scstep>
  <scstep>
   <time name="dav">  688.93  692.20</time>
   <time name="total">  693.00  696.27</time>
   <energy>
    <i name="e_fr_energy">   -190.87524897 </i>
    <i name="e_wo_entrp">   -190.87524897 </i>
    <i name="e_0_energy">   -190.87524897 </i>
   </energy>
  </scstep>
  <scstep>
   <time name="dav">  593.54  594.22</time>
   <time name="total">  597.60  598.29</time>
   <energy>
    <i name="e_fr_energy">   -190.87524985 </i>
    <i name="e_wo_entrp">   -190.87524985 </i>
    <i name="e_0_energy">   -190.87524985 </i>
   </energy>
  </scstep>
  <scstep>
   <time name="dav">  593.19  594.04</time>
   <time name="total">  597.27  598.12</time>
   <energy>
    <i name="e_fr_energy">   -190.87525073 </i>
    <i name="e_wo_entrp">   -190.87525073 </i>
    <i name="e_0_energy">   -190.87525073 </i>
   </energy>
  </scstep>
  <scstep>
   <time name="dav">  609.11  609.78</time>
   <time name="total">  613.18  613.87</time>
   <energy>
    <i name="e_fr_energy">   -190.87525142 </i>
    <i name="e_wo_entrp">   -190.87525142 </i>
    <i name="e_0_energy">   -190.87525142 </i>
   </energy>
  </scstep>
  <scstep>
   <time name="dav">  602.33  603.55</time>
   <time name="total">  606.32  607.55</time>
   <energy>
    <i name="alphaZ">   1257.75742604 </i>
    <i name="ewald"> -13271.25038779 </i>
    <i name="hartreedc">  -4059.08952303 </i>
    <i name="XCdc">    498.35250742 </i>
    <i name="pawpsdc">  15561.06904825 </i>
    <i name="pawaedc"> -16617.20109588 </i>
    <i name="eentropy">     -0.00000000 </i>
    <i name="bandstr">  -1405.44363304 </i>
    <i name="atom">  17492.06157551 </i>
    <i name="e_fr_energy">   -190.87525209 </i>
    <i name="e_wo_entrp">   -190.87525209 </i>
    <i name="e_0_energy">   -190.87525209 </i>
   </energy>
  </scstep>
  <structure>
   <crystal>
    <varray name="basis" >
     <v>       5.27195000       0.00000000       0.00000000 </v>
     <v>       0.00000000       5.27195000       0.00000000 </v>
     <v>       0.00000000       0.00000000       5.27195000 </v>
    </varray>
    <i name="volume">    146.52571459 </i>
    <varray name="rec_basis" >
     <v>       0.18968313       0.00000000       0.00000000 </v>
     <v>       0.00000000       0.18968313       0.00000000 </v>
     <v>       0.00000000       0.00000000       0.18968313 </v>
    </varray>
   </crystal>
   <varray name="positions" >
    <v>       0.00000000       0.00000000       0.00000000 </v>
    <v>       0.50000000       0.50000000       0.00000000 </v>
    <v>       0.50000000       0.00000000       0.50000000 </v>
    <v>       0.00000000       0.50000000       0.50000000 </v>
    <v>       0.25000000       0.25000000       0.25000000 </v>
    <v>       0.75000000       0.75000000       0.75000000 </v>
    <v>       0.75000000       0.25000000       0.25000000 </v>
    <v>       0.25000000       0.75000000       0.75000000 </v>
    <v>       0.75000000       0.25000000       0.75000000 </v>
    <v>       0.25000000       0.75000000       0.25000000 </v>
    <v>       0.25000000       0.25000000       0.75000000 </v>
    <v>       0.75000000       0.75000000       0.25000000 </v>
   </varray>
  </structure>
  <varray name="forces" >
   <v>      -0.00000000       0.00000000       0.00000000 </v>
   <v>       0.00000000       0.00000000      -0.00000000 </v>
   <v>      -0.00000000      -0.00000000      -0.00000000 </v>
   <v>       0.00000000      -0.00000000       0.00000000 </v>
   <v>      -0.00000000       0.00000000      -0.00000000 </v>
   <v>      -0.00000000       0.00000000       0.00000000 </v>
   <v>      -0.00000000       0.00000000       0.00000000 </v>
   <v>      -0.00000000       0.00000000      -0.00000000 </v>
   <v>      -0.00000000       0.00000000      -0.00000000 </v>
   <v>      -0.00000000       0.00000000       0.00000000 </v>
   <v>      -0.00000000       0.00000000      -0.00000000 </v>
   <v>      -0.00000000       0.00000000       0.00000000 </v>
  </varray>
  <varray name="stress" >
   <v>     -90.36258281       0.00000000       0.00000000 </v>
   <v>      -0.00000000     -90.36258281       0.00000000 </v>
   <v>       0.00000000      -0.00000000     -90.36258281 </v>
  </varray>
  <energy>
   <i name="e_fr_energy">   -190.87525209 </i>
   <i name="e_wo_entrp">   -190.87525209 </i>
   <i name="e_0_energy">     -0.00000000 </i>
  </energy>
  <time name="totalsc">44542.6644614.07</time>
 </calculation>
 <calculation>
  <scstep>
   <time name="dav">  892.00  894.73</time>
   <time name="total">  896.07  898.81</time>
   <energy>
    <i name="alphaZ">   1260.26796747 </i>
    <i name="ewald"> -13280.07452711 </i>
    <i name="hartreedc">  -4061.79854496 </i>
    <i name="XCdc">    498.66780323 </i>
    <i name="pawpsdc">  15561.46075244 </i>
    <i name="pawaedc"> -16617.59538191 </i>
    <i name="eentropy">     -0.00200381 </i>
    <i name="bandstr">**************** </i>
    <i name="atom">  17492.06157551 </i>
    <i name="e_fr_energy">**************** </i>
    <i name="e_wo_entrp">**************** </i>
    <i name="e_0_energy">**************** </i>
   </energy>
  </scstep>
  <scstep>
   <time name="dav">  884.38  886.06</time>
   <time name="total">  888.42  890.12</time>
   <energy>
    <i name="e_fr_energy">**************** </i>
    <i name="e_wo_entrp">**************** </i>
    <i name="e_0_energy">**************** </i>
   </energy>
  </scstep>
  <scstep>
   <time name="dav">  885.26  888.00</time>
   <time name="total">  889.32  892.07</time>
   <energy>
    <i name="e_fr_energy">**************** </i>
    <i name="e_wo_entrp">**************** </i>
    <i name="e_0_energy">**************** </i>
   </energy>
  </scstep>
  <scstep>
   <time name="dav">  925.69  927.84</time>
   <time name="total">  929.73  931.89</time>
   <energy>
    <i name="e_fr_energy">**************** </i>
    <i name="e_wo_entrp">**************** </i>
    <i name="e_0_energy">**************** </i>
   </energy>
  </scstep>
  <scstep>
   <time name="dav">  799.53  802.18</time>
   <time name="total">  803.58  806.24</time>
   <energy>
    <i name="e_fr_energy">**************** </i>
    <i name="e_wo_entrp">**************** </i>
    <i name="e_0_energy">**************** </i>
   </energy>
  </scstep>
  <scstep>
   <time name="dav">  779.26  780.63</time>
   <time name="total">  783.29  784.68</time>
   <energy>
    <i name="e_fr_energy">**************** </i>
    <i name="e_wo_entrp">**************** </i>
    <i name="e_0_energy">**************** </i>
   </energy>
  </scstep>
  <scstep>
   <time name="dav">  779.37  780.76</time>
   <time name="total">  783.43  784.82</time>
   <energy>
    <i name="e_fr_energy">**************** </i>
    <i name="e_wo_entrp">**************** </i>
    <i name="e_0_energy">**************** </i>
   </energy>
  </scstep>
  <scstep>
   <time name="dav">  783.63  785.31</time>
   <time name="total">  787.74  789.43</time>
   <energy>
    <i name="e_fr_energy">**************** </i>
    <i name="e_wo_entrp">**************** </i>
    <i name="e_0_energy">**************** </i>
   </energy>
  </scstep>
  <scstep>
   <time name="dav">  802.31  804.60</time>
   <time name="total">  806.41  808.70</time>
   <energy>
    <i name="e_fr_energy">**************** </i>
    <i name="e_wo_entrp">**************** </i>
    <i name="e_0_energy">**************** </i>
   </energy>
  </scstep>
  <scstep>
   <time name="dav">  821.31  823.85</time>
   <time name="total">  825.30  827.87</time>
   <energy>
    <i name="e_fr_energy">**************** </i>
    <i name="e_wo_entrp">**************** </i>
    <i name="e_0_energy">**************** </i>
   </energy>
  </scstep>
  <scstep>
   <time name="dav">  789.39  791.21</time>
   <time name="total">  793.42  795.25</time>
   <energy>
    <i name="e_fr_energy">**************** </i>
    <i name="e_wo_entrp">**************** </i>
    <i name="e_0_energy">**************** </i>
   </energy>
  </scstep>
  <scstep>
   <time name="dav">  764.97  766.05</time>
   <time name="total">  769.03  770.11</time>
   <energy>
    <i name="e_fr_energy">**************** </i>
    <i name="e_wo_entrp">**************** </i>
    <i name="e_0_energy">**************** </i>
   </energy>
  </scstep>
  <scstep>
   <time name="dav">  824.15  825.22</time>
   <time name="total">  828.22  829.30</time>
   <energy>
    <i name="e_fr_energy">**************** </i>
    <i name="e_wo_entrp">**************** </i>
    <i name="e_0_energy">**************** </i>
   </energy>
  </scstep>
  <scstep>
   <time name="dav">  819.55  822.04</time>
   <time name="total">  823.67  826.17</time>
   <energy>
    <i name="e_fr_energy">**************** </i>
    <i name="e_wo_entrp">**************** </i>
    <i name="e_0_energy">**************** </i>
   </energy>
  </scstep>
  <scstep>
   <time name="dav">  825.78  828.41</time>
   <time name="total">  829.87  832.50</time>
   <energy>
    <i name="e_fr_energy">**************** </i>
    <i name="e_wo_entrp">**************** </i>
    <i name="e_0_energy">**************** </i>
   </energy>
  </scstep>
  <scstep>
   <time name="dav">  829.29  830.38</time>
   <time name="total">  833.40  834.49</time>
   <energy>
    <i name="e_fr_energy">**************** </i>
    <i name="e_wo_entrp">**************** </i>
    <i name="e_0_energy">**************** </i>
   </energy>
  </scstep>
  <scstep>
   <time name="dav">  823.78  824.99</time>
   <time name="total">  827.91  829.13</time>
   <energy>
    <i name="e_fr_energy">**************** </i>
    <i name="e_wo_entrp">**************** </i>
    <i name="e_0_energy">**************** </i>
   </energy>
  </scstep>
  <scstep>
   <time name="dav">  822.55  826.55</time>
   <time name="total">  826.69  830.69</time>
   <energy>
    <i name="e_fr_energy">**************** </i>
    <i name="e_wo_entrp">**************** </i>
    <i name="e_0_energy">**************** </i>
   </energy>
  </scstep>
  <scstep>
   <time name="dav">  828.83  830.66</time>
   <time name="total">  832.95  834.79</time>
   <energy>
    <i name="e_fr_energy">**************** </i>
    <i name="e_wo_entrp">**************** </i>
    <i name="e_0_energy">**************** </i>
   </energy>
  </scstep>
  <scstep>
   <time name="dav">  824.42  825.53</time>
   <time name="total">  828.60  829.72</time>
   <energy>
    <i name="e_fr_energy">**************** </i>
    <i name="e_wo_entrp">**************** </i>
    <i name="e_0_energy">**************** </i>
   </energy>
  </scstep>
  <scstep>
   <time name="dav">  829.00  831.07</time>
   <time name="total">  833.20  835.27</time>
   <energy>
    <i name="e_fr_energy">**************** </i>
    <i name="e_wo_entrp">**************** </i>
    <i name="e_0_energy">**************** </i>
   </energy>
  </scstep>
  <scstep>
   <time name="dav">  824.91  825.80</time>
   <time name="total">  829.05  829.96</time>
   <energy>
    <i name="e_fr_energy">**************** </i>
    <i name="e_wo_entrp">**************** </i>
    <i name="e_0_energy">**************** </i>
   </energy>
  </scstep>
  <scstep>
   <time name="dav">  823.72  828.51</time>
   <time name="total">  827.90  832.69</time>
   <energy>
    <i name="e_fr_energy">**************** </i>
    <i name="e_wo_entrp">**************** </i>
    <i name="e_0_energy">**************** </i>
   </energy>
  </scstep>
  <scstep>
   <time name="dav">  823.60  824.68</time>
   <time name="total">  827.68  828.77</time>
   <energy>
    <i name="e_fr_energy">**************** </i>
    <i name="e_wo_entrp">**************** </i>
    <i name="e_0_energy">**************** </i>
   </energy>
  </scstep>
  <scstep>
   <time name="dav">  827.06  829.24</time>
   <time name="total">  831.19  833.39</time>
   <energy>
    <i name="e_fr_energy">**************** </i>
    <i name="e_wo_entrp">**************** </i>
    <i name="e_0_energy">**************** </i>
   </energy>
  </scstep>
  <scstep>
   <time name="dav">  824.59  826.60</time>
   <time name="total">  828.94  830.96</time>
   <energy>
    <i name="e_fr_energy">**************** </i>
    <i name="e_wo_entrp">**************** </i>
    <i name="e_0_energy">**************** </i>
   </energy>
  </scstep>
  <scstep>
   <time name="dav">  825.01  827.95</time>
   <time name="total">  829.15  832.10</time>
   <energy>
    <i name="e_fr_energy">**************** </i>
    <i name="e_wo_entrp">**************** </i>
    <i name="e_0_energy">**************** </i>
   </energy>
  </scstep>
  <scstep>
   <time name="dav">  829.27  831.09</time>
   <time name="total">  833.39  835.22</time>
   <energy>
    <i name="e_fr_energy">**************** </i>
    <i name="e_wo_entrp">**************** </i>
    <i name="e_0_energy">**************** </i>
   </energy>
  </scstep>
  <scstep>
   <time name="dav">  846.03  847.15</time>
   <time name="total">  850.16  851.27</time>
   <energy>
    <i name="e_fr_energy">**************** </i>
    <i name="e_wo_entrp">**************** </i>
    <i name="e_0_energy">**************** </i>
   </energy>
  </scstep>
  <scstep>
   <time name="dav">  844.81  847.56</time>
   <time name="total">  849.02  851.77</time>
   <energy>
    <i name="e_fr_energy">**************** </i>
    <i name="e_wo_entrp">**************** </i>
    <i name="e_0_energy">**************** </i>
   </energy>
  </scstep>
  <scstep>
   <time name="dav">  850.15  851.79</time>
   <time name="total">  854.76  856.41</time>
   <energy>
    <i name="e_fr_energy">**************** </i>
    <i name="e_wo_entrp">**************** </i>
    <i name="e_0_energy">**************** </i>
   </energy>
  </scstep>
  <scstep>
   <time name="dav">  841.11  843.49</time>
   <time name="total">  845.23  847.61</time>
   <energy>
    <i name="e_fr_energy">**************** </i>
    <i name="e_wo_entrp">**************** </i>
    <i name="e_0_energy">**************** </i>
   </energy>
  </scstep>
  <scstep>
   <time name="dav">  841.41  842.59</time>
   <time name="total">  845.49  846.69</time>
   <energy>
    <i name="e_fr_energy">**************** </i>
    <i name="e_wo_entrp">**************** </i>
    <i name="e_0_energy">**************** </i>
   </energy>
  </scstep>
  <scstep>
   <time name="dav">  843.70  844.56</time>
   <time name="total">  847.81  848.68</time>
   <energy>
    <i name="e_fr_energy">**************** </i>
    <i name="e_wo_entrp">**************** </i>
    <i name="e_0_energy">**************** </i>
   </energy>
  </scstep>
  <scstep>
   <time name="dav">  840.61  843.04</time>
   <time name="total">  844.72  847.16</time>
   <energy>
    <i name="e_fr_energy">**************** </i>
    <i name="e_wo_entrp">**************** </i>
    <i name="e_0_energy">**************** </i>
   </energy>
  </scstep>
  <scstep>
   <time name="dav">  836.77  837.77</time>
   <time name="total">  840.92  841.92</time>
   <energy>
    <i name="e_fr_energy">**************** </i>
    <i name="e_wo_entrp">**************** </i>
    <i name="e_0_energy">**************** </i>
   </energy>
  </scstep>
  <scstep>
   <time name="dav">  823.04  824.82</time>
   <time name="total">  827.17  828.94</time>
   <energy>
    <i name="e_fr_energy">**************** </i>
    <i name="e_wo_entrp">**************** </i>
    <i name="e_0_energy">**************** </i>
   </energy>
  </scstep>
  <scstep>
   <time name="dav">  821.83  825.75</time>
   <time name="total">  825.89  829.84</time>
   <energy>
    <i name="e_fr_energy">**************** </i>
    <i name="e_wo_entrp">**************** </i>
    <i name="e_0_energy">**************** </i>
   </energy>
  </scstep>
  <scstep>
   <time name="dav">  823.70  825.22</time>
   <time name="total">  827.81  829.33</time>
   <energy>
    <i name="e_fr_energy">**************** </i>
    <i name="e_wo_entrp">**************** </i>
    <i name="e_0_energy">**************** </i>
   </energy>
  </scstep>
  <scstep>
   <time name="dav">  828.88  831.67</time>
   <time name="total">  833.00  835.80</time>
   <energy>
    <i name="e_fr_energy">**************** </i>
    <i name="e_wo_entrp">**************** </i>
    <i name="e_0_energy">**************** </i>
   </energy>
  </scstep>
  <scstep>
   <time name="dav">  865.26  866.42</time>
   <time name="total">  869.38  870.54</time>
   <energy>
    <i name="e_fr_energy">**************** </i>
    <i name="e_wo_entrp">**************** </i>
    <i name="e_0_energy">**************** </i>
   </energy>
  </scstep>
  <scstep>
   <time name="dav">  859.18  862.35</time>
   <time name="total">  863.34  866.51</time>
   <energy>
    <i name="e_fr_energy">**************** </i>
    <i name="e_wo_entrp">**************** </i>
    <i name="e_0_energy">**************** </i>
   </energy>
  </scstep>
  <scstep>
   <time name="dav">  863.75  865.25</time>
   <time name="total">  867.85  869.36</time>
   <energy>
    <i name="e_fr_energy">**************** </i>
    <i name="e_wo_entrp">**************** </i>
    <i name="e_0_energy">**************** </i>
   </energy>
  </scstep>
  <scstep>
   <time name="dav">  858.98  863.87</time>
   <time name="total">  863.08  867.99</time>
   <energy>
    <i name="e_fr_energy">**************** </i>
    <i name="e_wo_entrp">**************** </i>
    <i name="e_0_energy">**************** </i>
   </energy>
  </scstep>
  <scstep>
