<?xml version="1.0" encoding="ISO-8859-1"?>
<modeling>
 <generator>
  <i name="program" type="string">vasp </i>
  <i name="version" type="string">5.4.1  </i>
  <i name="subversion" type="string">24Jun15 (build Feb 01 2016 23:38:11) complex                          parallel </i>
  <i name="platform" type="string">IFC91_impi </i>
  <i name="date" type="string">2016 04 28 </i>
  <i name="time" type="string">18:27:32 </i>
 </generator>
 <incar>
  <i type="int" name="ISTART">     1</i>
  <i type="string" name="PREC">accurate</i>
  <i type="string" name="ALGO"> Normal</i>
  <i type="int" name="ISPIN">     2</i>
  <i type="int" name="ICHARG">     0</i>
  <i type="int" name="NELM">   100</i>
  <i type="int" name="IBRION">     8</i>
  <i name="EDIFF">      0.00000001</i>
  <i type="int" name="NSW">     1</i>
  <i type="int" name="ISIF">     3</i>
  <i name="ENCUT">    520.00000000</i>
  <i type="logical" name="LREAL"> F  </i>
  <i type="int" name="ISMEAR">    -5</i>
  <i name="SIGMA">      0.05000000</i>
  <i type="logical" name="LWAVE"> F  </i>
  <i type="logical" name="LCHARG"> F  </i>
  <i type="logical" name="LORBIT"> F  </i>
  <v type="int" name="KPOINT_BSE">    -1     0     0     0</v>
  <i type="int" name="NELM">   100</i>
 </incar>
 <kpoints>
  <generation param="Gamma">
   <v type="int" name="divisions">       4        4        4 </v>
   <v name="usershift">      0.00000000       0.00000000       0.00000000 </v>
   <v name="genvec1">      0.25000000      -0.00000000       0.00000000 </v>
   <v name="genvec2">      0.00000000       0.25000000      -0.00000000 </v>
   <v name="genvec3">      0.00000000       0.00000000       0.25000000 </v>
   <v name="shift">      0.00000000       0.00000000       0.00000000 </v>
  </generation>
  <varray name="kpointlist" >
   <v>       0.00000000       0.00000000       0.00000000 </v>
   <v>       0.25000000      -0.00000000       0.00000000 </v>
   <v>       0.50000000      -0.00000000       0.00000000 </v>
   <v>       0.00000000       0.25000000       0.00000000 </v>
   <v>       0.50000000       0.25000000       0.00000000 </v>
   <v>      -0.25000000       0.25000000       0.00000000 </v>
   <v>       0.00000000       0.50000000       0.00000000 </v>
   <v>      -0.25000000       0.25000000       0.25000000 </v>
  </varray>
  <varray name="weights" >
   <v>       0.01562500 </v>
   <v>       0.12500000 </v>
   <v>       0.06250000 </v>
   <v>       0.09375000 </v>
   <v>       0.18750000 </v>
   <v>       0.37500000 </v>
   <v>       0.04687500 </v>
   <v>       0.09375000 </v>
  </varray>
  <varray name="tetrahedronlist"  type="int" >
   <v type="int" >        4        1        2        2        2 </v>
   <v type="int" >        8        1        2        2        4 </v>
   <v type="int" >        8        2        2        4        6 </v>
   <v type="int" >        4        2        2        2        4 </v>
   <v type="int" >        8        2        2        4        5 </v>
   <v type="int" >        8        2        2        5        6 </v>
   <v type="int" >        8        2        3        4        5 </v>
   <v type="int" >        4        2        4        5        5 </v>
   <v type="int" >        8        3        4        5        6 </v>
   <v type="int" >        8        4        5        6        6 </v>
   <v type="int" >        4        4        5        5        6 </v>
   <v type="int" >       12        2        3        6        6 </v>
   <v type="int" >       16        3        5        6        6 </v>
   <v type="int" >       20        5        6        6        6 </v>
   <v type="int" >       20        2        5        6        6 </v>
   <v type="int" >       32        5        6        6        8 </v>
   <v type="int" >       24        6        6        6        8 </v>
   <v type="int" >        8        1        2        4        5 </v>
   <v type="int" >       16        2        4        5        6 </v>
   <v type="int" >        8        4        5        6        8 </v>
   <v type="int" >        8        2        4        6        6 </v>
   <v type="int" >        8        4        6        6        7 </v>
   <v type="int" >       12        6        6        6        7 </v>
   <v type="int" >        4        2        3        5        5 </v>
   <v type="int" >       16        2        3        5        6 </v>
   <v type="int" >       16        3        5        6        8 </v>
   <v type="int" >       12        3        5        5        6 </v>
   <v type="int" >        4        3        6        6        6 </v>
   <v type="int" >        8        4        6        7        8 </v>
   <v type="int" >       16        6        6        7        8 </v>
   <v type="int" >       16        5        6        7        8 </v>
   <v type="int" >        8        5        5        6        8 </v>
   <v type="int" >        8        4        5        6        7 </v>
   <v type="int" >        4        2        4        4        5 </v>
   <v type="int" >        4        1        2        4        4 </v>
   <v type="int" >        4        4        6        6        6 </v>
   <v type="int" >        4        6        7        8        8 </v>
   <v type="int" >        4        5        6        8        8 </v>
  </varray>
  <i name="volumeweight">      0.00260417 </i>
 </kpoints>
 <parameters>
  <separator name="general" >
   <i type="string" name="SYSTEM">unknown system</i>
   <i type="logical" name="LCOMPAT"> F  </i>
  </separator>
  <separator name="electronic" >
   <i type="string" name="PREC">accura</i>
   <i name="ENMAX">    520.00000000</i>
   <i name="ENAUG">    322.06900000</i>
   <i name="EDIFF">      0.00000001</i>
   <i type="int" name="IALGO">    38</i>
   <i type="int" name="IWAVPR">    11</i>
   <i type="int" name="NBANDS">    64</i>
   <i name="NELECT">     64.00000000</i>
   <i type="int" name="TURBO">     0</i>
   <i type="int" name="IRESTART">     0</i>
   <i type="int" name="NREBOOT">     0</i>
   <i type="int" name="NMIN">     0</i>
   <i name="EREF">      0.00000000</i>
   <separator name="electronic smearing" >
    <i type="int" name="ISMEAR">    -5</i>
    <i name="SIGMA">      0.05000000</i>
    <i name="KSPACING">      0.50000000</i>
    <i type="logical" name="KGAMMA"> T  </i>
   </separator>
   <separator name="electronic projectors" >
    <i type="logical" name="LREAL"> F  </i>
    <v name="ROPT">      0.00000000</v>
    <i type="int" name="LMAXPAW">  -100</i>
    <i type="int" name="LMAXMIX">     2</i>
    <i type="logical" name="NLSPLINE"> F  </i>
   </separator>
   <separator name="electronic startup" >
    <i type="int" name="ISTART">     1</i>
    <i type="int" name="ICHARG">     0</i>
    <i type="int" name="INIWAV">     1</i>
   </separator>
   <separator name="electronic spin" >
    <i type="int" name="ISPIN">     2</i>
    <i type="logical" name="LNONCOLLINEAR"> F  </i>
    <v name="MAGMOM">      1.00000000      1.00000000      1.00000000      1.00000000      1.00000000      1.00000000      1.00000000      1.00000000      1.00000000      1.00000000      1.00000000      1.00000000      1.00000000      1.00000000      1.00000000      1.00000000</v>
    <i name="NUPDOWN">     -1.00000000</i>
    <i type="logical" name="LSORBIT"> F  </i>
    <v name="SAXIS">      0.00000000      0.00000000      1.00000000</v>
    <i type="logical" name="LSPIRAL"> F  </i>
    <v name="QSPIRAL">      0.00000000      0.00000000      0.00000000</v>
    <i type="logical" name="LZEROZ"> F  </i>
   </separator>
   <separator name="electronic exchange-correlation" >
    <i type="logical" name="LASPH"> F  </i>
    <i type="logical" name="LMETAGGA"> F  </i>
   </separator>
   <separator name="electronic convergence" >
    <i type="int" name="NELM">   100</i>
    <i type="int" name="NELMDL">     0</i>
    <i type="int" name="NELMIN">     2</i>
    <i name="ENINI">    520.00000000</i>
    <separator name="electronic convergence detail" >
     <i type="logical" name="LDIAG"> T  </i>
     <i type="logical" name="LSUBROT"> F  </i>
     <i name="WEIMIN">      0.00100000</i>
     <i name="EBREAK">      0.00000000</i>
     <i name="DEPER">      0.30000000</i>
     <i type="int" name="NRMM">     4</i>
     <i name="TIME">      0.40000000</i>
    </separator>
   </separator>
   <separator name="electronic mixer" >
    <i name="AMIX">      0.40000000</i>
    <i name="BMIX">      1.00000000</i>
    <i name="AMIN">      0.10000000</i>
    <i name="AMIX_MAG">      1.60000000</i>
    <i name="BMIX_MAG">      1.00000000</i>
    <separator name="electronic mixer details" >
     <i type="int" name="IMIX">     4</i>
     <i type="logical" name="MIXFIRST"> F  </i>
     <i type="int" name="MAXMIX">   -45</i>
     <i name="WC">    100.00000000</i>
     <i type="int" name="INIMIX">     1</i>
     <i type="int" name="MIXPRE">     1</i>
     <i type="int" name="MREMOVE">     5</i>
    </separator>
   </separator>
   <separator name="electronic dipolcorrection" >
    <i type="logical" name="LDIPOL"> F  </i>
    <i type="logical" name="LMONO"> F  </i>
    <i type="int" name="IDIPOL">     0</i>
    <i name="EPSILON">      1.00000000</i>
    <v name="DIPOL">   -100.00000000   -100.00000000   -100.00000000</v>
    <i name="EFIELD">      0.00000000</i>
   </separator>
  </separator>
  <separator name="grids" >
   <i type="int" name="NGX">    60</i>
   <i type="int" name="NGY">    60</i>
   <i type="int" name="NGZ">    60</i>
   <i type="int" name="NGXF">   120</i>
   <i type="int" name="NGYF">   120</i>
   <i type="int" name="NGZF">   120</i>
   <i type="logical" name="ADDGRID"> F  </i>
  </separator>
  <separator name="ionic" >
   <i type="int" name="NSW">     1</i>
   <i type="int" name="IBRION">     8</i>
   <i type="int" name="ISIF">     3</i>
   <i name="PSTRESS">      0.00000000</i>
   <i name="EDIFFG">      0.00000010</i>
   <i type="int" name="NFREE">     0</i>
   <i name="POTIM">      0.50000000</i>
   <i name="SMASS">     -3.00000000</i>
   <i name="SCALEE">      1.00000000</i>
  </separator>
  <separator name="ionic md" >
   <i name="TEBEG">      0.00010000</i>
   <i name="TEEND">      0.00010000</i>
   <i type="int" name="NBLOCK">     1</i>
   <i type="int" name="KBLOCK">     1</i>
   <i type="int" name="NPACO">   256</i>
   <i name="APACO">     16.00000000</i>
  </separator>
  <separator name="symmetry" >
   <i type="int" name="ISYM">     2</i>
   <i name="SYMPREC">      0.00001000</i>
  </separator>
  <separator name="dos" >
   <i type="logical" name="LORBIT"> F  </i>
   <v name="RWIGS">     -1.00000000</v>
   <i type="int" name="NEDOS">   301</i>
   <i name="EMIN">     10.00000000</i>
   <i name="EMAX">    -10.00000000</i>
   <i name="EFERMI">      0.00000000</i>
  </separator>
  <separator name="writing" >
   <i type="int" name="NWRITE">     2</i>
   <i type="logical" name="LWAVE"> F  </i>
   <i type="logical" name="LCHARG"> F  </i>
   <i type="logical" name="LPARD"> F  </i>
   <i type="logical" name="LVTOT"> F  </i>
   <i type="logical" name="LVHAR"> F  </i>
   <i type="logical" name="LELF"> F  </i>
   <i type="logical" name="LOPTICS"> F  </i>
   <v name="STM">      0.00000000      0.00000000      0.00000000      0.00000000      0.00000000      0.00000000      0.00000000</v>
  </separator>
  <separator name="performance" >
   <i type="int" name="NPAR">    16</i>
   <i type="int" name="NSIM">     4</i>
   <i type="int" name="NBLK">    -1</i>
   <i type="logical" name="LPLANE"> T  </i>
   <i type="logical" name="LSCALAPACK"> F  </i>
   <i type="logical" name="LSCAAWARE"> F  </i>
   <i type="logical" name="LSCALU"> F  </i>
   <i type="logical" name="LASYNC"> F  </i>
   <i type="logical" name="LORBITALREAL"> F  </i>
  </separator>
  <separator name="miscellaneous" >
   <i type="int" name="IDIOT">     3</i>
   <i type="logical" name="LMUSIC"> F  </i>
   <v name="POMASS">     28.08500000</v>
   <v name="DARWINR">      0.00000000</v>
   <v name="DARWINV">      1.00000000</v>
   <i type="logical" name="LCORR"> T  </i>
  </separator>
  <i type="logical" name="GGA_COMPAT"> T  </i>
  <i type="logical" name="LBERRY"> F  </i>
  <i type="int" name="ICORELEVEL">     0</i>
  <i type="logical" name="LDAU"> F  </i>
  <i type="int" name="I_CONSTRAINED_M">     0</i>
  <separator name="electronic exchange-correlation" >
   <i type="string" name="GGA">--</i>
   <i type="int" name="VOSKOWN">     0</i>
   <i type="logical" name="LHFCALC"> F  </i>
   <i type="string" name="PRECFOCK"></i>
   <i type="logical" name="LSYMGRAD"> F  </i>
   <i type="logical" name="LHFONE"> F  </i>
   <i type="logical" name="LRHFCALC"> F  </i>
   <i type="logical" name="LTHOMAS"> F  </i>
   <i type="logical" name="LMODELHF"> F  </i>
   <i name="ENCUT4O">     -1.00000000</i>
   <i type="int" name="EXXOEP">     0</i>
   <i type="int" name="FOURORBIT">     0</i>
   <i name="AEXX">      0.00000000</i>
   <i name="HFALPHA">      0.00000000</i>
   <i name="MCALPHA">      0.00000000</i>
   <i name="ALDAX">      1.00000000</i>
   <i name="AGGAX">      1.00000000</i>
   <i name="ALDAC">      1.00000000</i>
   <i name="AGGAC">      1.00000000</i>
   <i type="int" name="NKREDX">     1</i>
   <i type="int" name="NKREDY">     1</i>
   <i type="int" name="NKREDZ">     1</i>
   <i type="logical" name="SHIFTRED"> F  </i>
   <i type="logical" name="ODDONLY"> F  </i>
   <i type="logical" name="EVENONLY"> F  </i>
   <i type="int" name="LMAXFOCK">     0</i>
   <i type="int" name="NMAXFOCKAE">     0</i>
   <i type="logical" name="LFOCKAEDFT"> F  </i>
   <i name="HFSCREEN">      0.00000000</i>
   <i name="HFSCREENC">      0.00000000</i>
   <i type="int" name="NBANDSGWLOW">     0</i>
  </separator>
  <separator name="vdW DFT" >
   <i type="logical" name="LUSE_VDW"> F  </i>
   <i name="Zab_VDW">     -0.84910000</i>
   <i name="PARAM1">      0.12340000</i>
   <i name="PARAM2">      1.00000000</i>
   <i name="PARAM3">      0.00000000</i>
  </separator>
  <separator name="model GW" >
   <i type="int" name="MODEL_GW">     0</i>
   <i name="MODEL_EPS0">     12.27075084</i>
   <i name="MODEL_ALPHA">      1.00000000</i>
  </separator>
  <separator name="linear response parameters" >
   <i type="logical" name="LEPSILON"> F  </i>
   <i type="logical" name="LRPA"> F  </i>
   <i type="logical" name="LNABLA"> F  </i>
   <i type="logical" name="LVEL"> F  </i>
   <i type="int" name="KINTER">     0</i>
   <i name="CSHIFT">      0.10000000</i>
   <i name="OMEGAMAX">     -1.00000000</i>
   <i name="DEG_THRESHOLD">      0.00200000</i>
  </separator>
  <separator name="orbital magnetization" >
   <i type="logical" name="NUCIND"> F  </i>
   <v name="MAGPOS">      0.00000000      0.00000000      0.00000000</v>
   <i type="logical" name="LNICSALL"> T  </i>
   <i type="logical" name="ORBITALMAG"> F  </i>
   <i type="logical" name="LMAGBLOCH"> F  </i>
   <i type="logical" name="LCHIMAG"> F  </i>
   <i type="logical" name="LGAUGE"> T  </i>
   <i type="int" name="MAGATOM">     0</i>
   <v name="MAGDIPOL">      0.00000000      0.00000000      0.00000000</v>
   <v name="AVECCONST">      0.00000000      0.00000000      0.00000000</v>
  </separator>
  <separator name="response functions" >
   <i type="logical" name="LADDER"> F  </i>
   <i type="logical" name="LFXC"> F  </i>
   <i type="logical" name="LHARTREE"> T  </i>
   <i type="int" name="IBSE">     0</i>
   <v type="int" name="KPOINT">    -1     0     0     0</v>
   <i type="logical" name="LTCTE"> F  </i>
   <i type="logical" name="LTETE"> F  </i>
   <i type="logical" name="LTRIPLET"> F  </i>
   <i type="logical" name="LFXCEPS"> F  </i>
   <i type="logical" name="LFXHEG"> F  </i>
   <i type="int" name="NATURALO">     0</i>
   <i type="logical" name="L2ORDER"> F  </i>
   <i type="logical" name="LUSEW"> F  </i>
   <i name="ENCUTGW">     -2.00000000</i>
   <i name="ENCUTGWSOFT">     -2.00000000</i>
   <i name="ENCUTLF">     -1.00000000</i>
   <i type="int" name="LMAXMP2">    -1</i>
   <i name="SCISSOR">      0.00000000</i>
   <i type="int" name="NOMEGA">     0</i>
   <i type="int" name="NOMEGAR">     0</i>
   <i type="int" name="NBANDSGW">    -1</i>
   <i type="int" name="NBANDSO">    -1</i>
   <i type="int" name="NBANDSV">    -1</i>
   <i type="int" name="NELM">   100</i>
   <i type="int" name="NELMHF">     1</i>
   <i type="int" name="DIM">     3</i>
   <i type="int" name="ANTIRES">     0</i>
   <i name="OMEGAMAX">    -30.00000000</i>
   <i name="OMEGAMIN">    -30.00000000</i>
   <i name="OMEGATL">   -200.00000000</i>
   <i type="int" name="OMEGAGRID">     0</i>
   <i name="CSHIFT">     -0.10000000</i>
   <i type="logical" name="SELFENERGY"> F  </i>
   <i type="logical" name="LSPECTRAL"> F  </i>
   <i type="logical" name="LSPECTRALGW"> F  </i>
   <i type="logical" name="LSINGLES"> F  </i>
   <i type="logical" name="LFERMIGW"> F  </i>
   <i type="logical" name="ODDONLYGW"> F  </i>
   <i type="logical" name="EVENONLYGW"> F  </i>
   <i type="int" name="NKREDLFX">     1</i>
   <i type="int" name="NKREDLFY">     1</i>
   <i type="int" name="NKREDLFZ">     1</i>
   <i type="int" name="MAXMEM">  1800</i>
   <i type="int" name="TELESCOPE">     0</i>
   <i type="int" name="TAUPAR">     1</i>
   <i type="int" name="OMEGAPAR">    -1</i>
   <i name="LAMBDA">      1.00000000</i>
  </separator>
  <separator name="External order field" >
   <i name="OFIELD_KAPPA">      0.00000000</i>
   <v name="OFIELD_K">      0.00000000      0.00000000      0.00000000</v>
   <i name="OFIELD_Q6_NEAR">      0.00000000</i>
   <i name="OFIELD_Q6_FAR">      0.00000000</i>
   <i name="OFIELD_A">      0.00000000</i>
  </separator>
 </parameters>
 <atominfo>
  <atoms>      16 </atoms>
  <types>       1 </types>
  <array name="atoms" >
   <dimension dim="1">ion</dimension>
   <field type="string">element</field>
   <field type="int">atomtype</field>
   <set>
    <rc><c>Si</c><c>   1</c></rc>
    <rc><c>Si</c><c>   1</c></rc>
    <rc><c>Si</c><c>   1</c></rc>
    <rc><c>Si</c><c>   1</c></rc>
    <rc><c>Si</c><c>   1</c></rc>
    <rc><c>Si</c><c>   1</c></rc>
    <rc><c>Si</c><c>   1</c></rc>
    <rc><c>Si</c><c>   1</c></rc>
    <rc><c>Si</c><c>   1</c></rc>
    <rc><c>Si</c><c>   1</c></rc>
    <rc><c>Si</c><c>   1</c></rc>
    <rc><c>Si</c><c>   1</c></rc>
    <rc><c>Si</c><c>   1</c></rc>
    <rc><c>Si</c><c>   1</c></rc>
    <rc><c>Si</c><c>   1</c></rc>
    <rc><c>Si</c><c>   1</c></rc>
   </set>
  </array>
  <array name="atomtypes" >
   <dimension dim="1">type</dimension>
   <field type="int">atomspertype</field>
   <field type="string">element</field>
   <field>mass</field>
   <field>valence</field>
   <field type="string">pseudopotential</field>
   <set>
    <rc><c>  16</c><c>Si</c><c>     28.08500000</c><c>      4.00000000</c><c> PAW_PBE Si 05Jan2001                   </c></rc>
   </set>
  </array>
 </atominfo>
 <structure name="initialpos" >
  <crystal>
   <varray name="basis" >
    <v>       7.73484400       0.00000000       0.00000000 </v>
    <v>       3.86742200       6.69857400       0.00000000 </v>
    <v>       0.00000000      -4.46571200       6.31547400 </v>
   </varray>
   <i name="volume">    327.22002241 </i>
   <varray name="rec_basis" >
    <v>       0.12928509      -0.07464275      -0.05278037 </v>
    <v>       0.00000000       0.14928550       0.10556073 </v>
    <v>       0.00000000       0.00000000       0.15834124 </v>
   </varray>
  </crystal>
  <varray name="positions" >
   <v>       0.00000000       0.00000000       0.00000000 </v>
   <v>       0.00000000       0.00000000       0.50000000 </v>
   <v>       0.00000000       0.50000000       0.00000000 </v>
   <v>       0.00000000       0.50000000       0.50000000 </v>
   <v>       0.50000000       0.00000000       0.00000000 </v>
   <v>       0.50000000       0.00000000       0.50000000 </v>
   <v>       0.50000000       0.50000000       0.00000000 </v>
   <v>       0.50000000       0.50000000       0.50000000 </v>
   <v>       0.37500000       0.25000000       0.37500000 </v>
   <v>       0.37500000       0.25000000       0.87500000 </v>
   <v>       0.37500000       0.75000000       0.37500000 </v>
   <v>       0.37500000       0.75000000       0.87500000 </v>
   <v>       0.87500000       0.25000000       0.37500000 </v>
   <v>       0.87500000       0.25000000       0.87500000 </v>
   <v>       0.87500000       0.75000000       0.37500000 </v>
   <v>       0.87500000       0.75000000       0.87500000 </v>
  </varray>
 </structure>
 <calculation>
  <scstep>
   <time name="dav">    4.23    4.26</time>
   <time name="total">    4.85    4.91</time>
   <energy>
    <i name="alphaZ">     26.33624925 </i>
    <i name="ewald">  -1815.34908910 </i>
    <i name="hartreedc">   -121.50527651 </i>
    <i name="XCdc">   -144.48500251 </i>
    <i name="pawpsdc">    588.85342059 </i>
    <i name="pawaedc">   -309.00335818 </i>
    <i name="eentropy">      0.00000000 </i>
    <i name="bandstr">     39.32301896 </i>
    <i name="atom">   1649.06162187 </i>
    <i name="e_fr_energy">    -86.76841563 </i>
    <i name="e_wo_entrp">    -86.76841563 </i>
    <i name="e_0_energy">    -86.76841563 </i>
   </energy>
  </scstep>
  <scstep>
   <time name="dav">    4.30    4.31</time>
   <time name="total">    4.91    4.92</time>
   <energy>
    <i name="e_fr_energy">    -86.76841559 </i>
    <i name="e_wo_entrp">    -86.76841559 </i>
    <i name="e_0_energy">    -86.76841559 </i>
   </energy>
  </scstep>
  <scstep>
   <time name="dav">    3.94    3.99</time>
   <time name="total">    4.55    4.60</time>
   <energy>
    <i name="e_fr_energy">    -86.76841554 </i>
    <i name="e_wo_entrp">    -86.76841554 </i>
    <i name="e_0_energy">    -86.76841554 </i>
   </energy>
  </scstep>
  <scstep>
   <time name="dav">    3.89    3.91</time>
   <time name="total">    4.11    4.13</time>
   <energy>
    <i name="alphaZ">     26.33624925 </i>
    <i name="ewald">  -1815.34908910 </i>
    <i name="hartreedc">   -121.50460565 </i>
    <i name="XCdc">   -144.48505034 </i>
    <i name="pawpsdc">    588.85189151 </i>
    <i name="pawaedc">   -309.00177759 </i>
    <i name="eentropy">      0.00000000 </i>
    <i name="bandstr">     39.32234450 </i>
    <i name="atom">   1649.06162187 </i>
    <i name="e_fr_energy">    -86.76841555 </i>
    <i name="e_wo_entrp">    -86.76841555 </i>
    <i name="e_0_energy">    -86.76841555 </i>
   </energy>
  </scstep>
  <structure>
   <crystal>
    <varray name="basis" >
     <v>       7.73484400       0.00000000       0.00000000 </v>
     <v>       3.86742200       6.69857400       0.00000000 </v>
     <v>       0.00000000      -4.46571200       6.31547400 </v>
    </varray>
    <i name="volume">    327.22002241 </i>
    <varray name="rec_basis" >
     <v>       0.12928509      -0.07464275      -0.05278037 </v>
     <v>       0.00000000       0.14928550       0.10556073 </v>
     <v>       0.00000000       0.00000000       0.15834124 </v>
    </varray>
   </crystal>
   <varray name="positions" >
    <v>       0.00000000       0.00000000       0.00000000 </v>
    <v>       0.00000000       0.00000000       0.50000000 </v>
    <v>       0.00000000       0.50000000       0.00000000 </v>
    <v>       0.00000000       0.50000000       0.50000000 </v>
    <v>       0.50000000       0.00000000       0.00000000 </v>
    <v>       0.50000000       0.00000000       0.50000000 </v>
    <v>       0.50000000       0.50000000       0.00000000 </v>
    <v>       0.50000000       0.50000000       0.50000000 </v>
    <v>       0.37500000       0.25000000       0.37500000 </v>
    <v>       0.37500000       0.25000000       0.87500000 </v>
    <v>       0.37500000       0.75000000       0.37500000 </v>
    <v>       0.37500000       0.75000000       0.87500000 </v>
    <v>       0.87500000       0.25000000       0.37500000 </v>
    <v>       0.87500000       0.25000000       0.87500000 </v>
    <v>       0.87500000       0.75000000       0.37500000 </v>
    <v>       0.87500000       0.75000000       0.87500000 </v>
   </varray>
  </structure>
  <varray name="forces" >
   <v>       0.00000000      -0.00000000       0.00000000 </v>
   <v>       0.00000000      -0.00000000       0.00000000 </v>
   <v>      -0.00000000      -0.00000000       0.00000000 </v>
   <v>      -0.00000000       0.00000000       0.00000000 </v>
   <v>      -0.00000000       0.00000000      -0.00000000 </v>
   <v>      -0.00000000       0.00000000       0.00000000 </v>
   <v>      -0.00000000       0.00000000       0.00000000 </v>
   <v>      -0.00000000       0.00000000       0.00000000 </v>
   <v>       0.00000000      -0.00000000      -0.00000000 </v>
   <v>       0.00000000      -0.00000000      -0.00000000 </v>
   <v>      -0.00000000      -0.00000000      -0.00000000 </v>
   <v>       0.00000000      -0.00000000      -0.00000000 </v>
   <v>      -0.00000000       0.00000000       0.00000000 </v>
   <v>      -0.00000000       0.00000000      -0.00000000 </v>
   <v>       0.00000000      -0.00000000      -0.00000000 </v>
   <v>       0.00000000       0.00000000      -0.00000000 </v>
  </varray>
  <varray name="stress" >
   <v>      -0.33935019       0.00000000      -0.00000000 </v>
   <v>       0.00000000      -0.33935045      -0.00000021 </v>
   <v>      -0.00000000      -0.00000021      -0.33935023 </v>
  </varray>
  <energy>
   <i name="e_fr_energy">    -86.76841555 </i>
   <i name="e_wo_entrp">    -86.76841555 </i>
   <i name="e_0_energy">      0.00000000 </i>
  </energy>
  <kpoints>
   <generation param="Gamma">
    <v type="int" name="divisions">       4        4        4 </v>
    <v name="usershift">      0.00000000       0.00000000       0.00000000 </v>
    <v name="genvec1">      0.25000000      -0.00000000       0.00000000 </v>
    <v name="genvec2">      0.00000000       0.25000000      -0.00000000 </v>
    <v name="genvec3">      0.00000000       0.00000000       0.25000000 </v>
    <v name="shift">      0.00000000       0.00000000       0.00000000 </v>
   </generation>
   <varray name="kpointlist" >
    <v>       0.00000000       0.00000000       0.00000000 </v>
    <v>       0.25000000      -0.00000000       0.00000000 </v>
    <v>       0.50000000      -0.00000000       0.00000000 </v>
    <v>       0.00000000       0.25000000       0.00000000 </v>
    <v>       0.25000000       0.25000000       0.00000000 </v>
    <v>       0.50000000       0.25000000       0.00000000 </v>
    <v>      -0.25000000       0.25000000       0.00000000 </v>
    <v>       0.00000000       0.50000000       0.00000000 </v>
    <v>       0.25000000       0.50000000       0.00000000 </v>
    <v>       0.50000000       0.50000000       0.00000000 </v>
    <v>       0.00000000       0.00000000       0.25000000 </v>
    <v>       0.25000000      -0.00000000       0.25000000 </v>
    <v>       0.50000000      -0.00000000       0.25000000 </v>
    <v>      -0.25000000       0.00000000       0.25000000 </v>
    <v>       0.00000000       0.25000000       0.25000000 </v>
    <v>       0.25000000       0.25000000       0.25000000 </v>
    <v>       0.50000000       0.25000000       0.25000000 </v>
    <v>      -0.25000000       0.25000000       0.25000000 </v>
    <v>       0.00000000       0.00000000       0.50000000 </v>
    <v>       0.25000000      -0.00000000       0.50000000 </v>
    <v>       0.50000000      -0.00000000       0.50000000 </v>
    <v>       0.00000000       0.25000000       0.50000000 </v>
    <v>       0.25000000       0.25000000       0.50000000 </v>
    <v>       0.50000000       0.25000000       0.50000000 </v>
   </varray>
   <varray name="weights" >
    <v>       0.01562500 </v>
    <v>       0.03125000 </v>
    <v>       0.01562500 </v>
    <v>       0.03125000 </v>
    <v>       0.03125000 </v>
    <v>       0.03125000 </v>
    <v>       0.03125000 </v>
    <v>       0.01562500 </v>
    <v>       0.03125000 </v>
    <v>       0.01562500 </v>
    <v>       0.06250000 </v>
    <v>       0.06250000 </v>
    <v>       0.06250000 </v>
    <v>       0.06250000 </v>
    <v>       0.06250000 </v>
    <v>       0.06250000 </v>
    <v>       0.06250000 </v>
    <v>       0.06250000 </v>
    <v>       0.03125000 </v>
    <v>       0.06250000 </v>
    <v>       0.03125000 </v>
    <v>       0.03125000 </v>
    <v>       0.06250000 </v>
    <v>       0.03125000 </v>
   </varray>
   <varray name="tetrahedronlist"  type="int" >
    <v type="int" >        2        1        2        5       11 </v>
    <v type="int" >        2        1        4        5       11 </v>
    <v type="int" >        2        4        5       11       15 </v>
    <v type="int" >        2        2        5       11       12 </v>
    <v type="int" >        2        5       11       12       16 </v>
    <v type="int" >        2        5       11       15       16 </v>
    <v type="int" >        2        2        3        6       12 </v>
    <v type="int" >        2        2        5        6       12 </v>
    <v type="int" >        2        5        6       12       16 </v>
    <v type="int" >        2        3        6       12       13 </v>
    <v type="int" >        2        6       12       13       17 </v>
    <v type="int" >        2        6       12       16       17 </v>
    <v type="int" >        2        2        3        7       13 </v>
    <v type="int" >        2        3        6        7       13 </v>
    <v type="int" >        2        6        7       13       17 </v>
    <v type="int" >        2        2        7       13       14 </v>
    <v type="int" >        2        7       13       14       18 </v>
    <v type="int" >        2        7       13       17       18 </v>
    <v type="int" >        2        1        2        4       14 </v>
    <v type="int" >        2        2        4        7       14 </v>
    <v type="int" >        2        4        7       14       18 </v>
    <v type="int" >        2        1        4       11       14 </v>
    <v type="int" >        2        4       11       14       15 </v>
    <v type="int" >        2        4       14       15       18 </v>
    <v type="int" >        2        4        5        9       15 </v>
    <v type="int" >        2        4        8        9       15 </v>
    <v type="int" >        2        8        9       15       15 </v>
    <v type="int" >        2        5        9       15       16 </v>
    <v type="int" >        2        9       15       16       18 </v>
    <v type="int" >        2        9       15       15       18 </v>
    <v type="int" >        2        5        6       10       16 </v>
    <v type="int" >        2        5        9       10       16 </v>
    <v type="int" >        2        9       10       16       18 </v>
    <v type="int" >        2        6       10       16       17 </v>
    <v type="int" >        2       10       16       17       17 </v>
    <v type="int" >        2       10       16       17       18 </v>
    <v type="int" >        2        6        7        9       17 </v>
    <v type="int" >        2        6        9       10       17 </v>
    <v type="int" >        2        9       10       17       17 </v>
    <v type="int" >        2        7        9       17       18 </v>
    <v type="int" >        2        9       16       17       18 </v>
    <v type="int" >        2        9       16       17       17 </v>
    <v type="int" >        2        4        7        8       18 </v>
    <v type="int" >        2        7        8        9       18 </v>
    <v type="int" >        2        8        9       16       18 </v>
    <v type="int" >        2        4        8       15       18 </v>
    <v type="int" >        2        8       15       15       18 </v>
    <v type="int" >        2        8       15       16       18 </v>
    <v type="int" >        2        7        8        9       15 </v>
    <v type="int" >        2        4        7        8       15 </v>
    <v type="int" >        2        4        7       11       15 </v>
    <v type="int" >        2        7        9       15       18 </v>
    <v type="int" >        2        7       14       15       18 </v>
    <v type="int" >        2        7       11       14       15 </v>
    <v type="int" >        2        6        9       10       18 </v>
    <v type="int" >        2        6        7        9       18 </v>
    <v type="int" >        2        6        7       14       18 </v>
    <v type="int" >        2        6       10       17       18 </v>
    <v type="int" >        2        6       13       17       18 </v>
    <v type="int" >        2        6       13       14       18 </v>
    <v type="int" >        2        5        9       10       17 </v>
    <v type="int" >        2        5        6       10       17 </v>
    <v type="int" >        2        5        6       13       17 </v>
    <v type="int" >        2        5        9       16       17 </v>
    <v type="int" >        2        5       12       16       17 </v>
    <v type="int" >        2        5       12       13       17 </v>
    <v type="int" >        2        4        8        9       16 </v>
    <v type="int" >        2        4        5        9       16 </v>
    <v type="int" >        2        4        5       12       16 </v>
    <v type="int" >        2        4        8       15       16 </v>
    <v type="int" >        2        4       11       15       16 </v>
    <v type="int" >        2        4       11       12       16 </v>
    <v type="int" >        2        2        4        7       11 </v>
    <v type="int" >        2        1        2        4       11 </v>
    <v type="int" >        2        1        2       11       11 </v>
    <v type="int" >        2        2        7       11       14 </v>
    <v type="int" >        2        2       11       12       14 </v>
    <v type="int" >        2        2       11       11       12 </v>
    <v type="int" >        2        3        6        7       14 </v>
    <v type="int" >        2        2        3        7       14 </v>
    <v type="int" >        2        2        3       12       14 </v>
    <v type="int" >        2        3        6       13       14 </v>
    <v type="int" >        2        3       13       13       14 </v>
    <v type="int" >        2        3       12       13       14 </v>
    <v type="int" >        2        2        5        6       13 </v>
    <v type="int" >        2        2        3        6       13 </v>
    <v type="int" >        2        2        3       13       13 </v>
    <v type="int" >        2        2        5       12       13 </v>
    <v type="int" >        2        2       12       13       14 </v>
    <v type="int" >        2        2       13       13       14 </v>
    <v type="int" >        2        1        4        5       12 </v>
    <v type="int" >        2        1        2        5       12 </v>
    <v type="int" >        2        1        2       12       14 </v>
    <v type="int" >        2        1        4       11       12 </v>
    <v type="int" >        2        1       11       11       12 </v>
    <v type="int" >        2        1       11       12       14 </v>
    <v type="int" >        2       11       12       16       19 </v>
    <v type="int" >        2       11       15       16       19 </v>
    <v type="int" >        2       15       16       19       22 </v>
    <v type="int" >        2       12       16       19       20 </v>
    <v type="int" >        2       16       19       20       23 </v>
    <v type="int" >        2       16       19       22       23 </v>
    <v type="int" >        2       12       13       17       20 </v>
    <v type="int" >        2       12       16       17       20 </v>
    <v type="int" >        2       16       17       20       23 </v>
    <v type="int" >        4       13       17       20       21 </v>
    <v type="int" >        2       17       20       21       24 </v>
    <v type="int" >        2       17       20       23       24 </v>
    <v type="int" >        2       13       14       18       21 </v>
    <v type="int" >        2       13       17       18       21 </v>
    <v type="int" >        2       17       18       21       24 </v>
    <v type="int" >        2       14       18       20       21 </v>
    <v type="int" >        2       18       20       21       23 </v>
    <v type="int" >        2       18       21       23       24 </v>
    <v type="int" >        2       11       14       15       20 </v>
    <v type="int" >        2       14       15       18       20 </v>
    <v type="int" >        2       15       18       20       23 </v>
    <v type="int" >        4       11       15       19       20 </v>
    <v type="int" >        2       15       19       20       22 </v>
    <v type="int" >        2       15       20       22       23 </v>
    <v type="int" >        2       15       16       18       22 </v>
    <v type="int" >        2       15       15       18       22 </v>
    <v type="int" >        2       15       18       19       22 </v>
    <v type="int" >        2       16       18       22       23 </v>
    <v type="int" >        2       18       20       22       23 </v>
    <v type="int" >        2       18       19       20       22 </v>
    <v type="int" >        2       16       17       17       23 </v>
    <v type="int" >        2       16       17       18       23 </v>
    <v type="int" >        2       17       18       20       23 </v>
    <v type="int" >        2       17       17       23       24 </v>
    <v type="int" >        2       17       21       23       24 </v>
    <v type="int" >        2       17       20       21       23 </v>
    <v type="int" >        2       16       17       18       24 </v>
    <v type="int" >        2       16       17       17       24 </v>
    <v type="int" >        2       16       17       21       24 </v>
    <v type="int" >        2       16       18       23       24 </v>
    <v type="int" >        2       16       20       23       24 </v>
    <v type="int" >        2       16       20       21       24 </v>
    <v type="int" >        2       15       15       18       23 </v>
    <v type="int" >        2       15       16       18       23 </v>
    <v type="int" >        2       15       16       20       23 </v>
    <v type="int" >        2       15       15       22       23 </v>
    <v type="int" >        2       15       19       22       23 </v>
    <v type="int" >        2       15       19       20       23 </v>
    <v type="int" >        2       14       15       18       19 </v>
    <v type="int" >        2       11       14       15       19 </v>
    <v type="int" >        2       11       14       19       22 </v>
    <v type="int" >        2       14       18       19       20 </v>
    <v type="int" >        2       14       19       20       23 </v>
    <v type="int" >        2       14       19       22       23 </v>
    <v type="int" >        2       13       17       18       20 </v>
    <v type="int" >        2       13       14       18       20 </v>
    <v type="int" >        2       13       14       20       23 </v>
    <v type="int" >        2       13       20       21       24 </v>
    <v type="int" >        2       13       20       23       24 </v>
    <v type="int" >        2       12       16       17       21 </v>
    <v type="int" >        2       12       13       17       21 </v>
    <v type="int" >        2       12       13       21       24 </v>
    <v type="int" >        2       12       16       20       21 </v>
    <v type="int" >        2       12       20       21       23 </v>
    <v type="int" >        2       12       21       23       24 </v>
    <v type="int" >        2       11       15       16       20 </v>
    <v type="int" >        2       11       12       16       20 </v>
    <v type="int" >        2       11       12       20       23 </v>
    <v type="int" >        2       11       19       20       22 </v>
    <v type="int" >        2       11       20       22       23 </v>
    <v type="int" >        2       11       12       14       22 </v>
    <v type="int" >        2       11       11       12       22 </v>
    <v type="int" >        2       11       12       19       22 </v>
    <v type="int" >        2       12       14       22       23 </v>
    <v type="int" >        2       12       20       22       23 </v>
    <v type="int" >        2       12       19       20       22 </v>
    <v type="int" >        2       13       13       14       23 </v>
    <v type="int" >        2       12       13       14       23 </v>
    <v type="int" >        2       12       13       20       23 </v>
    <v type="int" >        2       13       13       23       24 </v>
    <v type="int" >        2       13       21       23       24 </v>
    <v type="int" >        2       13       20       21       23 </v>
    <v type="int" >        2       12       13       14       24 </v>
    <v type="int" >        2       13       13       14       24 </v>
    <v type="int" >        2       13       14       21       24 </v>
    <v type="int" >        2       12       14       23       24 </v>
    <v type="int" >        2       14       20       23       24 </v>
    <v type="int" >        2       14       20       21       24 </v>
    <v type="int" >        2       11       11       12       23 </v>
    <v type="int" >        2       11       12       14       23 </v>
    <v type="int" >        2       11       14       20       23 </v>
    <v type="int" >        2       11       11       22       23 </v>
    <v type="int" >        2       11       19       22       23 </v>
    <v type="int" >        2       11       19       20       23 </v>
   </varray>
   <i name="volumeweight">      0.00260417 </i>
  </kpoints>
  <scstep>
   <time name="total">   24.74   24.79</time>
   <energy>
    <i name="e_fr_energy">    -71.03469177 </i>
    <i name="e_wo_entrp">    -71.03469177 </i>
    <i name="e_0_energy">    -71.03469177 </i>
   </energy>
  </scstep>
  <scstep>
   <time name="total">   18.39   18.43</time>
   <energy>
    <i name="e_fr_energy">    -55.09849171 </i>
    <i name="e_wo_entrp">    -55.09849171 </i>
    <i name="e_0_energy">    -55.09849171 </i>
   </energy>
  </scstep>
  <scstep>
   <time name="total">   19.10   19.13</time>
   <energy>
    <i name="e_fr_energy">    -54.92924019 </i>
    <i name="e_wo_entrp">    -54.92924019 </i>
    <i name="e_0_energy">    -54.92924019 </i>
   </energy>
  </scstep>
  <scstep>
   <time name="total">   19.16   19.21</time>
   <energy>
    <i name="e_fr_energy">    -55.04374265 </i>
    <i name="e_wo_entrp">    -55.04374265 </i>
    <i name="e_0_energy">    -55.04374265 </i>
   </energy>
  </scstep>
  <scstep>
   <time name="total">   19.47   19.50</time>
   <energy>
    <i name="e_fr_energy">    -55.08074239 </i>
    <i name="e_wo_entrp">    -55.08074239 </i>
    <i name="e_0_energy">    -55.08074239 </i>
   </energy>
  </scstep>
  <scstep>
   <time name="total">   19.56   19.65</time>
   <energy>
    <i name="e_fr_energy">    -55.07680454 </i>
    <i name="e_wo_entrp">    -55.07680454 </i>
    <i name="e_0_energy">    -55.07680454 </i>
   </energy>
  </scstep>
  <scstep>
   <time name="total">   19.94   20.00</time>
   <energy>
    <i name="e_fr_energy">    -55.06901996 </i>
    <i name="e_wo_entrp">    -55.06901996 </i>
    <i name="e_0_energy">    -55.06901996 </i>
   </energy>
  </scstep>
  <scstep>
   <time name="total">   20.34   20.37</time>
   <energy>
    <i name="e_fr_energy">    -55.07096484 </i>
    <i name="e_wo_entrp">    -55.07096484 </i>
    <i name="e_0_energy">    -55.07096484 </i>
   </energy>
  </scstep>
  <scstep>
   <time name="total">   20.75   20.79</time>
   <energy>
    <i name="e_fr_energy">    -55.07064969 </i>
    <i name="e_wo_entrp">    -55.07064969 </i>
    <i name="e_0_energy">    -55.07064969 </i>
   </energy>
  </scstep>
  <scstep>
   <time name="total">   20.82   20.97</time>
   <energy>
    <i name="e_fr_energy">    -55.07060891 </i>
    <i name="e_wo_entrp">    -55.07060891 </i>
    <i name="e_0_energy">    -55.07060891 </i>
   </energy>
  </scstep>
  <scstep>
   <time name="total">   20.85   20.89</time>
   <energy>
    <i name="e_fr_energy">    -55.07063362 </i>
    <i name="e_wo_entrp">    -55.07063362 </i>
    <i name="e_0_energy">    -55.07063362 </i>
   </energy>
  </scstep>
  <kpoints>
   <generation param="Gamma">
    <v type="int" name="divisions">       4        4        4 </v>
    <v name="usershift">      0.00000000       0.00000000       0.00000000 </v>
    <v name="genvec1">      0.25000000      -0.00000000       0.00000000 </v>
    <v name="genvec2">      0.00000000       0.25000000      -0.00000000 </v>
    <v name="genvec3">      0.00000000       0.00000000       0.25000000 </v>
    <v name="shift">      0.00000000       0.00000000       0.00000000 </v>
   </generation>
   <varray name="kpointlist" >
    <v>       0.00000000       0.00000000       0.00000000 </v>
    <v>       0.25000000      -0.00000000       0.00000000 </v>
    <v>       0.50000000      -0.00000000       0.00000000 </v>
    <v>       0.00000000       0.25000000       0.00000000 </v>
    <v>       0.50000000       0.25000000       0.00000000 </v>
    <v>      -0.25000000       0.25000000       0.00000000 </v>
    <v>       0.00000000       0.50000000       0.00000000 </v>
    <v>      -0.25000000       0.25000000       0.25000000 </v>
   </varray>
   <varray name="weights" >
    <v>       0.01562500 </v>
    <v>       0.12500000 </v>
    <v>       0.06250000 </v>
    <v>       0.09375000 </v>
    <v>       0.18750000 </v>
    <v>       0.37500000 </v>
    <v>       0.04687500 </v>
    <v>       0.09375000 </v>
   </varray>
   <varray name="tetrahedronlist"  type="int" >
    <v type="int" >        4        1        2        2        2 </v>
    <v type="int" >        8        1        2        2        4 </v>
    <v type="int" >        8        2        2        4        6 </v>
    <v type="int" >        4        2        2        2        4 </v>
    <v type="int" >        8        2        2        4        5 </v>
    <v type="int" >        8        2        2        5        6 </v>
    <v type="int" >        8        2        3        4        5 </v>
    <v type="int" >        4        2        4        5        5 </v>
    <v type="int" >        8        3        4        5        6 </v>
    <v type="int" >        8        4        5        6        6 </v>
    <v type="int" >        4        4        5        5        6 </v>
    <v type="int" >       12        2        3        6        6 </v>
    <v type="int" >       16        3        5        6        6 </v>
    <v type="int" >       20        5        6        6        6 </v>
    <v type="int" >       20        2        5        6        6 </v>
    <v type="int" >       32        5        6        6        8 </v>
    <v type="int" >       24        6        6        6        8 </v>
    <v type="int" >        8        1        2        4        5 </v>
    <v type="int" >       16        2        4        5        6 </v>
    <v type="int" >        8        4        5        6        8 </v>
    <v type="int" >        8        2        4        6        6 </v>
    <v type="int" >        8        4        6        6        7 </v>
    <v type="int" >       12        6        6        6        7 </v>
    <v type="int" >        4        2        3        5        5 </v>
    <v type="int" >       16        2        3        5        6 </v>
    <v type="int" >       16        3        5        6        8 </v>
    <v type="int" >       12        3        5        5        6 </v>
    <v type="int" >        4        3        6        6        6 </v>
    <v type="int" >        8        4        6        7        8 </v>
    <v type="int" >       16        6        6        7        8 </v>
    <v type="int" >       16        5        6        7        8 </v>
    <v type="int" >        8        5        5        6        8 </v>
    <v type="int" >        8        4        5        6        7 </v>
    <v type="int" >        4        2        4        4        5 </v>
    <v type="int" >        4        1        2        4        4 </v>
    <v type="int" >        4        4        6        6        6 </v>
    <v type="int" >        4        6        7        8        8 </v>
    <v type="int" >        4        5        6        8        8 </v>
   </varray>
   <i name="volumeweight">      0.00260417 </i>
  </kpoints>
  <dynmat>
   <varray name="hessian" >
    <v>      -0.47068097      -0.00000000      -0.00000000      -0.00184451      -0.00000000      -0.00000000      -0.00746477       0.02358702      -0.01178096      -0.00746477      -0.00324485       0.02616504       0.03338914      -0.00000000      -0.00000000       0.00450383      -0.00000000       0.00000000      -0.00746477      -0.02358702       0.01178096      -0.00746477       0.00324485      -0.02616504      -0.00898466      -0.00000000      -0.00000000      -0.00898466      -0.00000000       0.00000000       0.00017478       0.00528821       0.00373933       0.19741313      -0.08877955      -0.06277658       0.04364256      -0.00000000       0.00000000       0.04364256       0.00000000      -0.00000000       0.00017478      -0.00528821      -0.00373933       0.19741313       0.08877955       0.06277658 </v>
    <v>      -0.00000000      -0.47068134      -0.00000030      -0.00000000      -0.00933824      -0.03021279       0.02358702       0.01977119       0.00680174      -0.00324485      -0.00371791       0.01510641      -0.00000000      -0.02108277      -0.01360350      -0.00000000       0.00450384       0.00000000      -0.02358702       0.01977119       0.00680174       0.00324485      -0.00371791       0.01510641      -0.00000000       0.00322792      -0.00431781      -0.00000000      -0.00898467       0.00000000       0.00528821      -0.00593152       0.00215890      -0.08877955       0.09489953       0.03624413      -0.00000000       0.04364259       0.00000017       0.00000000       0.24867008      -0.07248813      -0.00528821      -0.00593152       0.00215890       0.08877955       0.09489953       0.03624413 </v>
    <v>      -0.00000000      -0.00000030      -0.47068102      -0.00000000      -0.03021279       0.01202547      -0.01178096       0.00680174      -0.01146362       0.02616504       0.01510641       0.01202547      -0.00000000      -0.01360350      -0.01146362       0.00000000       0.00000000       0.00450383       0.01178096       0.00680174      -0.01146362      -0.02616504       0.01510641       0.01202547      -0.00000000      -0.00431781      -0.00745809       0.00000000       0.00000000       0.00475450       0.00373933       0.00215890      -0.00745809      -0.06277658       0.03624413       0.06927099       0.00000000       0.00000017       0.27429844      -0.00000000      -0.07248813       0.06927099      -0.00373933       0.00215890      -0.00745809       0.06277658       0.03624413       0.06927099 </v>
    <v>      -0.00184451      -0.00000000      -0.00000000      -0.47068097      -0.00000000      -0.00000000      -0.00746477      -0.00324485       0.02616504      -0.00746477       0.02358702      -0.01178096       0.00450383      -0.00000000       0.00000000       0.03338914      -0.00000000      -0.00000000      -0.00746477       0.00324485      -0.02616504      -0.00746477      -0.02358702       0.01178096      -0.00898466      -0.00000000       0.00000000      -0.00898466      -0.00000000      -0.00000000       0.19741313      -0.08877955      -0.06277658       0.00017478       0.00528821       0.00373933       0.04364256       0.00000000      -0.00000000       0.04364256      -0.00000000       0.00000000       0.19741313       0.08877955       0.06277658       0.00017478      -0.00528821      -0.00373933 </v>
    <v>      -0.00000000      -0.00933824      -0.03021279      -0.00000000      -0.47068134      -0.00000030      -0.00324485      -0.00371791       0.01510641       0.02358702       0.01977119       0.00680174      -0.00000000       0.00450384       0.00000000      -0.00000000      -0.02108277      -0.01360350       0.00324485      -0.00371791       0.01510641      -0.02358702       0.01977119       0.00680174      -0.00000000      -0.00898467       0.00000000      -0.00000000       0.00322792      -0.00431781      -0.08877955       0.09489953       0.03624413       0.00528821      -0.00593152       0.00215890       0.00000000       0.24867008      -0.07248813      -0.00000000       0.04364259       0.00000017       0.08877955       0.09489953       0.03624413      -0.00528821      -0.00593152       0.00215890 </v>
    <v>      -0.00000000      -0.03021279       0.01202547      -0.00000000      -0.00000030      -0.47068102       0.02616504       0.01510641       0.01202547      -0.01178096       0.00680174      -0.01146362       0.00000000       0.00000000       0.00450383      -0.00000000      -0.01360350      -0.01146362      -0.02616504       0.01510641       0.01202547       0.01178096       0.00680174      -0.01146362       0.00000000       0.00000000       0.00475450      -0.00000000      -0.00431781      -0.00745809      -0.06277658       0.03624413       0.06927099       0.00373933       0.00215890      -0.00745809      -0.00000000      -0.07248813       0.06927099       0.00000000       0.00000017       0.27429844       0.06277658       0.03624413       0.06927099      -0.00373933       0.00215890      -0.00745809 </v>
    <v>      -0.00746477       0.02358702      -0.01178096      -0.00746477      -0.00324485       0.02616504      -0.47068097      -0.00000000      -0.00000000      -0.00184451      -0.00000000      -0.00000000      -0.00746477      -0.02358702       0.01178096      -0.00746477       0.00324485      -0.02616504       0.03338914      -0.00000000      -0.00000000       0.00450383      -0.00000000       0.00000000       0.00017478       0.00528821       0.00373933       0.19741313      -0.08877955      -0.06277658      -0.00898466      -0.00000000      -0.00000000      -0.00898466      -0.00000000       0.00000000       0.00017478      -0.00528821      -0.00373933       0.19741313       0.08877955       0.06277658       0.04364256      -0.00000000       0.00000000       0.04364256       0.00000000      -0.00000000 </v>
    <v>       0.02358702       0.01977119       0.00680174      -0.00324485      -0.00371791       0.01510641      -0.00000000      -0.47068134      -0.00000030      -0.00000000      -0.00933824      -0.03021279      -0.02358702       0.01977119       0.00680174       0.00324485      -0.00371791       0.01510641      -0.00000000      -0.02108277      -0.01360350      -0.00000000       0.00450384       0.00000000       0.00528821      -0.00593152       0.00215890      -0.08877955       0.09489953       0.03624413      -0.00000000       0.00322792      -0.00431781      -0.00000000      -0.00898467       0.00000000      -0.00528821      -0.00593152       0.00215890       0.08877955       0.09489953       0.03624413      -0.00000000       0.04364259       0.00000017       0.00000000       0.24867008      -0.07248813 </v>
    <v>      -0.01178096       0.00680174      -0.01146362       0.02616504       0.01510641       0.01202547      -0.00000000      -0.00000030      -0.47068102      -0.00000000      -0.03021279       0.01202547       0.01178096       0.00680174      -0.01146362      -0.02616504       0.01510641       0.01202547      -0.00000000      -0.01360350      -0.01146362       0.00000000       0.00000000       0.00450383       0.00373933       0.00215890      -0.00745809      -0.06277658       0.03624413       0.06927099      -0.00000000      -0.00431781      -0.00745809       0.00000000       0.00000000       0.00475450      -0.00373933       0.00215890      -0.00745809       0.06277658       0.03624413       0.06927099       0.00000000       0.00000017       0.27429844      -0.00000000      -0.07248813       0.06927099 </v>
    <v>      -0.00746477      -0.00324485       0.02616504      -0.00746477       0.02358702      -0.01178096      -0.00184451      -0.00000000      -0.00000000      -0.47068097      -0.00000000      -0.00000000      -0.00746477       0.00324485      -0.02616504      -0.00746477      -0.02358702       0.01178096       0.00450383      -0.00000000       0.00000000       0.03338914      -0.00000000      -0.00000000       0.19741313      -0.08877955      -0.06277658       0.00017478       0.00528821       0.00373933      -0.00898466      -0.00000000       0.00000000      -0.00898466      -0.00000000      -0.00000000       0.19741313       0.08877955       0.06277658       0.00017478      -0.00528821      -0.00373933       0.04364256       0.00000000      -0.00000000       0.04364256      -0.00000000       0.00000000 </v>
    <v>      -0.00324485      -0.00371791       0.01510641       0.02358702       0.01977119       0.00680174      -0.00000000      -0.00933824      -0.03021279      -0.00000000      -0.47068134      -0.00000030       0.00324485      -0.00371791       0.01510641      -0.02358702       0.01977119       0.00680174      -0.00000000       0.00450384       0.00000000      -0.00000000      -0.02108277      -0.01360350      -0.08877955       0.09489953       0.03624413       0.00528821      -0.00593152       0.00215890      -0.00000000      -0.00898467       0.00000000      -0.00000000       0.00322792      -0.00431781       0.08877955       0.09489953       0.03624413      -0.00528821      -0.00593152       0.00215890       0.00000000       0.24867008      -0.07248813      -0.00000000       0.04364259       0.00000017 </v>
    <v>       0.02616504       0.01510641       0.01202547      -0.01178096       0.00680174      -0.01146362      -0.00000000      -0.03021279       0.01202547      -0.00000000      -0.00000030      -0.47068102      -0.02616504       0.01510641       0.01202547       0.01178096       0.00680174      -0.01146362       0.00000000       0.00000000       0.00450383      -0.00000000      -0.01360350      -0.01146362      -0.06277658       0.03624413       0.06927099       0.00373933       0.00215890      -0.00745809       0.00000000       0.00000000       0.00475450      -0.00000000      -0.00431781      -0.00745809       0.06277658       0.03624413       0.06927099      -0.00373933       0.00215890      -0.00745809      -0.00000000      -0.07248813       0.06927099       0.00000000       0.00000017       0.27429844 </v>
    <v>       0.03338914      -0.00000000      -0.00000000       0.00450383      -0.00000000       0.00000000      -0.00746477      -0.02358702       0.01178096      -0.00746477       0.00324485      -0.02616504      -0.47068097      -0.00000000      -0.00000000      -0.00184451      -0.00000000      -0.00000000      -0.00746477       0.02358702      -0.01178096      -0.00746477      -0.00324485       0.02616504       0.04364256      -0.00000000       0.00000000       0.04364256       0.00000000      -0.00000000       0.00017478      -0.00528821      -0.00373933       0.19741313       0.08877955       0.06277658      -0.00898466      -0.00000000      -0.00000000      -0.00898466      -0.00000000       0.00000000       0.00017478       0.00528821       0.00373933       0.19741313      -0.08877955      -0.06277658 </v>
    <v>      -0.00000000      -0.02108277      -0.01360350      -0.00000000       0.00450384       0.00000000      -0.02358702       0.01977119       0.00680174       0.00324485      -0.00371791       0.01510641      -0.00000000      -0.47068134      -0.00000030      -0.00000000      -0.00933824      -0.03021279       0.02358702       0.01977119       0.00680174      -0.00324485      -0.00371791       0.01510641      -0.00000000       0.04364259       0.00000017       0.00000000       0.24867008      -0.07248813      -0.00528821      -0.00593152       0.00215890       0.08877955       0.09489953       0.03624413      -0.00000000       0.00322792      -0.00431781      -0.00000000      -0.00898467       0.00000000       0.00528821      -0.00593152       0.00215890      -0.08877955       0.09489953       0.03624413 </v>
    <v>      -0.00000000      -0.01360350      -0.01146362       0.00000000       0.00000000       0.00450383       0.01178096       0.00680174      -0.01146362      -0.02616504       0.01510641       0.01202547      -0.00000000      -0.00000030      -0.47068102      -0.00000000      -0.03021279       0.01202547      -0.01178096       0.00680174      -0.01146362       0.02616504       0.01510641       0.01202547       0.00000000       0.00000017       0.27429844      -0.00000000      -0.07248813       0.06927099      -0.00373933       0.00215890      -0.00745809       0.06277658       0.03624413       0.06927099      -0.00000000      -0.00431781      -0.00745809       0.00000000       0.00000000       0.00475450       0.00373933       0.00215890      -0.00745809      -0.06277658       0.03624413       0.06927099 </v>
    <v>       0.00450383      -0.00000000       0.00000000       0.03338914      -0.00000000      -0.00000000      -0.00746477       0.00324485      -0.02616504      -0.00746477      -0.02358702       0.01178096      -0.00184451      -0.00000000      -0.00000000      -0.47068097      -0.00000000      -0.00000000      -0.00746477      -0.00324485       0.02616504      -0.00746477       0.02358702      -0.01178096       0.04364256       0.00000000      -0.00000000       0.04364256      -0.00000000       0.00000000       0.19741313       0.08877955       0.06277658       0.00017478      -0.00528821      -0.00373933      -0.00898466      -0.00000000       0.00000000      -0.00898466      -0.00000000      -0.00000000       0.19741313      -0.08877955      -0.06277658       0.00017478       0.00528821       0.00373933 </v>
    <v>      -0.00000000       0.00450384       0.00000000      -0.00000000      -0.02108277      -0.01360350       0.00324485      -0.00371791       0.01510641      -0.02358702       0.01977119       0.00680174      -0.00000000      -0.00933824      -0.03021279      -0.00000000      -0.47068134      -0.00000030      -0.00324485      -0.00371791       0.01510641       0.02358702       0.01977119       0.00680174       0.00000000       0.24867008      -0.07248813      -0.00000000       0.04364259       0.00000017       0.08877955       0.09489953       0.03624413      -0.00528821      -0.00593152       0.00215890      -0.00000000      -0.00898467       0.00000000      -0.00000000       0.00322792      -0.00431781      -0.08877955       0.09489953       0.03624413       0.00528821      -0.00593152       0.00215890 </v>
    <v>       0.00000000       0.00000000       0.00450383      -0.00000000      -0.01360350      -0.01146362      -0.02616504       0.01510641       0.01202547       0.01178096       0.00680174      -0.01146362      -0.00000000      -0.03021279       0.01202547      -0.00000000      -0.00000030      -0.47068102       0.02616504       0.01510641       0.01202547      -0.01178096       0.00680174      -0.01146362      -0.00000000      -0.07248813       0.06927099       0.00000000       0.00000017       0.27429844       0.06277658       0.03624413       0.06927099      -0.00373933       0.00215890      -0.00745809       0.00000000       0.00000000       0.00475450      -0.00000000      -0.00431781      -0.00745809      -0.06277658       0.03624413       0.06927099       0.00373933       0.00215890      -0.00745809 </v>
    <v>      -0.00746477      -0.02358702       0.01178096      -0.00746477       0.00324485      -0.02616504       0.03338914      -0.00000000      -0.00000000       0.00450383      -0.00000000       0.00000000      -0.00746477       0.02358702      -0.01178096      -0.00746477      -0.00324485       0.02616504      -0.47068097      -0.00000000      -0.00000000      -0.00184451      -0.00000000      -0.00000000       0.00017478      -0.00528821      -0.00373933       0.19741313       0.08877955       0.06277658       0.04364256      -0.00000000       0.00000000       0.04364256       0.00000000      -0.00000000       0.00017478       0.00528821       0.00373933       0.19741313      -0.08877955      -0.06277658      -0.00898466      -0.00000000      -0.00000000      -0.00898466      -0.00000000       0.00000000 </v>
    <v>      -0.02358702       0.01977119       0.00680174       0.00324485      -0.00371791       0.01510641      -0.00000000      -0.02108277      -0.01360350      -0.00000000       0.00450384       0.00000000       0.02358702       0.01977119       0.00680174      -0.00324485      -0.00371791       0.01510641      -0.00000000      -0.47068134      -0.00000030      -0.00000000      -0.00933824      -0.03021279      -0.00528821      -0.00593152       0.00215890       0.08877955       0.09489953       0.03624413      -0.00000000       0.04364259       0.00000017       0.00000000       0.24867008      -0.07248813       0.00528821      -0.00593152       0.00215890      -0.08877955       0.09489953       0.03624413      -0.00000000       0.00322792      -0.00431781      -0.00000000      -0.00898467       0.00000000 </v>
    <v>       0.01178096       0.00680174      -0.01146362      -0.02616504       0.01510641       0.01202547      -0.00000000      -0.01360350      -0.01146362       0.00000000       0.00000000       0.00450383      -0.01178096       0.00680174      -0.01146362       0.02616504       0.01510641       0.01202547      -0.00000000      -0.00000030      -0.47068102      -0.00000000      -0.03021279       0.01202547      -0.00373933       0.00215890      -0.00745809       0.06277658       0.03624413       0.06927099       0.00000000       0.00000017       0.27429844      -0.00000000      -0.07248813       0.06927099       0.00373933       0.00215890      -0.00745809      -0.06277658       0.03624413       0.06927099      -0.00000000      -0.00431781      -0.00745809       0.00000000       0.00000000       0.00475450 </v>
    <v>      -0.00746477       0.00324485      -0.02616504      -0.00746477      -0.02358702       0.01178096       0.00450383      -0.00000000       0.00000000       0.03338914      -0.00000000      -0.00000000      -0.00746477      -0.00324485       0.02616504      -0.00746477       0.02358702      -0.01178096      -0.00184451      -0.00000000      -0.00000000      -0.47068097      -0.00000000      -0.00000000       0.19741313       0.08877955       0.06277658       0.00017478      -0.00528821      -0.00373933       0.04364256       0.00000000      -0.00000000       0.04364256      -0.00000000       0.00000000       0.19741313      -0.08877955      -0.06277658       0.00017478       0.00528821       0.00373933      -0.00898466      -0.00000000       0.00000000      -0.00898466      -0.00000000      -0.00000000 </v>
    <v>       0.00324485      -0.00371791       0.01510641      -0.02358702       0.01977119       0.00680174      -0.00000000       0.00450384       0.00000000      -0.00000000      -0.02108277      -0.01360350      -0.00324485      -0.00371791       0.01510641       0.02358702       0.01977119       0.00680174      -0.00000000      -0.00933824      -0.03021279      -0.00000000      -0.47068134      -0.00000030       0.08877955       0.09489953       0.03624413      -0.00528821      -0.00593152       0.00215890       0.00000000       0.24867008      -0.07248813      -0.00000000       0.04364259       0.00000017      -0.08877955       0.09489953       0.03624413       0.00528821      -0.00593152       0.00215890      -0.00000000      -0.00898467       0.00000000      -0.00000000       0.00322792      -0.00431781 </v>
    <v>      -0.02616504       0.01510641       0.01202547       0.01178096       0.00680174      -0.01146362       0.00000000       0.00000000       0.00450383      -0.00000000      -0.01360350      -0.01146362       0.02616504       0.01510641       0.01202547      -0.01178096       0.00680174      -0.01146362      -0.00000000      -0.03021279       0.01202547      -0.00000000      -0.00000030      -0.47068102       0.06277658       0.03624413       0.06927099      -0.00373933       0.00215890      -0.00745809      -0.00000000      -0.07248813       0.06927099       0.00000000       0.00000017       0.27429844      -0.06277658       0.03624413       0.06927099       0.00373933       0.00215890      -0.00745809       0.00000000       0.00000000       0.00475450      -0.00000000      -0.00431781      -0.00745809 </v>
    <v>      -0.00898466      -0.00000000      -0.00000000      -0.00898466      -0.00000000       0.00000000       0.00017478       0.00528821       0.00373933       0.19741313      -0.08877955      -0.06277658       0.04364256      -0.00000000       0.00000000       0.04364256       0.00000000      -0.00000000       0.00017478      -0.00528821      -0.00373933       0.19741313       0.08877955       0.06277658      -0.47068097      -0.00000000      -0.00000000      -0.00184451      -0.00000000      -0.00000000      -0.00746477       0.02358702      -0.01178096      -0.00746477      -0.00324485       0.02616504       0.03338914      -0.00000000      -0.00000000       0.00450383      -0.00000000       0.00000000      -0.00746477      -0.02358702       0.01178096      -0.00746477       0.00324485      -0.02616504 </v>
    <v>      -0.00000000       0.00322792      -0.00431781      -0.00000000      -0.00898467       0.00000000       0.00528821      -0.00593152       0.00215890      -0.08877955       0.09489953       0.03624413      -0.00000000       0.04364259       0.00000017       0.00000000       0.24867008      -0.07248813      -0.00528821      -0.00593152       0.00215890       0.08877955       0.09489953       0.03624413      -0.00000000      -0.47068134      -0.00000030      -0.00000000      -0.00933824      -0.03021279       0.02358702       0.01977119       0.00680174      -0.00324485      -0.00371791       0.01510641      -0.00000000      -0.02108277      -0.01360350      -0.00000000       0.00450384       0.00000000      -0.02358702       0.01977119       0.00680174       0.00324485      -0.00371791       0.01510641 </v>
    <v>      -0.00000000      -0.00431781      -0.00745809       0.00000000       0.00000000       0.00475450       0.00373933       0.00215890      -0.00745809      -0.06277658       0.03624413       0.06927099       0.00000000       0.00000017       0.27429844      -0.00000000      -0.07248813       0.06927099      -0.00373933       0.00215890      -0.00745809       0.06277658       0.03624413       0.06927099      -0.00000000      -0.00000030      -0.47068102      -0.00000000      -0.03021279       0.01202547      -0.01178096       0.00680174      -0.01146362       0.02616504       0.01510641       0.01202547      -0.00000000      -0.01360350      -0.01146362       0.00000000       0.00000000       0.00450383       0.01178096       0.00680174      -0.01146362      -0.02616504       0.01510641       0.01202547 </v>
    <v>      -0.00898466      -0.00000000       0.00000000      -0.00898466      -0.00000000      -0.00000000       0.19741313      -0.08877955      -0.06277658       0.00017478       0.00528821       0.00373933       0.04364256       0.00000000      -0.00000000       0.04364256      -0.00000000       0.00000000       0.19741313       0.08877955       0.06277658       0.00017478      -0.00528821      -0.00373933      -0.00184451      -0.00000000      -0.00000000      -0.47068097      -0.00000000      -0.00000000      -0.00746477      -0.00324485       0.02616504      -0.00746477       0.02358702      -0.01178096       0.00450383      -0.00000000       0.00000000       0.03338914      -0.00000000      -0.00000000      -0.00746477       0.00324485      -0.02616504      -0.00746477      -0.02358702       0.01178096 </v>
    <v>      -0.00000000      -0.00898467       0.00000000      -0.00000000       0.00322792      -0.00431781      -0.08877955       0.09489953       0.03624413       0.00528821      -0.00593152       0.00215890       0.00000000       0.24867008      -0.07248813      -0.00000000       0.04364259       0.00000017       0.08877955       0.09489953       0.03624413      -0.00528821      -0.00593152       0.00215890      -0.00000000      -0.00933824      -0.03021279      -0.00000000      -0.47068134      -0.00000030      -0.00324485      -0.00371791       0.01510641       0.02358702       0.01977119       0.00680174      -0.00000000       0.00450384       0.00000000      -0.00000000      -0.02108277      -0.01360350       0.00324485      -0.00371791       0.01510641      -0.02358702       0.01977119       0.00680174 </v>
    <v>       0.00000000       0.00000000       0.00475450      -0.00000000      -0.00431781      -0.00745809      -0.06277658       0.03624413       0.06927099       0.00373933       0.00215890      -0.00745809      -0.00000000      -0.07248813       0.06927099       0.00000000       0.00000017       0.27429844       0.06277658       0.03624413       0.06927099      -0.00373933       0.00215890      -0.00745809      -0.00000000      -0.03021279       0.01202547      -0.00000000      -0.00000030      -0.47068102       0.02616504       0.01510641       0.01202547      -0.01178096       0.00680174      -0.01146362       0.00000000       0.00000000       0.00450383      -0.00000000      -0.01360350      -0.01146362      -0.02616504       0.01510641       0.01202547       0.01178096       0.00680174      -0.01146362 </v>
    <v>       0.00017478       0.00528821       0.00373933       0.19741313      -0.08877955      -0.06277658      -0.00898466      -0.00000000      -0.00000000      -0.00898466      -0.00000000       0.00000000       0.00017478      -0.00528821      -0.00373933       0.19741313       0.08877955       0.06277658       0.04364256      -0.00000000       0.00000000       0.04364256       0.00000000      -0.00000000      -0.00746477       0.02358702      -0.01178096      -0.00746477      -0.00324485       0.02616504      -0.47068097      -0.00000000      -0.00000000      -0.00184451      -0.00000000      -0.00000000      -0.00746477      -0.02358702       0.01178096      -0.00746477       0.00324485      -0.02616504       0.03338914      -0.00000000      -0.00000000       0.00450383      -0.00000000       0.00000000 </v>
    <v>       0.00528821      -0.00593152       0.00215890      -0.08877955       0.09489953       0.03624413      -0.00000000       0.00322792      -0.00431781      -0.00000000      -0.00898467       0.00000000      -0.00528821      -0.00593152       0.00215890       0.08877955       0.09489953       0.03624413      -0.00000000       0.04364259       0.00000017       0.00000000       0.24867008      -0.07248813       0.02358702       0.01977119       0.00680174      -0.00324485      -0.00371791       0.01510641      -0.00000000      -0.47068134      -0.00000030      -0.00000000      -0.00933824      -0.03021279      -0.02358702       0.01977119       0.00680174       0.00324485      -0.00371791       0.01510641      -0.00000000      -0.02108277      -0.01360350      -0.00000000       0.00450384       0.00000000 </v>
    <v>       0.00373933       0.00215890      -0.00745809      -0.06277658       0.03624413       0.06927099      -0.00000000      -0.00431781      -0.00745809       0.00000000       0.00000000       0.00475450      -0.00373933       0.00215890      -0.00745809       0.06277658       0.03624413       0.06927099       0.00000000       0.00000017       0.27429844      -0.00000000      -0.07248813       0.06927099      -0.01178096       0.00680174      -0.01146362       0.02616504       0.01510641       0.01202547      -0.00000000      -0.00000030      -0.47068102      -0.00000000      -0.03021279       0.01202547       0.01178096       0.00680174      -0.01146362      -0.02616504       0.01510641       0.01202547      -0.00000000      -0.01360350      -0.01146362       0.00000000       0.00000000       0.00450383 </v>
    <v>       0.19741313      -0.08877955      -0.06277658       0.00017478       0.00528821       0.00373933      -0.00898466      -0.00000000       0.00000000      -0.00898466      -0.00000000      -0.00000000       0.19741313       0.08877955       0.06277658       0.00017478      -0.00528821      -0.00373933       0.04364256       0.00000000      -0.00000000       0.04364256      -0.00000000       0.00000000      -0.00746477      -0.00324485       0.02616504      -0.00746477       0.02358702      -0.01178096      -0.00184451      -0.00000000      -0.00000000      -0.47068097      -0.00000000      -0.00000000      -0.00746477       0.00324485      -0.02616504      -0.00746477      -0.02358702       0.01178096       0.00450383      -0.00000000       0.00000000       0.03338914      -0.00000000      -0.00000000 </v>
    <v>      -0.08877955       0.09489953       0.03624413       0.00528821      -0.00593152       0.00215890      -0.00000000      -0.00898467       0.00000000      -0.00000000       0.00322792      -0.00431781       0.08877955       0.09489953       0.03624413      -0.00528821      -0.00593152       0.00215890       0.00000000       0.24867008      -0.07248813      -0.00000000       0.04364259       0.00000017      -0.00324485      -0.00371791       0.01510641       0.02358702       0.01977119       0.00680174      -0.00000000      -0.00933824      -0.03021279      -0.00000000      -0.47068134      -0.00000030       0.00324485      -0.00371791       0.01510641      -0.02358702       0.01977119       0.00680174      -0.00000000       0.00450384       0.00000000      -0.00000000      -0.02108277      -0.01360350 </v>
    <v>      -0.06277658       0.03624413       0.06927099       0.00373933       0.00215890      -0.00745809       0.00000000       0.00000000       0.00475450      -0.00000000      -0.00431781      -0.00745809       0.06277658       0.03624413       0.06927099      -0.00373933       0.00215890      -0.00745809      -0.00000000      -0.07248813       0.06927099       0.00000000       0.00000017       0.27429844       0.02616504       0.01510641       0.01202547      -0.01178096       0.00680174      -0.01146362      -0.00000000      -0.03021279       0.01202547      -0.00000000      -0.00000030      -0.47068102      -0.02616504       0.01510641       0.01202547       0.01178096       0.00680174      -0.01146362       0.00000000       0.00000000       0.00450383      -0.00000000      -0.01360350      -0.01146362 </v>
    <v>       0.04364256      -0.00000000       0.00000000       0.04364256       0.00000000      -0.00000000       0.00017478      -0.00528821      -0.00373933       0.19741313       0.08877955       0.06277658      -0.00898466      -0.00000000      -0.00000000      -0.00898466      -0.00000000       0.00000000       0.00017478       0.00528821       0.00373933       0.19741313      -0.08877955      -0.06277658       0.03338914      -0.00000000      -0.00000000       0.00450383      -0.00000000       0.00000000      -0.00746477      -0.02358702       0.01178096      -0.00746477       0.00324485      -0.02616504      -0.47068097      -0.00000000      -0.00000000      -0.00184451      -0.00000000      -0.00000000      -0.00746477       0.02358702      -0.01178096      -0.00746477      -0.00324485       0.02616504 </v>
    <v>      -0.00000000       0.04364259       0.00000017       0.00000000       0.24867008      -0.07248813      -0.00528821      -0.00593152       0.00215890       0.08877955       0.09489953       0.03624413      -0.00000000       0.00322792      -0.00431781      -0.00000000      -0.00898467       0.00000000       0.00528821      -0.00593152       0.00215890      -0.08877955       0.09489953       0.03624413      -0.00000000      -0.02108277      -0.01360350      -0.00000000       0.00450384       0.00000000      -0.02358702       0.01977119       0.00680174       0.00324485      -0.00371791       0.01510641      -0.00000000      -0.47068134      -0.00000030      -0.00000000      -0.00933824      -0.03021279       0.02358702       0.01977119       0.00680174      -0.00324485      -0.00371791       0.01510641 </v>
[...]
        <r>  0.0023  0.0056  0.0076  0.0002  0.0000  0.0000  0.0000  0.0000  0.0000 </r>
        <r>  0.0023  0.0056  0.0076  0.0002  0.0000  0.0000  0.0000  0.0000  0.0000 </r>
        <r>  0.0023  0.0056  0.0076  0.0002  0.0000  0.0000  0.0000  0.0000  0.0000 </r>
        <r>  0.0023  0.0056  0.0076  0.0002  0.0000  0.0000  0.0000  0.0000  0.0000 </r>
        <r>  0.0023  0.0056  0.0076  0.0002  0.0000  0.0000  0.0000  0.0000  0.0000 </r>
        <r>  0.0023  0.0056  0.0076  0.0002  0.0000  0.0000  0.0000  0.0000  0.0000 </r>
        <r>  0.0023  0.0056  0.0076  0.0002  0.0000  0.0000  0.0000  0.0000  0.0000 </r>
       </set>
       <set comment="band 53">
        <r>  0.0055  0.0016  0.0057  0.0030  0.0000  0.0000  0.0000  0.0000  0.0000 </r>
        <r>  0.0055  0.0016  0.0058  0.0030  0.0000  0.0000  0.0000  0.0000  0.0000 </r>
        <r>  0.0054  0.0017  0.0058  0.0030  0.0000  0.0000  0.0000  0.0000  0.0000 </r>
        <r>  0.0054  0.0017  0.0058  0.0029  0.0000  0.0000  0.0000  0.0000  0.0000 </r>
        <r>  0.0055  0.0016  0.0058  0.0030  0.0000  0.0000  0.0000  0.0000  0.0000 </r>
        <r>  0.0055  0.0016  0.0058  0.0030  0.0000  0.0000  0.0000  0.0000  0.0000 </r>
        <r>  0.0054  0.0017  0.0058  0.0030  0.0000  0.0000  0.0000  0.0000  0.0000 </r>
        <r>  0.0055  0.0017  0.0058  0.0029  0.0000  0.0000  0.0000  0.0000  0.0000 </r>
        <r>  0.0054  0.0017  0.0058  0.0030  0.0000  0.0000  0.0000  0.0000  0.0000 </r>
        <r>  0.0054  0.0017  0.0058  0.0030  0.0000  0.0000  0.0000  0.0000  0.0000 </r>
        <r>  0.0055  0.0016  0.0058  0.0030  0.0000  0.0000  0.0000  0.0000  0.0000 </r>
        <r>  0.0055  0.0016  0.0058  0.0030  0.0000  0.0000  0.0000  0.0000  0.0000 </r>
        <r>  0.0054  0.0017  0.0058  0.0030  0.0000  0.0000  0.0000  0.0000  0.0000 </r>
        <r>  0.0054  0.0017  0.0058  0.0030  0.0000  0.0000  0.0000  0.0000  0.0000 </r>
        <r>  0.0055  0.0016  0.0057  0.0030  0.0000  0.0000  0.0000  0.0000  0.0000 </r>
        <r>  0.0055  0.0016  0.0057  0.0030  0.0000  0.0000  0.0000  0.0000  0.0000 </r>
       </set>
       <set comment="band 54">
        <r>  0.0054  0.0063  0.0012  0.0030  0.0000  0.0000  0.0000  0.0000  0.0000 </r>
        <r>  0.0054  0.0063  0.0012  0.0029  0.0000  0.0000  0.0000  0.0000  0.0000 </r>
        <r>  0.0055  0.0063  0.0011  0.0030  0.0000  0.0000  0.0000  0.0000  0.0000 </r>
        <r>  0.0055  0.0063  0.0011  0.0030  0.0000  0.0000  0.0000  0.0000  0.0000 </r>
        <r>  0.0054  0.0063  0.0012  0.0030  0.0000  0.0000  0.0000  0.0000  0.0000 </r>
        <r>  0.0054  0.0063  0.0012  0.0029  0.0000  0.0000  0.0000  0.0000  0.0000 </r>
        <r>  0.0055  0.0063  0.0011  0.0030  0.0000  0.0000  0.0000  0.0000  0.0000 </r>
        <r>  0.0055  0.0063  0.0011  0.0030  0.0000  0.0000  0.0000  0.0000  0.0000 </r>
        <r>  0.0055  0.0063  0.0011  0.0030  0.0000  0.0000  0.0000  0.0000  0.0000 </r>
        <r>  0.0055  0.0062  0.0011  0.0030  0.0000  0.0000  0.0000  0.0000  0.0000 </r>
        <r>  0.0054  0.0063  0.0012  0.0030  0.0000  0.0000  0.0000  0.0000  0.0000 </r>
        <r>  0.0054  0.0063  0.0012  0.0030  0.0000  0.0000  0.0000  0.0000  0.0000 </r>
        <r>  0.0055  0.0062  0.0011  0.0030  0.0000  0.0000  0.0000  0.0000  0.0000 </r>
        <r>  0.0055  0.0062  0.0011  0.0030  0.0000  0.0000  0.0000  0.0000  0.0000 </r>
        <r>  0.0054  0.0063  0.0012  0.0030  0.0000  0.0000  0.0000  0.0000  0.0000 </r>
        <r>  0.0054  0.0063  0.0012  0.0030  0.0000  0.0000  0.0000  0.0000  0.0000 </r>
       </set>
       <set comment="band 55">
        <r>  0.0054  0.0046  0.0058  0.0001  0.0000  0.0000  0.0000  0.0000  0.0000 </r>
        <r>  0.0055  0.0045  0.0058  0.0001  0.0000  0.0000  0.0000  0.0000  0.0000 </r>
        <r>  0.0055  0.0046  0.0058  0.0001  0.0000  0.0000  0.0000  0.0000  0.0000 </r>
        <r>  0.0055  0.0045  0.0058  0.0001  0.0000  0.0000  0.0000  0.0000  0.0000 </r>
        <r>  0.0055  0.0045  0.0058  0.0001  0.0000  0.0000  0.0000  0.0000  0.0000 </r>
        <r>  0.0055  0.0045  0.0058  0.0001  0.0000  0.0000  0.0000  0.0000  0.0000 </r>
        <r>  0.0055  0.0045  0.0058  0.0001  0.0000  0.0000  0.0000  0.0000  0.0000 </r>
        <r>  0.0054  0.0045  0.0058  0.0001  0.0000  0.0000  0.0000  0.0000  0.0000 </r>
        <r>  0.0055  0.0045  0.0058  0.0001  0.0000  0.0000  0.0000  0.0000  0.0000 </r>
        <r>  0.0054  0.0046  0.0058  0.0001  0.0000  0.0000  0.0000  0.0000  0.0000 </r>
        <r>  0.0055  0.0045  0.0058  0.0001  0.0000  0.0000  0.0000  0.0000  0.0000 </r>
        <r>  0.0054  0.0045  0.0058  0.0001  0.0000  0.0000  0.0000  0.0000  0.0000 </r>
        <r>  0.0054  0.0046  0.0058  0.0001  0.0000  0.0000  0.0000  0.0000  0.0000 </r>
        <r>  0.0055  0.0045  0.0058  0.0001  0.0000  0.0000  0.0000  0.0000  0.0000 </r>
        <r>  0.0054  0.0046  0.0058  0.0001  0.0000  0.0000  0.0000  0.0000  0.0000 </r>
        <r>  0.0055  0.0045  0.0058  0.0001  0.0000  0.0000  0.0000  0.0000  0.0000 </r>
       </set>
       <set comment="band 56">
        <r>  0.0055  0.0022  0.0012  0.0070  0.0000  0.0000  0.0000  0.0000  0.0000 </r>
        <r>  0.0054  0.0022  0.0012  0.0070  0.0000  0.0000  0.0000  0.0000  0.0000 </r>
        <r>  0.0055  0.0022  0.0012  0.0070  0.0000  0.0000  0.0000  0.0000  0.0000 </r>
        <r>  0.0054  0.0022  0.0012  0.0071  0.0000  0.0000  0.0000  0.0000  0.0000 </r>
        <r>  0.0054  0.0022  0.0012  0.0070  0.0000  0.0000  0.0000  0.0000  0.0000 </r>
        <r>  0.0055  0.0022  0.0012  0.0070  0.0000  0.0000  0.0000  0.0000  0.0000 </r>
        <r>  0.0055  0.0022  0.0012  0.0070  0.0000  0.0000  0.0000  0.0000  0.0000 </r>
        <r>  0.0055  0.0022  0.0012  0.0070  0.0000  0.0000  0.0000  0.0000  0.0000 </r>
        <r>  0.0055  0.0022  0.0012  0.0070  0.0000  0.0000  0.0000  0.0000  0.0000 </r>
        <r>  0.0055  0.0022  0.0012  0.0070  0.0000  0.0000  0.0000  0.0000  0.0000 </r>
        <r>  0.0054  0.0022  0.0012  0.0070  0.0000  0.0000  0.0000  0.0000  0.0000 </r>
        <r>  0.0055  0.0022  0.0012  0.0070  0.0000  0.0000  0.0000  0.0000  0.0000 </r>
        <r>  0.0055  0.0022  0.0012  0.0070  0.0000  0.0000  0.0000  0.0000  0.0000 </r>
        <r>  0.0054  0.0022  0.0012  0.0071  0.0000  0.0000  0.0000  0.0000  0.0000 </r>
        <r>  0.0055  0.0022  0.0012  0.0070  0.0000  0.0000  0.0000  0.0000  0.0000 </r>
        <r>  0.0054  0.0022  0.0012  0.0070  0.0000  0.0000  0.0000  0.0000  0.0000 </r>
       </set>
       <set comment="band 57">
        <r>  0.0009  0.0056  0.0053  0.0079  0.0000  0.0000  0.0000  0.0000  0.0000 </r>
        <r>  0.0008  0.0087  0.0036  0.0071  0.0000  0.0000  0.0000  0.0000  0.0000 </r>
        <r>  0.0009  0.0057  0.0051  0.0079  0.0000  0.0000  0.0000  0.0000  0.0000 </r>
        <r>  0.0008  0.0086  0.0037  0.0072  0.0000  0.0000  0.0000  0.0000  0.0000 </r>
        <r>  0.0007  0.0086  0.0038  0.0070  0.0000  0.0000  0.0000  0.0000  0.0000 </r>
        <r>  0.0010  0.0057  0.0048  0.0079  0.0000  0.0000  0.0000  0.0000  0.0000 </r>
        <r>  0.0007  0.0087  0.0037  0.0069  0.0000  0.0000  0.0000  0.0000  0.0000 </r>
        <r>  0.0010  0.0056  0.0050  0.0080  0.0000  0.0000  0.0000  0.0000  0.0000 </r>
        <r>  0.0007  0.0082  0.0041  0.0066  0.0000  0.0000  0.0000  0.0000  0.0000 </r>
        <r>  0.0010  0.0060  0.0046  0.0084  0.0000  0.0000  0.0000  0.0000  0.0000 </r>
        <r>  0.0007  0.0083  0.0040  0.0064  0.0000  0.0000  0.0000  0.0000  0.0000 </r>
        <r>  0.0010  0.0059  0.0047  0.0086  0.0000  0.0000  0.0000  0.0000  0.0000 </r>
        <r>  0.0009  0.0053  0.0055  0.0075  0.0000  0.0000  0.0000  0.0000  0.0000 </r>
        <r>  0.0007  0.0091  0.0034  0.0075  0.0000  0.0000  0.0000  0.0000  0.0000 </r>
        <r>  0.0010  0.0053  0.0054  0.0073  0.0000  0.0000  0.0000  0.0000  0.0000 </r>
        <r>  0.0007  0.0090  0.0035  0.0077  0.0000  0.0000  0.0000  0.0000  0.0000 </r>
       </set>
       <set comment="band 58">
        <r>  0.0008  0.0140  0.0065  0.0004  0.0000  0.0000  0.0000  0.0000  0.0000 </r>
        <r>  0.0010  0.0108  0.0079  0.0010  0.0000  0.0000  0.0000  0.0000  0.0000 </r>
        <r>  0.0011  0.0122  0.0071  0.0001  0.0000  0.0000  0.0000  0.0000  0.0000 </r>
        <r>  0.0014  0.0093  0.0081  0.0001  0.0000  0.0000  0.0000  0.0000  0.0000 </r>
        <r>  0.0009  0.0045  0.0099  0.0031  0.0000  0.0000  0.0000  0.0000  0.0000 </r>
        <r>  0.0007  0.0065  0.0094  0.0020  0.0000  0.0000  0.0000  0.0000  0.0000 </r>
        <r>  0.0005  0.0053  0.0082  0.0062  0.0000  0.0000  0.0000  0.0000  0.0000 </r>
        <r>  0.0004  0.0075  0.0074  0.0044  0.0000  0.0000  0.0000  0.0000  0.0000 </r>
        <r>  0.0012  0.0100  0.0073  0.0011  0.0000  0.0000  0.0000  0.0000  0.0000 </r>
        <r>  0.0009  0.0130  0.0058  0.0012  0.0000  0.0000  0.0000  0.0000  0.0000 </r>
        <r>  0.0009  0.0112  0.0116  0.0003  0.0000  0.0000  0.0000  0.0000  0.0000 </r>
        <r>  0.0007  0.0144  0.0098  0.0001  0.0000  0.0000  0.0000  0.0000  0.0000 </r>
        <r>  0.0007  0.0070  0.0088  0.0025  0.0000  0.0000  0.0000  0.0000  0.0000 </r>
        <r>  0.0008  0.0048  0.0099  0.0039  0.0000  0.0000  0.0000  0.0000  0.0000 </r>
        <r>  0.0007  0.0059  0.0052  0.0035  0.0000  0.0000  0.0000  0.0000  0.0000 </r>
        <r>  0.0009  0.0040  0.0060  0.0047  0.0000  0.0000  0.0000  0.0000  0.0000 </r>
       </set>
       <set comment="band 59">
        <r>  0.0006  0.0030  0.0047  0.0107  0.0000  0.0000  0.0000  0.0000  0.0000 </r>
        <r>  0.0005  0.0031  0.0049  0.0111  0.0000  0.0000  0.0000  0.0000  0.0000 </r>
        <r>  0.0008  0.0032  0.0056  0.0093  0.0000  0.0000  0.0000  0.0000  0.0000 </r>
        <r>  0.0006  0.0033  0.0059  0.0098  0.0000  0.0000  0.0000  0.0000  0.0000 </r>
        <r>  0.0011  0.0082  0.0041  0.0071  0.0000  0.0000  0.0000  0.0000  0.0000 </r>
        <r>  0.0009  0.0091  0.0036  0.0075  0.0000  0.0000  0.0000  0.0000  0.0000 </r>
        <r>  0.0013  0.0083  0.0041  0.0060  0.0000  0.0000  0.0000  0.0000  0.0000 </r>
        <r>  0.0011  0.0091  0.0038  0.0065  0.0000  0.0000  0.0000  0.0000  0.0000 </r>
        <r>  0.0007  0.0029  0.0029  0.0120  0.0000  0.0000  0.0000  0.0000  0.0000 </r>
        <r>  0.0007  0.0020  0.0039  0.0099  0.0000  0.0000  0.0000  0.0000  0.0000 </r>
        <r>  0.0008  0.0032  0.0040  0.0100  0.0000  0.0000  0.0000  0.0000  0.0000 </r>
        <r>  0.0008  0.0022  0.0051  0.0081  0.0000  0.0000  0.0000  0.0000  0.0000 </r>
        <r>  0.0008  0.0098  0.0044  0.0086  0.0000  0.0000  0.0000  0.0000  0.0000 </r>
        <r>  0.0009  0.0082  0.0053  0.0069  0.0000  0.0000  0.0000  0.0000  0.0000 </r>
        <r>  0.0009  0.0103  0.0050  0.0070  0.0000  0.0000  0.0000  0.0000  0.0000 </r>
        <r>  0.0010  0.0087  0.0061  0.0056  0.0000  0.0000  0.0000  0.0000  0.0000 </r>
       </set>
       <set comment="band 60">
        <r>  0.0011  0.0011  0.0089  0.0079  0.0000  0.0000  0.0000  0.0000  0.0000 </r>
        <r>  0.0011  0.0011  0.0089  0.0078  0.0000  0.0000  0.0000  0.0000  0.0000 </r>
        <r>  0.0006  0.0026  0.0076  0.0097  0.0000  0.0000  0.0000  0.0000  0.0000 </r>
        <r>  0.0006  0.0025  0.0076  0.0099  0.0000  0.0000  0.0000  0.0000  0.0000 </r>
        <r>  0.0008  0.0024  0.0075  0.0098  0.0000  0.0000  0.0000  0.0000  0.0000 </r>
        <r>  0.0007  0.0024  0.0075  0.0096  0.0000  0.0000  0.0000  0.0000  0.0000 </r>
        <r>  0.0009  0.0014  0.0093  0.0079  0.0000  0.0000  0.0000  0.0000  0.0000 </r>
        <r>  0.0009  0.0014  0.0092  0.0081  0.0000  0.0000  0.0000  0.0000  0.0000 </r>
        <r>  0.0008  0.0027  0.0110  0.0074  0.0000  0.0000  0.0000  0.0000  0.0000 </r>
        <r>  0.0008  0.0027  0.0111  0.0075  0.0000  0.0000  0.0000  0.0000  0.0000 </r>
        <r>  0.0009  0.0011  0.0057  0.0104  0.0000  0.0000  0.0000  0.0000  0.0000 </r>
        <r>  0.0009  0.0011  0.0057  0.0101  0.0000  0.0000  0.0000  0.0000  0.0000 </r>
        <r>  0.0009  0.0017  0.0067  0.0084  0.0000  0.0000  0.0000  0.0000  0.0000 </r>
        <r>  0.0009  0.0016  0.0067  0.0086  0.0000  0.0000  0.0000  0.0000  0.0000 </r>
        <r>  0.0008  0.0021  0.0098  0.0092  0.0000  0.0000  0.0000  0.0000  0.0000 </r>
        <r>  0.0008  0.0021  0.0098  0.0090  0.0000  0.0000  0.0000  0.0000  0.0000 </r>
       </set>
       <set comment="band 61">
        <r>  0.0030  0.0044  0.0042  0.0081  0.0000  0.0000  0.0000  0.0000  0.0000 </r>
        <r>  0.0006  0.0053  0.0042  0.0052  0.0000  0.0000  0.0000  0.0000  0.0000 </r>
        <r>  0.0028  0.0034  0.0044  0.0128  0.0000  0.0000  0.0000  0.0000  0.0000 </r>
        <r>  0.0012  0.0046  0.0015  0.0035  0.0000  0.0000  0.0000  0.0000  0.0000 </r>
        <r>  0.0001  0.0011  0.0005  0.0045  0.0000  0.0000  0.0000  0.0000  0.0000 </r>
        <r>  0.0047  0.0010  0.0025  0.0093  0.0000  0.0000  0.0000  0.0000  0.0000 </r>
        <r>  0.0003  0.0012  0.0029  0.0083  0.0000  0.0000  0.0000  0.0000  0.0000 </r>
        <r>  0.0060  0.0013  0.0021  0.0067  0.0000  0.0000  0.0000  0.0000  0.0000 </r>
        <r>  0.0011  0.0063  0.0011  0.0116  0.0000  0.0000  0.0000  0.0000  0.0000 </r>
        <r>  0.0021  0.0003  0.0053  0.0056  0.0000  0.0000  0.0000  0.0000  0.0000 </r>
        <r>  0.0025  0.0077  0.0008  0.0075  0.0000  0.0000  0.0000  0.0000  0.0000 </r>
        <r>  0.0010  0.0006  0.0068  0.0064  0.0000  0.0000  0.0000  0.0000  0.0000 </r>
        <r>  0.0025  0.0007  0.0041  0.0099  0.0000  0.0000  0.0000  0.0000  0.0000 </r>
        <r>  0.0042  0.0026  0.0001  0.0044  0.0000  0.0000  0.0000  0.0000  0.0000 </r>
        <r>  0.0031  0.0012  0.0036  0.0068  0.0000  0.0000  0.0000  0.0000  0.0000 </r>
        <r>  0.0022  0.0021  0.0012  0.0063  0.0000  0.0000  0.0000  0.0000  0.0000 </r>
       </set>
       <set comment="band 62">
        <r>  0.0043  0.0015  0.0075  0.0029  0.0000  0.0000  0.0000  0.0000  0.0000 </r>
        <r>  0.0029  0.0023  0.0066  0.0044  0.0000  0.0000  0.0000  0.0000  0.0000 </r>
        <r>  0.0014  0.0005  0.0039  0.0047  0.0000  0.0000  0.0000  0.0000  0.0000 </r>
        <r>  0.0010  0.0016  0.0046  0.0087  0.0000  0.0000  0.0000  0.0000  0.0000 </r>
        <r>  0.0035  0.0021  0.0095  0.0032  0.0000  0.0000  0.0000  0.0000  0.0000 </r>
        <r>  0.0023  0.0032  0.0083  0.0048  0.0000  0.0000  0.0000  0.0000  0.0000 </r>
        <r>  0.0017  0.0008  0.0028  0.0044  0.0000  0.0000  0.0000  0.0000  0.0000 </r>
        <r>  0.0013  0.0023  0.0033  0.0084  0.0000  0.0000  0.0000  0.0000  0.0000 </r>
        <r>  0.0051  0.0010  0.0069  0.0038  0.0000  0.0000  0.0000  0.0000  0.0000 </r>
        <r>  0.0032  0.0017  0.0063  0.0069  0.0000  0.0000  0.0000  0.0000  0.0000 </r>
        <r>  0.0007  0.0010  0.0048  0.0038  0.0000  0.0000  0.0000  0.0000  0.0000 </r>
        <r>  0.0007  0.0025  0.0048  0.0061  0.0000  0.0000  0.0000  0.0000  0.0000 </r>
        <r>  0.0043  0.0016  0.0088  0.0040  0.0000  0.0000  0.0000  0.0000  0.0000 </r>
        <r>  0.0026  0.0024  0.0082  0.0074  0.0000  0.0000  0.0000  0.0000  0.0000 </r>
        <r>  0.0007  0.0012  0.0034  0.0036  0.0000  0.0000  0.0000  0.0000  0.0000 </r>
        <r>  0.0010  0.0027  0.0034  0.0063  0.0000  0.0000  0.0000  0.0000  0.0000 </r>
       </set>
       <set comment="band 63">
        <r>  0.0017  0.0039  0.0039  0.0063  0.0000  0.0000  0.0000  0.0000  0.0000 </r>
        <r>  0.0056  0.0022  0.0031  0.0001  0.0000  0.0000  0.0000  0.0000  0.0000 </r>
        <r>  0.0027  0.0039  0.0017  0.0033  0.0000  0.0000  0.0000  0.0000  0.0000 </r>
        <r>  0.0057  0.0018  0.0031  0.0015  0.0000  0.0000  0.0000  0.0000  0.0000 </r>
        <r>  0.0007  0.0076  0.0030  0.0112  0.0000  0.0000  0.0000  0.0000  0.0000 </r>
        <r>  0.0003  0.0037  0.0037  0.0007  0.0000  0.0000  0.0000  0.0000  0.0000 </r>
        <r>  0.0015  0.0090  0.0061  0.0074  0.0000  0.0000  0.0000  0.0000  0.0000 </r>
        <r>  0.0002  0.0047  0.0090  0.0015  0.0000  0.0000  0.0000  0.0000  0.0000 </r>
        <r>  0.0006  0.0002  0.0028  0.0052  0.0000  0.0000  0.0000  0.0000  0.0000 </r>
        <r>  0.0033  0.0008  0.0019  0.0033  0.0000  0.0000  0.0000  0.0000  0.0000 </r>
        <r>  0.0018  0.0002  0.0035  0.0073  0.0000  0.0000  0.0000  0.0000  0.0000 </r>
        <r>  0.0063  0.0013  0.0011  0.0008  0.0000  0.0000  0.0000  0.0000  0.0000 </r>
        <r>  0.0016  0.0108  0.0035  0.0056  0.0000  0.0000  0.0000  0.0000  0.0000 </r>
        <r>  0.0015  0.0069  0.0059  0.0007  0.0000  0.0000  0.0000  0.0000  0.0000 </r>
        <r>  0.0008  0.0102  0.0064  0.0097  0.0000  0.0000  0.0000  0.0000  0.0000 </r>
        <r>  0.0025  0.0068  0.0074  0.0001  0.0000  0.0000  0.0000  0.0000  0.0000 </r>
       </set>
       <set comment="band 64">
        <r>  0.0004  0.0036  0.0013  0.0032  0.0000  0.0000  0.0000  0.0000  0.0000 </r>
        <r>  0.0004  0.0039  0.0029  0.0109  0.0000  0.0000  0.0000  0.0000  0.0000 </r>
        <r>  0.0024  0.0063  0.0066  0.0002  0.0000  0.0000  0.0000  0.0000  0.0000 </r>
        <r>  0.0013  0.0057  0.0081  0.0065  0.0000  0.0000  0.0000  0.0000  0.0000 </r>
        <r>  0.0046  0.0025  0.0046  0.0013  0.0000  0.0000  0.0000  0.0000  0.0000 </r>
        <r>  0.0020  0.0059  0.0026  0.0062  0.0000  0.0000  0.0000  0.0000  0.0000 </r>
        <r>  0.0057  0.0024  0.0055  0.0004  0.0000  0.0000  0.0000  0.0000  0.0000 </r>
        <r>  0.0018  0.0057  0.0030  0.0038  0.0000  0.0000  0.0000  0.0000  0.0000 </r>
        <r>  0.0027  0.0061  0.0061  0.0001  0.0000  0.0000  0.0000  0.0000  0.0000 </r>
        <r>  0.0005  0.0108  0.0039  0.0045  0.0000  0.0000  0.0000  0.0000  0.0000 </r>
        <r>  0.0044  0.0049  0.0080  0.0024  0.0000  0.0000  0.0000  0.0000  0.0000 </r>
        <r>  0.0012  0.0089  0.0047  0.0074  0.0000  0.0000  0.0000  0.0000  0.0000 </r>
        <r>  0.0007  0.0005  0.0008  0.0012  0.0000  0.0000  0.0000  0.0000  0.0000 </r>
        <r>  0.0009  0.0013  0.0025  0.0083  0.0000  0.0000  0.0000  0.0000  0.0000 </r>
        <r>  0.0047  0.0012  0.0040  0.0009  0.0000  0.0000  0.0000  0.0000  0.0000 </r>
        <r>  0.0037  0.0020  0.0046  0.0079  0.0000  0.0000  0.0000  0.0000  0.0000 </r>
       </set>
      </set>
     </set>
    </set>
   </array>
  </projected>
 </calculation>
 <structure name="finalpos" >
  <crystal>
   <varray name="basis" >
    <v>       7.73484400       0.00000000       0.00000000 </v>
    <v>       3.86742200       6.69857400       0.00000000 </v>
    <v>       0.00000000      -4.46571200       6.31547400 </v>
   </varray>
   <i name="volume">    327.22002241 </i>
   <varray name="rec_basis" >
    <v>       0.12928509      -0.07464275      -0.05278037 </v>
    <v>       0.00000000       0.14928550       0.10556073 </v>
    <v>       0.00000000       0.00000000       0.15834124 </v>
   </varray>
  </crystal>
  <varray name="positions" >
   <v>       0.00000000       0.00000000       0.00000000 </v>
   <v>       0.00000000       0.00000000       0.50000000 </v>
   <v>       0.00000000       0.50000000       0.00000000 </v>
   <v>       0.00000000       0.50000000       0.50000000 </v>
   <v>       0.50000000       0.00000000       0.00000000 </v>
   <v>       0.50000000       0.00000000       0.50000000 </v>
   <v>       0.50000000       0.50000000       0.00000000 </v>
   <v>       0.50000000       0.50000000       0.50000000 </v>
   <v>       0.37500000       0.25000000       0.37500000 </v>
   <v>       0.37500000       0.25000000       0.87500000 </v>
   <v>       0.37500000       0.75000000       0.37500000 </v>
   <v>       0.37500000       0.75000000       0.87500000 </v>
   <v>       0.87500000       0.25000000       0.37500000 </v>
   <v>       0.87500000       0.25000000       0.87500000 </v>
   <v>       0.87500000       0.75000000       0.37500000 </v>
   <v>       0.87500000       0.75000000       0.87500000 </v>
  </varray>
 </structure>
</modeling>
