<?xml version="1.0" encoding="ISO-8859-1"?>
<modeling>
 <generator>
  <i name="program" type="string">vasp </i>
  <i name="version" type="string">5.4.4.18Apr17-6-g9f103f2a35  </i>
  <i name="subversion" type="string">(build Sep 10 2019 12:14:21) complex            parallel </i>
  <i name="platform" type="string">LinuxIFC </i>
  <i name="date" type="string">2020 09 09 </i>
  <i name="time" type="string">16:10:34 </i>
 </generator>
 <incar>
  <i type="string" name="PREC">accurate</i>
  <i type="string" name="ALGO"> All</i>
  <i type="int" name="ISPIN">     2</i>
  <i type="int" name="ICHARG">     1</i>
  <i type="int" name="NELM">   200</i>
  <i type="int" name="IBRION">     2</i>
  <i name="EDIFF">      0.00001000</i>
  <i name="EDIFFG">     -0.02000000</i>
  <i type="int" name="NSW">     0</i>
  <i type="int" name="ISIF">     3</i>
  <i name="ENCUT">    680.00000000</i>
  <i name="ENAUG">   1360.00000000</i>
  <v name="MAGMOM">      0.60000000      0.60000000</v>
  <i type="string" name="LREAL"> Auto</i>
  <i type="int" name="ISMEAR">    -5</i>
  <i name="SIGMA">      0.05000000</i>
  <i name="KSPACING">      0.44000000</i>
  <i type="logical" name="LWAVE"> F  </i>
  <i type="logical" name="LCHARG"> T  </i>
  <i type="logical" name="LVTOT"> T  </i>
  <i type="int" name="LORBIT">    11</i>
  <i type="logical" name="LELF"> T  </i>
  <i type="logical" name="LASPH"> T  </i>
  <i type="logical" name="LAECHG"> T  </i>
  <v type="int" name="KPOINT_BSE">    -1     0     0     0</v>
  <i type="int" name="NELM">   200</i>
  <i type="string" name="METAGGA"> R2scan</i>
  <i type="logical" name="LASPH"> T  </i>
  <i type="int" name="LMIXTAU">    -1</i>
 </incar>
 <structure name="primitive_cell" >
  <crystal>
   <varray name="basis" >
    <v>       0.00000000       2.04171400       2.04171400 </v>
    <v>       2.04171400       0.00000000       2.04171400 </v>
    <v>       2.04171400       2.04171400       0.00000000 </v>
   </varray>
   <i name="volume">     17.02216186 </i>
   <varray name="rec_basis" >
    <v>      -0.24489228       0.24489228       0.24489228 </v>
    <v>       0.24489228      -0.24489228       0.24489228 </v>
    <v>       0.24489228       0.24489228      -0.24489228 </v>
   </varray>
  </crystal>
  <varray name="positions" >
   <v>       0.00000000       0.00000000       0.00000000 </v>
   <v>      -0.50000000      -0.50000000      -0.50000000 </v>
  </varray>
 </structure>
 <varray name="primitive_index" >
  <v type="int" >        1 </v>
  <v type="int" >        2 </v>
 </varray>
 <kpoints>
  <generation param="Gamma">
   <v type="int" name="divisions">       7        7        7 </v>
   <v name="usershift">      0.00000000       0.00000000       0.00000000 </v>
   <v name="genvec1">      0.14285714       0.00000000       0.00000000 </v>
   <v name="genvec2">      0.00000000       0.14285714       0.00000000 </v>
   <v name="genvec3">      0.00000000       0.00000000       0.14285714 </v>
   <v name="shift">      0.00000000       0.00000000       0.00000000 </v>
  </generation>
  <varray name="kpointlist" >
   <v>       0.00000000       0.00000000       0.00000000 </v>
   <v>       0.14285714       0.00000000       0.00000000 </v>
   <v>       0.28571429       0.00000000       0.00000000 </v>
   <v>       0.42857143       0.00000000       0.00000000 </v>
   <v>       0.14285714       0.14285714       0.00000000 </v>
   <v>       0.28571429       0.14285714       0.00000000 </v>
   <v>       0.42857143       0.14285714       0.00000000 </v>
   <v>      -0.42857143       0.14285714       0.00000000 </v>
   <v>      -0.28571429       0.14285714       0.00000000 </v>
   <v>      -0.14285714       0.14285714       0.00000000 </v>
   <v>       0.28571429       0.28571429       0.00000000 </v>
   <v>       0.42857143       0.28571429       0.00000000 </v>
   <v>      -0.42857143       0.28571429       0.00000000 </v>
   <v>      -0.28571429       0.28571429       0.00000000 </v>
   <v>       0.42857143       0.42857143       0.00000000 </v>
   <v>      -0.42857143       0.42857143       0.00000000 </v>
   <v>       0.42857143       0.28571429       0.14285714 </v>
   <v>      -0.42857143       0.28571429       0.14285714 </v>
   <v>      -0.42857143       0.42857143       0.14285714 </v>
   <v>      -0.28571429       0.42857143       0.14285714 </v>
  </varray>
  <varray name="weights" >
   <v>       0.00291545 </v>
   <v>       0.02332362 </v>
   <v>       0.02332362 </v>
   <v>       0.02332362 </v>
   <v>       0.01749271 </v>
   <v>       0.06997085 </v>
   <v>       0.06997085 </v>
   <v>       0.06997085 </v>
   <v>       0.06997085 </v>
   <v>       0.03498542 </v>
   <v>       0.01749271 </v>
   <v>       0.06997085 </v>
   <v>       0.06997085 </v>
   <v>       0.03498542 </v>
   <v>       0.01749271 </v>
   <v>       0.03498542 </v>
   <v>       0.06997085 </v>
   <v>       0.13994169 </v>
   <v>       0.06997085 </v>
   <v>       0.06997085 </v>
  </varray>
  <varray name="tetrahedronlist"  type="int" >
   <v type="int" >       24        1        2        2        5 </v>
   <v type="int" >       48        2        5        6       10 </v>
   <v type="int" >       48        2        3        6       10 </v>
   <v type="int" >       24        2        2        5       10 </v>
   <v type="int" >       48        3        6        7        9 </v>
   <v type="int" >       48        3        4        7        9 </v>
   <v type="int" >       48        3        6        9       10 </v>
   <v type="int" >       48        4        7        8        8 </v>
   <v type="int" >       24        4        4        8        8 </v>
   <v type="int" >       48        4        7        8        9 </v>
   <v type="int" >       24        5        6        6       11 </v>
   <v type="int" >       24        5        6        6       10 </v>
   <v type="int" >       48        6       11       12       17 </v>
   <v type="int" >       48        6        7       12       17 </v>
   <v type="int" >       48        6        7        9       17 </v>
   <v type="int" >       24        6        6       11       17 </v>
   <v type="int" >       24        6        6       10       17 </v>
   <v type="int" >       48        6        9       10       17 </v>
   <v type="int" >       48        7       12       13       18 </v>
   <v type="int" >       48        7        8       13       18 </v>
   <v type="int" >       48        7        8        8       18 </v>
   <v type="int" >       48        7       12       17       18 </v>
   <v type="int" >       48        7        9       17       18 </v>
   <v type="int" >       48        7        8        9       18 </v>
   <v type="int" >       48        8       13       14       18 </v>
   <v type="int" >       48        8        9       14       18 </v>
   <v type="int" >       48        8       13       18       18 </v>
   <v type="int" >       24        8        8       18       18 </v>
   <v type="int" >       24        9        9       14       17 </v>
   <v type="int" >       24        9        9       10       17 </v>
   <v type="int" >       48        9       14       17       18 </v>
   <v type="int" >       24       11       12       12       15 </v>
   <v type="int" >       24       11       12       12       17 </v>
   <v type="int" >       48       12       15       16       19 </v>
   <v type="int" >       48       12       13       16       19 </v>
   <v type="int" >       48       12       13       18       19 </v>
   <v type="int" >       24       12       12       15       19 </v>
   <v type="int" >       24       12       12       17       19 </v>
   <v type="int" >       48       12       17       18       19 </v>
   <v type="int" >       24       13       13       16       20 </v>
   <v type="int" >       24       13       13       14       20 </v>
   <v type="int" >       48       13       14       18       20 </v>
   <v type="int" >       48       13       16       19       20 </v>
   <v type="int" >       48       13       18       19       20 </v>
   <v type="int" >       48       13       18       18       20 </v>
   <v type="int" >       24       14       18       18       20 </v>
   <v type="int" >       24       14       17       18       18 </v>
   <v type="int" >       12       15       15       16       16 </v>
   <v type="int" >       24       15       16       16       19 </v>
   <v type="int" >       12       16       16       19       19 </v>
   <v type="int" >       24       16       19       19       20 </v>
   <v type="int" >       24       17       18       18       19 </v>
   <v type="int" >       48       18       19       20       20 </v>
   <v type="int" >       24       18       18       20       20 </v>
   <v type="int" >       24       18       18       19       20 </v>
   <v type="int" >       12       19       19       20       20 </v>
   <v type="int" >       24       19       20       20       20 </v>
   <v type="int" >        6       20       20       20       20 </v>
  </varray>
  <i name="volumeweight">      0.00048591 </i>
 </kpoints>
 <parameters>
  <separator name="general" >
   <i type="string" name="SYSTEM">unknown system</i>
   <i type="logical" name="LCOMPAT"> F  </i>
  </separator>
  <separator name="electronic" >
   <i type="string" name="PREC">accura</i>
   <i name="ENMAX">    680.00000000</i>
   <i name="ENAUG">   1360.00000000</i>
   <i name="EDIFF">      0.00001000</i>
   <i type="int" name="IALGO">    58</i>
   <i type="int" name="IWAVPR">    10</i>
   <i type="int" name="NBANDS">    10</i>
   <i name="NELECT">     10.00000000</i>
   <i type="int" name="TURBO">     0</i>
   <i type="int" name="IRESTART">     0</i>
   <i type="int" name="NREBOOT">     0</i>
   <i type="int" name="NMIN">     0</i>
   <i name="EREF">      0.00000000</i>
   <separator name="electronic smearing" >
    <i type="int" name="ISMEAR">    -5</i>
    <i name="SIGMA">      0.05000000</i>
    <i name="KSPACING">      0.44000000</i>
    <i type="logical" name="KGAMMA"> T  </i>
   </separator>
   <separator name="electronic projectors" >
    <i type="logical" name="LREAL"> T  </i>
    <v name="ROPT">     -0.00025000     -0.00025000</v>
    <i type="int" name="LMAXPAW">  -100</i>
    <i type="int" name="LMAXMIX">     2</i>
    <i type="logical" name="NLSPLINE"> F  </i>
   </separator>
   <separator name="electronic startup" >
    <i type="int" name="ISTART">     0</i>
    <i type="int" name="ICHARG">     1</i>
    <i type="int" name="INIWAV">     1</i>
   </separator>
   <separator name="electronic spin" >
    <i type="int" name="ISPIN">     2</i>
    <i type="logical" name="LNONCOLLINEAR"> F  </i>
    <v name="MAGMOM">      0.60000000      0.60000000</v>
    <i name="NUPDOWN">     -1.00000000</i>
    <i type="logical" name="LSORBIT"> F  </i>
    <v name="SAXIS">      0.00000000      0.00000000      1.00000000</v>
    <i type="logical" name="LSPIRAL"> F  </i>
    <v name="QSPIRAL">      0.00000000      0.00000000      0.00000000</v>
    <i type="logical" name="LZEROZ"> F  </i>
   </separator>
   <separator name="electronic exchange-correlation" >
    <i type="logical" name="LASPH"> T  </i>
    <i type="logical" name="LMETAGGA"> F  </i>
   </separator>
   <separator name="electronic convergence" >
    <i type="int" name="NELM">   200</i>
    <i type="int" name="NELMDL">    -5</i>
    <i type="int" name="NELMIN">     2</i>
    <i name="ENINI">    680.00000000</i>
    <separator name="electronic convergence detail" >
     <i type="logical" name="LDIAG"> T  </i>
     <i type="logical" name="LSUBROT"> F  </i>
     <i name="WEIMIN">      0.00000000</i>
     <i name="EBREAK">      0.00000025</i>
     <i name="DEPER">      0.30000000</i>
     <i type="int" name="NRMM">     4</i>
     <i name="TIME">      0.40000000</i>
    </separator>
   </separator>
   <separator name="electronic mixer" >
    <i name="AMIX">      0.40000000</i>
    <i name="BMIX">      1.00000000</i>
    <i name="AMIN">      0.10000000</i>
    <i name="AMIX_MAG">      1.60000000</i>
    <i name="BMIX_MAG">      1.00000000</i>
    <separator name="electronic mixer details" >
     <i type="int" name="IMIX">     4</i>
     <i type="logical" name="MIXFIRST"> F  </i>
     <i type="int" name="MAXMIX">   -45</i>
     <i name="WC">    100.00000000</i>
     <i type="int" name="INIMIX">     1</i>
     <i type="int" name="MIXPRE">     1</i>
     <i type="int" name="MREMOVE">     5</i>
    </separator>
   </separator>
   <separator name="electronic dipolcorrection" >
    <i type="logical" name="LDIPOL"> F  </i>
    <i type="logical" name="LMONO"> F  </i>
    <i type="int" name="IDIPOL">     0</i>
    <i name="EPSILON">      1.00000000</i>
    <v name="DIPOL">   -100.00000000   -100.00000000   -100.00000000</v>
    <i name="EFIELD">      0.00000000</i>
   </separator>
  </separator>
  <separator name="grids" >
   <i type="int" name="NGX">    28</i>
   <i type="int" name="NGY">    28</i>
   <i type="int" name="NGZ">    28</i>
   <i type="int" name="NGXF">    56</i>
   <i type="int" name="NGYF">    56</i>
   <i type="int" name="NGZF">    56</i>
   <i type="logical" name="ADDGRID"> F  </i>
  </separator>
  <separator name="ionic" >
   <i type="int" name="NSW">     0</i>
   <i type="int" name="IBRION">    -1</i>
   <i type="int" name="MDALGO">     0</i>
   <i type="int" name="ISIF">     3</i>
   <i name="PSTRESS">      0.00000000</i>
   <i name="EDIFFG">     -0.02000000</i>
   <i type="int" name="NFREE">     1</i>
   <i name="POTIM">      0.50000000</i>
   <i name="SMASS">     -3.00000000</i>
   <i name="SCALEE">      1.00000000</i>
  </separator>
  <separator name="ionic md" >
   <i name="TEBEG">      0.00010000</i>
   <i name="TEEND">      0.00010000</i>
   <i type="int" name="NBLOCK">     1</i>
   <i type="int" name="KBLOCK">     1</i>
   <i type="int" name="NPACO">   256</i>
   <i name="APACO">     16.00000000</i>
  </separator>
  <separator name="symmetry" >
   <i type="int" name="ISYM">     2</i>
   <i name="SYMPREC">      0.00001000</i>
  </separator>
  <separator name="dos" >
   <i type="int" name="LORBIT">    11</i>
   <v name="RWIGS">     -1.00000000     -1.00000000</v>
   <i type="int" name="NEDOS">   301</i>
   <i name="EMIN">     10.00000000</i>
   <i name="EMAX">    -10.00000000</i>
   <i name="EFERMI">      0.00000000</i>
  </separator>
  <separator name="writing" >
   <i type="int" name="NWRITE">     2</i>
   <i type="logical" name="LWAVE"> F  </i>
   <i type="logical" name="LDOWNSAMPLE"> F  </i>
   <i type="logical" name="LCHARG"> T  </i>
   <i type="logical" name="LPARD"> F  </i>
   <i type="logical" name="LVTOT"> T  </i>
   <i type="logical" name="LVHAR"> F  </i>
   <i type="logical" name="LELF"> T  </i>
   <i type="logical" name="LOPTICS"> F  </i>
   <v name="STM">      0.00000000      0.00000000      0.00000000      0.00000000      0.00000000      0.00000000      0.00000000</v>
  </separator>
  <separator name="performance" >
   <i type="int" name="NPAR">     1</i>
   <i type="int" name="NSIM">     4</i>
   <i type="int" name="NBLK">    -1</i>
   <i type="logical" name="LPLANE"> T  </i>
   <i type="logical" name="LSCALAPACK"> F  </i>
   <i type="logical" name="LSCAAWARE"> F  </i>
   <i type="logical" name="LSCALU"> F  </i>
   <i type="logical" name="LASYNC"> F  </i>
   <i type="logical" name="LORBITALREAL"> F  </i>
  </separator>
  <separator name="miscellaneous" >
   <i type="int" name="IDIOT">     3</i>
   <i type="int" name="ISPECIAL">     0</i>
   <i type="logical" name="LMUSIC"> F  </i>
   <v name="POMASS">      7.01000000     18.99800000</v>
   <v name="DARWINR">      0.00000000      0.00000000</v>
   <v name="DARWINV">      1.00000000      1.00000000</v>
   <i type="logical" name="LCORR"> T  </i>
  </separator>
  <i type="logical" name="GGA_COMPAT"> T  </i>
  <i type="logical" name="LBERRY"> F  </i>
  <i type="int" name="ICORELEVEL">     0</i>
  <i type="logical" name="LDAU"> F  </i>
  <i type="int" name="I_CONSTRAINED_M">     0</i>
  <separator name="electronic exchange-correlation" >
   <i type="string" name="GGA">--</i>
   <i type="int" name="VOSKOWN">     0</i>
   <i type="logical" name="LHFCALC"> F  </i>
   <i type="string" name="PRECFOCK"></i>
   <i type="logical" name="LSYMGRAD"> F  </i>
   <i type="logical" name="LHFONE"> F  </i>
   <i type="logical" name="LRHFCALC"> F  </i>
   <i type="logical" name="LTHOMAS"> F  </i>
   <i type="logical" name="LMODELHF"> F  </i>
   <i name="ENCUT4O">     -1.00000000</i>
   <i type="int" name="EXXOEP">     0</i>
   <i type="int" name="FOURORBIT">     0</i>
   <i name="AEXX">      0.00000000</i>
   <i name="HFALPHA">      0.00000000</i>
   <i name="MCALPHA">      0.00000000</i>
   <i name="ALDAX">      1.00000000</i>
   <i name="AGGAX">      1.00000000</i>
   <i name="ALDAC">      1.00000000</i>
   <i name="AGGAC">      1.00000000</i>
   <i type="int" name="NKREDX">     1</i>
   <i type="int" name="NKREDY">     1</i>
   <i type="int" name="NKREDZ">     1</i>
   <i type="logical" name="SHIFTRED"> F  </i>
   <i type="logical" name="ODDONLY"> F  </i>
   <i type="logical" name="EVENONLY"> F  </i>
   <i type="int" name="LMAXFOCK">     0</i>
   <i type="int" name="NMAXFOCKAE">     0</i>
   <i type="logical" name="LFOCKAEDFT"> F  </i>
   <i name="HFSCREEN">      0.00000000</i>
   <i name="HFSCREENC">      0.00000000</i>
   <i type="int" name="NBANDSGWLOW">     0</i>
  </separator>
  <separator name="vdW DFT" >
   <i type="logical" name="LUSE_VDW"> F  </i>
   <i name="Zab_VDW">     -0.84910000</i>
   <i name="PARAM1">      0.12340000</i>
   <i name="PARAM2">      1.00000000</i>
   <i name="PARAM3">      0.00000000</i>
  </separator>
  <separator name="model GW" >
   <i type="int" name="MODEL_GW">     0</i>
   <i name="MODEL_EPS0">      5.10664856</i>
   <i name="MODEL_ALPHA">      1.00000000</i>
  </separator>
  <separator name="linear response parameters" >
   <i type="logical" name="LEPSILON"> F  </i>
   <i type="logical" name="LRPA"> F  </i>
   <i type="logical" name="LNABLA"> F  </i>
   <i type="logical" name="LVEL"> F  </i>
   <i type="int" name="KINTER">     0</i>
   <i name="CSHIFT">      0.10000000</i>
   <i name="OMEGAMAX">     -1.00000000</i>
   <i name="DEG_THRESHOLD">      0.00200000</i>
   <i name="RTIME">     -0.10000000</i>
   <i name="WPLASMAI">      0.00000000</i>
   <v name="DFIELD">      0.00000000      0.00000000      0.00000000</v>
   <v name="WPLASMA">      0.00000000      0.00000000      0.00000000      0.00000000      0.00000000      0.00000000      0.00000000      0.00000000      0.00000000</v>
  </separator>
  <separator name="orbital magnetization" >
   <i type="logical" name="NUCIND"> F  </i>
   <v name="MAGPOS">      0.00000000      0.00000000      0.00000000</v>
   <i type="logical" name="LNICSALL"> T  </i>
   <i type="logical" name="ORBITALMAG"> F  </i>
   <i type="logical" name="LMAGBLOCH"> F  </i>
   <i type="logical" name="LCHIMAG"> F  </i>
   <i type="logical" name="LGAUGE"> T  </i>
   <i type="int" name="MAGATOM">     0</i>
   <v name="MAGDIPOL">      0.00000000      0.00000000      0.00000000</v>
   <v name="AVECCONST">      0.00000000      0.00000000      0.00000000</v>
  </separator>
  <separator name="response functions" >
   <i type="logical" name="LADDER"> F  </i>
   <i type="logical" name="LRPAFORCE"> F  </i>
   <i type="logical" name="LFXC"> F  </i>
   <i type="logical" name="LHARTREE"> T  </i>
   <i type="int" name="IBSE">     0</i>
   <v type="int" name="KPOINT">    -1     0     0     0</v>
   <i type="logical" name="LTCTE"> F  </i>
   <i type="logical" name="LTETE"> F  </i>
   <i type="logical" name="LTRIPLET"> F  </i>
   <i type="logical" name="LFXCEPS"> F  </i>
   <i type="logical" name="LFXHEG"> F  </i>
   <i type="int" name="NATURALO">     2</i>
   <i type="logical" name="L2ORDER"> F  </i>
   <i type="logical" name="LMP2LT"> F  </i>
   <i type="logical" name="LUSEW"> F  </i>
   <i name="ENCUTGW">     -2.00000000</i>
   <i name="ENCUTGWSOFT">     -2.00000000</i>
   <i name="ENCUTLF">     -1.00000000</i>
   <i type="int" name="LMAXMP2">    -1</i>
   <i name="SCISSOR">      0.00000000</i>
   <i type="int" name="NOMEGA">     0</i>
   <i type="int" name="NOMEGAR">     0</i>
   <i type="int" name="NBANDSGW">    -1</i>
   <i type="int" name="NBANDSO">    -1</i>
   <i type="int" name="NBANDSV">    -1</i>
   <i type="int" name="NELM">   200</i>
   <i type="int" name="NELMHF">     1</i>
   <i type="int" name="DIM">     3</i>
   <i type="int" name="ANTIRES">     0</i>
   <i name="OMEGAMAX">    -30.00000000</i>
   <i name="OMEGAMIN">    -30.00000000</i>
   <i name="OMEGATL">   -200.00000000</i>
   <i type="int" name="OMEGAGRID">   140</i>
   <i name="CSHIFT">     -0.10000000</i>
   <i type="logical" name="SELFENERGY"> F  </i>
   <i type="logical" name="LSPECTRAL"> F  </i>
   <i type="logical" name="LSPECTRALGW"> F  </i>
   <i type="logical" name="LSINGLES"> F  </i>
   <i type="logical" name="LFERMIGW"> F  </i>
   <i type="logical" name="ODDONLYGW"> F  </i>
   <i type="logical" name="EVENONLYGW"> F  </i>
   <i type="int" name="NKREDLFX">     1</i>
   <i type="int" name="NKREDLFY">     1</i>
   <i type="int" name="NKREDLFZ">     1</i>
   <i type="int" name="MAXMEM">  2800</i>
   <i type="int" name="TELESCOPE">     0</i>
   <i type="int" name="TAUPAR">     1</i>
   <i type="int" name="OMEGAPAR">    -1</i>
   <i name="LAMBDA">      1.00000000</i>
  </separator>
  <separator name="External order field" >
   <i name="OFIELD_KAPPA">      0.00000000</i>
   <v name="OFIELD_K">      0.00000000      0.00000000      0.00000000</v>
   <i name="OFIELD_Q6_NEAR">      0.00000000</i>
   <i name="OFIELD_Q6_FAR">      0.00000000</i>
   <i name="OFIELD_A">      0.00000000</i>
  </separator>
 </parameters>
 <atominfo>
  <atoms>       2 </atoms>
  <types>       2 </types>
  <array name="atoms" >
   <dimension dim="1">ion</dimension>
   <field type="string">element</field>
   <field type="int">atomtype</field>
   <set>
    <rc><c>Li</c><c>   1</c></rc>
    <rc><c>F </c><c>   2</c></rc>
   </set>
  </array>
  <array name="atomtypes" >
   <dimension dim="1">type</dimension>
   <field type="int">atomspertype</field>
   <field type="string">element</field>
   <field>mass</field>
   <field>valence</field>
   <field type="string">pseudopotential</field>
   <set>
    <rc><c>   1</c><c>Li</c><c>      7.01000000</c><c>      3.00000000</c><c>  PAW_PBE Li_sv 10Sep2004               </c></rc>
    <rc><c>   1</c><c>F </c><c>     18.99800000</c><c>      7.00000000</c><c>  PAW_PBE F 08Apr2002                   </c></rc>
   </set>
  </array>
 </atominfo>
 <structure name="initialpos" >
  <crystal>
   <varray name="basis" >
    <v>       0.00000000       2.04171400       2.04171400 </v>
    <v>       2.04171400       0.00000000       2.04171400 </v>
    <v>       2.04171400       2.04171400       0.00000000 </v>
   </varray>
   <i name="volume">     17.02216186 </i>
   <varray name="rec_basis" >
    <v>      -0.24489228       0.24489228       0.24489228 </v>
    <v>       0.24489228      -0.24489228       0.24489228 </v>
    <v>       0.24489228       0.24489228      -0.24489228 </v>
   </varray>
  </crystal>
  <varray name="positions" >
   <v>       0.00000000       0.00000000       0.00000000 </v>
   <v>       0.50000000       0.50000000       0.50000000 </v>
  </varray>
 </structure>
 <calculation>
  <scstep>
   <time name="total">    1.29    1.31</time>
   <energy>
    <i name="alphaZ">     19.24755120 </i>
    <i name="ewald">   -549.57268052 </i>
    <i name="hartreedc">   -229.41685975 </i>
    <i name="XCdc">     50.52656343 </i>
    <i name="pawpsdc">    709.15156467 </i>
    <i name="pawaedc">   -730.14843786 </i>
    <i name="eentropy">      0.00000000 </i>
    <i name="bandstr">    -89.41110838 </i>
    <i name="atom">    862.41152047 </i>
    <i name="e_fr_energy">     42.78811326 </i>
    <i name="e_wo_entrp">     42.78811326 </i>
    <i name="e_0_energy">     42.78811326 </i>
   </energy>
  </scstep>
  <scstep>
   <time name="total">    0.76    0.77</time>
   <energy>
    <i name="e_fr_energy">     -7.95999665 </i>
    <i name="e_wo_entrp">     -7.95999665 </i>
    <i name="e_0_energy">     -7.95999665 </i>
   </energy>
  </scstep>
  <scstep>
   <time name="total">    1.18    1.26</time>
   <energy>
    <i name="e_fr_energy">     -9.62585451 </i>
    <i name="e_wo_entrp">     -9.62585451 </i>
    <i name="e_0_energy">     -9.62585451 </i>
   </energy>
  </scstep>
  <scstep>
   <time name="total">    0.87    0.90</time>
   <energy>
    <i name="e_fr_energy">     -9.65246970 </i>
    <i name="e_wo_entrp">     -9.65246970 </i>
    <i name="e_0_energy">     -9.65246970 </i>
   </energy>
  </scstep>
  <scstep>
   <time name="total">    0.84    0.84</time>
   <energy>
    <i name="e_fr_energy">     -9.65273868 </i>
    <i name="e_wo_entrp">     -9.65273868 </i>
    <i name="e_0_energy">     -9.65273868 </i>
   </energy>
  </scstep>
  <scstep>
   <time name="total">    1.26    1.27</time>
   <energy>
    <i name="e_fr_energy">     -9.63423305 </i>
    <i name="e_wo_entrp">     -9.63423305 </i>
    <i name="e_0_energy">     -9.63423305 </i>
   </energy>
  </scstep>
  <scstep>
   <time name="total">    1.34    1.36</time>
   <energy>
    <i name="e_fr_energy">     -9.64464084 </i>
    <i name="e_wo_entrp">     -9.64464084 </i>
    <i name="e_0_energy">     -9.64464084 </i>
   </energy>
  </scstep>
  <scstep>
   <time name="total">    1.36    1.42</time>
   <energy>
    <i name="e_fr_energy">     -9.64564225 </i>
    <i name="e_wo_entrp">     -9.64564225 </i>
    <i name="e_0_energy">     -9.64564225 </i>
   </energy>
  </scstep>
  <scstep>
   <time name="total">    1.85    1.98</time>
   <energy>
    <i name="e_fr_energy">     -9.64588204 </i>
    <i name="e_wo_entrp">     -9.64588204 </i>
    <i name="e_0_energy">     -9.64588204 </i>
   </energy>
  </scstep>
  <scstep>
   <time name="total">    1.37    1.40</time>
   <energy>
    <i name="e_fr_energy">     -9.64589540 </i>
    <i name="e_wo_entrp">     -9.64589540 </i>
    <i name="e_0_energy">     -9.64589540 </i>
   </energy>
  </scstep>
  <scstep>
   <time name="total">    1.39    1.40</time>
   <energy>
    <i name="alphaZ">     19.24755120 </i>
    <i name="ewald">   -549.57268052 </i>
    <i name="hartreedc">   -231.16196153 </i>
    <i name="XCdc">     50.65584252 </i>
    <i name="pawpsdc">    712.62265861 </i>
    <i name="pawaedc">   -733.75824932 </i>
    <i name="eentropy">      0.00000000 </i>
    <i name="bandstr">   -140.09057826 </i>
    <i name="atom">    862.41152047 </i>
    <i name="e_fr_energy">     -9.64589684 </i>
    <i name="e_wo_entrp">     -9.64589684 </i>
    <i name="e_0_energy">     -9.64589684 </i>
   </energy>
  </scstep>
  <structure>
   <crystal>
    <varray name="basis" >
     <v>       0.00000000       2.04171400       2.04171400 </v>
     <v>       2.04171400       0.00000000       2.04171400 </v>
     <v>       2.04171400       2.04171400       0.00000000 </v>
    </varray>
    <i name="volume">     17.02216186 </i>
    <varray name="rec_basis" >
     <v>      -0.24489228       0.24489228       0.24489228 </v>
     <v>       0.24489228      -0.24489228       0.24489228 </v>
     <v>       0.24489228       0.24489228      -0.24489228 </v>
    </varray>
   </crystal>
   <varray name="positions" >
    <v>       0.00000000       0.00000000       0.00000000 </v>
    <v>       0.50000000       0.50000000       0.50000000 </v>
   </varray>
  </structure>
  <varray name="forces" >
   <v>       0.00000000      -0.00000000       0.00000000 </v>
   <v>      -0.00000000       0.00000000      -0.00000000 </v>
  </varray>
  <varray name="stress" >
   <v>     -16.46091788       0.00000000      -0.00000000 </v>
   <v>      -0.00000000     -16.46091788       0.00000000 </v>
   <v>      -0.00000000      -0.00000000     -16.46091788 </v>
  </varray>
  <energy>
   <i name="e_fr_energy">     -9.64589684 </i>
   <i name="e_wo_entrp">     -9.64589684 </i>
   <i name="e_0_energy">      0.00000000 </i>
  </energy>
  <time name="totalsc">   15.57   15.94</time>
  <eigenvalues>
   <array>
    <dimension dim="1">band</dimension>
    <dimension dim="2">kpoint</dimension>
    <dimension dim="3">spin</dimension>
    <field>eigene</field>
    <field>occ</field>
    <set>
     <set comment="spin 1">
      <set comment="kpoint 1">
       <r>  -42.2718    1.0000 </r>
       <r>  -21.1313    1.0000 </r>
       <r>   -1.2683    1.0000 </r>
       <r>   -1.2683    1.0000 </r>
       <r>   -1.2683    1.0000 </r>
       <r>    7.4576    0.0000 </r>
       <r>   22.1649    0.0000 </r>
       <r>   22.1650    0.0000 </r>
       <r>   22.3306    0.0000 </r>
       <r>   22.6573    0.0000 </r>
      </set>
      <set comment="kpoint 2">
       <r>  -42.2625    1.0000 </r>
       <r>  -21.0590    1.0000 </r>
       <r>   -1.7976    1.0000 </r>
       <r>   -1.3103    1.0000 </r>
       <r>   -1.3103    1.0000 </r>
       <r>    8.0154    0.0000 </r>
       <r>   18.4825    0.0000 </r>
       <r>   20.3603    0.0000 </r>
       <r>   20.3603    0.0000 </r>
       <r>   24.0813    0.0000 </r>
      </set>
      <set comment="kpoint 3">
       <r>  -42.2419    1.0000 </r>
       <r>  -20.8903    1.0000 </r>
       <r>   -2.8321    1.0000 </r>
       <r>   -1.4019    1.0000 </r>
       <r>   -1.4019    1.0000 </r>
       <r>    8.9451    0.0000 </r>
       <r>   15.8341    0.0000 </r>
       <r>   18.4951    0.0000 </r>
       <r>   18.4951    0.0000 </r>
       <r>   25.6625    0.0000 </r>
      </set>
      <set comment="kpoint 4">
       <r>  -42.2253    1.0000 </r>
       <r>  -20.7479    1.0000 </r>
       <r>   -3.5643    1.0000 </r>
       <r>   -1.4721    1.0000 </r>
       <r>   -1.4721    1.0000 </r>
       <r>    9.2827    0.0000 </r>
       <r>   15.0280    0.0000 </r>
       <r>   17.4417    0.0000 </r>
       <r>   17.4417    0.0000 </r>
       <r>   27.8530    0.0000 </r>
      </set>
      <set comment="kpoint 5">
       <r>  -42.2596    1.0000 </r>
       <r>  -21.0318    1.0000 </r>
       <r>   -1.7689    1.0000 </r>
       <r>   -1.4500    1.0000 </r>
       <r>   -1.4500    1.0000 </r>
       <r>    8.2792    0.0000 </r>
       <r>   19.4916    0.0000 </r>
       <r>   19.8331    0.0000 </r>
       <r>   19.8331    0.0000 </r>
       <r>   19.9858    0.0000 </r>
      </set>
      <set comment="kpoint 6">
       <r>  -42.2430    1.0000 </r>
       <r>  -20.8874    1.0000 </r>
       <r>   -2.5870    1.0000 </r>
       <r>   -1.6027    1.0000 </r>
       <r>   -1.5804    1.0000 </r>
       <r>    9.2883    0.0000 </r>
       <r>   16.3298    0.0000 </r>
       <r>   18.4486    0.0000 </r>
       <r>   18.8025    0.0000 </r>
       <r>   21.5598    0.0000 </r>
      </set>
      <set comment="kpoint 7">
       <r>  -42.2254    1.0000 </r>
       <r>  -20.7275    1.0000 </r>
       <r>   -3.3635    1.0000 </r>
       <r>   -1.8046    1.0000 </r>
       <r>   -1.6542    1.0000 </r>
       <r>   10.0072    0.0000 </r>
       <r>   14.8030    0.0000 </r>
       <r>   17.4829    0.0000 </r>
       <r>   17.8311    0.0000 </r>
       <r>   24.0533    0.0000 </r>
      </set>
      <set comment="kpoint 8">
       <r>  -42.2199    1.0000 </r>
       <r>  -20.6782    1.0000 </r>
       <r>   -3.5625    1.0000 </r>
       <r>   -1.9854    1.0000 </r>
       <r>   -1.5690    1.0000 </r>
       <r>   10.0858    0.0000 </r>
       <r>   14.4924    0.0000 </r>
       <r>   17.3689    0.0000 </r>
       <r>   17.4692    0.0000 </r>
       <r>   26.6171    0.0000 </r>
      </set>
      <set comment="kpoint 9">
       <r>  -42.2307    1.0000 </r>
       <r>  -20.7814    1.0000 </r>
       <r>   -3.0883    1.0000 </r>
       <r>   -1.9651    1.0000 </r>
       <r>   -1.4093    1.0000 </r>
       <r>    9.7477    0.0000 </r>
       <r>   14.8836    0.0000 </r>
       <r>   17.8799    0.0000 </r>
       <r>   18.0103    0.0000 </r>
       <r>   26.2465    0.0000 </r>
      </set>
      <set comment="kpoint 10">
       <r>  -42.2496    1.0000 </r>
       <r>  -20.9510    1.0000 </r>
       <r>   -2.3018    1.0000 </r>
       <r>   -1.6774    1.0000 </r>
       <r>   -1.2926    1.0000 </r>
       <r>    8.7906    0.0000 </r>
       <r>   16.6438    0.0000 </r>
       <r>   18.7710    0.0000 </r>
       <r>   19.3849    0.0000 </r>
       <r>   24.1315    0.0000 </r>
      </set>
      <set comment="kpoint 11">
       <r>  -42.2333    1.0000 </r>
       <r>  -20.7748    1.0000 </r>
       <r>   -2.9493    1.0000 </r>
       <r>   -1.8502    1.0000 </r>
       <r>   -1.8502    1.0000 </r>
       <r>   10.3606    0.0000 </r>
       <r>   16.6419    0.0000 </r>
       <r>   17.5364    0.0000 </r>
       <r>   18.7441    0.0000 </r>
       <r>   18.7441    0.0000 </r>
      </set>
      <set comment="kpoint 12">
       <r>  -42.2199    1.0000 </r>
       <r>  -20.6314    1.0000 </r>
       <r>   -3.4889    1.0000 </r>
       <r>   -2.1682    1.0000 </r>
       <r>   -1.9619    1.0000 </r>
       <r>   11.4953    0.0000 </r>
       <r>   14.8780    0.0000 </r>
       <r>   16.8369    0.0000 </r>
       <r>   18.3155    0.0000 </r>
       <r>   20.2084    0.0000 </r>
      </set>
      <set comment="kpoint 13">
       <r>  -42.2131    1.0000 </r>
       <r>  -20.5680    1.0000 </r>
       <r>   -3.5106    1.0000 </r>
       <r>   -2.6624    1.0000 </r>
       <r>   -1.8620    1.0000 </r>
       <r>   11.9184    0.0000 </r>
       <r>   13.7729    0.0000 </r>
       <r>   16.9306    0.0000 </r>
       <r>   17.8463    0.0000 </r>
       <r>   22.6717    0.0000 </r>
      </set>
      <set comment="kpoint 14">
       <r>  -42.2179    1.0000 </r>
       <r>  -20.6369    1.0000 </r>
       <r>   -3.0800    1.0000 </r>
       <r>   -2.8510    1.0000 </r>
       <r>   -1.6184    1.0000 </r>
       <r>   11.1395    0.0000 </r>
       <r>   13.7889    0.0000 </r>
       <r>   17.4520    0.0000 </r>
       <r>   17.7088    0.0000 </r>
       <r>   25.6771    0.0000 </r>
      </set>
      <set comment="kpoint 15">
       <r>  -42.2131    1.0000 </r>
       <r>  -20.5292    1.0000 </r>
       <r>   -3.9509    1.0000 </r>
       <r>   -2.1618    1.0000 </r>
       <r>   -2.1618    1.0000 </r>
       <r>   12.6587    0.0000 </r>
       <r>   15.1944    0.0000 </r>
       <r>   16.0179    0.0000 </r>
       <r>   18.5010    0.0000 </r>
       <r>   18.5010    0.0000 </r>
      </set>
      <set comment="kpoint 16">
       <r>  -42.2101    1.0000 </r>
       <r>  -20.5002    1.0000 </r>
       <r>   -3.9382    1.0000 </r>
       <r>   -2.4227    1.0000 </r>
       <r>   -2.1195    1.0000 </r>
       <r>   13.1891    0.0000 </r>
       <r>   14.1096    0.0000 </r>
       <r>   16.0133    0.0000 </r>
       <r>   18.2853    0.0000 </r>
       <r>   19.8116    0.0000 </r>
      </set>
      <set comment="kpoint 17">
       <r>  -42.2282    1.0000 </r>
       <r>  -20.7396    1.0000 </r>
       <r>   -3.0491    1.0000 </r>
       <r>   -2.1721    1.0000 </r>
       <r>   -1.6307    1.0000 </r>
       <r>   10.4248    0.0000 </r>
       <r>   14.9293    0.0000 </r>
       <r>   17.5863    0.0000 </r>
       <r>   18.1624    0.0000 </r>
       <r>   22.2714    0.0000 </r>
      </set>
      <set comment="kpoint 18">
       <r>  -42.2164    1.0000 </r>
       <r>  -20.6158    1.0000 </r>
       <r>   -3.3789    1.0000 </r>
       <r>   -2.5581    1.0000 </r>
       <r>   -1.7578    1.0000 </r>
       <r>   11.2932    0.0000 </r>
       <r>   14.0243    0.0000 </r>
       <r>   17.1991    0.0000 </r>
       <r>   17.5472    0.0000 </r>
       <r>   24.6216    0.0000 </r>
      </set>
      <set comment="kpoint 19">
       <r>  -42.2120    1.0000 </r>
       <r>  -20.5363    1.0000 </r>
       <r>   -3.6810    1.0000 </r>
       <r>   -2.5526    1.0000 </r>
       <r>   -2.0379    1.0000 </r>
       <r>   12.6557    0.0000 </r>
       <r>   14.1399    0.0000 </r>
       <r>   16.1553    0.0000 </r>
       <r>   17.8608    0.0000 </r>
       <r>   21.4568    0.0000 </r>
      </set>
      <set comment="kpoint 20">
       <r>  -42.2104    1.0000 </r>
       <r>  -20.5291    1.0000 </r>
       <r>   -3.3558    1.0000 </r>
       <r>   -3.0215    1.0000 </r>
       <r>   -1.9622    1.0000 </r>
       <r>   12.9529    0.0000 </r>
       <r>   13.3905    0.0000 </r>
       <r>   16.3905    0.0000 </r>
       <r>   17.4956    0.0000 </r>
       <r>   24.0744    0.0000 </r>
      </set>
     </set>
     <set comment="spin 2">
      <set comment="kpoint 1">
       <r>  -42.2718    1.0000 </r>
       <r>  -21.1313    1.0000 </r>
       <r>   -1.2683    1.0000 </r>
       <r>   -1.2683    1.0000 </r>
       <r>   -1.2683    1.0000 </r>
       <r>    7.4576    0.0000 </r>
       <r>   22.1649    0.0000 </r>
       <r>   22.1724    0.0000 </r>
       <r>   22.2214    0.0000 </r>
       <r>   22.6573    0.0000 </r>
      </set>
      <set comment="kpoint 2">
       <r>  -42.2625    1.0000 </r>
       <r>  -21.0590    1.0000 </r>
       <r>   -1.7976    1.0000 </r>
       <r>   -1.3103    1.0000 </r>
       <r>   -1.3103    1.0000 </r>
       <r>    8.0154    0.0000 </r>
       <r>   18.4825    0.0000 </r>
       <r>   20.3603    0.0000 </r>
       <r>   20.3603    0.0000 </r>
       <r>   24.1445    0.0000 </r>
      </set>
      <set comment="kpoint 3">
       <r>  -42.2419    1.0000 </r>
       <r>  -20.8903    1.0000 </r>
       <r>   -2.8321    1.0000 </r>
       <r>   -1.4019    1.0000 </r>
       <r>   -1.4019    1.0000 </r>
       <r>    8.9451    0.0000 </r>
       <r>   15.8341    0.0000 </r>
       <r>   18.4951    0.0000 </r>
       <r>   18.4951    0.0000 </r>
       <r>   25.6663    0.0000 </r>
      </set>
      <set comment="kpoint 4">
       <r>  -42.2253    1.0000 </r>
       <r>  -20.7479    1.0000 </r>
       <r>   -3.5643    1.0000 </r>
       <r>   -1.4721    1.0000 </r>
       <r>   -1.4721    1.0000 </r>
       <r>    9.2827    0.0000 </r>
       <r>   15.0280    0.0000 </r>
       <r>   17.4417    0.0000 </r>
       <r>   17.4417    0.0000 </r>
       <r>   27.8190    0.0000 </r>
      </set>
      <set comment="kpoint 5">
       <r>  -42.2596    1.0000 </r>
       <r>  -21.0318    1.0000 </r>
       <r>   -1.7689    1.0000 </r>
       <r>   -1.4500    1.0000 </r>
       <r>   -1.4500    1.0000 </r>
       <r>    8.2792    0.0000 </r>
       <r>   19.4916    0.0000 </r>
       <r>   19.8331    0.0000 </r>
       <r>   19.8331    0.0000 </r>
       <r>   19.9858    0.0000 </r>
      </set>
      <set comment="kpoint 6">
       <r>  -42.2430    1.0000 </r>
       <r>  -20.8874    1.0000 </r>
       <r>   -2.5870    1.0000 </r>
       <r>   -1.6027    1.0000 </r>
       <r>   -1.5804    1.0000 </r>
       <r>    9.2883    0.0000 </r>
       <r>   16.3298    0.0000 </r>
       <r>   18.4486    0.0000 </r>
       <r>   18.8025    0.0000 </r>
       <r>   21.5598    0.0000 </r>
      </set>
      <set comment="kpoint 7">
       <r>  -42.2254    1.0000 </r>
       <r>  -20.7275    1.0000 </r>
       <r>   -3.3635    1.0000 </r>
       <r>   -1.8046    1.0000 </r>
       <r>   -1.6542    1.0000 </r>
       <r>   10.0072    0.0000 </r>
       <r>   14.8030    0.0000 </r>
       <r>   17.4829    0.0000 </r>
       <r>   17.8311    0.0000 </r>
       <r>   24.0533    0.0000 </r>
      </set>
      <set comment="kpoint 8">
       <r>  -42.2199    1.0000 </r>
       <r>  -20.6782    1.0000 </r>
       <r>   -3.5625    1.0000 </r>
       <r>   -1.9854    1.0000 </r>
       <r>   -1.5690    1.0000 </r>
       <r>   10.0858    0.0000 </r>
       <r>   14.4924    0.0000 </r>
       <r>   17.3689    0.0000 </r>
       <r>   17.4692    0.0000 </r>
       <r>   26.6155    0.0000 </r>
      </set>
      <set comment="kpoint 9">
       <r>  -42.2307    1.0000 </r>
       <r>  -20.7814    1.0000 </r>
       <r>   -3.0883    1.0000 </r>
       <r>   -1.9651    1.0000 </r>
       <r>   -1.4093    1.0000 </r>
       <r>    9.7477    0.0000 </r>
       <r>   14.8836    0.0000 </r>
       <r>   17.8799    0.0000 </r>
       <r>   18.0103    0.0000 </r>
       <r>   26.2709    0.0000 </r>
      </set>
      <set comment="kpoint 10">
       <r>  -42.2496    1.0000 </r>
       <r>  -20.9510    1.0000 </r>
       <r>   -2.3018    1.0000 </r>
       <r>   -1.6774    1.0000 </r>
       <r>   -1.2926    1.0000 </r>
       <r>    8.7906    0.0000 </r>
       <r>   16.6438    0.0000 </r>
       <r>   18.7710    0.0000 </r>
       <r>   19.3849    0.0000 </r>
       <r>   24.1220    0.0000 </r>
      </set>
      <set comment="kpoint 11">
       <r>  -42.2333    1.0000 </r>
       <r>  -20.7748    1.0000 </r>
       <r>   -2.9493    1.0000 </r>
       <r>   -1.8502    1.0000 </r>
       <r>   -1.8502    1.0000 </r>
       <r>   10.3606    0.0000 </r>
       <r>   16.6419    0.0000 </r>
       <r>   17.5364    0.0000 </r>
       <r>   18.7441    0.0000 </r>
       <r>   18.7441    0.0000 </r>
      </set>
      <set comment="kpoint 12">
       <r>  -42.2199    1.0000 </r>
       <r>  -20.6314    1.0000 </r>
       <r>   -3.4889    1.0000 </r>
       <r>   -2.1682    1.0000 </r>
       <r>   -1.9619    1.0000 </r>
       <r>   11.4953    0.0000 </r>
       <r>   14.8780    0.0000 </r>
       <r>   16.8369    0.0000 </r>
       <r>   18.3155    0.0000 </r>
       <r>   20.2084    0.0000 </r>
      </set>
      <set comment="kpoint 13">
       <r>  -42.2131    1.0000 </r>
       <r>  -20.5680    1.0000 </r>
       <r>   -3.5106    1.0000 </r>
       <r>   -2.6624    1.0000 </r>
       <r>   -1.8620    1.0000 </r>
       <r>   11.9184    0.0000 </r>
       <r>   13.7729    0.0000 </r>
       <r>   16.9306    0.0000 </r>
       <r>   17.8463    0.0000 </r>
       <r>   22.6717    0.0000 </r>
      </set>
      <set comment="kpoint 14">
       <r>  -42.2179    1.0000 </r>
       <r>  -20.6369    1.0000 </r>
       <r>   -3.0800    1.0000 </r>
       <r>   -2.8510    1.0000 </r>
       <r>   -1.6184    1.0000 </r>
       <r>   11.1395    0.0000 </r>
       <r>   13.7889    0.0000 </r>
       <r>   17.4520    0.0000 </r>
       <r>   17.7088    0.0000 </r>
       <r>   25.6772    0.0000 </r>
      </set>
      <set comment="kpoint 15">
       <r>  -42.2131    1.0000 </r>
       <r>  -20.5292    1.0000 </r>
       <r>   -3.9509    1.0000 </r>
       <r>   -2.1618    1.0000 </r>
       <r>   -2.1618    1.0000 </r>
       <r>   12.6587    0.0000 </r>
       <r>   15.1944    0.0000 </r>
       <r>   16.0179    0.0000 </r>
       <r>   18.5010    0.0000 </r>
       <r>   18.5010    0.0000 </r>
      </set>
      <set comment="kpoint 16">
       <r>  -42.2101    1.0000 </r>
       <r>  -20.5002    1.0000 </r>
       <r>   -3.9382    1.0000 </r>
       <r>   -2.4227    1.0000 </r>
       <r>   -2.1195    1.0000 </r>
       <r>   13.1891    0.0000 </r>
       <r>   14.1096    0.0000 </r>
       <r>   16.0133    0.0000 </r>
       <r>   18.2853    0.0000 </r>
       <r>   19.8116    0.0000 </r>
      </set>
      <set comment="kpoint 17">
       <r>  -42.2282    1.0000 </r>
       <r>  -20.7396    1.0000 </r>
       <r>   -3.0491    1.0000 </r>
       <r>   -2.1721    1.0000 </r>
       <r>   -1.6307    1.0000 </r>
       <r>   10.4248    0.0000 </r>
       <r>   14.9293    0.0000 </r>
       <r>   17.5863    0.0000 </r>
       <r>   18.1624    0.0000 </r>
       <r>   22.2714    0.0000 </r>
      </set>
      <set comment="kpoint 18">
       <r>  -42.2164    1.0000 </r>
       <r>  -20.6158    1.0000 </r>
       <r>   -3.3789    1.0000 </r>
       <r>   -2.5581    1.0000 </r>
       <r>   -1.7578    1.0000 </r>
       <r>   11.2932    0.0000 </r>
       <r>   14.0243    0.0000 </r>
       <r>   17.1991    0.0000 </r>
       <r>   17.5472    0.0000 </r>
       <r>   24.6216    0.0000 </r>
      </set>
      <set comment="kpoint 19">
       <r>  -42.2120    1.0000 </r>
       <r>  -20.5363    1.0000 </r>
       <r>   -3.6810    1.0000 </r>
       <r>   -2.5526    1.0000 </r>
       <r>   -2.0379    1.0000 </r>
       <r>   12.6557    0.0000 </r>
       <r>   14.1399    0.0000 </r>
       <r>   16.1553    0.0000 </r>
       <r>   17.8608    0.0000 </r>
       <r>   21.4568    0.0000 </r>
      </set>
      <set comment="kpoint 20">
       <r>  -42.2104    1.0000 </r>
       <r>  -20.5291    1.0000 </r>
       <r>   -3.3558    1.0000 </r>
       <r>   -3.0215    1.0000 </r>
       <r>   -1.9622    1.0000 </r>
       <r>   12.9529    0.0000 </r>
       <r>   13.3905    0.0000 </r>
       <r>   16.3905    0.0000 </r>
       <r>   17.4956    0.0000 </r>
       <r>   24.0745    0.0000 </r>
      </set>
     </set>
    </set>
   </array>
  </eigenvalues>
  <separator name="orbital magnetization" >
   <v name="MAGDIPOLOUT">      0.00000000      0.00000000      0.00000000</v>
  </separator>
  <dos>
   <i name="efermi">     -1.23130125 </i>
   <total>
    <array>
     <dimension dim="1">gridpoints</dimension>
     <dimension dim="2">spin</dimension>
     <field>energy</field>
     <field>total</field>
     <field>integrated</field>
     <set>
      <set comment="spin 1">
       <r>   -45.7781     0.0000     0.0000 </r>
       <r>   -45.5209     0.0000     0.0000 </r>
       <r>   -45.2638     0.0000     0.0000 </r>
       <r>   -45.0067     0.0000     0.0000 </r>
       <r>   -44.7496     0.0000     0.0000 </r>
       <r>   -44.4925     0.0000     0.0000 </r>
       <r>   -44.2353     0.0000     0.0000 </r>
       <r>   -43.9782     0.0000     0.0000 </r>
       <r>   -43.7211     0.0000     0.0000 </r>
       <r>   -43.4640     0.0000     0.0000 </r>
       <r>   -43.2068     0.0000     0.0000 </r>
       <r>   -42.9497     0.0000     0.0000 </r>
       <r>   -42.6926     0.0000     0.0000 </r>
       <r>   -42.4355     0.0000     0.0000 </r>
       <r>   -42.1783     0.0000     1.0000 </r>
       <r>   -41.9212     0.0000     1.0000 </r>
       <r>   -41.6641     0.0000     1.0000 </r>
       <r>   -41.4070     0.0000     1.0000 </r>
       <r>   -41.1498     0.0000     1.0000 </r>
       <r>   -40.8927     0.0000     1.0000 </r>
       <r>   -40.6356     0.0000     1.0000 </r>
       <r>   -40.3785     0.0000     1.0000 </r>
       <r>   -40.1213     0.0000     1.0000 </r>
       <r>   -39.8642     0.0000     1.0000 </r>
       <r>   -39.6071     0.0000     1.0000 </r>
       <r>   -39.3500     0.0000     1.0000 </r>
       <r>   -39.0928     0.0000     1.0000 </r>
       <r>   -38.8357     0.0000     1.0000 </r>
       <r>   -38.5786     0.0000     1.0000 </r>
       <r>   -38.3215     0.0000     1.0000 </r>
       <r>   -38.0643     0.0000     1.0000 </r>
       <r>   -37.8072     0.0000     1.0000 </r>
       <r>   -37.5501     0.0000     1.0000 </r>
       <r>   -37.2930     0.0000     1.0000 </r>
       <r>   -37.0358     0.0000     1.0000 </r>
       <r>   -36.7787     0.0000     1.0000 </r>
       <r>   -36.5216     0.0000     1.0000 </r>
       <r>   -36.2645     0.0000     1.0000 </r>
       <r>   -36.0074     0.0000     1.0000 </r>
       <r>   -35.7502     0.0000     1.0000 </r>
       <r>   -35.4931     0.0000     1.0000 </r>
       <r>   -35.2360     0.0000     1.0000 </r>
       <r>   -34.9789     0.0000     1.0000 </r>
       <r>   -34.7217     0.0000     1.0000 </r>
       <r>   -34.4646     0.0000     1.0000 </r>
       <r>   -34.2075     0.0000     1.0000 </r>
       <r>   -33.9504     0.0000     1.0000 </r>
       <r>   -33.6932     0.0000     1.0000 </r>
       <r>   -33.4361     0.0000     1.0000 </r>
       <r>   -33.1790     0.0000     1.0000 </r>
       <r>   -32.9219     0.0000     1.0000 </r>
       <r>   -32.6647     0.0000     1.0000 </r>
       <r>   -32.4076     0.0000     1.0000 </r>
       <r>   -32.1505     0.0000     1.0000 </r>
       <r>   -31.8934     0.0000     1.0000 </r>
       <r>   -31.6362     0.0000     1.0000 </r>
       <r>   -31.3791     0.0000     1.0000 </r>
       <r>   -31.1220     0.0000     1.0000 </r>
       <r>   -30.8649     0.0000     1.0000 </r>
       <r>   -30.6077     0.0000     1.0000 </r>
       <r>   -30.3506     0.0000     1.0000 </r>
       <r>   -30.0935     0.0000     1.0000 </r>
       <r>   -29.8364     0.0000     1.0000 </r>
       <r>   -29.5792     0.0000     1.0000 </r>
       <r>   -29.3221     0.0000     1.0000 </r>
       <r>   -29.0650     0.0000     1.0000 </r>
       <r>   -28.8079     0.0000     1.0000 </r>
       <r>   -28.5508     0.0000     1.0000 </r>
       <r>   -28.2936     0.0000     1.0000 </r>
       <r>   -28.0365     0.0000     1.0000 </r>
       <r>   -27.7794     0.0000     1.0000 </r>
       <r>   -27.5223     0.0000     1.0000 </r>
       <r>   -27.2651     0.0000     1.0000 </r>
       <r>   -27.0080     0.0000     1.0000 </r>
       <r>   -26.7509     0.0000     1.0000 </r>
       <r>   -26.4938     0.0000     1.0000 </r>
       <r>   -26.2366     0.0000     1.0000 </r>
       <r>   -25.9795     0.0000     1.0000 </r>
       <r>   -25.7224     0.0000     1.0000 </r>
       <r>   -25.4653     0.0000     1.0000 </r>
       <r>   -25.2081     0.0000     1.0000 </r>
       <r>   -24.9510     0.0000     1.0000 </r>
       <r>   -24.6939     0.0000     1.0000 </r>
       <r>   -24.4368     0.0000     1.0000 </r>
       <r>   -24.1796     0.0000     1.0000 </r>
       <r>   -23.9225     0.0000     1.0000 </r>
       <r>   -23.6654     0.0000     1.0000 </r>
       <r>   -23.4083     0.0000     1.0000 </r>
       <r>   -23.1511     0.0000     1.0000 </r>
       <r>   -22.8940     0.0000     1.0000 </r>
       <r>   -22.6369     0.0000     1.0000 </r>
       <r>   -22.3798     0.0000     1.0000 </r>
       <r>   -22.1226     0.0000     1.0000 </r>
       <r>   -21.8655     0.0000     1.0000 </r>
       <r>   -21.6084     0.0000     1.0000 </r>
       <r>   -21.3513     0.0000     1.0000 </r>
       <r>   -21.0941     0.0928     1.0011 </r>
       <r>   -20.8370     1.1183     1.1537 </r>
       <r>   -20.5799     3.4026     1.7695 </r>
       <r>   -20.3228     0.0000     2.0000 </r>
       <r>   -20.0657     0.0000     2.0000 </r>
       <r>   -19.8085     0.0000     2.0000 </r>
       <r>   -19.5514     0.0000     2.0000 </r>
       <r>   -19.2943     0.0000     2.0000 </r>
       <r>   -19.0372     0.0000     2.0000 </r>
       <r>   -18.7800     0.0000     2.0000 </r>
       <r>   -18.5229     0.0000     2.0000 </r>
       <r>   -18.2658     0.0000     2.0000 </r>
       <r>   -18.0087     0.0000     2.0000 </r>
       <r>   -17.7515     0.0000     2.0000 </r>
       <r>   -17.4944     0.0000     2.0000 </r>
       <r>   -17.2373     0.0000     2.0000 </r>
       <r>   -16.9802     0.0000     2.0000 </r>
       <r>   -16.7230     0.0000     2.0000 </r>
       <r>   -16.4659     0.0000     2.0000 </r>
       <r>   -16.2088     0.0000     2.0000 </r>
       <r>   -15.9517     0.0000     2.0000 </r>
       <r>   -15.6945     0.0000     2.0000 </r>
       <r>   -15.4374     0.0000     2.0000 </r>
       <r>   -15.1803     0.0000     2.0000 </r>
       <r>   -14.9232     0.0000     2.0000 </r>
       <r>   -14.6660     0.0000     2.0000 </r>
       <r>   -14.4089     0.0000     2.0000 </r>
       <r>   -14.1518     0.0000     2.0000 </r>
       <r>   -13.8947     0.0000     2.0000 </r>
       <r>   -13.6375     0.0000     2.0000 </r>
       <r>   -13.3804     0.0000     2.0000 </r>
       <r>   -13.1233     0.0000     2.0000 </r>
       <r>   -12.8662     0.0000     2.0000 </r>
       <r>   -12.6090     0.0000     2.0000 </r>
       <r>   -12.3519     0.0000     2.0000 </r>
       <r>   -12.0948     0.0000     2.0000 </r>
       <r>   -11.8377     0.0000     2.0000 </r>
       <r>   -11.5806     0.0000     2.0000 </r>
       <r>   -11.3234     0.0000     2.0000 </r>
       <r>   -11.0663     0.0000     2.0000 </r>
       <r>   -10.8092     0.0000     2.0000 </r>
       <r>   -10.5521     0.0000     2.0000 </r>
       <r>   -10.2949     0.0000     2.0000 </r>
       <r>   -10.0378     0.0000     2.0000 </r>
       <r>    -9.7807     0.0000     2.0000 </r>
       <r>    -9.5236     0.0000     2.0000 </r>
       <r>    -9.2664     0.0000     2.0000 </r>
       <r>    -9.0093     0.0000     2.0000 </r>
       <r>    -8.7522     0.0000     2.0000 </r>
       <r>    -8.4951     0.0000     2.0000 </r>
       <r>    -8.2379     0.0000     2.0000 </r>
       <r>    -7.9808     0.0000     2.0000 </r>
       <r>    -7.7237     0.0000     2.0000 </r>
       <r>    -7.4666     0.0000     2.0000 </r>
       <r>    -7.2094     0.0000     2.0000 </r>
       <r>    -6.9523     0.0000     2.0000 </r>
       <r>    -6.6952     0.0000     2.0000 </r>
       <r>    -6.4381     0.0000     2.0000 </r>
       <r>    -6.1809     0.0000     2.0000 </r>
       <r>    -5.9238     0.0000     2.0000 </r>
       <r>    -5.6667     0.0000     2.0000 </r>
       <r>    -5.4096     0.0000     2.0000 </r>
       <r>    -5.1524     0.0000     2.0000 </r>
       <r>    -4.8953     0.0000     2.0000 </r>
       <r>    -4.6382     0.0000     2.0000 </r>
       <r>    -4.3811     0.0000     2.0000 </r>
       <r>    -4.1239     0.0000     2.0000 </r>
       <r>    -3.8668     0.1889     2.0180 </r>
       <r>    -3.6097     0.4914     2.0990 </r>
       <r>    -3.3526     1.1198     2.5311 </r>
       <r>    -3.0955     0.5665     2.7398 </r>
       <r>    -2.8383     0.7235     2.8825 </r>
       <r>    -2.5812     0.9535     3.1169 </r>
       <r>    -2.3241     0.9219     3.3614 </r>
       <r>    -2.0670     1.4322     3.6119 </r>
       <r>    -1.8098     2.1516     4.1170 </r>
       <r>    -1.5527     2.2130     4.6730 </r>
       <r>    -1.2956     0.1713     4.9985 </r>
       <r>    -1.0385     0.0000     5.0000 </r>
       <r>    -0.7813     0.0000     5.0000 </r>
       <r>    -0.5242     0.0000     5.0000 </r>
       <r>    -0.2671     0.0000     5.0000 </r>
       <r>    -0.0100     0.0000     5.0000 </r>
       <r>     0.2472     0.0000     5.0000 </r>
       <r>     0.5043     0.0000     5.0000 </r>
       <r>     0.7614     0.0000     5.0000 </r>
       <r>     1.0185     0.0000     5.0000 </r>
       <r>     1.2757     0.0000     5.0000 </r>
       <r>     1.5328     0.0000     5.0000 </r>
       <r>     1.7899     0.0000     5.0000 </r>
       <r>     2.0470     0.0000     5.0000 </r>
       <r>     2.3042     0.0000     5.0000 </r>
       <r>     2.5613     0.0000     5.0000 </r>
       <r>     2.8184     0.0000     5.0000 </r>
       <r>     3.0755     0.0000     5.0000 </r>
       <r>     3.3327     0.0000     5.0000 </r>
       <r>     3.5898     0.0000     5.0000 </r>
       <r>     3.8469     0.0000     5.0000 </r>
       <r>     4.1040     0.0000     5.0000 </r>
       <r>     4.3612     0.0000     5.0000 </r>
       <r>     4.6183     0.0000     5.0000 </r>
       <r>     4.8754     0.0000     5.0000 </r>
       <r>     5.1325     0.0000     5.0000 </r>
       <r>     5.3896     0.0000     5.0000 </r>
       <r>     5.6468     0.0000     5.0000 </r>
       <r>     5.9039     0.0000     5.0000 </r>
       <r>     6.1610     0.0000     5.0000 </r>
       <r>     6.4181     0.0000     5.0000 </r>
       <r>     6.6753     0.0000     5.0000 </r>
       <r>     6.9324     0.0000     5.0000 </r>
       <r>     7.1895     0.0000     5.0000 </r>
       <r>     7.4466     0.0000     5.0000 </r>
       <r>     7.7038     0.0083     5.0007 </r>
       <r>     7.9609     0.0347     5.0058 </r>
       <r>     8.2180     0.0501     5.0172 </r>
       <r>     8.4751     0.0677     5.0322 </r>
       <r>     8.7323     0.0894     5.0524 </r>
       <r>     8.9894     0.1130     5.0784 </r>
       <r>     9.2465     0.1552     5.1122 </r>
       <r>     9.5036     0.2324     5.1621 </r>
       <r>     9.7608     0.2870     5.2295 </r>
       <r>    10.0179     0.2890     5.3049 </r>
       <r>    10.2750     0.2498     5.3709 </r>
       <r>    10.5321     0.2490     5.4350 </r>
       <r>    10.7893     0.2472     5.4988 </r>
       <r>    11.0464     0.2440     5.5620 </r>
       <r>    11.3035     0.2226     5.6231 </r>
       <r>    11.5606     0.2233     5.6804 </r>
       <r>    11.8178     0.2215     5.7377 </r>
       <r>    12.0749     0.2114     5.7937 </r>
       <r>    12.3320     0.1962     5.8461 </r>
       <r>    12.5891     0.1794     5.8944 </r>
       <r>    12.8463     0.2811     5.9528 </r>
       <r>    13.1034     0.0448     5.9981 </r>
       <r>    13.3605     0.0000     6.0000 </r>
       <r>    13.6176     0.2708     6.0340 </r>
       <r>    13.8747     0.5417     6.1517 </r>
       <r>    14.1319     0.7265     6.2919 </r>
       <r>    14.3890     0.4943     6.4188 </r>
       <r>    14.6461     0.5345     6.5498 </r>
       <r>    14.9032     0.3497     6.6791 </r>
       <r>    15.1604     0.1988     6.7418 </r>
       <r>    15.4175     0.1647     6.7882 </r>
       <r>    15.6746     0.1389     6.8271 </r>
       <r>    15.9317     0.1194     6.8602 </r>
       <r>    16.1889     0.3304     6.9333 </r>
       <r>    16.4460     0.3506     7.0371 </r>
       <r>    16.7031     0.3781     7.1297 </r>
       <r>    16.9602     0.4487     7.2342 </r>
       <r>    17.2174     0.6722     7.3736 </r>
       <r>    17.4745     0.8890     7.6050 </r>
       <r>    17.7316     1.4843     8.0572 </r>
       <r>    17.9887     0.9539     8.3470 </r>
       <r>    18.2459     0.7142     8.5541 </r>
       <r>    18.5030     0.4458     8.7120 </r>
       <r>    18.7601     0.2576     8.7986 </r>
       <r>    19.0172     0.1951     8.8543 </r>
       <r>    19.2744     0.1685     8.9007 </r>
       <r>    19.5315     0.1558     8.9423 </r>
       <r>    19.7886     0.1471     8.9811 </r>
       <r>    20.0457     0.1371     9.0178 </r>
       <r>    20.3029     0.1191     9.0509 </r>
       <r>    20.5600     0.1131     9.0803 </r>
       <r>    20.8171     0.1124     9.1093 </r>
       <r>    21.0742     0.1128     9.1382 </r>
       <r>    21.3313     0.1140     9.1673 </r>
       <r>    21.5885     0.1166     9.1970 </r>
       <r>    21.8456     0.1215     9.2275 </r>
       <r>    22.1027     0.1280     9.2596 </r>
       <r>    22.3598     0.1361     9.2935 </r>
       <r>    22.6170     0.1453     9.3296 </r>
       <r>    22.8741     0.1556     9.3683 </r>
       <r>    23.1312     0.1681     9.4098 </r>
       <r>    23.3883     0.1830     9.4549 </r>
       <r>    23.6455     0.2002     9.5041 </r>
       <r>    23.9026     0.2197     9.5581 </r>
       <r>    24.1597     0.2269     9.6189 </r>
       <r>    24.4168     0.2276     9.6787 </r>
       <r>    24.6740     0.1801     9.7310 </r>
       <r>    24.9311     0.1651     9.7753 </r>
       <r>    25.1882     0.1524     9.8161 </r>
       <r>    25.4453     0.1421     9.8539 </r>
       <r>    25.7025     0.1341     9.8894 </r>
       <r>    25.9596     0.1170     9.9220 </r>
       <r>    26.2167     0.0828     9.9481 </r>
       <r>    26.4738     0.0520     9.9650 </r>
       <r>    26.7310     0.0382     9.9761 </r>
       <r>    26.9881     0.0318     9.9851 </r>
       <r>    27.2452     0.0240     9.9923 </r>
       <r>    27.5023     0.0148     9.9973 </r>
       <r>    27.7595     0.0042     9.9998 </r>
       <r>    28.0166     0.0000    10.0000 </r>
       <r>    28.2737     0.0000    10.0000 </r>
       <r>    28.5308     0.0000    10.0000 </r>
       <r>    28.7880     0.0000    10.0000 </r>
       <r>    29.0451     0.0000    10.0000 </r>
       <r>    29.3022     0.0000    10.0000 </r>
       <r>    29.5593     0.0000    10.0000 </r>
       <r>    29.8164     0.0000    10.0000 </r>
       <r>    30.0736     0.0000    10.0000 </r>
       <r>    30.3307     0.0000    10.0000 </r>
       <r>    30.5878     0.0000    10.0000 </r>
       <r>    30.8449     0.0000    10.0000 </r>
       <r>    31.1021     0.0000    10.0000 </r>
       <r>    31.3592     0.0000    10.0000 </r>
      </set>
      <set comment="spin 2">
       <r>   -45.7781     0.0000     0.0000 </r>
       <r>   -45.5209     0.0000     0.0000 </r>
       <r>   -45.2638     0.0000     0.0000 </r>
       <r>   -45.0067     0.0000     0.0000 </r>
       <r>   -44.7496     0.0000     0.0000 </r>
       <r>   -44.4925     0.0000     0.0000 </r>
       <r>   -44.2353     0.0000     0.0000 </r>
       <r>   -43.9782     0.0000     0.0000 </r>
       <r>   -43.7211     0.0000     0.0000 </r>
       <r>   -43.4640     0.0000     0.0000 </r>
       <r>   -43.2068     0.0000     0.0000 </r>
       <r>   -42.9497     0.0000     0.0000 </r>
       <r>   -42.6926     0.0000     0.0000 </r>
       <r>   -42.4355     0.0000     0.0000 </r>
       <r>   -42.1783     0.0000     1.0000 </r>
       <r>   -41.9212     0.0000     1.0000 </r>
       <r>   -41.6641     0.0000     1.0000 </r>
       <r>   -41.4070     0.0000     1.0000 </r>
       <r>   -41.1498     0.0000     1.0000 </r>
       <r>   -40.8927     0.0000     1.0000 </r>
       <r>   -40.6356     0.0000     1.0000 </r>
       <r>   -40.3785     0.0000     1.0000 </r>
       <r>   -40.1213     0.0000     1.0000 </r>
       <r>   -39.8642     0.0000     1.0000 </r>
       <r>   -39.6071     0.0000     1.0000 </r>
       <r>   -39.3500     0.0000     1.0000 </r>
       <r>   -39.0928     0.0000     1.0000 </r>
       <r>   -38.8357     0.0000     1.0000 </r>
       <r>   -38.5786     0.0000     1.0000 </r>
       <r>   -38.3215     0.0000     1.0000 </r>
       <r>   -38.0643     0.0000     1.0000 </r>
       <r>   -37.8072     0.0000     1.0000 </r>
       <r>   -37.5501     0.0000     1.0000 </r>
       <r>   -37.2930     0.0000     1.0000 </r>
       <r>   -37.0358     0.0000     1.0000 </r>
       <r>   -36.7787     0.0000     1.0000 </r>
       <r>   -36.5216     0.0000     1.0000 </r>
       <r>   -36.2645     0.0000     1.0000 </r>
       <r>   -36.0074     0.0000     1.0000 </r>
       <r>   -35.7502     0.0000     1.0000 </r>
       <r>   -35.4931     0.0000     1.0000 </r>
       <r>   -35.2360     0.0000     1.0000 </r>
       <r>   -34.9789     0.0000     1.0000 </r>
       <r>   -34.7217     0.0000     1.0000 </r>
       <r>   -34.4646     0.0000     1.0000 </r>
       <r>   -34.2075     0.0000     1.0000 </r>
       <r>   -33.9504     0.0000     1.0000 </r>
       <r>   -33.6932     0.0000     1.0000 </r>
       <r>   -33.4361     0.0000     1.0000 </r>
       <r>   -33.1790     0.0000     1.0000 </r>
       <r>   -32.9219     0.0000     1.0000 </r>
       <r>   -32.6647     0.0000     1.0000 </r>
       <r>   -32.4076     0.0000     1.0000 </r>
       <r>   -32.1505     0.0000     1.0000 </r>
       <r>   -31.8934     0.0000     1.0000 </r>
       <r>   -31.6362     0.0000     1.0000 </r>
       <r>   -31.3791     0.0000     1.0000 </r>
       <r>   -31.1220     0.0000     1.0000 </r>
       <r>   -30.8649     0.0000     1.0000 </r>
       <r>   -30.6077     0.0000     1.0000 </r>
       <r>   -30.3506     0.0000     1.0000 </r>
       <r>   -30.0935     0.0000     1.0000 </r>
       <r>   -29.8364     0.0000     1.0000 </r>
       <r>   -29.5792     0.0000     1.0000 </r>
       <r>   -29.3221     0.0000     1.0000 </r>
       <r>   -29.0650     0.0000     1.0000 </r>
       <r>   -28.8079     0.0000     1.0000 </r>
       <r>   -28.5508     0.0000     1.0000 </r>
       <r>   -28.2936     0.0000     1.0000 </r>
       <r>   -28.0365     0.0000     1.0000 </r>
       <r>   -27.7794     0.0000     1.0000 </r>
       <r>   -27.5223     0.0000     1.0000 </r>
       <r>   -27.2651     0.0000     1.0000 </r>
       <r>   -27.0080     0.0000     1.0000 </r>
       <r>   -26.7509     0.0000     1.0000 </r>
       <r>   -26.4938     0.0000     1.0000 </r>
       <r>   -26.2366     0.0000     1.0000 </r>
       <r>   -25.9795     0.0000     1.0000 </r>
       <r>   -25.7224     0.0000     1.0000 </r>
       <r>   -25.4653     0.0000     1.0000 </r>
       <r>   -25.2081     0.0000     1.0000 </r>
       <r>   -24.9510     0.0000     1.0000 </r>
       <r>   -24.6939     0.0000     1.0000 </r>
       <r>   -24.4368     0.0000     1.0000 </r>
       <r>   -24.1796     0.0000     1.0000 </r>
       <r>   -23.9225     0.0000     1.0000 </r>
       <r>   -23.6654     0.0000     1.0000 </r>
       <r>   -23.4083     0.0000     1.0000 </r>
       <r>   -23.1511     0.0000     1.0000 </r>
       <r>   -22.8940     0.0000     1.0000 </r>
       <r>   -22.6369     0.0000     1.0000 </r>
       <r>   -22.3798     0.0000     1.0000 </r>
       <r>   -22.1226     0.0000     1.0000 </r>
       <r>   -21.8655     0.0000     1.0000 </r>
       <r>   -21.6084     0.0000     1.0000 </r>
       <r>   -21.3513     0.0000     1.0000 </r>
       <r>   -21.0941     0.0928     1.0011 </r>
       <r>   -20.8370     1.1183     1.1537 </r>
       <r>   -20.5799     3.4026     1.7695 </r>
       <r>   -20.3228     0.0000     2.0000 </r>
       <r>   -20.0657     0.0000     2.0000 </r>
       <r>   -19.8085     0.0000     2.0000 </r>
       <r>   -19.5514     0.0000     2.0000 </r>
       <r>   -19.2943     0.0000     2.0000 </r>
       <r>   -19.0372     0.0000     2.0000 </r>
       <r>   -18.7800     0.0000     2.0000 </r>
       <r>   -18.5229     0.0000     2.0000 </r>
       <r>   -18.2658     0.0000     2.0000 </r>
       <r>   -18.0087     0.0000     2.0000 </r>
       <r>   -17.7515     0.0000     2.0000 </r>
       <r>   -17.4944     0.0000     2.0000 </r>
       <r>   -17.2373     0.0000     2.0000 </r>
       <r>   -16.9802     0.0000     2.0000 </r>
       <r>   -16.7230     0.0000     2.0000 </r>
       <r>   -16.4659     0.0000     2.0000 </r>
       <r>   -16.2088     0.0000     2.0000 </r>
       <r>   -15.9517     0.0000     2.0000 </r>
       <r>   -15.6945     0.0000     2.0000 </r>
       <r>   -15.4374     0.0000     2.0000 </r>
       <r>   -15.1803     0.0000     2.0000 </r>
       <r>   -14.9232     0.0000     2.0000 </r>
       <r>   -14.6660     0.0000     2.0000 </r>
       <r>   -14.4089     0.0000     2.0000 </r>
       <r>   -14.1518     0.0000     2.0000 </r>
       <r>   -13.8947     0.0000     2.0000 </r>
       <r>   -13.6375     0.0000     2.0000 </r>
       <r>   -13.3804     0.0000     2.0000 </r>
       <r>   -13.1233     0.0000     2.0000 </r>
       <r>   -12.8662     0.0000     2.0000 </r>
       <r>   -12.6090     0.0000     2.0000 </r>
       <r>   -12.3519     0.0000     2.0000 </r>
       <r>   -12.0948     0.0000     2.0000 </r>
       <r>   -11.8377     0.0000     2.0000 </r>
       <r>   -11.5806     0.0000     2.0000 </r>
       <r>   -11.3234     0.0000     2.0000 </r>
       <r>   -11.0663     0.0000     2.0000 </r>
       <r>   -10.8092     0.0000     2.0000 </r>
       <r>   -10.5521     0.0000     2.0000 </r>
       <r>   -10.2949     0.0000     2.0000 </r>
       <r>   -10.0378     0.0000     2.0000 </r>
       <r>    -9.7807     0.0000     2.0000 </r>
       <r>    -9.5236     0.0000     2.0000 </r>
       <r>    -9.2664     0.0000     2.0000 </r>
       <r>    -9.0093     0.0000     2.0000 </r>
       <r>    -8.7522     0.0000     2.0000 </r>
       <r>    -8.4951     0.0000     2.0000 </r>
       <r>    -8.2379     0.0000     2.0000 </r>
       <r>    -7.9808     0.0000     2.0000 </r>
       <r>    -7.7237     0.0000     2.0000 </r>
       <r>    -7.4666     0.0000     2.0000 </r>
       <r>    -7.2094     0.0000     2.0000 </r>
       <r>    -6.9523     0.0000     2.0000 </r>
       <r>    -6.6952     0.0000     2.0000 </r>
       <r>    -6.4381     0.0000     2.0000 </r>
       <r>    -6.1809     0.0000     2.0000 </r>
       <r>    -5.9238     0.0000     2.0000 </r>
       <r>    -5.6667     0.0000     2.0000 </r>
       <r>    -5.4096     0.0000     2.0000 </r>
       <r>    -5.1524     0.0000     2.0000 </r>
       <r>    -4.8953     0.0000     2.0000 </r>
       <r>    -4.6382     0.0000     2.0000 </r>
       <r>    -4.3811     0.0000     2.0000 </r>
       <r>    -4.1239     0.0000     2.0000 </r>
       <r>    -3.8668     0.1889     2.0180 </r>
       <r>    -3.6097     0.4914     2.0990 </r>
       <r>    -3.3526     1.1198     2.5311 </r>
       <r>    -3.0955     0.5665     2.7398 </r>
       <r>    -2.8383     0.7235     2.8825 </r>
       <r>    -2.5812     0.9535     3.1169 </r>
       <r>    -2.3241     0.9219     3.3614 </r>
       <r>    -2.0670     1.4322     3.6119 </r>
       <r>    -1.8098     2.1516     4.1170 </r>
       <r>    -1.5527     2.2130     4.6730 </r>
       <r>    -1.2956     0.1713     4.9985 </r>
       <r>    -1.0385     0.0000     5.0000 </r>
       <r>    -0.7813     0.0000     5.0000 </r>
       <r>    -0.5242     0.0000     5.0000 </r>
       <r>    -0.2671     0.0000     5.0000 </r>
       <r>    -0.0100     0.0000     5.0000 </r>
       <r>     0.2472     0.0000     5.0000 </r>
       <r>     0.5043     0.0000     5.0000 </r>
       <r>     0.7614     0.0000     5.0000 </r>
       <r>     1.0185     0.0000     5.0000 </r>
       <r>     1.2757     0.0000     5.0000 </r>
       <r>     1.5328     0.0000     5.0000 </r>
       <r>     1.7899     0.0000     5.0000 </r>
       <r>     2.0470     0.0000     5.0000 </r>
       <r>     2.3042     0.0000     5.0000 </r>
       <r>     2.5613     0.0000     5.0000 </r>
       <r>     2.8184     0.0000     5.0000 </r>
       <r>     3.0755     0.0000     5.0000 </r>
       <r>     3.3327     0.0000     5.0000 </r>
       <r>     3.5898     0.0000     5.0000 </r>
       <r>     3.8469     0.0000     5.0000 </r>
       <r>     4.1040     0.0000     5.0000 </r>
       <r>     4.3612     0.0000     5.0000 </r>
       <r>     4.6183     0.0000     5.0000 </r>
       <r>     4.8754     0.0000     5.0000 </r>
       <r>     5.1325     0.0000     5.0000 </r>
       <r>     5.3896     0.0000     5.0000 </r>
       <r>     5.6468     0.0000     5.0000 </r>
       <r>     5.9039     0.0000     5.0000 </r>
       <r>     6.1610     0.0000     5.0000 </r>
       <r>     6.4181     0.0000     5.0000 </r>
       <r>     6.6753     0.0000     5.0000 </r>
       <r>     6.9324     0.0000     5.0000 </r>
       <r>     7.1895     0.0000     5.0000 </r>
       <r>     7.4466     0.0000     5.0000 </r>
       <r>     7.7038     0.0083     5.0007 </r>
       <r>     7.9609     0.0347     5.0058 </r>
       <r>     8.2180     0.0501     5.0172 </r>
       <r>     8.4751     0.0677     5.0322 </r>
       <r>     8.7323     0.0894     5.0524 </r>
       <r>     8.9894     0.1130     5.0784 </r>
       <r>     9.2465     0.1552     5.1122 </r>
       <r>     9.5036     0.2324     5.1621 </r>
       <r>     9.7608     0.2870     5.2295 </r>
       <r>    10.0179     0.2890     5.3049 </r>
       <r>    10.2750     0.2498     5.3709 </r>
       <r>    10.5321     0.2490     5.4350 </r>
       <r>    10.7893     0.2472     5.4988 </r>
       <r>    11.0464     0.2440     5.5620 </r>
       <r>    11.3035     0.2226     5.6231 </r>
       <r>    11.5606     0.2233     5.6804 </r>
       <r>    11.8178     0.2215     5.7377 </r>
       <r>    12.0749     0.2114     5.7937 </r>
       <r>    12.3320     0.1962     5.8461 </r>
       <r>    12.5891     0.1794     5.8944 </r>
       <r>    12.8463     0.2811     5.9528 </r>
       <r>    13.1034     0.0448     5.9981 </r>
       <r>    13.3605     0.0000     6.0000 </r>
       <r>    13.6176     0.2708     6.0340 </r>
       <r>    13.8747     0.5417     6.1517 </r>
       <r>    14.1319     0.7265     6.2919 </r>
       <r>    14.3890     0.4943     6.4188 </r>
       <r>    14.6461     0.5345     6.5498 </r>
       <r>    14.9032     0.3497     6.6791 </r>
       <r>    15.1604     0.1988     6.7418 </r>
       <r>    15.4175     0.1647     6.7882 </r>
       <r>    15.6746     0.1389     6.8271 </r>
       <r>    15.9317     0.1194     6.8602 </r>
       <r>    16.1889     0.3304     6.9333 </r>
       <r>    16.4460     0.3506     7.0371 </r>
       <r>    16.7031     0.3781     7.1297 </r>
       <r>    16.9602     0.4487     7.2342 </r>
       <r>    17.2174     0.6722     7.3736 </r>
       <r>    17.4745     0.8890     7.6050 </r>
       <r>    17.7316     1.4843     8.0572 </r>
       <r>    17.9887     0.9539     8.3470 </r>
       <r>    18.2459     0.7142     8.5541 </r>
       <r>    18.5030     0.4458     8.7120 </r>
       <r>    18.7601     0.2576     8.7986 </r>
       <r>    19.0172     0.1951     8.8543 </r>
       <r>    19.2744     0.1685     8.9007 </r>
       <r>    19.5315     0.1558     8.9423 </r>
       <r>    19.7886     0.1471     8.9811 </r>
       <r>    20.0457     0.1372     9.0178 </r>
       <r>    20.3029     0.1195     9.0510 </r>
       <r>    20.5600     0.1134     9.0805 </r>
       <r>    20.8171     0.1125     9.1095 </r>
       <r>    21.0742     0.1126     9.1384 </r>
       <r>    21.3313     0.1137     9.1675 </r>
       <r>    21.5885     0.1162     9.1970 </r>
       <r>    21.8456     0.1210     9.2274 </r>
       <r>    22.1027     0.1276     9.2594 </r>
       <r>    22.3598     0.1357     9.2932 </r>
       <r>    22.6170     0.1448     9.3292 </r>
       <r>    22.8741     0.1550     9.3678 </r>
       <r>    23.1312     0.1676     9.4092 </r>
       <r>    23.3883     0.1825     9.4541 </r>
       <r>    23.6455     0.1999     9.5032 </r>
       <r>    23.9026     0.2196     9.5571 </r>
       <r>    24.1597     0.2271     9.6183 </r>
       <r>    24.4168     0.2276     9.6781 </r>
       <r>    24.6740     0.1801     9.7304 </r>
       <r>    24.9311     0.1650     9.7747 </r>
       <r>    25.1882     0.1523     9.8155 </r>
       <r>    25.4453     0.1421     9.8533 </r>
       <r>    25.7025     0.1343     9.8888 </r>
       <r>    25.9596     0.1178     9.9215 </r>
       <r>    26.2167     0.0850     9.9480 </r>
       <r>    26.4738     0.0527     9.9653 </r>
       <r>    26.7310     0.0386     9.9765 </r>
       <r>    26.9881     0.0320     9.9856 </r>
       <r>    27.2452     0.0238     9.9928 </r>
       <r>    27.5023     0.0141     9.9977 </r>
       <r>    27.7595     0.0028     9.9999 </r>
       <r>    28.0166     0.0000    10.0000 </r>
       <r>    28.2737     0.0000    10.0000 </r>
       <r>    28.5308     0.0000    10.0000 </r>
       <r>    28.7880     0.0000    10.0000 </r>
       <r>    29.0451     0.0000    10.0000 </r>
       <r>    29.3022     0.0000    10.0000 </r>
       <r>    29.5593     0.0000    10.0000 </r>
       <r>    29.8164     0.0000    10.0000 </r>
       <r>    30.0736     0.0000    10.0000 </r>
       <r>    30.3307     0.0000    10.0000 </r>
       <r>    30.5878     0.0000    10.0000 </r>
       <r>    30.8449     0.0000    10.0000 </r>
       <r>    31.1021     0.0000    10.0000 </r>
       <r>    31.3592     0.0000    10.0000 </r>
      </set>
     </set>
    </array>
   </total>
   <partial>
    <array>
     <dimension dim="1">gridpoints</dimension>
     <dimension dim="2">spin</dimension>
     <dimension dim="3">ion</dimension>
     <field>energy</field>
     <field>    s</field>
     <field>   py</field>
     <field>   pz</field>
     <field>   px</field>
     <field>  dxy</field>
     <field>  dyz</field>
     <field>  dz2</field>
     <field>  dxz</field>
     <field>x2-y2</field>
     <set>
      <set comment="ion 1">
       <set comment="spin 1">
        <r>   -45.7781     0.0000     0.0000     0.0000     0.0000     0.0000     0.0000     0.0000     0.0000     0.0000 </r>
        <r>   -45.5209     0.0000     0.0000     0.0000     0.0000     0.0000     0.0000     0.0000     0.0000     0.0000 </r>
        <r>   -45.2638     0.0000     0.0000     0.0000     0.0000     0.0000     0.0000     0.0000     0.0000     0.0000 </r>
        <r>   -45.0067     0.0000     0.0000     0.0000     0.0000     0.0000     0.0000     0.0000     0.0000     0.0000 </r>
        <r>   -44.7496     0.0000     0.0000     0.0000     0.0000     0.0000     0.0000     0.0000     0.0000     0.0000 </r>
        <r>   -44.4925     0.0000     0.0000     0.0000     0.0000     0.0000     0.0000     0.0000     0.0000     0.0000 </r>
        <r>   -44.2353     0.0000     0.0000     0.0000     0.0000     0.0000     0.0000     0.0000     0.0000     0.0000 </r>
        <r>   -43.9782     0.0000     0.0000     0.0000     0.0000     0.0000     0.0000     0.0000     0.0000     0.0000 </r>
        <r>   -43.7211     0.0000     0.0000     0.0000     0.0000     0.0000     0.0000     0.0000     0.0000     0.0000 </r>
        <r>   -43.4640     0.0000     0.0000     0.0000     0.0000     0.0000     0.0000     0.0000     0.0000     0.0000 </r>
        <r>   -43.2068     0.0000     0.0000     0.0000     0.0000     0.0000     0.0000     0.0000     0.0000     0.0000 </r>
        <r>   -42.9497     0.0000     0.0000     0.0000     0.0000     0.0000     0.0000     0.0000     0.0000     0.0000 </r>
        <r>   -42.6926     0.0000     0.0000     0.0000     0.0000     0.0000     0.0000     0.0000     0.0000     0.0000 </r>
        <r>   -42.4355     0.0000     0.0000     0.0000     0.0000     0.0000     0.0000     0.0000     0.0000     0.0000 </r>
        <r>   -42.1783     0.0000     0.0000     0.0000     0.0000     0.0000     0.0000     0.0000     0.0000     0.0000 </r>
        <r>   -41.9212     0.0000     0.0000     0.0000     0.0000     0.0000     0.0000     0.0000     0.0000     0.0000 </r>
        <r>   -41.6641     0.0000     0.0000     0.0000     0.0000     0.0000     0.0000     0.0000     0.0000     0.0000 </r>
        <r>   -41.4070     0.0000     0.0000     0.0000     0.0000     0.0000     0.0000     0.0000     0.0000     0.0000 </r>
        <r>   -41.1498     0.0000     0.0000     0.0000     0.0000     0.0000     0.0000     0.0000     0.0000     0.0000 </r>
        <r>   -40.8927     0.0000     0.0000     0.0000     0.0000     0.0000     0.0000     0.0000     0.0000     0.0000 </r>
        <r>   -40.6356     0.0000     0.0000     0.0000     0.0000     0.0000     0.0000     0.0000     0.0000     0.0000 </r>
        <r>   -40.3785     0.0000     0.0000     0.0000     0.0000     0.0000     0.0000     0.0000     0.0000     0.0000 </r>
        <r>   -40.1213     0.0000     0.0000     0.0000     0.0000     0.0000     0.0000     0.0000     0.0000     0.0000 </r>
        <r>   -39.8642     0.0000     0.0000     0.0000     0.0000     0.0000     0.0000     0.0000     0.0000     0.0000 </r>
        <r>   -39.6071     0.0000     0.0000     0.0000     0.0000     0.0000     0.0000     0.0000     0.0000     0.0000 </r>
        <r>   -39.3500     0.0000     0.0000     0.0000     0.0000     0.0000     0.0000     0.0000     0.0000     0.0000 </r>
        <r>   -39.0928     0.0000     0.0000     0.0000     0.0000     0.0000     0.0000     0.0000     0.0000     0.0000 </r>
        <r>   -38.8357     0.0000     0.0000     0.0000     0.0000     0.0000     0.0000     0.0000     0.0000     0.0000 </r>
        <r>   -38.5786     0.0000     0.0000     0.0000     0.0000     0.0000     0.0000     0.0000     0.0000     0.0000 </r>
        <r>   -38.3215     0.0000     0.0000     0.0000     0.0000     0.0000     0.0000     0.0000     0.0000     0.0000 </r>
        <r>   -38.0643     0.0000     0.0000     0.0000     0.0000     0.0000     0.0000     0.0000     0.0000     0.0000 </r>
        <r>   -37.8072     0.0000     0.0000     0.0000     0.0000     0.0000     0.0000     0.0000     0.0000     0.0000 </r>
        <r>   -37.5501     0.0000     0.0000     0.0000     0.0000     0.0000     0.0000     0.0000     0.0000     0.0000 </r>
        <r>   -37.2930     0.0000     0.0000     0.0000     0.0000     0.0000     0.0000     0.0000     0.0000     0.0000 </r>
        <r>   -37.0358     0.0000     0.0000     0.0000     0.0000     0.0000     0.0000     0.0000     0.0000     0.0000 </r>
        <r>   -36.7787     0.0000     0.0000     0.0000     0.0000     0.0000     0.0000     0.0000     0.0000     0.0000 </r>
        <r>   -36.5216     0.0000     0.0000     0.0000     0.0000     0.0000     0.0000     0.0000     0.0000     0.0000 </r>
        <r>   -36.2645     0.0000     0.0000     0.0000     0.0000     0.0000     0.0000     0.0000     0.0000     0.0000 </r>
        <r>   -36.0074     0.0000     0.0000     0.0000     0.0000     0.0000     0.0000     0.0000     0.0000     0.0000 </r>
[...]
        <r>  0.0533  0.0000  0.2166  0.0000  0.0000  0.0000  0.0000  0.0000  0.0000 </r>
       </set>
       <set comment="band 7">
        <r>  0.0027  0.0613  0.0140  0.0613  0.0000  0.0000  0.0000  0.0000  0.0000 </r>
        <r>  0.0005  0.0424  0.0197  0.0424  0.0000  0.0000  0.0000  0.0000  0.0000 </r>
       </set>
       <set comment="band 8">
        <r>  0.2040  0.0082  0.1962  0.0082  0.0000  0.0000  0.0000  0.0000  0.0000 </r>
        <r>  0.0123  0.0077  0.0138  0.0077  0.0000  0.0000  0.0000  0.0000  0.0000 </r>
       </set>
       <set comment="band 9">
        <r>  0.0000  0.2970  0.0000  0.2970  0.0000  0.0000  0.0000  0.0000  0.0000 </r>
        <r>  0.0000  0.0615  0.0000  0.0615  0.0000  0.0000  0.0000  0.0000  0.0000 </r>
       </set>
       <set comment="band 10">
        <r>  0.0232  0.1964  0.0000  0.1964  0.0000  0.0000  0.0000  0.0000  0.0000 </r>
        <r>  0.0040  0.0324  0.0089  0.0324  0.0000  0.0000  0.0000  0.0000  0.0000 </r>
       </set>
      </set>
      <set comment="kpoint 13">
       <set comment="band 1">
        <r>  0.9895  0.0000  0.0000  0.0000  0.0000  0.0000  0.0000  0.0000  0.0000 </r>
        <r>  0.0000  0.0000  0.0000  0.0000  0.0000  0.0000  0.0000  0.0000  0.0000 </r>
       </set>
       <set comment="band 2">
        <r>  0.0001  0.0002  0.0001  0.0002  0.0000  0.0000  0.0000  0.0000  0.0000 </r>
        <r>  0.8676  0.0000  0.0000  0.0000  0.0000  0.0000  0.0000  0.0000  0.0000 </r>
       </set>
       <set comment="band 3">
        <r>  0.0074  0.0004  0.0134  0.0004  0.0000  0.0000  0.0000  0.0000  0.0000 </r>
        <r>  0.0003  0.0566  0.5311  0.0566  0.0000  0.0000  0.0000  0.0000  0.0000 </r>
       </set>
       <set comment="band 4">
        <r>  0.0072  0.0028  0.0033  0.0028  0.0000  0.0000  0.0000  0.0000  0.0000 </r>
        <r>  0.0011  0.2931  0.1214  0.2931  0.0000  0.0000  0.0000  0.0000  0.0000 </r>
       </set>
       <set comment="band 5">
        <r>  0.0000  0.0032  0.0000  0.0032  0.0000  0.0000  0.0000  0.0000  0.0000 </r>
        <r>  0.0000  0.3903  0.0000  0.3903  0.0000  0.0000  0.0000  0.0000  0.0000 </r>
       </set>
       <set comment="band 6">
        <r>  0.0027  0.0703  0.0635  0.0703  0.0000  0.0000  0.0000  0.0000  0.0000 </r>
        <r>  0.0424  0.0209  0.0936  0.0209  0.0000  0.0000  0.0000  0.0000  0.0000 </r>
       </set>
       <set comment="band 7">
        <r>  0.0079  0.0341  0.1223  0.0341  0.0000  0.0000  0.0000  0.0000  0.0000 </r>
        <r>  0.0014  0.0382  0.1669  0.0382  0.0000  0.0000  0.0000  0.0000  0.0000 </r>
       </set>
       <set comment="band 8">
        <r>  0.2515  0.0203  0.0532  0.0203  0.0000  0.0000  0.0000  0.0000  0.0000 </r>
        <r>  0.0105  0.0427  0.0023  0.0427  0.0000  0.0000  0.0000  0.0000  0.0000 </r>
       </set>
       <set comment="band 9">
        <r>  0.0000  0.3064  0.0000  0.3064  0.0000  0.0000  0.0000  0.0000  0.0000 </r>
        <r>  0.0000  0.0450  0.0000  0.0450  0.0000  0.0000  0.0000  0.0000  0.0000 </r>
       </set>
       <set comment="band 10">
        <r>  0.0460  0.1076  0.0000  0.1076  0.0000  0.0000  0.0000  0.0000  0.0000 </r>
        <r>  0.0266  0.0041  0.0070  0.0041  0.0000  0.0000  0.0000  0.0000  0.0000 </r>
       </set>
      </set>
      <set comment="kpoint 14">
       <set comment="band 1">
        <r>  0.9891  0.0000  0.0000  0.0000  0.0000  0.0000  0.0000  0.0000  0.0000 </r>
        <r>  0.0000  0.0001  0.0000  0.0001  0.0000  0.0000  0.0000  0.0000  0.0000 </r>
       </set>
       <set comment="band 2">
        <r>  0.0004  0.0004  0.0000  0.0004  0.0000  0.0000  0.0000  0.0000  0.0000 </r>
        <r>  0.8623  0.0000  0.0000  0.0000  0.0000  0.0000  0.0000  0.0000  0.0000 </r>
       </set>
       <set comment="band 3">
        <r>  0.0203  0.0013  0.0000  0.0013  0.0000  0.0000  0.0000  0.0000  0.0000 </r>
        <r>  0.0031  0.3374  0.0000  0.3374  0.0000  0.0000  0.0000  0.0000  0.0000 </r>
       </set>
       <set comment="band 4">
        <r>  0.0000  0.0000  0.0155  0.0000  0.0000  0.0000  0.0000  0.0000  0.0000 </r>
        <r>  0.0000  0.0000  0.6916  0.0000  0.0000  0.0000  0.0000  0.0000  0.0000 </r>
       </set>
       <set comment="band 5">
        <r>  0.0000  0.0011  0.0000  0.0011  0.0000  0.0000  0.0000  0.0000  0.0000 </r>
        <r>  0.0000  0.4005  0.0000  0.4005  0.0000  0.0000  0.0000  0.0000  0.0000 </r>
       </set>
       <set comment="band 6">
        <r>  0.0127  0.0964  0.0000  0.0964  0.0000  0.0000  0.0000  0.0000  0.0000 </r>
        <r>  0.0618  0.0592  0.0000  0.0592  0.0000  0.0000  0.0000  0.0000  0.0000 </r>
       </set>
       <set comment="band 7">
        <r>  0.0000  0.0000  0.2030  0.0000  0.0000  0.0000  0.0000  0.0000  0.0000 </r>
        <r>  0.0000  0.0000  0.2155  0.0000  0.0000  0.0000  0.0000  0.0000  0.0000 </r>
       </set>
       <set comment="band 8">
        <r>  0.2421  0.0598  0.0000  0.0598  0.0000  0.0000  0.0000  0.0000  0.0000 </r>
        <r>  0.0024  0.0598  0.0000  0.0598  0.0000  0.0000  0.0000  0.0000  0.0000 </r>
       </set>
       <set comment="band 9">
        <r>  0.0000  0.3222  0.0000  0.3222  0.0000  0.0000  0.0000  0.0000  0.0000 </r>
        <r>  0.0000  0.0220  0.0000  0.0220  0.0000  0.0000  0.0000  0.0000  0.0000 </r>
       </set>
       <set comment="band 10">
        <r>  0.0456  0.0381  0.0000  0.0381  0.0000  0.0000  0.0000  0.0000  0.0000 </r>
        <r>  0.0473  0.0064  0.0000  0.0064  0.0000  0.0000  0.0000  0.0000  0.0000 </r>
       </set>
      </set>
      <set comment="kpoint 15">
       <set comment="band 1">
        <r>  0.9894  0.0000  0.0000  0.0000  0.0000  0.0000  0.0000  0.0000  0.0000 </r>
        <r>  0.0001  0.0000  0.0000  0.0000  0.0000  0.0000  0.0000  0.0000  0.0000 </r>
       </set>
       <set comment="band 2">
        <r>  0.0014  0.0000  0.0001  0.0000  0.0000  0.0000  0.0000  0.0000  0.0000 </r>
        <r>  0.8699  0.0000  0.0001  0.0000  0.0000  0.0000  0.0000  0.0000  0.0000 </r>
       </set>
       <set comment="band 3">
        <r>  0.0021  0.0000  0.0197  0.0000  0.0000  0.0000  0.0000  0.0000  0.0000 </r>
        <r>  0.0018  0.0000  0.6105  0.0000  0.0000  0.0000  0.0000  0.0000  0.0000 </r>
       </set>
       <set comment="band 4">
        <r>  0.0000  0.0061  0.0000  0.0061  0.0000  0.0000  0.0000  0.0000  0.0000 </r>
        <r>  0.0000  0.3780  0.0000  0.3780  0.0000  0.0000  0.0000  0.0000  0.0000 </r>
       </set>
       <set comment="band 5">
        <r>  0.0000  0.0061  0.0000  0.0061  0.0000  0.0000  0.0000  0.0000  0.0000 </r>
        <r>  0.0000  0.3780  0.0000  0.3780  0.0000  0.0000  0.0000  0.0000  0.0000 </r>
       </set>
       <set comment="band 6">
        <r>  0.0300  0.0000  0.1632  0.0000  0.0000  0.0000  0.0000  0.0000  0.0000 </r>
        <r>  0.0205  0.0000  0.3049  0.0000  0.0000  0.0000  0.0000  0.0000  0.0000 </r>
       </set>
       <set comment="band 7">
        <r>  0.0000  0.0000  0.0000  0.0000  0.0000  0.0000  0.0000  0.0000  0.0000 </r>
        <r>  0.0000  0.0000  0.0000  0.0000  0.0000  0.0000  0.0000  0.0000  0.0000 </r>
       </set>
       <set comment="band 8">
        <r>  0.2651  0.0000  0.0738  0.0000  0.0000  0.0000  0.0000  0.0000  0.0000 </r>
        <r>  0.0321  0.0000  0.0186  0.0000  0.0000  0.0000  0.0000  0.0000  0.0000 </r>
       </set>
       <set comment="band 9">
        <r>  0.0000  0.5406  0.0000  0.0523  0.0000  0.0000  0.0000  0.0000  0.0000 </r>
        <r>  0.0000  0.1493  0.0000  0.0144  0.0000  0.0000  0.0000  0.0000  0.0000 </r>
       </set>
       <set comment="band 10">
        <r>  0.0000  0.0523  0.0000  0.5407  0.0000  0.0000  0.0000  0.0000  0.0000 </r>
        <r>  0.0000  0.0144  0.0000  0.1493  0.0000  0.0000  0.0000  0.0000  0.0000 </r>
       </set>
      </set>
      <set comment="kpoint 16">
       <set comment="band 1">
        <r>  0.9896  0.0000  0.0000  0.0000  0.0000  0.0000  0.0000  0.0000  0.0000 </r>
        <r>  0.0001  0.0000  0.0000  0.0000  0.0000  0.0000  0.0000  0.0000  0.0000 </r>
       </set>
       <set comment="band 2">
        <r>  0.0007  0.0001  0.0000  0.0001  0.0000  0.0000  0.0000  0.0000  0.0000 </r>
        <r>  0.8725  0.0000  0.0000  0.0000  0.0000  0.0000  0.0000  0.0000  0.0000 </r>
       </set>
       <set comment="band 3">
        <r>  0.0000  0.0000  0.0213  0.0000  0.0000  0.0000  0.0000  0.0000  0.0000 </r>
        <r>  0.0000  0.0000  0.6134  0.0000  0.0000  0.0000  0.0000  0.0000  0.0000 </r>
       </set>
       <set comment="band 4">
        <r>  0.0041  0.0054  0.0000  0.0054  0.0000  0.0000  0.0000  0.0000  0.0000 </r>
        <r>  0.0001  0.3663  0.0000  0.3663  0.0000  0.0000  0.0000  0.0000  0.0000 </r>
       </set>
       <set comment="band 5">
        <r>  0.0000  0.0055  0.0000  0.0055  0.0000  0.0000  0.0000  0.0000  0.0000 </r>
        <r>  0.0000  0.3798  0.0000  0.3798  0.0000  0.0000  0.0000  0.0000  0.0000 </r>
       </set>
       <set comment="band 6">
        <r>  0.0000  0.0000  0.2069  0.0000  0.0000  0.0000  0.0000  0.0000  0.0000 </r>
        <r>  0.0000  0.0000  0.3287  0.0000  0.0000  0.0000  0.0000  0.0000  0.0000 </r>
       </set>
       <set comment="band 7">
        <r>  0.0092  0.0714  0.0000  0.0714  0.0000  0.0000  0.0000  0.0000  0.0000 </r>
        <r>  0.0138  0.0357  0.0000  0.0357  0.0000  0.0000  0.0000  0.0000  0.0000 </r>
       </set>
       <set comment="band 8">
        <r>  0.2664  0.0070  0.0000  0.0070  0.0000  0.0000  0.0000  0.0000  0.0000 </r>
        <r>  0.0349  0.0142  0.0000  0.0142  0.0000  0.0000  0.0000  0.0000  0.0000 </r>
       </set>
       <set comment="band 9">
        <r>  0.0000  0.3000  0.0000  0.3000  0.0000  0.0000  0.0000  0.0000  0.0000 </r>
        <r>  0.0000  0.0741  0.0000  0.0741  0.0000  0.0000  0.0000  0.0000  0.0000 </r>
       </set>
       <set comment="band 10">
        <r>  0.0385  0.1952  0.0000  0.1952  0.0000  0.0000  0.0000  0.0000  0.0000 </r>
        <r>  0.0066  0.0431  0.0000  0.0431  0.0000  0.0000  0.0000  0.0000  0.0000 </r>
       </set>
      </set>
      <set comment="kpoint 17">
       <set comment="band 1">
        <r>  0.9884  0.0000  0.0000  0.0000  0.0000  0.0000  0.0000  0.0000  0.0000 </r>
        <r>  0.0002  0.0000  0.0001  0.0000  0.0000  0.0000  0.0000  0.0000  0.0000 </r>
       </set>
       <set comment="band 2">
        <r>  0.0025  0.0002  0.0004  0.0000  0.0000  0.0000  0.0000  0.0000  0.0000 </r>
        <r>  0.8539  0.0000  0.0002  0.0000  0.0000  0.0000  0.0000  0.0000  0.0000 </r>
       </set>
       <set comment="band 3">
        <r>  0.0175  0.0003  0.0039  0.0000  0.0000  0.0000  0.0000  0.0000  0.0000 </r>
        <r>  0.0067  0.1409  0.5291  0.0000  0.0000  0.0000  0.0000  0.0000  0.0000 </r>
       </set>
       <set comment="band 4">
        <r>  0.0000  0.0000  0.0000  0.0116  0.0000  0.0000  0.0000  0.0000  0.0000 </r>
        <r>  0.0000  0.0000  0.0000  0.7490  0.0000  0.0000  0.0000  0.0000  0.0000 </r>
       </set>
       <set comment="band 5">
        <r>  0.0006  0.0026  0.0011  0.0000  0.0000  0.0000  0.0000  0.0000  0.0000 </r>
        <r>  0.0002  0.6341  0.1635  0.0000  0.0000  0.0000  0.0000  0.0000  0.0000 </r>
       </set>
       <set comment="band 6">
        <r>  0.0528  0.0392  0.0854  0.0000  0.0000  0.0000  0.0000  0.0000  0.0000 </r>
        <r>  0.0780  0.0100  0.1457  0.0000  0.0000  0.0000  0.0000  0.0000  0.0000 </r>
       </set>
       <set comment="band 7">
        <r>  0.0000  0.0000  0.0000  0.1862  0.0000  0.0000  0.0000  0.0000  0.0000 </r>
        <r>  0.0000  0.0000  0.0000  0.1225  0.0000  0.0000  0.0000  0.0000  0.0000 </r>
       </set>
       <set comment="band 8">
        <r>  0.1301  0.0497  0.3536  0.0000  0.0000  0.0000  0.0000  0.0000  0.0000 </r>
        <r>  0.0032  0.0158  0.0033  0.0000  0.0000  0.0000  0.0000  0.0000  0.0000 </r>
       </set>
       <set comment="band 9">
        <r>  0.0553  0.4753  0.0013  0.0000  0.0000  0.0000  0.0000  0.0000  0.0000 </r>
        <r>  0.0019  0.0736  0.0331  0.0000  0.0000  0.0000  0.0000  0.0000  0.0000 </r>
       </set>
       <set comment="band 10">
        <r>  0.0000  0.0000  0.0000  0.4078  0.0000  0.0000  0.0000  0.0000  0.0000 </r>
        <r>  0.0000  0.0000  0.0000  0.0322  0.0000  0.0000  0.0000  0.0000  0.0000 </r>
       </set>
      </set>
      <set comment="kpoint 18">
       <set comment="band 1">
        <r>  0.9892  0.0000  0.0000  0.0000  0.0000  0.0000  0.0000  0.0000  0.0000 </r>
        <r>  0.0000  0.0001  0.0000  0.0000  0.0000  0.0000  0.0000  0.0000  0.0000 </r>
       </set>
       <set comment="band 2">
        <r>  0.0003  0.0004  0.0002  0.0001  0.0000  0.0000  0.0000  0.0000  0.0000 </r>
        <r>  0.8639  0.0000  0.0001  0.0000  0.0000  0.0000  0.0000  0.0000  0.0000 </r>
       </set>
       <set comment="band 3">
        <r>  0.0157  0.0000  0.0056  0.0022  0.0000  0.0000  0.0000  0.0000  0.0000 </r>
        <r>  0.0013  0.1291  0.3926  0.1332  0.0000  0.0000  0.0000  0.0000  0.0000 </r>
       </set>
       <set comment="band 4">
        <r>  0.0000  0.0000  0.0027  0.0101  0.0000  0.0000  0.0000  0.0000  0.0000 </r>
        <r>  0.0013  0.0001  0.1740  0.5391  0.0000  0.0000  0.0000  0.0000  0.0000 </r>
       </set>
       <set comment="band 5">
        <r>  0.0027  0.0003  0.0017  0.0006  0.0000  0.0000  0.0000  0.0000  0.0000 </r>
        <r>  0.0000  0.6354  0.1191  0.0343  0.0000  0.0000  0.0000  0.0000  0.0000 </r>
       </set>
       <set comment="band 6">
        <r>  0.0090  0.0731  0.0923  0.0282  0.0000  0.0000  0.0000  0.0000  0.0000 </r>
        <r>  0.0549  0.0034  0.1115  0.0171  0.0000  0.0000  0.0000  0.0000  0.0000 </r>
       </set>
       <set comment="band 7">
        <r>  0.0147  0.0007  0.0331  0.1411  0.0000  0.0000  0.0000  0.0000  0.0000 </r>
        <r>  0.0000  0.0175  0.0531  0.1554  0.0000  0.0000  0.0000  0.0000  0.0000 </r>
       </set>
       <set comment="band 8">
        <r>  0.0557  0.2908  0.1933  0.0046  0.0000  0.0000  0.0000  0.0000  0.0000 </r>
        <r>  0.0087  0.0084  0.0244  0.0138  0.0000  0.0000  0.0000  0.0000  0.0000 </r>
       </set>
       <set comment="band 9">
        <r>  0.1834  0.1521  0.0195  0.0739  0.0000  0.0000  0.0000  0.0000  0.0000 </r>
        <r>  0.0017  0.0797  0.0210  0.0020  0.0000  0.0000  0.0000  0.0000  0.0000 </r>
       </set>
       <set comment="band 10">
        <r>  0.0100  0.0052  0.0011  0.3402  0.0000  0.0000  0.0000  0.0000  0.0000 </r>
        <r>  0.0121  0.0000  0.0079  0.0103  0.0000  0.0000  0.0000  0.0000  0.0000 </r>
       </set>
      </set>
      <set comment="kpoint 19">
       <set comment="band 1">
        <r>  0.9895  0.0000  0.0000  0.0000  0.0000  0.0000  0.0000  0.0000  0.0000 </r>
        <r>  0.0001  0.0000  0.0000  0.0000  0.0000  0.0000  0.0000  0.0000  0.0000 </r>
       </set>
       <set comment="band 2">
        <r>  0.0006  0.0002  0.0001  0.0000  0.0000  0.0000  0.0000  0.0000  0.0000 </r>
        <r>  0.8697  0.0000  0.0000  0.0000  0.0000  0.0000  0.0000  0.0000  0.0000 </r>
       </set>
       <set comment="band 3">
        <r>  0.0031  0.0000  0.0177  0.0000  0.0000  0.0000  0.0000  0.0000  0.0000 </r>
        <r>  0.0013  0.0137  0.6160  0.0000  0.0000  0.0000  0.0000  0.0000  0.0000 </r>
       </set>
       <set comment="band 4">
        <r>  0.0000  0.0000  0.0000  0.0143  0.0000  0.0000  0.0000  0.0000  0.0000 </r>
        <r>  0.0000  0.0000  0.0000  0.7195  0.0000  0.0000  0.0000  0.0000  0.0000 </r>
       </set>
       <set comment="band 5">
        <r>  0.0057  0.0047  0.0005  0.0000  0.0000  0.0000  0.0000  0.0000  0.0000 </r>
        <r>  0.0000  0.7501  0.0159  0.0000  0.0000  0.0000  0.0000  0.0000  0.0000 </r>
       </set>
       <set comment="band 6">
        <r>  0.0176  0.0252  0.1581  0.0000  0.0000  0.0000  0.0000  0.0000  0.0000 </r>
        <r>  0.0227  0.0005  0.2629  0.0000  0.0000  0.0000  0.0000  0.0000  0.0000 </r>
       </set>
       <set comment="band 7">
        <r>  0.0000  0.0000  0.0000  0.1497  0.0000  0.0000  0.0000  0.0000  0.0000 </r>
        <r>  0.0000  0.0000  0.0000  0.1432  0.0000  0.0000  0.0000  0.0000  0.0000 </r>
       </set>
       <set comment="band 8">
        <r>  0.1406  0.2027  0.0758  0.0000  0.0000  0.0000  0.0000  0.0000  0.0000 </r>
        <r>  0.0347  0.0005  0.0266  0.0000  0.0000  0.0000  0.0000  0.0000  0.0000 </r>
       </set>
       <set comment="band 9">
        <r>  0.1504  0.3043  0.0025  0.0000  0.0000  0.0000  0.0000  0.0000  0.0000 </r>
        <r>  0.0027  0.1253  0.0057  0.0000  0.0000  0.0000  0.0000  0.0000  0.0000 </r>
       </set>
       <set comment="band 10">
        <r>  0.0000  0.0000  0.0000  0.4559  0.0000  0.0000  0.0000  0.0000  0.0000 </r>
        <r>  0.0000  0.0000  0.0000  0.0614  0.0000  0.0000  0.0000  0.0000  0.0000 </r>
       </set>
      </set>
      <set comment="kpoint 20">
       <set comment="band 1">
        <r>  0.9896  0.0000  0.0000  0.0000  0.0000  0.0000  0.0000  0.0000  0.0000 </r>
        <r>  0.0000  0.0001  0.0000  0.0000  0.0000  0.0000  0.0000  0.0000  0.0000 </r>
       </set>
       <set comment="band 2">
        <r>  0.0000  0.0004  0.0000  0.0001  0.0000  0.0000  0.0000  0.0000  0.0000 </r>
        <r>  0.8705  0.0000  0.0000  0.0000  0.0000  0.0000  0.0000  0.0000  0.0000 </r>
       </set>
       <set comment="band 3">
        <r>  0.0000  0.0000  0.0184  0.0000  0.0000  0.0000  0.0000  0.0000  0.0000 </r>
        <r>  0.0000  0.0000  0.6540  0.0000  0.0000  0.0000  0.0000  0.0000  0.0000 </r>
       </set>
       <set comment="band 4">
        <r>  0.0055  0.0001  0.0000  0.0127  0.0000  0.0000  0.0000  0.0000  0.0000 </r>
        <r>  0.0005  0.0706  0.0000  0.6100  0.0000  0.0000  0.0000  0.0000  0.0000 </r>
       </set>
       <set comment="band 5">
        <r>  0.0071  0.0007  0.0000  0.0016  0.0000  0.0000  0.0000  0.0000  0.0000 </r>
        <r>  0.0000  0.6934  0.0000  0.0791  0.0000  0.0000  0.0000  0.0000  0.0000 </r>
       </set>
       <set comment="band 6">
        <r>  0.0003  0.0666  0.0000  0.1401  0.0000  0.0000  0.0000  0.0000  0.0000 </r>
        <r>  0.0240  0.0077  0.0000  0.1560  0.0000  0.0000  0.0000  0.0000  0.0000 </r>
       </set>
       <set comment="band 7">
        <r>  0.0000  0.0000  0.1975  0.0000  0.0000  0.0000  0.0000  0.0000  0.0000 </r>
        <r>  0.0000  0.0000  0.2661  0.0000  0.0000  0.0000  0.0000  0.0000  0.0000 </r>
       </set>
       <set comment="band 8">
        <r>  0.0502  0.3700  0.0000  0.0365  0.0000  0.0000  0.0000  0.0000  0.0000 </r>
        <r>  0.0352  0.0035  0.0000  0.0541  0.0000  0.0000  0.0000  0.0000  0.0000 </r>
       </set>
       <set comment="band 9">
        <r>  0.2600  0.0644  0.0000  0.0584  0.0000  0.0000  0.0000  0.0000  0.0000 </r>
        <r>  0.0008  0.1031  0.0000  0.0005  0.0000  0.0000  0.0000  0.0000  0.0000 </r>
       </set>
       <set comment="band 10">
        <r>  0.0141  0.0005  0.0000  0.3597  0.0000  0.0000  0.0000  0.0000  0.0000 </r>
        <r>  0.0136  0.0002  0.0000  0.0187  0.0000  0.0000  0.0000  0.0000  0.0000 </r>
       </set>
      </set>
     </set>
    </set>
   </array>
  </projected>
 </calculation>
 <structure name="finalpos" >
  <crystal>
   <varray name="basis" >
    <v>       0.00000000       2.04171400       2.04171400 </v>
    <v>       2.04171400       0.00000000       2.04171400 </v>
    <v>       2.04171400       2.04171400       0.00000000 </v>
   </varray>
   <i name="volume">     17.02216186 </i>
   <varray name="rec_basis" >
    <v>      -0.24489228       0.24489228       0.24489228 </v>
    <v>       0.24489228      -0.24489228       0.24489228 </v>
    <v>       0.24489228       0.24489228      -0.24489228 </v>
   </varray>
  </crystal>
  <varray name="positions" >
   <v>       0.00000000       0.00000000       0.00000000 </v>
   <v>       0.50000000       0.50000000       0.50000000 </v>
  </varray>
 </structure>
</modeling>
