<?xml version="1.0" encoding="ISO-8859-1"?>
<modeling>
 <generator>
  <i name="program" type="string">vasp </i>
  <i name="version" type="string">6.1.1  </i>
  <i name="subversion" type="string">19Jun20 (build Sep 15 2020 22:57:04) complex                          parallel </i>
  <i name="platform" type="string">VASP6.1.1-r2SCAN-MP </i>
  <i name="date" type="string">2020 11 16 </i>
  <i name="time" type="string">13:38:42 </i>
 </generator>
 <incar>
  <i type="string" name="PREC"> Accurate</i>
  <i type="string" name="ALGO"> All</i>
  <i type="int" name="ISPIN">     2</i>
  <i type="int" name="NELM">   200</i>
  <i type="int" name="IBRION">     2</i>
  <i name="EDIFF">      0.00001000</i>
  <i name="EDIFFG">     -0.05000000</i>
  <i type="int" name="NSW">     0</i>
  <i type="int" name="ISIF">     3</i>
  <i name="ENCUT">    680.00000000</i>
  <i name="ENAUG">   1360.00000000</i>
  <v name="MAGMOM">      0.00000000      0.00000000</v>
  <i type="string" name="LREAL"> Auto</i>
  <i type="int" name="ISMEAR">     2</i>
  <i name="SIGMA">      0.20000000</i>
  <i name="KSPACING">      0.22000000</i>
  <i type="logical" name="LWAVE"> F  </i>
  <i type="logical" name="LCHARG"> T  </i>
  <i type="logical" name="LVTOT"> T  </i>
  <i type="logical" name="LELF"> T  </i>
  <i type="logical" name="LASPH"> T  </i>
  <i type="logical" name="LAECHG"> T  </i>
  <i type="string" name="ALGO"> All</i>
  <i type="int" name="NELM">   200</i>
  <i name="EDIFF">      0.00001000</i>
  <i type="string" name="METAGGA"> RSCAN</i>
  <i type="logical" name="LASPH"> T  </i>
  <i type="logical" name="LMIXTAU"> T  </i>
  <i type="int" name="ISPIN">     2</i>
 </incar>
 <structure name="primitive_cell" >
  <crystal>
   <varray name="basis" >
    <v>       0.00000000       2.04171400       2.04171400 </v>
    <v>       2.04171400       0.00000000       2.04171400 </v>
    <v>       2.04171400       2.04171400       0.00000000 </v>
   </varray>
   <i name="volume">     17.02216186 </i>
   <varray name="rec_basis" >
    <v>      -0.24489228       0.24489228       0.24489228 </v>
    <v>       0.24489228      -0.24489228       0.24489228 </v>
    <v>       0.24489228       0.24489228      -0.24489228 </v>
   </varray>
  </crystal>
  <varray name="positions" >
   <v>       0.00000000       0.00000000       0.00000000 </v>
   <v>       0.50000000       0.50000000       0.50000000 </v>
  </varray>
 </structure>
 <varray name="primitive_index" >
  <v type="int" >        1 </v>
  <v type="int" >        2 </v>
 </varray>
 <kpoints>
  <generation param="Gamma">
   <v type="int" name="divisions">      13       13       13 </v>
   <v name="usershift">      0.00000000       0.00000000       0.00000000 </v>
   <v name="genvec1">      0.07692308      -0.00000000       0.00000000 </v>
   <v name="genvec2">     -0.00000000       0.07692308      -0.00000000 </v>
   <v name="genvec3">      0.00000000       0.00000000       0.07692308 </v>
   <v name="shift">      0.00000000       0.00000000       0.00000000 </v>
  </generation>
  <varray name="kpointlist" >
   <v>       0.00000000       0.00000000       0.00000000 </v>
   <v>       0.07692308      -0.00000000       0.00000000 </v>
   <v>       0.15384615      -0.00000000       0.00000000 </v>
   <v>       0.23076923      -0.00000000       0.00000000 </v>
   <v>       0.30769231      -0.00000000       0.00000000 </v>
   <v>       0.38461538       0.00000000      -0.00000000 </v>
   <v>       0.46153846       0.00000000      -0.00000000 </v>
   <v>       0.07692308       0.07692308       0.00000000 </v>
   <v>       0.15384615       0.07692308       0.00000000 </v>
   <v>       0.23076923       0.07692308       0.00000000 </v>
   <v>       0.30769231       0.07692308       0.00000000 </v>
   <v>       0.38461538       0.07692308       0.00000000 </v>
   <v>       0.46153846       0.07692308       0.00000000 </v>
   <v>      -0.46153846       0.07692308       0.00000000 </v>
   <v>      -0.38461538       0.07692308      -0.00000000 </v>
   <v>      -0.30769231       0.07692308       0.00000000 </v>
   <v>      -0.23076923       0.07692308       0.00000000 </v>
   <v>      -0.15384615       0.07692308      -0.00000000 </v>
   <v>      -0.07692308       0.07692308      -0.00000000 </v>
   <v>       0.15384615       0.15384615      -0.00000000 </v>
   <v>       0.23076923       0.15384615       0.00000000 </v>
   <v>       0.30769231       0.15384615       0.00000000 </v>
   <v>       0.38461538       0.15384615       0.00000000 </v>
   <v>       0.46153846       0.15384615       0.00000000 </v>
   <v>      -0.46153846       0.15384615      -0.00000000 </v>
   <v>      -0.38461538       0.15384615      -0.00000000 </v>
   <v>      -0.30769231       0.15384615       0.00000000 </v>
   <v>      -0.23076923       0.15384615      -0.00000000 </v>
   <v>      -0.15384615       0.15384615      -0.00000000 </v>
   <v>       0.23076923       0.23076923       0.00000000 </v>
   <v>       0.30769231       0.23076923       0.00000000 </v>
   <v>       0.38461538       0.23076923       0.00000000 </v>
   <v>       0.46153846       0.23076923       0.00000000 </v>
   <v>      -0.46153846       0.23076923      -0.00000000 </v>
   <v>      -0.38461538       0.23076923      -0.00000000 </v>
   <v>      -0.30769231       0.23076923       0.00000000 </v>
   <v>      -0.23076923       0.23076923      -0.00000000 </v>
   <v>       0.30769231       0.30769231      -0.00000000 </v>
   <v>       0.38461538       0.30769231       0.00000000 </v>
   <v>       0.46153846       0.30769231       0.00000000 </v>
   <v>      -0.46153846       0.30769231      -0.00000000 </v>
   <v>      -0.38461538       0.30769231      -0.00000000 </v>
   <v>      -0.30769231       0.30769231      -0.00000000 </v>
   <v>       0.38461538       0.38461538       0.00000000 </v>
   <v>       0.46153846       0.38461538       0.00000000 </v>
   <v>      -0.46153846       0.38461538       0.00000000 </v>
   <v>      -0.38461538       0.38461538       0.00000000 </v>
   <v>       0.46153846       0.46153846      -0.00000000 </v>
   <v>      -0.46153846       0.46153846       0.00000000 </v>
   <v>       0.23076923       0.15384615       0.07692308 </v>
   <v>       0.30769231       0.15384615       0.07692308 </v>
   <v>       0.38461538       0.15384615       0.07692308 </v>
   <v>       0.46153846       0.15384615       0.07692308 </v>
   <v>      -0.46153846       0.15384615       0.07692308 </v>
   <v>       0.30769231       0.23076923       0.07692308 </v>
   <v>       0.38461538       0.23076923       0.07692308 </v>
   <v>       0.46153846       0.23076923       0.07692308 </v>
   <v>      -0.46153846       0.23076923       0.07692308 </v>
   <v>      -0.38461538       0.23076923       0.07692308 </v>
   <v>      -0.30769231       0.23076923       0.07692308 </v>
   <v>      -0.23076923       0.23076923       0.07692308 </v>
   <v>      -0.15384615       0.23076923       0.07692308 </v>
   <v>       0.38461538       0.30769231       0.07692308 </v>
   <v>       0.46153846       0.30769231       0.07692308 </v>
   <v>      -0.46153846       0.30769231       0.07692308 </v>
   <v>      -0.38461538       0.30769231       0.07692308 </v>
   <v>      -0.30769231       0.30769231       0.07692308 </v>
   <v>      -0.23076923       0.30769231       0.07692308 </v>
   <v>       0.46153846       0.38461538       0.07692308 </v>
   <v>      -0.46153846       0.38461538       0.07692308 </v>
   <v>      -0.38461538       0.38461538       0.07692308 </v>
   <v>      -0.30769231       0.38461538       0.07692308 </v>
   <v>      -0.46153846       0.46153846       0.07692308 </v>
   <v>      -0.38461538       0.46153846       0.07692308 </v>
   <v>       0.46153846       0.30769231       0.15384615 </v>
   <v>      -0.46153846       0.30769231       0.15384615 </v>
   <v>      -0.38461538       0.30769231       0.15384615 </v>
   <v>      -0.46153846       0.38461538       0.15384615 </v>
   <v>      -0.38461538       0.38461538       0.15384615 </v>
   <v>      -0.30769231       0.38461538       0.15384615 </v>
   <v>      -0.23076923       0.38461538       0.15384615 </v>
   <v>      -0.38461538       0.46153846       0.15384615 </v>
   <v>      -0.30769231       0.46153846       0.15384615 </v>
   <v>      -0.30769231       0.46153846       0.23076923 </v>
  </varray>
  <varray name="weights" >
   <v>       0.00045517 </v>
   <v>       0.00364133 </v>
   <v>       0.00364133 </v>
   <v>       0.00364133 </v>
   <v>       0.00364133 </v>
   <v>       0.00364133 </v>
   <v>       0.00364133 </v>
   <v>       0.00273100 </v>
   <v>       0.01092399 </v>
   <v>       0.01092399 </v>
   <v>       0.01092399 </v>
   <v>       0.01092399 </v>
   <v>       0.01092399 </v>
   <v>       0.01092399 </v>
   <v>       0.01092399 </v>
   <v>       0.01092399 </v>
   <v>       0.01092399 </v>
   <v>       0.01092399 </v>
   <v>       0.00546199 </v>
   <v>       0.00273100 </v>
   <v>       0.01092399 </v>
   <v>       0.01092399 </v>
   <v>       0.01092399 </v>
   <v>       0.01092399 </v>
   <v>       0.01092399 </v>
   <v>       0.01092399 </v>
   <v>       0.01092399 </v>
   <v>       0.01092399 </v>
   <v>       0.00546199 </v>
   <v>       0.00273100 </v>
   <v>       0.01092399 </v>
   <v>       0.01092399 </v>
   <v>       0.01092399 </v>
   <v>       0.01092399 </v>
   <v>       0.01092399 </v>
   <v>       0.01092399 </v>
   <v>       0.00546199 </v>
   <v>       0.00273100 </v>
   <v>       0.01092399 </v>
   <v>       0.01092399 </v>
   <v>       0.01092399 </v>
   <v>       0.01092399 </v>
   <v>       0.00546199 </v>
   <v>       0.00273100 </v>
   <v>       0.01092399 </v>
   <v>       0.01092399 </v>
   <v>       0.00546199 </v>
   <v>       0.00273100 </v>
   <v>       0.00546199 </v>
   <v>       0.01092399 </v>
   <v>       0.02184797 </v>
   <v>       0.02184797 </v>
   <v>       0.02184797 </v>
   <v>       0.02184797 </v>
   <v>       0.01092399 </v>
   <v>       0.02184797 </v>
   <v>       0.02184797 </v>
   <v>       0.02184797 </v>
   <v>       0.02184797 </v>
   <v>       0.02184797 </v>
   <v>       0.02184797 </v>
   <v>       0.01092399 </v>
   <v>       0.01092399 </v>
   <v>       0.02184797 </v>
   <v>       0.02184797 </v>
   <v>       0.02184797 </v>
   <v>       0.02184797 </v>
   <v>       0.01092399 </v>
   <v>       0.01092399 </v>
   <v>       0.02184797 </v>
   <v>       0.02184797 </v>
   <v>       0.01092399 </v>
   <v>       0.01092399 </v>
   <v>       0.01092399 </v>
   <v>       0.01092399 </v>
   <v>       0.02184797 </v>
   <v>       0.02184797 </v>
   <v>       0.01092399 </v>
   <v>       0.02184797 </v>
   <v>       0.02184797 </v>
   <v>       0.01092399 </v>
   <v>       0.01092399 </v>
   <v>       0.01092399 </v>
   <v>       0.01092399 </v>
  </varray>
 </kpoints>
 <parameters>
  <separator name="general" >
   <i type="string" name="SYSTEM">unknown system</i>
   <i type="logical" name="LCOMPAT"> F  </i>
  </separator>
  <separator name="electronic" >
   <i type="string" name="PREC">accura</i>
   <i name="ENMAX">    680.00000000</i>
   <i name="ENAUG">   1360.00000000</i>
   <i name="EDIFF">      0.00001000</i>
   <i type="int" name="IALGO">    58</i>
   <i type="int" name="IWAVPR">    10</i>
   <i type="int" name="NBANDS">    64</i>
   <i type="int" name="NBANDSLOW">    -1</i>
   <i type="int" name="NBANDSHIGH">    -1</i>
   <i name="NELECT">     10.00000000</i>
   <i type="int" name="TURBO">     0</i>
   <i type="int" name="IRESTART">     0</i>
   <i type="int" name="NREBOOT">     0</i>
   <i type="int" name="NMIN">     0</i>
   <i name="EREF">      0.00000000</i>
   <separator name="electronic smearing" >
    <i type="int" name="ISMEAR">     2</i>
    <i name="SIGMA">      0.20000000</i>
    <i name="KSPACING">      0.22000000</i>
    <i type="logical" name="KGAMMA"> T  </i>
    <i type="logical" name="KBLOWUP"> T  </i>
   </separator>
   <separator name="electronic projectors" >
    <i type="logical" name="LREAL"> T  </i>
    <v name="ROPT">     -0.00025000     -0.00025000</v>
    <i type="int" name="LMAXPAW">  -100</i>
    <i type="int" name="LMAXMIX">     2</i>
    <i type="logical" name="NLSPLINE"> F  </i>
   </separator>
   <separator name="electronic startup" >
    <i type="int" name="ISTART">     0</i>
    <i type="int" name="ICHARG">     2</i>
    <i type="int" name="INIWAV">     1</i>
   </separator>
   <separator name="electronic spin" >
    <i type="int" name="ISPIN">     2</i>
    <i type="logical" name="LNONCOLLINEAR"> F  </i>
    <v name="MAGMOM">      0.00000000      0.00000000</v>
    <i name="NUPDOWN">     -1.00000000</i>
    <i type="logical" name="LSORBIT"> F  </i>
    <v name="SAXIS">      0.00000000      0.00000000      1.00000000</v>
    <i type="logical" name="LSPIRAL"> F  </i>
    <v name="QSPIRAL">      0.00000000      0.00000000      0.00000000</v>
    <i type="logical" name="LZEROZ"> F  </i>
   </separator>
   <separator name="electronic exchange-correlation" >
    <i type="logical" name="LASPH"> T  </i>
    <i type="logical" name="LMETAGGA"> F  </i>
   </separator>
   <separator name="electronic convergence" >
    <i type="int" name="NELM">   200</i>
    <i type="int" name="NELMDL">     0</i>
    <i type="int" name="NELMIN">     2</i>
    <i name="ENINI">    680.00000000</i>
    <separator name="electronic convergence detail" >
     <i type="logical" name="LDIAG"> T  </i>
     <i type="logical" name="LSUBROT"> F  </i>
     <i name="WEIMIN">      0.00000000</i>
     <i name="EBREAK">      0.00000004</i>
     <i name="DEPER">      0.30000000</i>
     <i type="int" name="NRMM">     4</i>
     <i name="TIME">      0.40000000</i>
    </separator>
   </separator>
   <separator name="electronic mixer" >
    <i name="AMIX">      0.40000000</i>
    <i name="BMIX">      1.00000000</i>
    <i name="AMIN">      0.10000000</i>
    <i name="AMIX_MAG">      1.60000000</i>
    <i name="BMIX_MAG">      1.00000000</i>
    <separator name="electronic mixer details" >
     <i type="int" name="IMIX">     4</i>
     <i type="logical" name="MIXFIRST"> F  </i>
     <i type="int" name="MAXMIX">   -45</i>
     <i name="WC">    100.00000000</i>
     <i type="int" name="INIMIX">     1</i>
     <i type="int" name="MIXPRE">     1</i>
     <i type="int" name="MREMOVE">     5</i>
    </separator>
   </separator>
   <separator name="electronic dipolcorrection" >
    <i type="logical" name="LDIPOL"> F  </i>
    <i type="logical" name="LMONO"> F  </i>
    <i type="int" name="IDIPOL">     0</i>
    <i name="EPSILON">      1.00000000</i>
    <v name="DIPOL">   -100.00000000   -100.00000000   -100.00000000</v>
    <i name="EFIELD">      0.00000000</i>
   </separator>
  </separator>
  <separator name="grids" >
   <i type="int" name="NGX">    28</i>
   <i type="int" name="NGY">    28</i>
   <i type="int" name="NGZ">    28</i>
   <i type="int" name="NGXF">    56</i>
   <i type="int" name="NGYF">    56</i>
   <i type="int" name="NGZF">    56</i>
   <i type="logical" name="ADDGRID"> F  </i>
  </separator>
  <separator name="ionic" >
   <i type="int" name="NSW">     0</i>
   <i type="int" name="IBRION">    -1</i>
   <i type="int" name="MDALGO">     0</i>
   <i type="int" name="ISIF">     3</i>
   <i name="PSTRESS">      0.00000000</i>
   <i name="EDIFFG">     -0.05000000</i>
   <i type="int" name="NFREE">     1</i>
   <i name="POTIM">      0.50000000</i>
   <i name="SMASS">     -3.00000000</i>
   <i name="SCALEE">      1.00000000</i>
  </separator>
  <separator name="ionic md" >
   <i name="TEBEG">      0.00010000</i>
   <i name="TEEND">      0.00010000</i>
   <i type="int" name="NBLOCK">     1</i>
   <i type="int" name="KBLOCK">     1</i>
   <i type="int" name="NPACO">   256</i>
   <i name="APACO">     16.00000000</i>
  </separator>
  <separator name="symmetry" >
   <i type="int" name="ISYM">     2</i>
   <i name="SYMPREC">      0.00001000</i>
  </separator>
  <separator name="dos" >
   <i type="int" name="LORBIT">    11</i>
   <v name="RWIGS">     -1.00000000     -1.00000000</v>
   <i type="int" name="NEDOS">   301</i>
   <i name="EMIN">     10.00000000</i>
   <i name="EMAX">    -10.00000000</i>
   <i name="EFERMI">      0.00000000</i>
  </separator>
  <separator name="writing" >
   <i type="int" name="NWRITE">     2</i>
   <i type="logical" name="LWAVE"> F  </i>
   <i type="logical" name="LDOWNSAMPLE"> F  </i>
   <i type="logical" name="LCHARG"> T  </i>
   <i type="logical" name="LPARD"> F  </i>
   <i type="logical" name="LVTOT"> T  </i>
   <i type="logical" name="LVHAR"> F  </i>
   <i type="logical" name="LELF"> T  </i>
   <i type="logical" name="LOPTICS"> F  </i>
   <v name="STM">      0.00000000      0.00000000      0.00000000      0.00000000      0.00000000      0.00000000      0.00000000</v>
  </separator>
  <separator name="performance" >
   <i type="int" name="NPAR">    64</i>
   <i type="int" name="NSIM">     4</i>
   <i type="int" name="NBLK">    -1</i>
   <i type="logical" name="LPLANE"> T  </i>
   <i type="logical" name="LSCALAPACK"> T  </i>
   <i type="logical" name="LSCAAWARE"> T  </i>
   <i type="logical" name="LSCALU"> F  </i>
   <i type="logical" name="LASYNC"> F  </i>
   <i type="logical" name="LORBITALREAL"> F  </i>
  </separator>
  <separator name="miscellaneous" >
   <i type="int" name="IDIOT">     3</i>
   <i type="int" name="PHON_NSTRUCT">    -1</i>
   <i type="logical" name="LMUSIC"> F  </i>
   <v name="POMASS">      7.01000000     18.99800000</v>
   <v name="DARWINR">      0.00000000      0.00000000</v>
   <v name="DARWINV">      1.00000000      1.00000000</v>
   <i type="logical" name="LCORR"> T  </i>
  </separator>
  <i type="logical" name="GGA_COMPAT"> T  </i>
  <i type="logical" name="LBERRY"> F  </i>
  <i type="int" name="ICORELEVEL">     0</i>
  <i type="logical" name="LDAU"> F  </i>
  <i type="int" name="I_CONSTRAINED_M">     0</i>
  <separator name="electronic exchange-correlation" >
   <i type="string" name="GGA">--</i>
   <i type="int" name="VOSKOWN">     0</i>
   <i type="logical" name="LHFCALC"> F  </i>
   <i type="string" name="PRECFOCK"></i>
   <i type="logical" name="LSYMGRAD"> F  </i>
   <i type="logical" name="LHFONE"> F  </i>
   <i type="logical" name="LRHFCALC"> F  </i>
   <i type="logical" name="LTHOMAS"> F  </i>
   <i type="logical" name="LMODELHF"> F  </i>
   <i type="logical" name="LFOCKACE"> F  </i>
   <i name="ENCUT4O">     -1.00000000</i>
   <i type="int" name="EXXOEP">     0</i>
   <i type="int" name="FOURORBIT">     0</i>
   <i name="AEXX">      0.00000000</i>
   <i name="HFALPHA">      0.00000000</i>
   <i name="MCALPHA">      0.00000000</i>
   <i name="ALDAX">      1.00000000</i>
   <i name="AGGAX">      1.00000000</i>
   <i name="ALDAC">      1.00000000</i>
   <i name="AGGAC">      1.00000000</i>
   <i type="int" name="NKREDX">     1</i>
   <i type="int" name="NKREDY">     1</i>
   <i type="int" name="NKREDZ">     1</i>
   <i type="logical" name="SHIFTRED"> F  </i>
   <i type="logical" name="ODDONLY"> F  </i>
   <i type="logical" name="EVENONLY"> F  </i>
   <i type="int" name="LMAXFOCK">     0</i>
   <i type="int" name="NMAXFOCKAE">     0</i>
   <i type="logical" name="LFOCKAEDFT"> F  </i>
   <i name="HFSCREEN">      0.00000000</i>
   <i name="HFSCREENC">      0.00000000</i>
   <i type="int" name="NBANDSGWLOW">     0</i>
  </separator>
  <separator name="vdW DFT" >
   <i type="logical" name="LUSE_VDW"> F  </i>
   <i name="Zab_VDW">     -0.84910000</i>
   <i name="PARAM1">      0.12340000</i>
   <i name="PARAM2">      1.00000000</i>
   <i name="PARAM3">      0.00000000</i>
  </separator>
  <separator name="model GW" >
   <i type="int" name="MODEL_GW">     0</i>
   <i name="MODEL_EPS0">      5.10664856</i>
   <i name="MODEL_ALPHA">      1.00000000</i>
  </separator>
  <separator name="linear response parameters" >
   <i type="logical" name="LEPSILON"> F  </i>
   <i type="logical" name="LRPA"> F  </i>
   <i type="logical" name="LNABLA"> F  </i>
   <i type="logical" name="LVEL"> F  </i>
   <i type="int" name="KINTER">     0</i>
   <i name="CSHIFT">      0.10000000</i>
   <i name="OMEGAMAX">     -1.00000000</i>
   <i name="DEG_THRESHOLD">      0.00200000</i>
   <i name="RTIME">     -0.10000000</i>
   <i name="WPLASMAI">      0.00000000</i>
   <v name="DFIELD">      0.00000000      0.00000000      0.00000000</v>
   <v name="WPLASMA">      0.00000000      0.00000000      0.00000000      0.00000000      0.00000000      0.00000000      0.00000000      0.00000000      0.00000000</v>
  </separator>
  <separator name="orbital magnetization" >
   <i type="logical" name="NUCIND"> F  </i>
   <v name="MAGPOS">      0.00000000      0.00000000      0.00000000</v>
   <i type="logical" name="LNICSALL"> T  </i>
   <i type="logical" name="ORBITALMAG"> F  </i>
   <i type="logical" name="LMAGBLOCH"> F  </i>
   <i type="logical" name="LCHIMAG"> F  </i>
   <i type="logical" name="LGAUGE"> T  </i>
   <i type="int" name="MAGATOM">     0</i>
   <v name="MAGDIPOL">      0.00000000      0.00000000      0.00000000</v>
   <v name="AVECCONST">      0.00000000      0.00000000      0.00000000</v>
  </separator>
  <separator name="response functions" >
   <i type="logical" name="LFINITE_TEMPERATURE"> F  </i>
   <i type="logical" name="LADDER"> F  </i>
   <i type="logical" name="LRPAFORCE"> F  </i>
   <i type="logical" name="LFXC"> F  </i>
   <i type="logical" name="LHARTREE"> T  </i>
   <i type="int" name="IBSE">     0</i>
   <v type="int" name="KPOINT">    -1     0     0     0</v>
   <i type="logical" name="LTCTC"> F  </i>
   <i type="logical" name="LTCTE"> F  </i>
   <i type="logical" name="LTETE"> F  </i>
   <i type="logical" name="LTRIPLET"> F  </i>
   <i type="logical" name="LFXCEPS"> F  </i>
   <i type="logical" name="LFXHEG"> F  </i>
   <i type="int" name="NATURALO">     2</i>
   <i type="logical" name="LHOLEGF"> F  </i>
   <i type="logical" name="L2ORDER"> F  </i>
   <i type="logical" name="LDMP1"> F  </i>
   <i type="logical" name="LMP2LT"> F  </i>
   <i type="logical" name="LSMP2LT"> F  </i>
   <i type="logical" name="LGWLF"> F  </i>
   <i name="ENCUTGW">     -2.00000000</i>
   <i name="ENCUTGWSOFT">     -2.00000000</i>
   <i name="ENCUTLF">     -1.00000000</i>
   <i type="logical" name="LESF_SPLINES"> F  </i>
   <i type="int" name="LMAXMP2">    -1</i>
   <i name="SCISSOR">      0.00000000</i>
   <i type="int" name="NOMEGA">     0</i>
   <i type="int" name="NOMEGAR">     0</i>
   <i type="int" name="NBANDSGW">    -1</i>
   <i type="int" name="NBANDSO">    -1</i>
   <i type="int" name="NBANDSV">    -1</i>
   <i type="int" name="NELM">   200</i>
   <i type="int" name="NELMHF">     1</i>
   <i type="int" name="DIM">     3</i>
   <i type="int" name="IESPILON">     4</i>
   <i type="int" name="ANTIRES">     0</i>
   <i name="OMEGAMAX">    -30.00000000</i>
   <i name="OMEGAMIN">    -30.00000000</i>
   <i name="OMEGATL">   -200.00000000</i>
   <i type="int" name="OMEGAGRID">     0</i>
   <i name="CSHIFT">     -0.10000000</i>
   <i type="logical" name="LSELFENERGY"> F  </i>
   <i type="logical" name="LSPECTRAL"> F  </i>
   <i type="logical" name="LSPECTRALGW"> F  </i>
   <i type="logical" name="LSINGLES"> F  </i>
   <i type="logical" name="LFERMIGW"> F  </i>
   <i type="logical" name="ODDONLYGW"> F  </i>
   <i type="logical" name="EVENONLYGW"> F  </i>
   <i type="int" name="NKREDLFX">     1</i>
   <i type="int" name="NKREDLFY">     1</i>
   <i type="int" name="NKREDLFZ">     1</i>
   <i type="int" name="MAXMEM">  2800</i>
   <i type="int" name="TELESCOPE">     0</i>
   <i type="int" name="NTAUPAR">    -1</i>
   <i type="int" name="NOMEGAPAR">    -1</i>
   <i name="LAMBDA">      1.00000000</i>
  </separator>
  <separator name="External order field" >
   <i name="OFIELD_KAPPA">      0.00000000</i>
   <v name="OFIELD_K">      0.00000000      0.00000000      0.00000000</v>
   <i name="OFIELD_Q6_NEAR">      0.00000000</i>
   <i name="OFIELD_Q6_FAR">      0.00000000</i>
   <i name="OFIELD_A">      0.00000000</i>
  </separator>
 </parameters>
 <atominfo>
  <atoms>       2 </atoms>
  <types>       2 </types>
  <array name="atoms" >
   <dimension dim="1">ion</dimension>
   <field type="string">element</field>
   <field type="int">atomtype</field>
   <set>
    <rc><c>Li</c><c>   1</c></rc>
    <rc><c>F </c><c>   2</c></rc>
   </set>
  </array>
  <array name="atomtypes" >
   <dimension dim="1">type</dimension>
   <field type="int">atomspertype</field>
   <field type="string">element</field>
   <field>mass</field>
   <field>valence</field>
   <field type="string">pseudopotential</field>
   <set>
    <rc><c>   1</c><c>Li</c><c>      7.01000000</c><c>      3.00000000</c><c>  PAW_PBE Li_sv 10Sep2004               </c></rc>
    <rc><c>   1</c><c>F </c><c>     18.99800000</c><c>      7.00000000</c><c>  PAW_PBE F 08Apr2002                   </c></rc>
   </set>
  </array>
 </atominfo>
 <structure name="initialpos" >
  <crystal>
   <varray name="basis" >
    <v>       0.00000000       2.04171400       2.04171400 </v>
    <v>       2.04171400       0.00000000       2.04171400 </v>
    <v>       2.04171400       2.04171400       0.00000000 </v>
   </varray>
   <i name="volume">     17.02216186 </i>
   <varray name="rec_basis" >
    <v>      -0.24489228       0.24489228       0.24489228 </v>
    <v>       0.24489228      -0.24489228       0.24489228 </v>
    <v>       0.24489228       0.24489228      -0.24489228 </v>
   </varray>
  </crystal>
  <varray name="positions" >
   <v>       0.00000000       0.00000000       0.00000000 </v>
   <v>       0.50000000       0.50000000       0.50000000 </v>
  </varray>
 </structure>
 <calculation>
  <scstep>
   <time name="total">   31.23   31.63</time>
   <energy>
    <i name="alphaZ">     19.24755120 </i>
    <i name="ewald">   -549.57268052 </i>
    <i name="hartreedc">   -217.48188625 </i>
    <i name="XCdc">     58.14588551 </i>
    <i name="pawpsdc">    610.25632980 </i>
    <i name="pawaedc">   -630.51710068 </i>
    <i name="eentropy">     -0.00001016 </i>
    <i name="bandstr">   -163.25726065 </i>
    <i name="atom">    862.41152047 </i>
    <i name="e_fr_energy">    -10.76765128 </i>
    <i name="e_wo_entrp">    -10.76764112 </i>
    <i name="e_0_energy">    -10.76764874 </i>
   </energy>
  </scstep>
  <scstep>
   <time name="total">   34.42   34.42</time>
   <energy>
    <i name="e_fr_energy">    -15.60655477 </i>
    <i name="e_wo_entrp">    -15.61034568 </i>
    <i name="e_0_energy">    -15.60750250 </i>
   </energy>
  </scstep>
  <scstep>
   <time name="total">   27.35   27.36</time>
   <energy>
    <i name="e_fr_energy">    -15.60874393 </i>
    <i name="e_wo_entrp">    -15.60874393 </i>
    <i name="e_0_energy">    -15.60874393 </i>
   </energy>
  </scstep>
  <scstep>
   <time name="total">   48.87   48.87</time>
   <energy>
    <i name="e_fr_energy">    -15.60874397 </i>
    <i name="e_wo_entrp">    -15.60874397 </i>
    <i name="e_0_energy">    -15.60874397 </i>
   </energy>
  </scstep>
  <scstep>
   <time name="total">   27.66   27.67</time>
   <energy>
    <i name="e_fr_energy">    -15.60874397 </i>
    <i name="e_wo_entrp">    -15.60874397 </i>
    <i name="e_0_energy">    -15.60874397 </i>
   </energy>
  </scstep>
  <scstep>
   <time name="total">   26.06   26.48</time>
   <energy>
    <i name="e_fr_energy">    -12.22415149 </i>
    <i name="e_wo_entrp">    -12.22415149 </i>
    <i name="e_0_energy">    -12.22415149 </i>
   </energy>
  </scstep>
  <scstep>
   <time name="total">   25.83   25.83</time>
   <energy>
    <i name="e_fr_energy">    -12.74829938 </i>
    <i name="e_wo_entrp">    -12.75117161 </i>
    <i name="e_0_energy">    -12.74901744 </i>
   </energy>
  </scstep>
  <scstep>
   <time name="total">   21.11   21.12</time>
   <energy>
    <i name="e_fr_energy">    -12.76387477 </i>
    <i name="e_wo_entrp">    -12.76387477 </i>
    <i name="e_0_energy">    -12.76387477 </i>
   </energy>
  </scstep>
  <scstep>
   <time name="total">   25.84   25.84</time>
   <energy>
    <i name="e_fr_energy">    -12.76684505 </i>
    <i name="e_wo_entrp">    -12.76684505 </i>
    <i name="e_0_energy">    -12.76684505 </i>
   </energy>
  </scstep>
  <scstep>
   <time name="total">   25.83   25.83</time>
   <energy>
    <i name="e_fr_energy">    -12.76873328 </i>
    <i name="e_wo_entrp">    -12.76873328 </i>
    <i name="e_0_energy">    -12.76873328 </i>
   </energy>
  </scstep>
  <scstep>
   <time name="total">   25.83   25.84</time>
   <energy>
    <i name="e_fr_energy">    -12.76898495 </i>
    <i name="e_wo_entrp">    -12.76898495 </i>
    <i name="e_0_energy">    -12.76898495 </i>
   </energy>
  </scstep>
  <scstep>
   <time name="total">   25.82   25.82</time>
   <energy>
    <i name="e_fr_energy">    -12.76899896 </i>
    <i name="e_wo_entrp">    -12.76899896 </i>
    <i name="e_0_energy">    -12.76899896 </i>
   </energy>
  </scstep>
  <scstep>
   <time name="total">   31.13   31.13</time>
   <energy>
    <i name="alphaZ">     19.24755120 </i>
    <i name="ewald">   -549.57268052 </i>
    <i name="hartreedc">   -232.64920555 </i>
    <i name="XCdc">     60.00473022 </i>
    <i name="pawpsdc">    707.03907074 </i>
    <i name="pawaedc">   -727.90301664 </i>
    <i name="eentropy">     -0.00000000 </i>
    <i name="bandstr">   -151.34697129 </i>
    <i name="atom">    862.41152047 </i>
    <i name="e_fr_energy">    -12.76900137 </i>
    <i name="e_wo_entrp">    -12.76900137 </i>
    <i name="e_0_energy">    -12.76900137 </i>
   </energy>
  </scstep>
  <structure>
   <crystal>
    <varray name="basis" >
     <v>       0.00000000       2.04171400       2.04171400 </v>
     <v>       2.04171400       0.00000000       2.04171400 </v>
     <v>       2.04171400       2.04171400       0.00000000 </v>
    </varray>
    <i name="volume">     17.02216186 </i>
    <varray name="rec_basis" >
     <v>      -0.24489228       0.24489228       0.24489228 </v>
     <v>       0.24489228      -0.24489228       0.24489228 </v>
     <v>       0.24489228       0.24489228      -0.24489228 </v>
    </varray>
   </crystal>
   <varray name="positions" >
    <v>       0.00000000       0.00000000       0.00000000 </v>
    <v>       0.50000000       0.50000000       0.50000000 </v>
   </varray>
  </structure>
  <varray name="forces" >
   <v>      -0.00000000      -0.00000000      -0.00000000 </v>
   <v>       0.00000000       0.00000000       0.00000000 </v>
  </varray>
  <varray name="stress" >
   <v>     -63.84806890       0.00000000       0.00000000 </v>
   <v>       0.00000000     -63.84806890      -0.00000000 </v>
   <v>      -0.00000000      -0.00000000     -63.84806890 </v>
  </varray>
  <energy>
   <i name="e_fr_energy">    -12.76900137 </i>
   <i name="e_wo_entrp">    -12.76900137 </i>
   <i name="e_0_energy">    -12.76900137 </i>
  </energy>
  <time name="totalsc">  409.79  410.97</time>
  <eigenvalues>
   <array>
    <dimension dim="1">band</dimension>
    <dimension dim="2">kpoint</dimension>
    <dimension dim="3">spin</dimension>
    <field>eigene</field>
    <field>occ</field>
    <set>
     <set comment="spin 1">
      <set comment="kpoint 1">
       <r>  -44.0347    1.0000 </r>
       <r>  -22.9092    1.0000 </r>
       <r>   -1.9595    1.0000 </r>
       <r>   -1.9595    1.0000 </r>
       <r>   -1.9595    1.0000 </r>
       <r>    7.8506    0.0000 </r>
       <r>   23.0789    0.0000 </r>
       <r>   23.0789    0.0000 </r>
       <r>   23.0790    0.0000 </r>
       <r>   23.3874    0.0000 </r>
       <r>   23.3874    0.0000 </r>
       <r>   23.3883    0.0000 </r>
       <r>   25.9874    0.0000 </r>
       <r>   30.2296    0.0000 </r>
       <r>   30.2296    0.0000 </r>
       <r>   43.5702    0.0000 </r>
       <r>   43.5703    0.0000 </r>
       <r>   43.5703    0.0000 </r>
       <r>   46.8001    0.0000 </r>
       <r>   63.1887    0.0000 </r>
       <r>   63.1887    0.0000 </r>
       <r>   63.1893    0.0000 </r>
       <r>   64.6566    0.0000 </r>
       <r>   67.4580    0.0000 </r>
       <r>   67.4580    0.0000 </r>
       <r>   68.2514    0.0000 </r>
       <r>   68.2520    0.0000 </r>
       <r>   68.2520    0.0000 </r>
       <r>   71.9224    0.0000 </r>
       <r>   71.9224    0.0000 </r>
       <r>   71.9225    0.0000 </r>
       <r>   83.1035    0.0000 </r>
       <r>   83.1036    0.0000 </r>
       <r>   89.1338    0.0000 </r>
       <r>   89.1338    0.0000 </r>
       <r>   89.1345    0.0000 </r>
       <r>   93.8896    0.0000 </r>
       <r>   93.8898    0.0000 </r>
       <r>   93.8898    0.0000 </r>
       <r>   95.2728    0.0000 </r>
       <r>   95.2742    0.0000 </r>
       <r>   95.2742    0.0000 </r>
       <r>   96.1217    0.0000 </r>
       <r>   97.0742    0.0000 </r>
       <r>   97.0742    0.0000 </r>
       <r>   97.0742    0.0000 </r>
       <r>   97.9148    0.0000 </r>
       <r>   98.6202    0.0000 </r>
       <r>   98.6202    0.0000 </r>
       <r>   98.6203    0.0000 </r>
       <r>   99.3111    0.0000 </r>
       <r>   99.3111    0.0000 </r>
       <r>  100.9601    0.0000 </r>
       <r>  100.9602    0.0000 </r>
       <r>  100.9602    0.0000 </r>
       <r>  101.7674    0.0000 </r>
       <r>  101.7674    0.0000 </r>
       <r>  101.7674    0.0000 </r>
       <r>  102.3687    0.0000 </r>
       <r>  120.5564    0.0000 </r>
       <r>  124.2102    0.0000 </r>
       <r>  124.2114    0.0000 </r>
       <r>  124.2114    0.0000 </r>
       <r>  134.0737    0.0000 </r>
      </set>
      <set comment="kpoint 2">
       <r>  -44.0319    1.0000 </r>
       <r>  -22.8882    1.0000 </r>
       <r>   -2.1213    1.0000 </r>
       <r>   -1.9728    1.0000 </r>
       <r>   -1.9728    1.0000 </r>
       <r>    8.0250    0.0000 </r>
       <r>   20.9171    0.0000 </r>
       <r>   22.2135    0.0000 </r>
       <r>   22.2140    0.0000 </r>
       <r>   24.0736    0.0000 </r>
       <r>   24.0739    0.0000 </r>
       <r>   24.3909    0.0000 </r>
       <r>   27.8112    0.0000 </r>
       <r>   30.8003    0.0000 </r>
       <r>   30.8003    0.0000 </r>
       <r>   42.7663    0.0000 </r>
       <r>   43.6680    0.0000 </r>
       <r>   43.6681    0.0000 </r>
       <r>   47.0806    0.0000 </r>
       <r>   61.0880    0.0000 </r>
       <r>   61.0884    0.0000 </r>
       <r>   62.9145    0.0000 </r>
       <r>   64.8354    0.0000 </r>
       <r>   65.9252    0.0000 </r>
       <r>   65.9255    0.0000 </r>
       <r>   68.4164    0.0000 </r>
       <r>   70.9986    0.0000 </r>
       <r>   70.9989    0.0000 </r>
       <r>   72.4825    0.0000 </r>
       <r>   72.9193    0.0000 </r>
       <r>   72.9195    0.0000 </r>
       <r>   82.7982    0.0000 </r>
       <r>   82.7983    0.0000 </r>
       <r>   87.0922    0.0000 </r>
       <r>   87.6101    0.0000 </r>
       <r>   87.6109    0.0000 </r>
       <r>   91.0621    0.0000 </r>
       <r>   91.0622    0.0000 </r>
       <r>   91.9590    0.0000 </r>
       <r>   93.5663    0.0000 </r>
       <r>   94.4243    0.0000 </r>
       <r>   94.6820    0.0000 </r>
       <r>   94.6820    0.0000 </r>
       <r>   95.5297    0.0000 </r>
       <r>   97.4536    0.0000 </r>
       <r>   97.4543    0.0000 </r>
       <r>   97.9490    0.0000 </r>
       <r>   98.7796    0.0000 </r>
       <r>   98.7796    0.0000 </r>
       <r>  100.1426    0.0000 </r>
       <r>  100.1427    0.0000 </r>
       <r>  100.7193    0.0000 </r>
       <r>  101.9966    0.0000 </r>
       <r>  102.5607    0.0000 </r>
       <r>  104.1597    0.0000 </r>
       <r>  104.1598    0.0000 </r>
       <r>  104.6409    0.0000 </r>
       <r>  104.6411    0.0000 </r>
       <r>  108.8977    0.0000 </r>
       <r>  120.3840    0.0000 </r>
       <r>  122.8832    0.0000 </r>
       <r>  122.8838    0.0000 </r>
       <r>  124.3659    0.0000 </r>
       <r>  134.4606    0.0000 </r>
      </set>
      <set comment="kpoint 3">
       <r>  -44.0244    1.0000 </r>
       <r>  -22.8296    1.0000 </r>
       <r>   -2.5474    1.0000 </r>
       <r>   -2.0101    1.0000 </r>
       <r>   -2.0101    1.0000 </r>
       <r>    8.4675    0.0000 </r>
       <r>   18.7668    0.0000 </r>
       <r>   21.0657    0.0000 </r>
       <r>   21.0664    0.0000 </r>
       <r>   24.9450    0.0000 </r>
       <r>   24.9451    0.0000 </r>
       <r>   25.0478    0.0000 </r>
       <r>   31.2651    0.0000 </r>
       <r>   32.1820    0.0000 </r>
       <r>   32.1821    0.0000 </r>
       <r>   40.9931    0.0000 </r>
       <r>   43.9624    0.0000 </r>
       <r>   43.9625    0.0000 </r>
       <r>   47.4719    0.0000 </r>
       <r>   57.2346    0.0000 </r>
       <r>   57.2350    0.0000 </r>
       <r>   62.2176    0.0000 </r>
       <r>   65.2138    0.0000 </r>
       <r>   66.0728    0.0000 </r>
       <r>   66.0731    0.0000 </r>
       <r>   68.9096    0.0000 </r>
       <r>   70.1788    0.0000 </r>
       <r>   70.1790    0.0000 </r>
       <r>   73.8211    0.0000 </r>
       <r>   77.4937    0.0000 </r>
       <r>   77.4940    0.0000 </r>
       <r>   81.4424    0.0000 </r>
       <r>   81.4426    0.0000 </r>
       <r>   83.7591    0.0000 </r>
       <r>   84.6671    0.0000 </r>
       <r>   84.6678    0.0000 </r>
       <r>   87.0558    0.0000 </r>
       <r>   88.2136    0.0000 </r>
       <r>   88.4614    0.0000 </r>
       <r>   88.4615    0.0000 </r>
       <r>   92.8790    0.0000 </r>
       <r>   93.2231    0.0000 </r>
       <r>   93.2234    0.0000 </r>
       <r>   95.9498    0.0000 </r>
       <r>   96.9442    0.0000 </r>
       <r>   96.9443    0.0000 </r>
       <r>   98.7741    0.0000 </r>
       <r>  100.4029    0.0000 </r>
       <r>  100.4037    0.0000 </r>
       <r>  104.0882    0.0000 </r>
       <r>  104.2363    0.0000 </r>
       <r>  104.2365    0.0000 </r>
       <r>  105.4532    0.0000 </r>
       <r>  107.3767    0.0000 </r>
       <r>  107.3768    0.0000 </r>
       <r>  107.4963    0.0000 </r>
       <r>  111.4321    0.0000 </r>
       <r>  111.4324    0.0000 </r>
       <r>  115.1298    0.0000 </r>
       <r>  119.6050    0.0000 </r>
       <r>  119.9848    0.0000 </r>
       <r>  119.9859    0.0000 </r>
       <r>  125.9732    0.0000 </r>
       <r>  134.2910    0.0000 </r>
      </set>
      <set comment="kpoint 4">
       <r>  -44.0137    1.0000 </r>
       <r>  -22.7452    1.0000 </r>
       <r>   -3.1018    1.0000 </r>
       <r>   -2.0615    1.0000 </r>
       <r>   -2.0615    1.0000 </r>
       <r>    8.9891    0.0000 </r>
       <r>   17.1469    0.0000 </r>
       <r>   19.9632    0.0000 </r>
       <r>   19.9639    0.0000 </r>
       <r>   25.9120    0.0000 </r>
       <r>   26.0394    0.0000 </r>
       <r>   26.0394    0.0000 </r>
       <r>   33.7986    0.0000 </r>
       <r>   33.7988    0.0000 </r>
       <r>   34.9967    0.0000 </r>
       <r>   39.1492    0.0000 </r>
       <r>   44.4186    0.0000 </r>
       <r>   44.4187    0.0000 </r>
       <r>   47.6698    0.0000 </r>
       <r>   53.7520    0.0000 </r>
       <r>   53.7524    0.0000 </r>
       <r>   61.4361    0.0000 </r>
       <r>   65.2686    0.0000 </r>
       <r>   66.7299    0.0000 </r>
       <r>   66.7303    0.0000 </r>
       <r>   68.5085    0.0000 </r>
       <r>   68.5086    0.0000 </r>
       <r>   69.7311    0.0000 </r>
       <r>   74.8530    0.0000 </r>
       <r>   77.1577    0.0000 </r>
       <r>   77.1579    0.0000 </r>
       <r>   79.3174    0.0000 </r>
       <r>   81.3960    0.0000 </r>
       <r>   81.3966    0.0000 </r>
       <r>   83.3211    0.0000 </r>
       <r>   83.7022    0.0000 </r>
       <r>   83.7023    0.0000 </r>
       <r>   84.7688    0.0000 </r>
       <r>   88.3366    0.0000 </r>
       <r>   88.3370    0.0000 </r>
       <r>   92.0345    0.0000 </r>
       <r>   92.6117    0.0000 </r>
       <r>   92.6121    0.0000 </r>
       <r>   95.0759    0.0000 </r>
       <r>   95.8751    0.0000 </r>
       <r>   95.8755    0.0000 </r>
       <r>  101.4310    0.0000 </r>
       <r>  104.0036    0.0000 </r>
       <r>  104.0043    0.0000 </r>
       <r>  105.6457    0.0000 </r>
       <r>  108.8741    0.0000 </r>
       <r>  108.8744    0.0000 </r>
       <r>  110.5466    0.0000 </r>
       <r>  110.7213    0.0000 </r>
       <r>  110.7213    0.0000 </r>
       <r>  113.3836    0.0000 </r>
       <r>  117.0023    0.0000 </r>
       <r>  117.0030    0.0000 </r>
       <r>  118.3390    0.0000 </r>
       <r>  118.7985    0.0000 </r>
       <r>  118.9001    0.0000 </r>
       <r>  118.9004    0.0000 </r>
       <r>  130.5288    0.0000 </r>
       <r>  131.9228    0.0000 </r>
      </set>
      <set comment="kpoint 5">
       <r>  -44.0024    1.0000 </r>
       <r>  -22.6529    1.0000 </r>
       <r>   -3.6454    1.0000 </r>
       <r>   -2.1149    1.0000 </r>
       <r>   -2.1149    1.0000 </r>
       <r>    9.3861    0.0000 </r>
       <r>   16.1483    0.0000 </r>
       <r>   19.0534    0.0000 </r>
       <r>   19.0540    0.0000 </r>
       <r>   26.9852    0.0000 </r>
       <r>   27.3390    0.0000 </r>
       <r>   27.3390    0.0000 </r>
       <r>   35.1482    0.0000 </r>
       <r>   35.1484    0.0000 </r>
       <r>   35.7792    0.0000 </r>
       <r>   40.6289    0.0000 </r>
       <r>   44.7674    0.0000 </r>
       <r>   44.7677    0.0000 </r>
       <r>   47.6665    0.0000 </r>
       <r>   51.4558    0.0000 </r>
       <r>   51.4561    0.0000 </r>
       <r>   60.6998    0.0000 </r>
       <r>   64.5074    0.0000 </r>
       <r>   65.9012    0.0000 </r>
       <r>   65.9015    0.0000 </r>
       <r>   67.9175    0.0000 </r>
       <r>   67.9177    0.0000 </r>
       <r>   70.8788    0.0000 </r>
       <r>   73.2480    0.0000 </r>
       <r>   74.4183    0.0000 </r>
       <r>   74.4183    0.0000 </r>
       <r>   75.2194    0.0000 </r>
       <r>   78.5568    0.0000 </r>
       <r>   78.5574    0.0000 </r>
       <r>   81.6488    0.0000 </r>
       <r>   83.9648    0.0000 </r>
       <r>   85.6419    0.0000 </r>
       <r>   85.6424    0.0000 </r>
       <r>   91.5338    0.0000 </r>
       <r>   91.5341    0.0000 </r>
       <r>   91.5879    0.0000 </r>
       <r>   92.2121    0.0000 </r>
       <r>   92.2123    0.0000 </r>
       <r>   94.4215    0.0000 </r>
       <r>   96.5222    0.0000 </r>
       <r>   96.5228    0.0000 </r>
       <r>  104.1856    0.0000 </r>
       <r>  106.7059    0.0000 </r>
       <r>  107.2270    0.0000 </r>
       <r>  107.2274    0.0000 </r>
       <r>  112.3778    0.0000 </r>
       <r>  112.3778    0.0000 </r>
       <r>  114.1007    0.0000 </r>
       <r>  114.1011    0.0000 </r>
       <r>  115.6252    0.0000 </r>
       <r>  115.9750    0.0000 </r>
       <r>  116.7535    0.0000 </r>
       <r>  116.7538    0.0000 </r>
       <r>  119.9690    0.0000 </r>
       <r>  121.4825    0.0000 </r>
       <r>  126.7851    0.0000 </r>
       <r>  126.7854    0.0000 </r>
       <r>  126.9577    0.0000 </r>
       <r>  126.9578    0.0000 </r>
      </set>
      <set comment="kpoint 6">
       <r>  -43.9930    1.0000 </r>
       <r>  -22.5743    1.0000 </r>
       <r>   -4.0697    1.0000 </r>
       <r>   -2.1580    1.0000 </r>
       <r>   -2.1580    1.0000 </r>
       <r>    9.5627    0.0000 </r>
       <r>   15.7098    0.0000 </r>
       <r>   18.4150    0.0000 </r>
       <r>   18.4156    0.0000 </r>
       <r>   28.1730    0.0000 </r>
       <r>   28.6642    0.0000 </r>
       <r>   28.6644    0.0000 </r>
       <r>   34.0425    0.0000 </r>
       <r>   35.8712    0.0000 </r>
       <r>   35.8714    0.0000 </r>
       <r>   44.4529    0.0000 </r>
       <r>   44.4534    0.0000 </r>
       <r>   45.0960    0.0000 </r>
       <r>   47.5742    0.0000 </r>
       <r>   51.1729    0.0000 </r>
       <r>   51.1731    0.0000 </r>
       <r>   59.1967    0.0000 </r>
       <r>   63.0130    0.0000 </r>
       <r>   63.0132    0.0000 </r>
       <r>   63.2557    0.0000 </r>
       <r>   69.1618    0.0000 </r>
       <r>   69.1620    0.0000 </r>
       <r>   69.3259    0.0000 </r>
       <r>   72.3464    0.0000 </r>
       <r>   72.6330    0.0000 </r>
       <r>   72.6330    0.0000 </r>
       <r>   74.3384    0.0000 </r>
       <r>   76.0357    0.0000 </r>
       <r>   76.0362    0.0000 </r>
       <r>   78.8654    0.0000 </r>
       <r>   85.6895    0.0000 </r>
       <r>   85.6901    0.0000 </r>
       <r>   86.0377    0.0000 </r>
       <r>   91.3005    0.0000 </r>
       <r>   91.6694    0.0000 </r>
       <r>   91.6695    0.0000 </r>
       <r>   94.2770    0.0000 </r>
       <r>   95.5595    0.0000 </r>
       <r>   95.5601    0.0000 </r>
       <r>  100.0271    0.0000 </r>
       <r>  100.0272    0.0000 </r>
       <r>  105.7197    0.0000 </r>
       <r>  107.2259    0.0000 </r>
       <r>  107.2262    0.0000 </r>
       <r>  107.5754    0.0000 </r>
       <r>  114.4884    0.0000 </r>
       <r>  114.4888    0.0000 </r>
       <r>  115.1446    0.0000 </r>
       <r>  119.1083    0.0000 </r>
       <r>  119.1090    0.0000 </r>
       <r>  119.9996    0.0000 </r>
       <r>  120.0041    0.0000 </r>
       <r>  120.4867    0.0000 </r>
       <r>  121.2560    0.0000 </r>
       <r>  121.2572    0.0000 </r>
       <r>  121.7332    0.0000 </r>
       <r>  126.3856    0.0000 </r>
       <r>  129.5659    0.0000 </r>
       <r>  129.9441    0.0000 </r>
      </set>
      <set comment="kpoint 7">
       <r>  -43.9878    1.0000 </r>
       <r>  -22.5290    1.0000 </r>
       <r>   -4.3009    1.0000 </r>
       <r>   -2.1822    1.0000 </r>
       <r>   -2.1822    1.0000 </r>
       <r>    9.5935    0.0000 </r>
       <r>   15.5996    0.0000 </r>
       <r>   18.0866    0.0000 </r>
       <r>   18.0873    0.0000 </r>
       <r>   29.2188    0.0000 </r>
       <r>   29.6047    0.0000 </r>
       <r>   29.6049    0.0000 </r>
       <r>   32.6183    0.0000 </r>
       <r>   35.9982    0.0000 </r>
       <r>   35.9983    0.0000 </r>
       <r>   43.9100    0.0000 </r>
       <r>   43.9106    0.0000 </r>
       <r>   47.2971    0.0000 </r>
       <r>   49.9509    0.0000 </r>
       <r>   52.1430    0.0000 </r>
       <r>   52.1433    0.0000 </r>
       <r>   55.6967    0.0000 </r>
       <r>   60.6516    0.0000 </r>
       <r>   60.6517    0.0000 </r>
       <r>   62.9210    0.0000 </r>
       <r>   67.2061    0.0000 </r>
       <r>   70.4242    0.0000 </r>
       <r>   70.4243    0.0000 </r>
       <r>   71.8534    0.0000 </r>
       <r>   71.8535    0.0000 </r>
       <r>   73.9750    0.0000 </r>
       <r>   74.0794    0.0000 </r>
       <r>   74.1165    0.0000 </r>
       <r>   74.1171    0.0000 </r>
       <r>   76.4740    0.0000 </r>
       <r>   85.5801    0.0000 </r>
       <r>   85.5807    0.0000 </r>
       <r>   87.5857    0.0000 </r>
       <r>   91.0605    0.0000 </r>
       <r>   91.3264    0.0000 </r>
       <r>   91.3265    0.0000 </r>
       <r>   94.5549    0.0000 </r>
       <r>   97.6420    0.0000 </r>
       <r>   97.6430    0.0000 </r>
       <r>  105.2011    0.0000 </r>
       <r>  105.2227    0.0000 </r>
       <r>  105.2227    0.0000 </r>
       <r>  106.4455    0.0000 </r>
       <r>  106.4456    0.0000 </r>
       <r>  108.9446    0.0000 </r>
       <r>  113.1590    0.0000 </r>
       <r>  113.1592    0.0000 </r>
       <r>  114.8701    0.0000 </r>
       <r>  118.5082    0.0000 </r>
       <r>  118.5088    0.0000 </r>
       <r>  121.1474    0.0000 </r>
       <r>  124.4903    0.0000 </r>
       <r>  124.4910    0.0000 </r>
       <r>  124.7269    0.0000 </r>
       <r>  124.7274    0.0000 </r>
       <r>  126.1382    0.0000 </r>
       <r>  126.1383    0.0000 </r>
       <r>  126.6172    0.0000 </r>
       <r>  127.8182    0.0000 </r>
      </set>
      <set comment="kpoint 8">
       <r>  -44.0311    1.0000 </r>
       <r>  -22.8810    1.0000 </r>
       <r>   -2.1040    1.0000 </r>
       <r>   -2.0154    1.0000 </r>
       <r>   -2.0154    1.0000 </r>
       <r>    8.0902    0.0000 </r>
       <r>   21.5690    0.0000 </r>
       <r>   21.6114    0.0000 </r>
       <r>   21.6117    0.0000 </r>
       <r>   22.4193    0.0000 </r>
       <r>   25.3914    0.0000 </r>
       <r>   25.3918    0.0000 </r>
       <r>   27.9315    0.0000 </r>
       <r>   30.4380    0.0000 </r>
       <r>   31.3847    0.0000 </r>
       <r>   43.0373    0.0000 </r>
       <r>   43.4310    0.0000 </r>
       <r>   43.4310    0.0000 </r>
       <r>   47.1901    0.0000 </r>
       <r>   61.0197    0.0000 </r>
       <r>   61.0201    0.0000 </r>
       <r>   62.4264    0.0000 </r>
       <r>   63.3769    0.0000 </r>
       <r>   64.8782    0.0000 </r>
       <r>   67.0562    0.0000 </r>
       <r>   70.0469    0.0000 </r>
       <r>   70.0471    0.0000 </r>
       <r>   71.6860    0.0000 </r>
       <r>   72.8154    0.0000 </r>
       <r>   72.8157    0.0000 </r>
       <r>   73.6842    0.0000 </r>
       <r>   82.7225    0.0000 </r>
       <r>   82.9669    0.0000 </r>
       <r>   85.5804    0.0000 </r>
       <r>   85.5808    0.0000 </r>
       <r>   87.6266    0.0000 </r>
       <r>   91.0424    0.0000 </r>
       <r>   92.6392    0.0000 </r>
       <r>   92.6392    0.0000 </r>
       <r>   93.5508    0.0000 </r>
       <r>   93.5513    0.0000 </r>
       <r>   95.3498    0.0000 </r>
       <r>   95.7494    0.0000 </r>
       <r>   96.1330    0.0000 </r>
       <r>   96.1980    0.0000 </r>
       <r>   96.2423    0.0000 </r>
       <r>   96.2423    0.0000 </r>
       <r>   96.7352    0.0000 </r>
       <r>   98.1510    0.0000 </r>
       <r>  100.3243    0.0000 </r>
       <r>  100.3244    0.0000 </r>
       <r>  101.4735    0.0000 </r>
       <r>  102.7795    0.0000 </r>
       <r>  103.3871    0.0000 </r>
       <r>  103.3874    0.0000 </r>
       <r>  106.9136    0.0000 </r>
       <r>  106.9136    0.0000 </r>
       <r>  107.2381    0.0000 </r>
       <r>  107.8581    0.0000 </r>
       <r>  119.1558    0.0000 </r>
       <r>  122.6012    0.0000 </r>
       <r>  124.1280    0.0000 </r>
       <r>  124.1288    0.0000 </r>
       <r>  134.6220    0.0000 </r>
      </set>
      <set comment="kpoint 9">
       <r>  -44.0251    1.0000 </r>
       <r>  -22.8341    1.0000 </r>
       <r>   -2.4292    1.0000 </r>
       <r>   -2.0781    1.0000 </r>
       <r>   -2.0356    1.0000 </r>
       <r>    8.4647    0.0000 </r>
       <r>   19.3375    0.0000 </r>
       <r>   20.8787    0.0000 </r>
       <r>   21.2873    0.0000 </r>
       <r>   22.4541    0.0000 </r>
       <r>   26.2414    0.0000 </r>
       <r>   26.4116    0.0000 </r>
       <r>   30.5294    0.0000 </r>
       <r>   31.2620    0.0000 </r>
       <r>   32.5314    0.0000 </r>
       <r>   41.6774    0.0000 </r>
       <r>   43.3614    0.0000 </r>
       <r>   43.9283    0.0000 </r>
       <r>   47.5525    0.0000 </r>
       <r>   57.4210    0.0000 </r>
       <r>   58.6163    0.0000 </r>
       <r>   62.1364    0.0000 </r>
       <r>   62.9737    0.0000 </r>
       <r>   65.1837    0.0000 </r>
       <r>   66.1877    0.0000 </r>
       <r>   70.2989    0.0000 </r>
       <r>   70.4551    0.0000 </r>
       <r>   72.6232    0.0000 </r>
       <r>   73.0679    0.0000 </r>
       <r>   75.5110    0.0000 </r>
       <r>   78.0418    0.0000 </r>
       <r>   81.2602    0.0000 </r>
       <r>   81.4295    0.0000 </r>
       <r>   83.2579    0.0000 </r>
       <r>   83.5749    0.0000 </r>
       <r>   85.1904    0.0000 </r>
       <r>   87.9099    0.0000 </r>
       <r>   89.1559    0.0000 </r>
       <r>   89.3250    0.0000 </r>
       <r>   91.3892    0.0000 </r>
       <r>   91.7535    0.0000 </r>
       <r>   93.9755    0.0000 </r>
       <r>   94.2088    0.0000 </r>
       <r>   95.1751    0.0000 </r>
       <r>   97.0791    0.0000 </r>
       <r>   97.2199    0.0000 </r>
       <r>   98.0907    0.0000 </r>
       <r>   99.1255    0.0000 </r>
       <r>   99.4209    0.0000 </r>
       <r>  100.1740    0.0000 </r>
       <r>  102.9585    0.0000 </r>
       <r>  104.6213    0.0000 </r>
       <r>  106.9043    0.0000 </r>
       <r>  107.4120    0.0000 </r>
       <r>  107.4699    0.0000 </r>
       <r>  108.0856    0.0000 </r>
       <r>  110.1204    0.0000 </r>
       <r>  112.7231    0.0000 </r>
       <r>  114.0234    0.0000 </r>
       <r>  116.3096    0.0000 </r>
       <r>  122.0083    0.0000 </r>
       <r>  122.8899    0.0000 </r>
       <r>  125.0322    0.0000 </r>
       <r>  134.2072    0.0000 </r>
      </set>
      <set comment="kpoint 10">
       <r>  -44.0156    1.0000 </r>
       <r>  -22.7571    1.0000 </r>
       <r>   -2.9398    1.0000 </r>
       <r>   -2.1461    1.0000 </r>
       <r>   -2.0764    1.0000 </r>
       <r>    8.9951    0.0000 </r>
       <r>   17.5309    0.0000 </r>
       <r>   20.0618    0.0000 </r>
       <r>   20.1759    0.0000 </r>
       <r>   23.4594    0.0000 </r>
       <r>   27.0397    0.0000 </r>
       <r>   27.2792    0.0000 </r>
       <r>   32.9463    0.0000 </r>
       <r>   33.6923    0.0000 </r>
       <r>   34.2141    0.0000 </r>
       <r>   39.8168    0.0000 </r>
       <r>   43.3570    0.0000 </r>
       <r>   44.8608    0.0000 </r>
       <r>   47.8612    0.0000 </r>
       <r>   53.7998    0.0000 </r>
       <r>   55.3797    0.0000 </r>
       <r>   61.9683    0.0000 </r>
       <r>   62.7271    0.0000 </r>
       <r>   65.2293    0.0000 </r>
       <r>   66.0451    0.0000 </r>
       <r>   69.4582    0.0000 </r>
       <r>   69.7443    0.0000 </r>
       <r>   73.3409    0.0000 </r>
       <r>   73.9969    0.0000 </r>
       <r>   76.6672    0.0000 </r>
       <r>   77.5244    0.0000 </r>
       <r>   80.5952    0.0000 </r>
       <r>   80.7417    0.0000 </r>
       <r>   82.1752    0.0000 </r>
       <r>   82.7886    0.0000 </r>
       <r>   83.0883    0.0000 </r>
       <r>   84.4428    0.0000 </r>
       <r>   85.9767    0.0000 </r>
       <r>   87.3156    0.0000 </r>
       <r>   88.8129    0.0000 </r>
       <r>   90.4465    0.0000 </r>
       <r>   92.6184    0.0000 </r>
       <r>   93.7912    0.0000 </r>
       <r>   95.8488    0.0000 </r>
       <r>   96.2589    0.0000 </r>
       <r>   97.8486    0.0000 </r>
       <r>  100.9767    0.0000 </r>
       <r>  101.9732    0.0000 </r>
       <r>  102.8847    0.0000 </r>
       <r>  103.9864    0.0000 </r>
       <r>  104.0048    0.0000 </r>
       <r>  108.5380    0.0000 </r>
       <r>  110.0943    0.0000 </r>
       <r>  111.4616    0.0000 </r>
       <r>  112.1206    0.0000 </r>
       <r>  113.2685    0.0000 </r>
       <r>  113.9492    0.0000 </r>
       <r>  114.6729    0.0000 </r>
       <r>  118.3214    0.0000 </r>
       <r>  119.6652    0.0000 </r>
       <r>  120.5735    0.0000 </r>
       <r>  120.9039    0.0000 </r>
       <r>  128.8182    0.0000 </r>
       <r>  132.3830    0.0000 </r>
      </set>
      <set comment="kpoint 11">
       <r>  -44.0045    1.0000 </r>
       <r>  -22.6658    1.0000 </r>
       <r>   -3.4816    1.0000 </r>
       <r>   -2.2030    1.0000 </r>
       <r>   -2.1446    1.0000 </r>
       <r>    9.4771    0.0000 </r>
       <r>   16.3054    0.0000 </r>
       <r>   19.2298    0.0000 </r>
       <r>   19.2729    0.0000 </r>
       <r>   24.7045    0.0000 </r>
       <r>   28.0594    0.0000 </r>
       <r>   28.2685    0.0000 </r>
       <r>   34.5603    0.0000 </r>
       <r>   34.7668    0.0000 </r>
       <r>   36.6983    0.0000 </r>
       <r>   39.6446    0.0000 </r>
       <r>   43.2379    0.0000 </r>
       <r>   45.8308    0.0000 </r>
       <r>   48.2051    0.0000 </r>
       <r>   51.3211    0.0000 </r>
       <r>   52.4484    0.0000 </r>
       <r>   60.9459    0.0000 </r>
       <r>   63.4672    0.0000 </r>
       <r>   64.1898    0.0000 </r>
       <r>   65.9399    0.0000 </r>
       <r>   68.4176    0.0000 </r>
       <r>   68.4766    0.0000 </r>
       <r>   72.4797    0.0000 </r>
       <r>   73.8360    0.0000 </r>
       <r>   74.1688    0.0000 </r>
       <r>   75.6591    0.0000 </r>
       <r>   76.6193    0.0000 </r>
       <r>   78.3994    0.0000 </r>
       <r>   79.9193    0.0000 </r>
       <r>   82.2909    0.0000 </r>
       <r>   84.6472    0.0000 </r>
       <r>   84.8229    0.0000 </r>
       <r>   86.4249    0.0000 </r>
       <r>   87.2606    0.0000 </r>
       <r>   89.8733    0.0000 </r>
       <r>   90.2789    0.0000 </r>
       <r>   93.3281    0.0000 </r>
       <r>   93.4755    0.0000 </r>
       <r>   95.1780    0.0000 </r>
       <r>   96.9070    0.0000 </r>
       <r>   99.6274    0.0000 </r>
       <r>  101.7290    0.0000 </r>
       <r>  105.6727    0.0000 </r>
       <r>  106.0232    0.0000 </r>
       <r>  107.2540    0.0000 </r>
       <r>  108.5638    0.0000 </r>
       <r>  109.4939    0.0000 </r>
       <r>  111.2198    0.0000 </r>
       <r>  113.9598    0.0000 </r>
       <r>  114.9856    0.0000 </r>
       <r>  117.0730    0.0000 </r>
       <r>  118.3050    0.0000 </r>
       <r>  119.4644    0.0000 </r>
       <r>  119.9310    0.0000 </r>
       <r>  121.8344    0.0000 </r>
       <r>  122.4374    0.0000 </r>
       <r>  127.1389    0.0000 </r>
       <r>  128.0087    0.0000 </r>
       <r>  128.8935    0.0000 </r>
      </set>
      <set comment="kpoint 12">
       <r>  -43.9945    1.0000 </r>
       <r>  -22.5811    1.0000 </r>
       <r>   -3.9386    1.0000 </r>
       <r>   -2.2364    1.0000 </r>
       <r>   -2.2238    1.0000 </r>
       <r>    9.7567    0.0000 </r>
       <r>   15.6668    0.0000 </r>
       <r>   18.5544    0.0000 </r>
       <r>   18.6322    0.0000 </r>
       <r>   26.0982    0.0000 </r>
       <r>   29.1622    0.0000 </r>
       <r>   29.2972    0.0000 </r>
       <r>   34.3370    0.0000 </r>
       <r>   36.0168    0.0000 </r>
       <r>   36.1959    0.0000 </r>
       <r>   42.9691    0.0000 </r>
       <r>   43.7184    0.0000 </r>
       <r>   45.7482    0.0000 </r>
       <r>   48.5882    0.0000 </r>
       <r>   50.5851    0.0000 </r>
       <r>   51.2838    0.0000 </r>
       <r>   59.7619    0.0000 </r>
       <r>   61.8877    0.0000 </r>
       <r>   63.6980    0.0000 </r>
       <r>   64.4436    0.0000 </r>
       <r>   67.0247    0.0000 </r>
       <r>   68.0774    0.0000 </r>
       <r>   70.3973    0.0000 </r>
       <r>   71.1417    0.0000 </r>
       <r>   72.8544    0.0000 </r>
       <r>   74.7530    0.0000 </r>
       <r>   75.0058    0.0000 </r>
       <r>   76.4603    0.0000 </r>
       <r>   78.0406    0.0000 </r>
       <r>   82.5156    0.0000 </r>
       <r>   83.0768    0.0000 </r>
       <r>   85.3411    0.0000 </r>
       <r>   85.8368    0.0000 </r>
       <r>   89.1291    0.0000 </r>
       <r>   91.1892    0.0000 </r>
       <r>   91.3413    0.0000 </r>
       <r>   94.9639    0.0000 </r>
       <r>   95.5440    0.0000 </r>
       <r>   97.7685    0.0000 </r>
       <r>   98.6342    0.0000 </r>
       <r>   99.9910    0.0000 </r>
       <r>  104.1602    0.0000 </r>
       <r>  106.0882    0.0000 </r>
       <r>  107.8569    0.0000 </r>
       <r>  108.4786    0.0000 </r>
       <r>  111.8738    0.0000 </r>
       <r>  112.6437    0.0000 </r>
       <r>  113.3428    0.0000 </r>
       <r>  115.5846    0.0000 </r>
       <r>  116.2102    0.0000 </r>
       <r>  120.5465    0.0000 </r>
       <r>  121.3189    0.0000 </r>
       <r>  122.2678    0.0000 </r>
       <r>  122.5450    0.0000 </r>
       <r>  124.3927    0.0000 </r>
       <r>  124.5101    0.0000 </r>
       <r>  125.4076    0.0000 </r>
       <r>  128.9653    0.0000 </r>
       <r>  129.5715    0.0000 </r>
      </set>
      <set comment="kpoint 13">
       <r>  -43.9879    1.0000 </r>
       <r>  -22.5237    1.0000 </r>
       <r>   -4.2285    1.0000 </r>
       <r>   -2.2953    1.0000 </r>
       <r>   -2.2395    1.0000 </r>
       <r>    9.8404    0.0000 </r>
       <r>   15.4465    0.0000 </r>
       <r>   18.1843    0.0000 </r>
       <r>   18.2256    0.0000 </r>
       <r>   27.5061    0.0000 </r>
       <r>   29.8424    0.0000 </r>
       <r>   29.9745    0.0000 </r>
       <r>   33.5442    0.0000 </r>
       <r>   36.1451    0.0000 </r>
       <r>   36.2448    0.0000 </r>
       <r>   43.1861    0.0000 </r>
       <r>   44.3777    0.0000 </r>
       <r>   47.9009    0.0000 </r>
       <r>   48.9574    0.0000 </r>
       <r>   51.4046    0.0000 </r>
       <r>   52.3389    0.0000 </r>
       <r>   57.1005    0.0000 </r>
       <r>   59.7709    0.0000 </r>
       <r>   61.8956    0.0000 </r>
       <r>   62.5201    0.0000 </r>
       <r>   67.3158    0.0000 </r>
       <r>   67.8221    0.0000 </r>
       <r>   69.3032    0.0000 </r>
       <r>   69.6057    0.0000 </r>
       <r>   71.5853    0.0000 </r>
       <r>   73.8501    0.0000 </r>
       <r>   74.0765    0.0000 </r>
       <r>   76.9397    0.0000 </r>
       <r>   77.0612    0.0000 </r>
       <r>   81.0131    0.0000 </r>
       <r>   82.4919    0.0000 </r>
       <r>   84.8283    0.0000 </r>
       <r>   86.9927    0.0000 </r>
       <r>   89.5741    0.0000 </r>
       <r>   91.6852    0.0000 </r>
       <r>   91.8474    0.0000 </r>
       <r>   96.7305    0.0000 </r>
       <r>   96.8954    0.0000 </r>
       <r>   99.5693    0.0000 </r>
       <r>  101.4611    0.0000 </r>
       <r>  104.9447    0.0000 </r>
       <r>  105.1191    0.0000 </r>
       <r>  105.5157    0.0000 </r>
       <r>  106.9954    0.0000 </r>
       <r>  109.4479    0.0000 </r>
       <r>  114.3911    0.0000 </r>
       <r>  114.6645    0.0000 </r>
       <r>  115.1348    0.0000 </r>
       <r>  117.1943    0.0000 </r>
       <r>  118.0880    0.0000 </r>
       <r>  118.4553    0.0000 </r>
       <r>  120.2887    0.0000 </r>
       <r>  122.7347    0.0000 </r>
       <r>  124.1501    0.0000 </r>
       <r>  124.1540    0.0000 </r>
       <r>  126.3676    0.0000 </r>
       <r>  126.9715    0.0000 </r>
       <r>  128.9688    0.0000 </r>
       <r>  129.3343    0.0000 </r>
      </set>
      <set comment="kpoint 14">
       <r>  -43.9862    1.0000 </r>
       <r>  -22.5084    1.0000 </r>
       <r>   -4.3020    1.0000 </r>
       <r>   -2.3428    1.0000 </r>
       <r>   -2.2119    1.0000 </r>
       <r>    9.8453    0.0000 </r>
       <r>   15.4038    0.0000 </r>
       <r>   18.1064    0.0000 </r>
       <r>   18.1145    0.0000 </r>
       <r>   28.6692    0.0000 </r>
       <r>   29.4475    0.0000 </r>
       <r>   29.7471    0.0000 </r>
       <r>   33.5679    0.0000 </r>
       <r>   36.0393    0.0000 </r>
       <r>   36.3146    0.0000 </r>
       <r>   43.0830    0.0000 </r>
       <r>   44.2148    0.0000 </r>
       <r>   48.0412    0.0000 </r>
       <r>   51.3083    0.0000 </r>
       <r>   52.2626    0.0000 </r>
       <r>   52.4393    0.0000 </r>
       <r>   54.7647    0.0000 </r>
       <r>   59.9693    0.0000 </r>
       <r>   60.1614    0.0000 </r>
       <r>   62.0581    0.0000 </r>
       <r>   67.7364    0.0000 </r>
       <r>   67.8428    0.0000 </r>
       <r>   68.7066    0.0000 </r>
       <r>   69.7263    0.0000 </r>
       <r>   71.0946    0.0000 </r>
       <r>   73.2405    0.0000 </r>
       <r>   73.7805    0.0000 </r>
       <r>   76.7739    0.0000 </r>
       <r>   77.7415    0.0000 </r>
       <r>   80.1458    0.0000 </r>
       <r>   82.6799    0.0000 </r>
       <r>   84.5474    0.0000 </r>
       <r>   86.9803    0.0000 </r>
       <r>   89.9520    0.0000 </r>
       <r>   91.7561    0.0000 </r>
       <r>   91.9675    0.0000 </r>
       <r>   96.3827    0.0000 </r>
       <r>   98.3386    0.0000 </r>
       <r>   99.6586    0.0000 </r>
       <r>  103.6547    0.0000 </r>
       <r>  104.0602    0.0000 </r>
       <r>  105.0985    0.0000 </r>
       <r>  107.9771    0.0000 </r>
       <r>  108.7264    0.0000 </r>
       <r>  110.0456    0.0000 </r>
       <r>  112.1920    0.0000 </r>
       <r>  112.3085    0.0000 </r>
       <r>  115.2802    0.0000 </r>
       <r>  118.2434    0.0000 </r>
       <r>  118.8251    0.0000 </r>
       <r>  119.2517    0.0000 </r>
       <r>  121.9806    0.0000 </r>
       <r>  122.7981    0.0000 </r>
       <r>  123.3623    0.0000 </r>
       <r>  124.1058    0.0000 </r>
       <r>  126.1607    0.0000 </r>
       <r>  126.9373    0.0000 </r>
       <r>  127.4982    0.0000 </r>
       <r>  127.9963    0.0000 </r>
      </set>
      <set comment="kpoint 15">
       <r>  -43.9897    1.0000 </r>
       <r>  -22.5394    1.0000 </r>
       <r>   -4.1476    1.0000 </r>
       <r>   -2.3554    1.0000 </r>
       <r>   -2.1598    1.0000 </r>
       <r>    9.8177    0.0000 </r>
       <r>   15.4599    0.0000 </r>
       <r>   18.3035    0.0000 </r>
       <r>   18.3188    0.0000 </r>
       <r>   28.2022    0.0000 </r>
       <r>   28.5921    0.0000 </r>
       <r>   29.4038    0.0000 </r>
       <r>   34.0948    0.0000 </r>
       <r>   35.8984    0.0000 </r>
       <r>   36.5816    0.0000 </r>
       <r>   42.5800    0.0000 </r>
       <r>   45.7351    0.0000 </r>
       <r>   46.8410    0.0000 </r>
       <r>   48.1862    0.0000 </r>
       <r>   50.8074    0.0000 </r>
       <r>   51.9828    0.0000 </r>
       <r>   58.2247    0.0000 </r>
       <r>   60.9417    0.0000 </r>
       <r>   61.7404    0.0000 </r>
       <r>   63.5075    0.0000 </r>
       <r>   66.5676    0.0000 </r>
       <r>   68.1779    0.0000 </r>
       <r>   70.2655    0.0000 </r>
       <r>   70.3941    0.0000 </r>
       <r>   71.0129    0.0000 </r>
       <r>   73.6182    0.0000 </r>
       <r>   74.3241    0.0000 </r>
       <r>   76.7307    0.0000 </r>
       <r>   77.5205    0.0000 </r>
       <r>   81.7474    0.0000 </r>
       <r>   83.2072    0.0000 </r>
       <r>   84.5569    0.0000 </r>
       <r>   86.2032    0.0000 </r>
       <r>   89.3371    0.0000 </r>
       <r>   91.1167    0.0000 </r>
       <r>   92.1462    0.0000 </r>
       <r>   95.8905    0.0000 </r>
       <r>   97.0950    0.0000 </r>
       <r>   99.0847    0.0000 </r>
       <r>  101.4662    0.0000 </r>
       <r>  102.4338    0.0000 </r>
       <r>  105.5623    0.0000 </r>
       <r>  106.2418    0.0000 </r>
       <r>  106.5807    0.0000 </r>
       <r>  108.7418    0.0000 </r>
       <r>  113.4535    0.0000 </r>
       <r>  114.0241    0.0000 </r>
       <r>  116.2634    0.0000 </r>
       <r>  117.6753    0.0000 </r>
       <r>  117.8942    0.0000 </r>
       <r>  119.2721    0.0000 </r>
       <r>  119.9050    0.0000 </r>
       <r>  120.7696    0.0000 </r>
       <r>  122.2055    0.0000 </r>
       <r>  124.2928    0.0000 </r>
       <r>  125.4686    0.0000 </r>
       <r>  127.8171    0.0000 </r>
       <r>  128.5331    0.0000 </r>
       <r>  129.8914    0.0000 </r>
      </set>
      <set comment="kpoint 16">
       <r>  -43.9976    1.0000 </r>
       <r>  -22.6084    1.0000 </r>
       <r>   -3.7918    1.0000 </r>
       <r>   -2.3293    1.0000 </r>
       <r>   -2.0945    1.0000 </r>
       <r>    9.6721    0.0000 </r>
       <r>   15.7715    0.0000 </r>
       <r>   18.7655    0.0000 </r>
       <r>   18.8276    0.0000 </r>
       <r>   27.0338    0.0000 </r>
       <r>   27.0677    0.0000 </r>
       <r>   29.0242    0.0000 </r>
       <r>   34.9266    0.0000 </r>
       <r>   35.5050    0.0000 </r>
       <r>   36.4222    0.0000 </r>
       <r>   42.0211    0.0000 </r>
       <r>   43.1844    0.0000 </r>
       <r>   46.7269    0.0000 </r>
       <r>   47.9505    0.0000 </r>
       <r>   50.2390    0.0000 </r>
       <r>   51.6247    0.0000 </r>
       <r>   60.2228    0.0000 </r>
       <r>   63.1019    0.0000 </r>
       <r>   63.5679    0.0000 </r>
       <r>   65.8025    0.0000 </r>
       <r>   65.8027    0.0000 </r>
       <r>   69.3176    0.0000 </r>
       <r>   70.8568    0.0000 </r>
       <r>   72.4038    0.0000 </r>
       <r>   73.4657    0.0000 </r>
       <r>   74.2588    0.0000 </r>
       <r>   75.1660    0.0000 </r>
       <r>   76.3664    0.0000 </r>
       <r>   79.0391    0.0000 </r>
       <r>   83.6243    0.0000 </r>
       <r>   84.0612    0.0000 </r>
       <r>   84.8245    0.0000 </r>
       <r>   85.0028    0.0000 </r>
       <r>   88.7601    0.0000 </r>
       <r>   90.0227    0.0000 </r>
       <r>   90.7443    0.0000 </r>
       <r>   93.6534    0.0000 </r>
       <r>   95.9239    0.0000 </r>
       <r>   96.7942    0.0000 </r>
       <r>   98.7031    0.0000 </r>
       <r>   99.7626    0.0000 </r>
       <r>  103.8503    0.0000 </r>
       <r>  106.6712    0.0000 </r>
       <r>  106.9223    0.0000 </r>
       <r>  108.5192    0.0000 </r>
       <r>  109.4913    0.0000 </r>
       <r>  113.0502    0.0000 </r>
       <r>  113.9699    0.0000 </r>
       <r>  115.2905    0.0000 </r>
       <r>  115.4436    0.0000 </r>
       <r>  116.8723    0.0000 </r>
       <r>  117.4766    0.0000 </r>
       <r>  122.1534    0.0000 </r>
       <r>  122.5451    0.0000 </r>
       <r>  123.8004    0.0000 </r>
       <r>  125.6776    0.0000 </r>
       <r>  126.2136    0.0000 </r>
       <r>  128.6605    0.0000 </r>
       <r>  129.9783    0.0000 </r>
      </set>
      <set comment="kpoint 17">
       <r>  -44.0082    1.0000 </r>
       <r>  -22.6979    1.0000 </r>
       <r>   -3.2973    1.0000 </r>
       <r>   -2.2685    1.0000 </r>
       <r>   -2.0304    1.0000 </r>
       <r>    9.3112    0.0000 </r>
       <r>   16.5717    0.0000 </r>
       <r>   19.3947    0.0000 </r>
       <r>   19.6706    0.0000 </r>
       <r>   25.5886    0.0000 </r>
       <r>   25.9589    0.0000 </r>
       <r>   28.1477    0.0000 </r>
       <r>   34.1924    0.0000 </r>
       <r>   34.6321    0.0000 </r>
       <r>   36.3849    0.0000 </r>
       <r>   38.9361    0.0000 </r>
       <r>   43.3042    0.0000 </r>
       <r>   46.0186    0.0000 </r>
       <r>   47.8277    0.0000 </r>
       <r>   51.5453    0.0000 </r>
       <r>   53.6909    0.0000 </r>
       <r>   61.1871    0.0000 </r>
       <r>   63.6353    0.0000 </r>
       <r>   64.9254    0.0000 </r>
       <r>   65.9179    0.0000 </r>
       <r>   66.9796    0.0000 </r>
       <r>   70.5539    0.0000 </r>
       <r>   73.3896    0.0000 </r>
       <r>   73.4979    0.0000 </r>
       <r>   75.5592    0.0000 </r>
       <r>   76.2507    0.0000 </r>
       <r>   77.9571    0.0000 </r>
       <r>   78.0097    0.0000 </r>
       <r>   80.9465    0.0000 </r>
       <r>   82.3658    0.0000 </r>
       <r>   83.6979    0.0000 </r>
       <r>   86.0749    0.0000 </r>
       <r>   86.6170    0.0000 </r>
       <r>   87.5282    0.0000 </r>
       <r>   88.1853    0.0000 </r>
       <r>   88.8602    0.0000 </r>
       <r>   91.9780    0.0000 </r>
       <r>   92.8136    0.0000 </r>
       <r>   96.5226    0.0000 </r>
       <r>   98.6890    0.0000 </r>
       <r>   99.3029    0.0000 </r>
       <r>  100.8798    0.0000 </r>
       <r>  103.4705    0.0000 </r>
       <r>  105.3067    0.0000 </r>
       <r>  107.0867    0.0000 </r>
       <r>  108.1721    0.0000 </r>
       <r>  110.1609    0.0000 </r>
       <r>  110.5350    0.0000 </r>
       <r>  113.1664    0.0000 </r>
       <r>  113.6772    0.0000 </r>
       <r>  114.7169    0.0000 </r>
       <r>  115.6821    0.0000 </r>
       <r>  116.6483    0.0000 </r>
       <r>  118.9225    0.0000 </r>
       <r>  121.7253    0.0000 </r>
       <r>  123.5327    0.0000 </r>
       <r>  123.6813    0.0000 </r>
       <r>  128.6500    0.0000 </r>
       <r>  131.3575    0.0000 </r>
      </set>
      <set comment="kpoint 18">
       <r>  -44.0190    1.0000 </r>
       <r>  -22.7864    1.0000 </r>
       <r>   -2.7633    1.0000 </r>
       <r>   -2.1820    1.0000 </r>
       <r>   -1.9819    1.0000 </r>
       <r>    8.7905    0.0000 </r>
       <r>   17.9408    0.0000 </r>
       <r>   20.1173    0.0000 </r>
       <r>   20.7953    0.0000 </r>
       <r>   24.3477    0.0000 </r>
       <r>   25.1093    0.0000 </r>
       <r>   27.1740    0.0000 </r>
       <r>   32.5643    0.0000 </r>
       <r>   33.0467    0.0000 </r>
       <r>   33.3522    0.0000 </r>
       <r>   40.1983    0.0000 </r>
       <r>   43.2675    0.0000 </r>
       <r>   44.9409    0.0000 </r>
       <r>   47.6574    0.0000 </r>
       <r>   54.3966    0.0000 </r>
       <r>   56.9735    0.0000 </r>
       <r>   62.0660    0.0000 </r>
       <r>   63.3496    0.0000 </r>
       <r>   65.2948    0.0000 </r>
       <r>   65.4185    0.0000 </r>
       <r>   68.7892    0.0000 </r>
       <r>   71.3579    0.0000 </r>
       <r>   72.8627    0.0000 </r>
       <r>   73.9717    0.0000 </r>
       <r>   77.1286    0.0000 </r>
       <r>   79.0445    0.0000 </r>
       <r>   80.2944    0.0000 </r>
       <r>   81.0167    0.0000 </r>
       <r>   81.3748    0.0000 </r>
       <r>   82.0648    0.0000 </r>
       <r>   84.1463    0.0000 </r>
       <r>   85.3292    0.0000 </r>
       <r>   88.0886    0.0000 </r>
       <r>   88.5336    0.0000 </r>
       <r>   88.7877    0.0000 </r>
       <r>   89.7592    0.0000 </r>
       <r>   91.0576    0.0000 </r>
       <r>   92.9247    0.0000 </r>
       <r>   95.7886    0.0000 </r>
       <r>   98.9211    0.0000 </r>
       <r>   99.0793    0.0000 </r>
       <r>   99.5329    0.0000 </r>
       <r>  100.2053    0.0000 </r>
       <r>  102.9226    0.0000 </r>
       <r>  104.0569    0.0000 </r>
       <r>  104.9317    0.0000 </r>
       <r>  106.1590    0.0000 </r>
       <r>  106.2477    0.0000 </r>
       <r>  108.3352    0.0000 </r>
       <r>  111.2973    0.0000 </r>
       <r>  111.6879    0.0000 </r>
       <r>  114.2658    0.0000 </r>
       <r>  116.1766    0.0000 </r>
       <r>  116.3773    0.0000 </r>
       <r>  117.1922    0.0000 </r>
       <r>  117.9990    0.0000 </r>
       <r>  123.1122    0.0000 </r>
       <r>  127.1972    0.0000 </r>
       <r>  132.3621    0.0000 </r>
      </set>
      <set comment="kpoint 19">
       <r>  -44.0276    1.0000 </r>
       <r>  -22.8545    1.0000 </r>
       <r>   -2.3277    1.0000 </r>
       <r>   -2.0756    1.0000 </r>
       <r>   -1.9608    1.0000 </r>
       <r>    8.2962    0.0000 </r>
       <r>   19.6879    0.0000 </r>
       <r>   20.9183    0.0000 </r>
       <r>   22.0273    0.0000 </r>
       <r>   23.5133    0.0000 </r>
       <r>   24.5323    0.0000 </r>
       <r>   26.0350    0.0000 </r>
       <r>   29.7414    0.0000 </r>
       <r>   31.2269    0.0000 </r>
       <r>   31.9420    0.0000 </r>
       <r>   41.8948    0.0000 </r>
       <r>   43.3197    0.0000 </r>
       <r>   44.1480    0.0000 </r>
       <r>   47.3665    0.0000 </r>
       <r>   57.9643    0.0000 </r>
       <r>   59.9796    0.0000 </r>
       <r>   62.7517    0.0000 </r>
       <r>   64.0228    0.0000 </r>
       <r>   65.0474    0.0000 </r>
       <r>   65.2282    0.0000 </r>
       <r>   70.0267    0.0000 </r>
       <r>   71.6502    0.0000 </r>
       <r>   72.2881    0.0000 </r>
       <r>   72.8763    0.0000 </r>
       <r>   72.9372    0.0000 </r>
       <r>   77.0148    0.0000 </r>
       <r>   82.0866    0.0000 </r>
       <r>   82.3801    0.0000 </r>
       <r>   84.2345    0.0000 </r>
       <r>   84.7143    0.0000 </r>
       <r>   85.4734    0.0000 </r>
       <r>   89.6900    0.0000 </r>
       <r>   90.2374    0.0000 </r>
       <r>   90.7098    0.0000 </r>
       <r>   91.3057    0.0000 </r>
       <r>   92.1261    0.0000 </r>
       <r>   92.1632    0.0000 </r>
       <r>   94.0978    0.0000 </r>
       <r>   94.7331    0.0000 </r>
       <r>   95.5487    0.0000 </r>
       <r>   99.0315    0.0000 </r>
       <r>   99.5096    0.0000 </r>
       <r>   99.6924    0.0000 </r>
       <r>  101.5348    0.0000 </r>
       <r>  101.8482    0.0000 </r>
       <r>  101.8621    0.0000 </r>
       <r>  102.5964    0.0000 </r>
       <r>  102.8446    0.0000 </r>
       <r>  103.0400    0.0000 </r>
       <r>  106.0198    0.0000 </r>
       <r>  108.1406    0.0000 </r>
       <r>  109.0485    0.0000 </r>
       <r>  109.7045    0.0000 </r>
       <r>  112.7865    0.0000 </r>
       <r>  119.2769    0.0000 </r>
       <r>  119.8451    0.0000 </r>
       <r>  124.1059    0.0000 </r>
       <r>  124.2076    0.0000 </r>
       <r>  134.0998    0.0000 </r>
      </set>
      <set comment="kpoint 20">
       <r>  -44.0211    1.0000 </r>
       <r>  -22.7990    1.0000 </r>
       <r>   -2.5180    1.0000 </r>
       <r>   -2.1695    1.0000 </r>
       <r>   -2.1695    1.0000 </r>
       <r>    8.7812    0.0000 </r>
       <r>   19.5589    0.0000 </r>
       <r>   20.5036    0.0000 </r>
       <r>   20.5039    0.0000 </r>
       <r>   20.7119    0.0000 </r>
       <r>   28.0761    0.0000 </r>
       <r>   28.0764    0.0000 </r>
       <r>   31.0597    0.0000 </r>
       <r>   31.2440    0.0000 </r>
       <r>   33.1834    0.0000 </r>
       <r>   42.3729    0.0000 </r>
       <r>   43.0065    0.0000 </r>
       <r>   43.0065    0.0000 </r>
       <r>   47.9353    0.0000 </r>
       <r>   57.4602    0.0000 </r>
       <r>   57.9533    0.0000 </r>
       <r>   57.9537    0.0000 </r>
       <r>   63.9310    0.0000 </r>
       <r>   65.2178    0.0000 </r>
       <r>   65.7087    0.0000 </r>
       <r>   70.5217    0.0000 </r>
       <r>   70.5218    0.0000 </r>
       <r>   72.0543    0.0000 </r>
       <r>   76.2297    0.0000 </r>
       <r>   76.2302    0.0000 </r>
       <r>   79.4533    0.0000 </r>
       <r>   79.9949    0.0000 </r>
       <r>   79.9953    0.0000 </r>
       <r>   81.6584    0.0000 </r>
       <r>   82.2702    0.0000 </r>
       <r>   82.8399    0.0000 </r>
       <r>   87.7076    0.0000 </r>
       <r>   90.8845    0.0000 </r>
       <r>   90.8846    0.0000 </r>
       <r>   91.9679    0.0000 </r>
       <r>   91.9681    0.0000 </r>
       <r>   91.9911    0.0000 </r>
       <r>   93.2594    0.0000 </r>
       <r>   93.8550    0.0000 </r>
       <r>   94.2649    0.0000 </r>
       <r>   94.2650    0.0000 </r>
       <r>   98.4199    0.0000 </r>
       <r>  100.3298    0.0000 </r>
       <r>  100.9092    0.0000 </r>
       <r>  103.5229    0.0000 </r>
       <r>  103.5231    0.0000 </r>
       <r>  104.8779    0.0000 </r>
       <r>  105.1298    0.0000 </r>
       <r>  110.6912    0.0000 </r>
       <r>  110.6916    0.0000 </r>
       <r>  112.7144    0.0000 </r>
       <r>  113.6290    0.0000 </r>
       <r>  113.6291    0.0000 </r>
       <r>  114.1028    0.0000 </r>
       <r>  116.2760    0.0000 </r>
       <r>  123.9200    0.0000 </r>
       <r>  123.9207    0.0000 </r>
       <r>  124.3188    0.0000 </r>
       <r>  133.2772    0.0000 </r>
      </set>
      <set comment="kpoint 21">
       <r>  -44.0133    1.0000 </r>
       <r>  -22.7311    1.0000 </r>
       <r>   -2.9087    1.0000 </r>
       <r>   -2.2627    1.0000 </r>
       <r>   -2.2411    1.0000 </r>
       <r>    9.3103    0.0000 </r>
       <r>   17.9137    0.0000 </r>
       <r>   19.8284    0.0000 </r>
       <r>   20.0107    0.0000 </r>
       <r>   21.1395    0.0000 </r>
       <r>   29.1284    0.0000 </r>
       <r>   29.1328    0.0000 </r>
       <r>   32.2674    0.0000 </r>
       <r>   33.7347    0.0000 </r>
       <r>   34.0411    0.0000 </r>
       <r>   40.9179    0.0000 </r>
       <r>   42.7226    0.0000 </r>
       <r>   43.9911    0.0000 </r>
       <r>   48.4720    0.0000 </r>
       <r>   53.8168    0.0000 </r>
       <r>   55.9949    0.0000 </r>
       <r>   58.2778    0.0000 </r>
       <r>   63.3451    0.0000 </r>
       <r>   64.4372    0.0000 </r>
       <r>   65.7939    0.0000 </r>
       <r>   69.9699    0.0000 </r>
       <r>   70.6539    0.0000 </r>
       <r>   72.5538    0.0000 </r>
       <r>   75.2973    0.0000 </r>
       <r>   75.3108    0.0000 </r>
       <r>   78.8705    0.0000 </r>
       <r>   78.9038    0.0000 </r>
       <r>   80.5933    0.0000 </r>
       <r>   81.0767    0.0000 </r>
       <r>   83.0281    0.0000 </r>
       <r>   85.1533    0.0000 </r>
       <r>   85.3127    0.0000 </r>
       <r>   85.3954    0.0000 </r>
       <r>   87.6544    0.0000 </r>
       <r>   89.7122    0.0000 </r>
       <r>   90.6237    0.0000 </r>
       <r>   93.0714    0.0000 </r>
       <r>   93.5106    0.0000 </r>
       <r>   94.4762    0.0000 </r>
       <r>   96.0936    0.0000 </r>
       <r>   96.3322    0.0000 </r>
       <r>  100.0251    0.0000 </r>
       <r>  100.7095    0.0000 </r>
       <r>  103.2440    0.0000 </r>
       <r>  103.2464    0.0000 </r>
       <r>  105.9907    0.0000 </r>
       <r>  108.0680    0.0000 </r>
       <r>  109.5205    0.0000 </r>
       <r>  111.0122    0.0000 </r>
[...]
        <r>  0.0674  0.0070  0.0000  0.0619  0.0000  0.0000  0.0000  0.0000  0.0000 </r>
       </set>
       <set comment="band 44">
        <r>  0.0009  0.2060  0.0000  0.0048  0.0000  0.0000  0.0000  0.0000  0.0000 </r>
        <r>  0.0166  0.0068  0.0000  0.0279  0.0000  0.0000  0.0000  0.0000  0.0000 </r>
       </set>
       <set comment="band 45">
        <r>  0.0000  0.0000  0.0102  0.0000  0.0000  0.0000  0.0000  0.0000  0.0000 </r>
        <r>  0.0000  0.0000  0.0352  0.0000  0.0000  0.0000  0.0000  0.0000  0.0000 </r>
       </set>
       <set comment="band 46">
        <r>  0.0000  0.0000  0.0619  0.0000  0.0000  0.0000  0.0000  0.0000  0.0000 </r>
        <r>  0.0000  0.0000  0.0541  0.0000  0.0000  0.0000  0.0000  0.0000  0.0000 </r>
       </set>
       <set comment="band 47">
        <r>  0.0533  0.0448  0.0000  0.0052  0.0000  0.0000  0.0000  0.0000  0.0000 </r>
        <r>  0.0014  0.0003  0.0000  0.0189  0.0000  0.0000  0.0000  0.0000  0.0000 </r>
       </set>
       <set comment="band 48">
        <r>  0.0483  0.0193  0.0000  0.1646  0.0000  0.0000  0.0000  0.0000  0.0000 </r>
        <r>  0.0356  0.0011  0.0000  0.0211  0.0000  0.0000  0.0000  0.0000  0.0000 </r>
       </set>
       <set comment="band 49">
        <r>  0.0001  0.3316  0.0000  0.0675  0.0000  0.0000  0.0000  0.0000  0.0000 </r>
        <r>  0.0091  0.0385  0.0000  0.0044  0.0000  0.0000  0.0000  0.0000  0.0000 </r>
       </set>
       <set comment="band 50">
        <r>  0.0000  0.0000  0.0001  0.0000  0.0000  0.0000  0.0000  0.0000  0.0000 </r>
        <r>  0.0000  0.0000  0.0371  0.0000  0.0000  0.0000  0.0000  0.0000  0.0000 </r>
       </set>
       <set comment="band 51">
        <r>  0.0034  0.3532  0.0000  0.0052  0.0000  0.0000  0.0000  0.0000  0.0000 </r>
        <r>  0.0001  0.0192  0.0000  0.0042  0.0000  0.0000  0.0000  0.0000  0.0000 </r>
       </set>
       <set comment="band 52">
        <r>  0.0000  0.0000  0.3066  0.0000  0.0000  0.0000  0.0000  0.0000  0.0000 </r>
        <r>  0.0000  0.0000  0.0000  0.0000  0.0000  0.0000  0.0000  0.0000  0.0000 </r>
       </set>
       <set comment="band 53">
        <r>  0.0079  0.0008  0.0000  0.2722  0.0000  0.0000  0.0000  0.0000  0.0000 </r>
        <r>  0.1667  0.0044  0.0000  0.0143  0.0000  0.0000  0.0000  0.0000  0.0000 </r>
       </set>
       <set comment="band 54">
        <r>  0.0181  0.1152  0.0000  0.2148  0.0000  0.0000  0.0000  0.0000  0.0000 </r>
        <r>  0.0296  0.0344  0.0000  0.0303  0.0000  0.0000  0.0000  0.0000  0.0000 </r>
       </set>
       <set comment="band 55">
        <r>  0.0000  0.0000  0.4763  0.0000  0.0000  0.0000  0.0000  0.0000  0.0000 </r>
        <r>  0.0000  0.0000  0.0023  0.0000  0.0000  0.0000  0.0000  0.0000  0.0000 </r>
       </set>
       <set comment="band 56">
        <r>  0.0000  0.0000  0.1036  0.0000  0.0000  0.0000  0.0000  0.0000  0.0000 </r>
        <r>  0.0000  0.0000  0.0757  0.0000  0.0000  0.0000  0.0000  0.0000  0.0000 </r>
       </set>
       <set comment="band 57">
        <r>  0.0187  0.1615  0.0000  0.0414  0.0000  0.0000  0.0000  0.0000  0.0000 </r>
        <r>  0.1057  0.0278  0.0000  0.0093  0.0000  0.0000  0.0000  0.0000  0.0000 </r>
       </set>
       <set comment="band 58">
        <r>  0.0218  0.0641  0.0000  0.0001  0.0000  0.0000  0.0000  0.0000  0.0000 </r>
        <r>  0.0030  0.0706  0.0000  0.0355  0.0000  0.0000  0.0000  0.0000  0.0000 </r>
       </set>
       <set comment="band 59">
        <r>  0.0000  0.0000  0.0728  0.0000  0.0000  0.0000  0.0000  0.0000  0.0000 </r>
        <r>  0.0000  0.0000  0.0000  0.0000  0.0000  0.0000  0.0000  0.0000  0.0000 </r>
       </set>
       <set comment="band 60">
        <r>  0.0431  0.0360  0.0000  0.1950  0.0000  0.0000  0.0000  0.0000  0.0000 </r>
        <r>  0.0367  0.0001  0.0000  0.0354  0.0000  0.0000  0.0000  0.0000  0.0000 </r>
       </set>
       <set comment="band 61">
        <r>  0.0000  0.0000  0.1443  0.0000  0.0000  0.0000  0.0000  0.0000  0.0000 </r>
        <r>  0.0000  0.0000  0.0040  0.0000  0.0000  0.0000  0.0000  0.0000  0.0000 </r>
       </set>
       <set comment="band 62">
        <r>  0.0126  0.1749  0.0000  0.1545  0.0000  0.0000  0.0000  0.0000  0.0000 </r>
        <r>  0.0193  0.0018  0.0000  0.0470  0.0000  0.0000  0.0000  0.0000  0.0000 </r>
       </set>
       <set comment="band 63">
        <r>  0.0000  0.0000  0.0606  0.0000  0.0000  0.0000  0.0000  0.0000  0.0000 </r>
        <r>  0.0000  0.0000  0.0636  0.0000  0.0000  0.0000  0.0000  0.0000  0.0000 </r>
       </set>
       <set comment="band 64">
        <r>  0.0036  0.1717  0.0000  0.5955  0.0000  0.0000  0.0000  0.0000  0.0000 </r>
        <r>  0.0024  0.0973  0.0000  0.0230  0.0000  0.0000  0.0000  0.0000  0.0000 </r>
       </set>
      </set>
      <set comment="kpoint 84">
       <set comment="band 1">
        <r>  0.9904  0.0000  0.0000  0.0000  0.0000  0.0000  0.0000  0.0000  0.0000 </r>
        <r>  0.0000  0.0001  0.0000  0.0000  0.0000  0.0000  0.0000  0.0000  0.0000 </r>
       </set>
       <set comment="band 2">
        <r>  0.0000  0.0001  0.0000  0.0000  0.0000  0.0000  0.0000  0.0000  0.0000 </r>
        <r>  0.8712  0.0000  0.0000  0.0000  0.0000  0.0000  0.0000  0.0000  0.0000 </r>
       </set>
       <set comment="band 3">
        <r>  0.0012  0.0000  0.0058  0.0000  0.0000  0.0000  0.0000  0.0000  0.0000 </r>
        <r>  0.0002  0.0116  0.6528  0.0000  0.0000  0.0000  0.0000  0.0000  0.0000 </r>
       </set>
       <set comment="band 4">
        <r>  0.0000  0.0000  0.0000  0.0057  0.0000  0.0000  0.0000  0.0000  0.0000 </r>
        <r>  0.0000  0.0000  0.0000  0.6816  0.0000  0.0000  0.0000  0.0000  0.0000 </r>
       </set>
       <set comment="band 5">
        <r>  0.0090  0.0001  0.0001  0.0000  0.0000  0.0000  0.0000  0.0000  0.0000 </r>
        <r>  0.0000  0.7580  0.0132  0.0000  0.0000  0.0000  0.0000  0.0000  0.0000 </r>
       </set>
       <set comment="band 6">
        <r>  0.0014  0.0078  0.0551  0.0000  0.0000  0.0000  0.0000  0.0000  0.0000 </r>
        <r>  0.0098  0.0009  0.2280  0.0000  0.0000  0.0000  0.0000  0.0000  0.0000 </r>
       </set>
       <set comment="band 7">
        <r>  0.0000  0.0000  0.0000  0.0575  0.0000  0.0000  0.0000  0.0000  0.0000 </r>
        <r>  0.0000  0.0000  0.0000  0.2200  0.0000  0.0000  0.0000  0.0000  0.0000 </r>
       </set>
       <set comment="band 8">
        <r>  0.0041  0.1453  0.0074  0.0000  0.0000  0.0000  0.0000  0.0000  0.0000 </r>
        <r>  0.0550  0.0000  0.0198  0.0000  0.0000  0.0000  0.0000  0.0000  0.0000 </r>
       </set>
       <set comment="band 9">
        <r>  0.2908  0.0034  0.0022  0.0000  0.0000  0.0000  0.0000  0.0000  0.0000 </r>
        <r>  0.0001  0.1064  0.0006  0.0000  0.0000  0.0000  0.0000  0.0000  0.0000 </r>
       </set>
       <set comment="band 10">
        <r>  0.0000  0.0000  0.0000  0.1319  0.0000  0.0000  0.0000  0.0000  0.0000 </r>
        <r>  0.0000  0.0000  0.0000  0.0332  0.0000  0.0000  0.0000  0.0000  0.0000 </r>
       </set>
       <set comment="band 11">
        <r>  0.0022  0.0005  0.1230  0.0000  0.0000  0.0000  0.0000  0.0000  0.0000 </r>
        <r>  0.0064  0.0004  0.0184  0.0000  0.0000  0.0000  0.0000  0.0000  0.0000 </r>
       </set>
       <set comment="band 12">
        <r>  0.0022  0.0901  0.0036  0.0000  0.0000  0.0000  0.0000  0.0000  0.0000 </r>
        <r>  0.1129  0.0005  0.0085  0.0000  0.0000  0.0000  0.0000  0.0000  0.0000 </r>
       </set>
       <set comment="band 13">
        <r>  0.0402  0.0005  0.0087  0.0000  0.0000  0.0000  0.0000  0.0000  0.0000 </r>
        <r>  0.0000  0.1543  0.0007  0.0000  0.0000  0.0000  0.0000  0.0000  0.0000 </r>
       </set>
       <set comment="band 14">
        <r>  0.0000  0.0000  0.0000  0.1687  0.0000  0.0000  0.0000  0.0000  0.0000 </r>
        <r>  0.0000  0.0000  0.0000  0.0025  0.0000  0.0000  0.0000  0.0000  0.0000 </r>
       </set>
       <set comment="band 15">
        <r>  0.0220  0.0002  0.3062  0.0000  0.0000  0.0000  0.0000  0.0000  0.0000 </r>
        <r>  0.0003  0.0007  0.0120  0.0000  0.0000  0.0000  0.0000  0.0000  0.0000 </r>
       </set>
       <set comment="band 16">
        <r>  0.0000  0.0000  0.0000  0.0545  0.0000  0.0000  0.0000  0.0000  0.0000 </r>
        <r>  0.0000  0.0000  0.0000  0.0120  0.0000  0.0000  0.0000  0.0000  0.0000 </r>
       </set>
       <set comment="band 17">
        <r>  0.0000  0.0000  0.0000  0.1241  0.0000  0.0000  0.0000  0.0000  0.0000 </r>
        <r>  0.0000  0.0000  0.0000  0.0135  0.0000  0.0000  0.0000  0.0000  0.0000 </r>
       </set>
       <set comment="band 18">
        <r>  0.1590  0.0283  0.0253  0.0000  0.0000  0.0000  0.0000  0.0000  0.0000 </r>
        <r>  0.0012  0.0000  0.0137  0.0000  0.0000  0.0000  0.0000  0.0000  0.0000 </r>
       </set>
       <set comment="band 19">
        <r>  0.0856  0.0197  0.0153  0.0000  0.0000  0.0000  0.0000  0.0000  0.0000 </r>
        <r>  0.0249  0.0044  0.0384  0.0000  0.0000  0.0000  0.0000  0.0000  0.0000 </r>
       </set>
       <set comment="band 20">
        <r>  0.0000  0.0000  0.0000  0.0005  0.0000  0.0000  0.0000  0.0000  0.0000 </r>
        <r>  0.0000  0.0000  0.0000  0.0772  0.0000  0.0000  0.0000  0.0000  0.0000 </r>
       </set>
       <set comment="band 21">
        <r>  0.0351  0.3472  0.0018  0.0000  0.0000  0.0000  0.0000  0.0000  0.0000 </r>
        <r>  0.0479  0.0008  0.0051  0.0000  0.0000  0.0000  0.0000  0.0000  0.0000 </r>
       </set>
       <set comment="band 22">
        <r>  0.0088  0.4051  0.0182  0.0000  0.0000  0.0000  0.0000  0.0000  0.0000 </r>
        <r>  0.0409  0.0001  0.0148  0.0000  0.0000  0.0000  0.0000  0.0000  0.0000 </r>
       </set>
       <set comment="band 23">
        <r>  0.0000  0.0000  0.0000  0.1843  0.0000  0.0000  0.0000  0.0000  0.0000 </r>
        <r>  0.0000  0.0000  0.0000  0.0081  0.0000  0.0000  0.0000  0.0000  0.0000 </r>
       </set>
       <set comment="band 24">
        <r>  0.0137  0.0279  0.4557  0.0000  0.0000  0.0000  0.0000  0.0000  0.0000 </r>
        <r>  0.0040  0.0010  0.0399  0.0000  0.0000  0.0000  0.0000  0.0000  0.0000 </r>
       </set>
       <set comment="band 25">
        <r>  0.0000  0.0344  0.0106  0.0000  0.0000  0.0000  0.0000  0.0000  0.0000 </r>
        <r>  0.0000  0.0009  0.0179  0.0000  0.0000  0.0000  0.0000  0.0000  0.0000 </r>
       </set>
       <set comment="band 26">
        <r>  0.0000  0.0000  0.0000  0.2232  0.0000  0.0000  0.0000  0.0000  0.0000 </r>
        <r>  0.0000  0.0000  0.0000  0.0370  0.0000  0.0000  0.0000  0.0000  0.0000 </r>
       </set>
       <set comment="band 27">
        <r>  0.0000  0.0000  0.0000  0.0100  0.0000  0.0000  0.0000  0.0000  0.0000 </r>
        <r>  0.0000  0.0000  0.0000  0.0003  0.0000  0.0000  0.0000  0.0000  0.0000 </r>
       </set>
       <set comment="band 28">
        <r>  0.0000  0.0000  0.0000  0.0711  0.0000  0.0000  0.0000  0.0000  0.0000 </r>
        <r>  0.0000  0.0000  0.0000  0.0020  0.0000  0.0000  0.0000  0.0000  0.0000 </r>
       </set>
       <set comment="band 29">
        <r>  0.1087  0.0028  0.0758  0.0000  0.0000  0.0000  0.0000  0.0000  0.0000 </r>
        <r>  0.0065  0.0007  0.0216  0.0000  0.0000  0.0000  0.0000  0.0000  0.0000 </r>
       </set>
       <set comment="band 30">
        <r>  0.0000  0.0000  0.0000  0.1033  0.0000  0.0000  0.0000  0.0000  0.0000 </r>
        <r>  0.0000  0.0000  0.0000  0.1054  0.0000  0.0000  0.0000  0.0000  0.0000 </r>
       </set>
       <set comment="band 31">
        <r>  0.1426  0.0026  0.0323  0.0000  0.0000  0.0000  0.0000  0.0000  0.0000 </r>
        <r>  0.0100  0.0005  0.0614  0.0000  0.0000  0.0000  0.0000  0.0000  0.0000 </r>
       </set>
       <set comment="band 32">
        <r>  0.0000  0.0218  0.0010  0.0000  0.0000  0.0000  0.0000  0.0000  0.0000 </r>
        <r>  0.0790  0.0292  0.0320  0.0000  0.0000  0.0000  0.0000  0.0000  0.0000 </r>
       </set>
       <set comment="band 33">
        <r>  0.0018  0.0006  0.0042  0.0000  0.0000  0.0000  0.0000  0.0000  0.0000 </r>
        <r>  0.0022  0.2324  0.0047  0.0000  0.0000  0.0000  0.0000  0.0000  0.0000 </r>
       </set>
       <set comment="band 34">
        <r>  0.2515  0.0130  0.0084  0.0000  0.0000  0.0000  0.0000  0.0000  0.0000 </r>
        <r>  0.0147  0.0030  0.0427  0.0000  0.0000  0.0000  0.0000  0.0000  0.0000 </r>
       </set>
       <set comment="band 35">
        <r>  0.0000  0.0000  0.0000  0.3072  0.0000  0.0000  0.0000  0.0000  0.0000 </r>
        <r>  0.0000  0.0000  0.0000  0.0770  0.0000  0.0000  0.0000  0.0000  0.0000 </r>
       </set>
       <set comment="band 36">
        <r>  0.0785  0.0001  0.2259  0.0000  0.0000  0.0000  0.0000  0.0000  0.0000 </r>
        <r>  0.0237  0.0126  0.0542  0.0000  0.0000  0.0000  0.0000  0.0000  0.0000 </r>
       </set>
       <set comment="band 37">
        <r>  0.0000  0.4132  0.0403  0.0000  0.0000  0.0000  0.0000  0.0000  0.0000 </r>
        <r>  0.1111  0.0063  0.0131  0.0000  0.0000  0.0000  0.0000  0.0000  0.0000 </r>
       </set>
       <set comment="band 38">
        <r>  0.0000  0.0000  0.0000  0.4088  0.0000  0.0000  0.0000  0.0000  0.0000 </r>
        <r>  0.0000  0.0000  0.0000  0.0308  0.0000  0.0000  0.0000  0.0000  0.0000 </r>
       </set>
       <set comment="band 39">
        <r>  0.0039  0.0465  0.1489  0.0000  0.0000  0.0000  0.0000  0.0000  0.0000 </r>
        <r>  0.1091  0.0003  0.0096  0.0000  0.0000  0.0000  0.0000  0.0000  0.0000 </r>
       </set>
       <set comment="band 40">
        <r>  0.0048  0.0030  0.1613  0.0000  0.0000  0.0000  0.0000  0.0000  0.0000 </r>
        <r>  0.0054  0.0041  0.0195  0.0000  0.0000  0.0000  0.0000  0.0000  0.0000 </r>
       </set>
       <set comment="band 41">
        <r>  0.0000  0.0000  0.0000  0.0002  0.0000  0.0000  0.0000  0.0000  0.0000 </r>
        <r>  0.0000  0.0000  0.0000  0.0238  0.0000  0.0000  0.0000  0.0000  0.0000 </r>
       </set>
       <set comment="band 42">
        <r>  0.0000  0.0000  0.0000  0.0250  0.0000  0.0000  0.0000  0.0000  0.0000 </r>
        <r>  0.0000  0.0000  0.0000  0.0008  0.0000  0.0000  0.0000  0.0000  0.0000 </r>
       </set>
       <set comment="band 43">
        <r>  0.0383  0.1183  0.0823  0.0000  0.0000  0.0000  0.0000  0.0000  0.0000 </r>
        <r>  0.0009  0.0134  0.0002  0.0000  0.0000  0.0000  0.0000  0.0000  0.0000 </r>
       </set>
       <set comment="band 44">
        <r>  0.0050  0.1511  0.0376  0.0000  0.0000  0.0000  0.0000  0.0000  0.0000 </r>
        <r>  0.0002  0.0250  0.0292  0.0000  0.0000  0.0000  0.0000  0.0000  0.0000 </r>
       </set>
       <set comment="band 45">
        <r>  0.0000  0.0000  0.0000  0.0108  0.0000  0.0000  0.0000  0.0000  0.0000 </r>
        <r>  0.0000  0.0000  0.0000  0.0701  0.0000  0.0000  0.0000  0.0000  0.0000 </r>
       </set>
       <set comment="band 46">
        <r>  0.0008  0.0000  0.0386  0.0000  0.0000  0.0000  0.0000  0.0000  0.0000 </r>
        <r>  0.0574  0.0055  0.0715  0.0000  0.0000  0.0000  0.0000  0.0000  0.0000 </r>
       </set>
       <set comment="band 47">
        <r>  0.0000  0.0000  0.0000  0.1092  0.0000  0.0000  0.0000  0.0000  0.0000 </r>
        <r>  0.0000  0.0000  0.0000  0.0418  0.0000  0.0000  0.0000  0.0000  0.0000 </r>
       </set>
       <set comment="band 48">
        <r>  0.0702  0.1450  0.1526  0.0000  0.0000  0.0000  0.0000  0.0000  0.0000 </r>
        <r>  0.0020  0.0130  0.0022  0.0000  0.0000  0.0000  0.0000  0.0000  0.0000 </r>
       </set>
       <set comment="band 49">
        <r>  0.0016  0.9840  0.0541  0.0000  0.0000  0.0000  0.0000  0.0000  0.0000 </r>
        <r>  0.0119  0.0183  0.0133  0.0000  0.0000  0.0000  0.0000  0.0000  0.0000 </r>
       </set>
       <set comment="band 50">
        <r>  0.0000  0.0000  0.0000  0.1042  0.0000  0.0000  0.0000  0.0000  0.0000 </r>
        <r>  0.0000  0.0000  0.0000  0.0374  0.0000  0.0000  0.0000  0.0000  0.0000 </r>
       </set>
       <set comment="band 51">
        <r>  0.0000  0.0000  0.0000  0.1585  0.0000  0.0000  0.0000  0.0000  0.0000 </r>
        <r>  0.0000  0.0000  0.0000  0.0146  0.0000  0.0000  0.0000  0.0000  0.0000 </r>
       </set>
       <set comment="band 52">
        <r>  0.0006  0.0335  0.0039  0.0000  0.0000  0.0000  0.0000  0.0000  0.0000 </r>
        <r>  0.2366  0.0020  0.0390  0.0000  0.0000  0.0000  0.0000  0.0000  0.0000 </r>
       </set>
       <set comment="band 53">
        <r>  0.0000  0.0000  0.0000  0.0207  0.0000  0.0000  0.0000  0.0000  0.0000 </r>
        <r>  0.0000  0.0000  0.0000  0.0004  0.0000  0.0000  0.0000  0.0000  0.0000 </r>
       </set>
       <set comment="band 54">
        <r>  0.0359  0.0175  0.5120  0.0000  0.0000  0.0000  0.0000  0.0000  0.0000 </r>
        <r>  0.0050  0.0082  0.0001  0.0000  0.0000  0.0000  0.0000  0.0000  0.0000 </r>
       </set>
       <set comment="band 55">
        <r>  0.0000  0.0000  0.0000  0.4071  0.0000  0.0000  0.0000  0.0000  0.0000 </r>
        <r>  0.0000  0.0000  0.0000  0.0012  0.0000  0.0000  0.0000  0.0000  0.0000 </r>
       </set>
       <set comment="band 56">
        <r>  0.0005  0.0032  0.0046  0.0000  0.0000  0.0000  0.0000  0.0000  0.0000 </r>
        <r>  0.0052  0.0052  0.0074  0.0000  0.0000  0.0000  0.0000  0.0000  0.0000 </r>
       </set>
       <set comment="band 57">
        <r>  0.0029  0.0001  0.0696  0.0000  0.0000  0.0000  0.0000  0.0000  0.0000 </r>
        <r>  0.0357  0.0879  0.0050  0.0000  0.0000  0.0000  0.0000  0.0000  0.0000 </r>
       </set>
       <set comment="band 58">
        <r>  0.0642  0.0242  0.0321  0.0000  0.0000  0.0000  0.0000  0.0000  0.0000 </r>
        <r>  0.0179  0.0012  0.0343  0.0000  0.0000  0.0000  0.0000  0.0000  0.0000 </r>
       </set>
       <set comment="band 59">
        <r>  0.0000  0.0000  0.0000  0.1748  0.0000  0.0000  0.0000  0.0000  0.0000 </r>
        <r>  0.0000  0.0000  0.0000  0.1224  0.0000  0.0000  0.0000  0.0000  0.0000 </r>
       </set>
       <set comment="band 60">
        <r>  0.0217  0.0396  0.3304  0.0000  0.0000  0.0000  0.0000  0.0000  0.0000 </r>
        <r>  0.0280  0.0467  0.0642  0.0000  0.0000  0.0000  0.0000  0.0000  0.0000 </r>
       </set>
       <set comment="band 61">
        <r>  0.0000  0.0000  0.0000  0.2591  0.0000  0.0000  0.0000  0.0000  0.0000 </r>
        <r>  0.0000  0.0000  0.0000  0.0025  0.0000  0.0000  0.0000  0.0000  0.0000 </r>
       </set>
       <set comment="band 62">
        <r>  0.0100  0.2605  0.0139  0.0000  0.0000  0.0000  0.0000  0.0000  0.0000 </r>
        <r>  0.0060  0.0557  0.0010  0.0000  0.0000  0.0000  0.0000  0.0000  0.0000 </r>
       </set>
       <set comment="band 63">
        <r>  0.0000  0.0000  0.0000  0.0027  0.0000  0.0000  0.0000  0.0000  0.0000 </r>
        <r>  0.0000  0.0000  0.0000  0.0286  0.0000  0.0000  0.0000  0.0000  0.0000 </r>
       </set>
       <set comment="band 64">
        <r>  0.0076  0.0022  0.1186  0.0000  0.0000  0.0000  0.0000  0.0000  0.0000 </r>
        <r>  0.0015  0.0073  0.0018  0.0000  0.0000  0.0000  0.0000  0.0000  0.0000 </r>
       </set>
      </set>
     </set>
    </set>
   </array>
  </projected>
 </calculation>
 <structure name="finalpos" >
  <crystal>
   <varray name="basis" >
    <v>       0.00000000       2.04171400       2.04171400 </v>
    <v>       2.04171400       0.00000000       2.04171400 </v>
    <v>       2.04171400       2.04171400       0.00000000 </v>
   </varray>
   <i name="volume">     17.02216186 </i>
   <varray name="rec_basis" >
    <v>      -0.24489228       0.24489228       0.24489228 </v>
    <v>       0.24489228      -0.24489228       0.24489228 </v>
    <v>       0.24489228       0.24489228      -0.24489228 </v>
   </varray>
  </crystal>
  <varray name="positions" >
   <v>       0.00000000       0.00000000       0.00000000 </v>
   <v>       0.50000000       0.50000000       0.50000000 </v>
  </varray>
 </structure>
</modeling>
