<?xml version="1.0" encoding="ISO-8859-1"?>
<modeling>
 <generator>
  <i name="program" type="string">vasp </i>
  <i name="version" type="string">5.2.12  </i>
  <i name="subversion" type="string">11Nov11 complex                                                      parallel </i>
  <i name="platform" type="string">LinuxIFC </i>
  <i name="date" type="string">2014 05 10 </i>
  <i name="time" type="string">22:00:18 </i>
 </generator>
 <incar>
  <i type="string" name="PREC">accurate</i>
  <i type="string" name="ALGO"> Fast</i>
  <i type="int" name="ISPIN">     2</i>
  <i type="int" name="ICHARG">     1</i>
  <i type="int" name="NELM">   100</i>
  <i type="int" name="IBRION">     2</i>
  <i name="EDIFF">      0.00050000</i>
  <i type="int" name="ISIF">     3</i>
  <i name="ENCUT">    520.00000000</i>
  <v name="MAGMOM">      0.60000000      0.60000000      0.60000000      0.60000000      0.60000000      0.60000000      0.60000000      0.60000000      0.60000000      0.60000000</v>
  <i type="logical" name="LREAL"> F  </i>
  <i type="int" name="ISMEAR">    -5</i>
  <i name="SIGMA">      0.20000000</i>
  <i type="logical" name="LWAVE"> F  </i>
  <i type="logical" name="LORBIT"> F  </i>
  <i type="int" name="NELM">   100</i>
  <i type="logical" name="LEPSILON"> T  </i>
 </incar>
 <kpoints>
  <generation param="Monkhorst-Pack">
   <v type="int" name="divisions">       6        6        6 </v>
   <v name="usershift">      0.00000000       0.00000000       0.00000000 </v>
   <v name="genvec1">      0.16666667       0.00000000       0.00000000 </v>
   <v name="genvec2">      0.00000000       0.16666667       0.00000000 </v>
   <v name="genvec3">      0.00000000       0.00000000       0.16666667 </v>
   <v name="shift">      0.50000000       0.50000000       0.50000000 </v>
  </generation>
  <varray name="kpointlist" >
   <v>       0.08333333       0.08333333       0.08333333 </v>
   <v>       0.25000000       0.08333333       0.08333333 </v>
   <v>       0.41666667       0.08333333       0.08333333 </v>
   <v>      -0.41666667       0.08333333       0.08333333 </v>
   <v>      -0.25000000       0.08333333       0.08333333 </v>
   <v>      -0.08333333       0.08333333       0.08333333 </v>
   <v>       0.25000000       0.25000000       0.08333333 </v>
   <v>       0.41666667       0.25000000       0.08333333 </v>
   <v>      -0.41666667       0.25000000       0.08333333 </v>
   <v>      -0.25000000       0.25000000       0.08333333 </v>
   <v>      -0.08333333       0.25000000       0.08333333 </v>
   <v>       0.41666667       0.41666667       0.08333333 </v>
   <v>      -0.41666667       0.41666667       0.08333333 </v>
   <v>      -0.25000000       0.41666667       0.08333333 </v>
   <v>      -0.08333333       0.41666667       0.08333333 </v>
   <v>      -0.41666667      -0.41666667       0.08333333 </v>
   <v>      -0.25000000      -0.41666667       0.08333333 </v>
   <v>      -0.25000000      -0.25000000       0.08333333 </v>
   <v>       0.25000000       0.25000000       0.25000000 </v>
   <v>       0.41666667       0.25000000       0.25000000 </v>
   <v>      -0.41666667       0.25000000       0.25000000 </v>
   <v>      -0.25000000       0.25000000       0.25000000 </v>
   <v>       0.41666667       0.41666667       0.25000000 </v>
   <v>      -0.41666667       0.41666667       0.25000000 </v>
   <v>      -0.25000000       0.41666667       0.25000000 </v>
   <v>      -0.41666667      -0.41666667       0.25000000 </v>
   <v>       0.41666667       0.41666667       0.41666667 </v>
   <v>      -0.41666667       0.41666667       0.41666667 </v>
  </varray>
  <varray name="weights" >
   <v>       0.00925926 </v>
   <v>       0.02777778 </v>
   <v>       0.02777778 </v>
   <v>       0.02777778 </v>
   <v>       0.02777778 </v>
   <v>       0.02777778 </v>
   <v>       0.02777778 </v>
   <v>       0.05555556 </v>
   <v>       0.05555556 </v>
   <v>       0.05555556 </v>
   <v>       0.05555556 </v>
   <v>       0.02777778 </v>
   <v>       0.05555556 </v>
   <v>       0.05555556 </v>
   <v>       0.05555556 </v>
   <v>       0.02777778 </v>
   <v>       0.05555556 </v>
   <v>       0.02777778 </v>
   <v>       0.00925926 </v>
   <v>       0.02777778 </v>
   <v>       0.02777778 </v>
   <v>       0.02777778 </v>
   <v>       0.02777778 </v>
   <v>       0.05555556 </v>
   <v>       0.05555556 </v>
   <v>       0.02777778 </v>
   <v>       0.00925926 </v>
   <v>       0.02777778 </v>
  </varray>
  <varray name="tetrahedronlist"  type="int" >
   <v type="int" >       12        1        2        7       19 </v>
   <v type="int" >       12        2        7        8       20 </v>
   <v type="int" >       12        2        3        8       20 </v>
   <v type="int" >       12        2        7       19       20 </v>
   <v type="int" >       12        3        8        9       21 </v>
   <v type="int" >       12        3        4        9       21 </v>
   <v type="int" >       12        3        8       20       21 </v>
   <v type="int" >       12        4        9       10       22 </v>
   <v type="int" >       12        4        5       10       22 </v>
   <v type="int" >       12        4        9       21       22 </v>
   <v type="int" >       12        5       10       11       18 </v>
   <v type="int" >       12        5        6       11       18 </v>
   <v type="int" >       12        5       10       18       22 </v>
   <v type="int" >       12        2        6        7       11 </v>
   <v type="int" >       12        1        2        6        7 </v>
   <v type="int" >       12        6        7       11       18 </v>
   <v type="int" >       12        7        8       12       23 </v>
   <v type="int" >       12        7        8       20       23 </v>
   <v type="int" >       12        7       19       20       23 </v>
   <v type="int" >       12        8       12       13       24 </v>
   <v type="int" >       12        8        9       13       24 </v>
   <v type="int" >       12        8        9       21       24 </v>
   <v type="int" >       12        8       12       23       24 </v>
   <v type="int" >       12        8       20       23       24 </v>
   <v type="int" >       12        8       20       21       24 </v>
   <v type="int" >       12        9       13       14       25 </v>
   <v type="int" >       12        9       10       14       25 </v>
   <v type="int" >       12        9       10       22       25 </v>
   <v type="int" >       12        9       13       24       25 </v>
   <v type="int" >       12        9       21       24       25 </v>
   <v type="int" >       12        9       21       22       25 </v>
   <v type="int" >       12       10       14       15       17 </v>
   <v type="int" >       12       10       11       15       17 </v>
   <v type="int" >       12       10       11       17       18 </v>
   <v type="int" >       12       10       14       17       25 </v>
   <v type="int" >       12       10       17       22       25 </v>
   <v type="int" >       12       10       17       18       22 </v>
   <v type="int" >       12        3        8       11       15 </v>
   <v type="int" >       12        2        3        8       11 </v>
   <v type="int" >       12        2        7        8       11 </v>
   <v type="int" >       12        8       11       15       17 </v>
   <v type="int" >       12        8       11       17       18 </v>
   <v type="int" >       12        7        8       11       18 </v>
   <v type="int" >       12       12       13       16       26 </v>
   <v type="int" >       12       12       13       24       26 </v>
   <v type="int" >       12       12       23       24       26 </v>
   <v type="int" >       12       13       16       17       25 </v>
   <v type="int" >       12       13       14       17       25 </v>
   <v type="int" >       12       13       14       25       25 </v>
   <v type="int" >       12       13       16       25       26 </v>
   <v type="int" >       12       13       24       25       26 </v>
   <v type="int" >       12       13       24       25       25 </v>
   <v type="int" >       12       14       14       15       17 </v>
   <v type="int" >        6       14       14       15       15 </v>
   <v type="int" >       12       14       14       17       25 </v>
   <v type="int" >        6       14       14       25       25 </v>
   <v type="int" >       12        4        9       15       15 </v>
   <v type="int" >       12        3        4        9       15 </v>
   <v type="int" >       12        3        8        9       15 </v>
   <v type="int" >       12        9       14       15       15 </v>
   <v type="int" >       12        9       14       15       17 </v>
   <v type="int" >       12        8        9       15       17 </v>
   <v type="int" >       12       16       17       18       22 </v>
   <v type="int" >       12       16       17       22       25 </v>
   <v type="int" >       12       16       22       25       26 </v>
   <v type="int" >       12        5       10       11       15 </v>
   <v type="int" >       12        4        5       10       15 </v>
   <v type="int" >       12        4        9       10       15 </v>
   <v type="int" >       12       10       10       11       15 </v>
   <v type="int" >       12       10       10       14       15 </v>
   <v type="int" >       12        9       10       14       15 </v>
   <v type="int" >        6        6        6       11       11 </v>
   <v type="int" >       12        5        6       11       11 </v>
   <v type="int" >       12        5       10       11       11 </v>
   <v type="int" >        6       10       10       11       11 </v>
   <v type="int" >       12        1        2        6        6 </v>
   <v type="int" >       12        2        6        6       11 </v>
   <v type="int" >       12        2        5        6       11 </v>
   <v type="int" >       12       19       20       23       27 </v>
   <v type="int" >       12       20       23       24       28 </v>
   <v type="int" >       12       20       21       24       28 </v>
   <v type="int" >       12       20       23       27       28 </v>
   <v type="int" >       12       21       24       25       26 </v>
   <v type="int" >       12       21       22       25       26 </v>
   <v type="int" >       12       21       24       26       28 </v>
   <v type="int" >       12        8       12       17       18 </v>
   <v type="int" >       12        7        8       12       18 </v>
   <v type="int" >       12       12       16       17       18 </v>
   <v type="int" >       12       23       24       26       28 </v>
   <v type="int" >       12       23       24       28       28 </v>
   <v type="int" >       12       23       27       28       28 </v>
   <v type="int" >       12       24       24       25       26 </v>
   <v type="int" >        6       24       24       25       25 </v>
   <v type="int" >       12       24       24       26       28 </v>
   <v type="int" >        6       24       24       28       28 </v>
   <v type="int" >       12        9       13       14       17 </v>
   <v type="int" >       12        8        9       13       17 </v>
   <v type="int" >       12        8       12       13       17 </v>
   <v type="int" >       12       13       13       14       17 </v>
   <v type="int" >       12       13       13       16       17 </v>
   <v type="int" >       12       12       13       16       17 </v>
   <v type="int" >        6       10       10       14       14 </v>
   <v type="int" >       12        9       10       14       14 </v>
   <v type="int" >       12        9       13       14       14 </v>
   <v type="int" >        6       13       13       14       14 </v>
   <v type="int" >       12        2        3        5       11 </v>
   <v type="int" >       12        3        5       11       15 </v>
   <v type="int" >       12        3        4        5       15 </v>
   <v type="int" >        6       27       27       28       28 </v>
   <v type="int" >        6       13       13       16       16 </v>
   <v type="int" >       12       12       13       16       16 </v>
   <v type="int" >       12        3        4        4       15 </v>
   <v type="int" >        6        4        4       15       15 </v>
   <v type="int" >        6        1        1        6        6 </v>
  </varray>
  <i name="volumeweight">      0.00077160 </i>
 </kpoints>
 <parameters>
  <separator name="general" >
   <i type="string" name="SYSTEM">unknown system</i>
   <i type="logical" name="LCOMPAT"> F  </i>
  </separator>
  <separator name="electronic" >
   <i type="string" name="PREC">accura</i>
   <i name="ENMAX">    520.00000000</i>
   <i name="ENAUG">    605.39200000</i>
   <i name="EDIFF">      0.00050000</i>
   <i type="int" name="IALGO">    68</i>
   <i type="int" name="IWAVPR">    10</i>
   <i type="int" name="NBANDS">    36</i>
   <i name="NELECT">     48.00000000</i>
   <i type="int" name="TURBO">     0</i>
   <i type="int" name="IRESTART">     0</i>
   <i type="int" name="NREBOOT">     0</i>
   <i type="int" name="NMIN">     0</i>
   <i name="EREF">      0.00000000</i>
   <separator name="electronic smearing" >
    <i type="int" name="ISMEAR">    -5</i>
    <i name="SIGMA">      0.20000000</i>
    <i name="KSPACING">      0.50000000</i>
    <i type="logical" name="KGAMMA"> T  </i>
   </separator>
   <separator name="electronic projectors" >
    <i type="logical" name="LREAL"> F  </i>
    <v name="ROPT">      0.00000000      0.00000000</v>
    <i type="int" name="LMAXPAW">  -100</i>
    <i type="int" name="LMAXMIX">     2</i>
    <i type="logical" name="NLSPLINE"> F  </i>
   </separator>
   <separator name="electronic startup" >
    <i type="int" name="ISTART">     0</i>
    <i type="int" name="ICHARG">     1</i>
    <i type="int" name="INIWAV">     1</i>
   </separator>
   <separator name="electronic spin" >
    <i type="int" name="ISPIN">     2</i>
    <i type="logical" name="LNONCOLLINEAR"> F  </i>
    <v name="MAGMOM">      0.60000000      0.60000000      0.60000000      0.60000000      0.60000000      0.60000000      0.60000000      0.60000000      0.60000000      0.60000000</v>
    <i name="NUPDOWN">     -1.00000000</i>
    <i type="logical" name="LSORBIT"> F  </i>
    <v name="SAXIS">      0.00000000      0.00000000      1.00000000</v>
    <i type="logical" name="LSPIRAL"> F  </i>
    <v name="QSPIRAL">      0.00000000      0.00000000      0.00000000</v>
    <i type="logical" name="LZEROZ"> F  </i>
   </separator>
   <separator name="electronic exchange-correlation" >
    <i type="logical" name="LASPH"> F  </i>
    <i type="logical" name="LMETAGGA"> F  </i>
   </separator>
   <separator name="electronic convergence" >
    <i type="int" name="NELM">   100</i>
    <i type="int" name="NELMDL">    -5</i>
    <i type="int" name="NELMIN">     2</i>
    <i name="ENINI">    520.00000000</i>
    <separator name="electronic convergence detail" >
     <i type="logical" name="LDIAG"> T  </i>
     <i type="logical" name="LSUBROT"> T  </i>
     <i name="WEIMIN">      0.00000000</i>
     <i name="EBREAK">      0.00000347</i>
     <i name="DEPER">      0.30000000</i>
     <i type="int" name="NRMM">     4</i>
     <i name="TIME">      0.40000000</i>
    </separator>
   </separator>
   <separator name="electronic mixer" >
    <i name="AMIX">      0.40000000</i>
    <i name="BMIX">      1.00000000</i>
    <i name="AMIN">      0.10000000</i>
    <i name="AMIX_MAG">      1.60000000</i>
    <i name="BMIX_MAG">      1.00000000</i>
    <separator name="electronic mixer details" >
     <i type="int" name="IMIX">     4</i>
     <i type="int" name="MAXMIX">   -45</i>
     <i name="WC">    100.00000000</i>
     <i type="int" name="INIMIX">     1</i>
     <i type="int" name="MIXPRE">     1</i>
     <i type="int" name="MREMOVE">     5</i>
    </separator>
   </separator>
   <separator name="electronic dipolcorrection" >
    <i type="logical" name="LDIPOL"> F  </i>
    <i type="logical" name="LMONO"> F  </i>
    <i type="int" name="IDIPOL">     0</i>
    <i name="EPSILON">      1.00000000</i>
    <v name="DIPOL">   -100.00000000   -100.00000000   -100.00000000</v>
    <i name="EFIELD">      0.00000000</i>
   </separator>
  </separator>
  <separator name="grids" >
   <i type="int" name="NGX">    40</i>
   <i type="int" name="NGY">    40</i>
   <i type="int" name="NGZ">    40</i>
   <i type="int" name="NGXF">    80</i>
   <i type="int" name="NGYF">    80</i>
   <i type="int" name="NGZF">    80</i>
   <i type="logical" name="ADDGRID"> F  </i>
  </separator>
  <separator name="ionic" >
   <i type="int" name="NSW">     0</i>
   <i type="int" name="IBRION">    -1</i>
   <i type="int" name="ISIF">     3</i>
   <i name="PSTRESS">      0.00000000</i>
   <i name="EDIFFG">      0.00500000</i>
   <i type="int" name="NFREE">     1</i>
   <i name="POTIM">      0.50000000</i>
   <i name="SMASS">     -3.00000000</i>
   <i name="SCALEE">      1.00000000</i>
  </separator>
  <separator name="ionic md" >
   <i name="TEBEG">      0.00010000</i>
   <i name="TEEND">      0.00010000</i>
   <i type="int" name="NBLOCK">     1</i>
   <i type="int" name="KBLOCK">     1</i>
   <i type="int" name="NPACO">   256</i>
   <i name="APACO">     16.00000000</i>
  </separator>
  <separator name="symmetry" >
   <i type="int" name="ISYM">     2</i>
   <i name="SYMPREC">      0.00001000</i>
  </separator>
  <separator name="dos" >
   <i type="logical" name="LORBIT"> F  </i>
   <v name="RWIGS">     -1.00000000     -1.00000000</v>
   <i type="int" name="NEDOS">   301</i>
   <i name="EMIN">     10.00000000</i>
   <i name="EMAX">    -10.00000000</i>
   <i name="EFERMI">      0.00000000</i>
  </separator>
  <separator name="writing" >
   <i type="int" name="NWRITE">     2</i>
   <i type="logical" name="LWAVE"> F  </i>
   <i type="logical" name="LCHARG"> T  </i>
   <i type="logical" name="LPARD"> F  </i>
   <i type="logical" name="LVTOT"> F  </i>
   <i type="logical" name="LVHAR"> F  </i>
   <i type="logical" name="LELF"> F  </i>
   <i type="logical" name="LOPTICS"> F  </i>
   <v name="STM">      0.00000000      0.00000000      0.00000000      0.00000000      0.00000000      0.00000000      0.00000000</v>
  </separator>
  <separator name="performance" >
   <i type="int" name="NPAR">    12</i>
   <i type="int" name="NSIM">     4</i>
   <i type="int" name="NBLK">    -1</i>
   <i type="logical" name="LPLANE"> T  </i>
   <i type="logical" name="LSCALAPACK"> F  </i>
   <i type="logical" name="LSCAAWARE"> F  </i>
   <i type="logical" name="LSCALU"> F  </i>
   <i type="logical" name="LASYNC"> F  </i>
   <i type="logical" name="LORBITALREAL"> F  </i>
  </separator>
  <separator name="miscellaneous" >
   <i type="int" name="IDIOT">     3</i>
   <i type="logical" name="LMUSIC"> F  </i>
   <v name="POMASS">     26.98200000     16.00000000</v>
   <v name="DARWINR">      0.00000000      0.00000000</v>
   <v name="DARWINV">      1.00000000      1.00000000</v>
   <i type="logical" name="LCORR"> T  </i>
  </separator>
  <i type="logical" name="GGA_COMPAT"> T  </i>
  <i type="logical" name="LBERRY"> F  </i>
  <i type="int" name="ICORELEVEL">     0</i>
  <i type="logical" name="LDAU"> F  </i>
  <i type="int" name="I_CONSTRAINED_M">     0</i>
  <separator name="electronic exchange-correlation" >
   <i type="string" name="GGA">--</i>
   <i type="int" name="VOSKOWN">     0</i>
   <i type="logical" name="LHFCALC"> F  </i>
   <i type="string" name="PRECFOCK"></i>
   <i type="logical" name="LHFONE"> F  </i>
   <i type="logical" name="LRHFCALC"> F  </i>
   <i type="logical" name="LTHOMAS"> F  </i>
   <i type="logical" name="LMODELHF"> F  </i>
   <i name="ENCUT4O">     -1.00000000</i>
   <i type="int" name="EXXOEP">     0</i>
   <i type="int" name="FOURORBIT">     0</i>
   <i name="AEXX">      0.00000000</i>
   <i name="HFALPHA">      0.00000000</i>
   <i name="ALDAX">      1.00000000</i>
   <i name="AGGAX">      1.00000000</i>
   <i name="ALDAC">      1.00000000</i>
   <i name="AGGAC">      1.00000000</i>
   <i type="int" name="NKREDX">     1</i>
   <i type="int" name="NKREDY">     1</i>
   <i type="int" name="NKREDZ">     1</i>
   <i type="logical" name="SHIFTRED"> F  </i>
   <i type="logical" name="ODDONLY"> F  </i>
   <i type="logical" name="EVENONLY"> F  </i>
   <i type="int" name="LMAXFOCK">     0</i>
   <i type="int" name="NMAXFOCKAE">     0</i>
   <i type="logical" name="LFOCKAEDFT"> F  </i>
   <i name="HFSCREEN">      0.00000000</i>
   <i name="HFSCREENC">      0.00000000</i>
  </separator>
  <separator name="vdW DFT" >
   <i type="logical" name="LUSE_VDW"> F  </i>
   <i name="Zab_VDW">     -0.84910000</i>
   <i name="PARAM1">      0.12340000</i>
   <i name="PARAM2">      1.00000000</i>
   <i name="PARAM3">      0.00000000</i>
  </separator>
  <separator name="model GW" >
   <i type="int" name="MODEL_GW">     0</i>
   <i name="MODEL_EPS0">      5.24520116</i>
   <i name="MODEL_ALPHA">      1.00000000</i>
  </separator>
  <separator name="linear response parameters" >
   <i type="logical" name="LEPSILON"> T  </i>
   <i type="logical" name="LRPA"> F  </i>
   <i type="logical" name="LNABLA"> F  </i>
   <i type="logical" name="LVEL"> F  </i>
   <i type="int" name="KINTER">     0</i>
   <i name="CSHIFT">      0.10000000</i>
   <i name="OMEGAMAX">     -1.00000000</i>
  </separator>
  <separator name="orbital magnetization" >
   <i type="logical" name="NUCIND"> F  </i>
   <v name="MAGPOS">      0.00000000      0.00000000      0.00000000</v>
   <i type="logical" name="LNICSALL"> T  </i>
   <i type="logical" name="ORBITALMAG"> F  </i>
   <i type="logical" name="LMAGBLOCH"> F  </i>
   <i type="logical" name="LCHIMAG"> F  </i>
   <i type="logical" name="LGAUGE"> T  </i>
   <i type="int" name="MAGATOM">     0</i>
   <v name="MAGDIPOL">      0.00000000      0.00000000      0.00000000</v>
   <v name="AVECCONST">      0.00000000      0.00000000      0.00000000</v>
  </separator>
  <separator name="response functions" >
   <i type="logical" name="LADDER"> F  </i>
   <i type="logical" name="LHARTREE"> T  </i>
   <i type="int" name="IBSE">     0</i>
   <i type="logical" name="LTCTE"> F  </i>
   <i type="logical" name="LTETE"> F  </i>
   <i type="logical" name="LFXCEPS"> F  </i>
   <i type="logical" name="L2ORDER"> F  </i>
   <i type="logical" name="LUSEW"> F  </i>
   <i name="ENCUTGW">     -2.00000000</i>
   <i name="ENCUTGWSOFT">     -2.00000000</i>
   <i name="ENCUTLF">     -1.00000000</i>
   <i type="int" name="LMAXMP2">    -1</i>
   <i name="SCISSOR">      0.00000000</i>
   <i type="int" name="NOMEGA">     0</i>
   <i type="int" name="NOMEGAR">     0</i>
   <i type="int" name="NBANDSGW">    -1</i>
   <i type="int" name="NBANDSO">    -1</i>
   <i type="int" name="NBANDSV">    -1</i>
   <i name="OPTEMAX">      0.00000000</i>
   <i type="int" name="NELM">   100</i>
   <i type="int" name="DIM">     3</i>
   <i type="int" name="ANTIRES">     0</i>
   <i name="OMEGAMAX">    -30.00000000</i>
   <i name="OMEGATL">   -200.00000000</i>
   <i type="int" name="OMEGAGRID">     0</i>
   <i name="CSHIFT">     -0.10000000</i>
   <i type="logical" name="SELFENERGY"> F  </i>
   <i type="logical" name="LSPECTRAL"> F  </i>
   <i type="logical" name="ODDONLYGW"> F  </i>
   <i type="logical" name="EVENONLYGW"> F  </i>
   <i type="int" name="NKREDLFX">     1</i>
   <i type="int" name="NKREDLFY">     1</i>
   <i type="int" name="NKREDLFZ">     1</i>
   <i type="int" name="MAXMEM">  1800</i>
   <i type="int" name="TELESCOPE">     0</i>
  </separator>
 </parameters>
 <atominfo>
  <atoms>      10 </atoms>
  <types>       2 </types>
  <array name="atoms" >
   <dimension dim="1">ion</dimension>
   <field type="string">element</field>
   <field type="int">atomtype</field>
   <set>
    <rc><c>Al</c><c>   1</c></rc>
    <rc><c>Al</c><c>   1</c></rc>
    <rc><c>Al</c><c>   1</c></rc>
    <rc><c>Al</c><c>   1</c></rc>
    <rc><c>O </c><c>   2</c></rc>
    <rc><c>O </c><c>   2</c></rc>
    <rc><c>O </c><c>   2</c></rc>
    <rc><c>O </c><c>   2</c></rc>
    <rc><c>O </c><c>   2</c></rc>
    <rc><c>O </c><c>   2</c></rc>
   </set>
  </array>
  <array name="atomtypes" >
   <dimension dim="1">type</dimension>
   <field type="int">atomspertype</field>
   <field type="string">element</field>
   <field>mass</field>
   <field>valence</field>
   <field type="string">pseudopotential</field>
   <set>
    <rc><c>   4</c><c>Al</c><c>     26.98200000</c><c>      3.00000000</c><c> PAW_PBE Al 04Jan2001                   </c></rc>
    <rc><c>   6</c><c>O </c><c>     16.00000000</c><c>      6.00000000</c><c> PAW_PBE O 08Apr2002                    </c></rc>
   </set>
  </array>
 </atominfo>
 <structure name="initialpos" >
  <crystal>
   <varray name="basis" >
    <v>       4.25677300       0.00034100       2.94806700 </v>
    <v>       1.54451000       3.96668700       2.94806600 </v>
    <v>       0.00049700       0.00033900       5.17795600 </v>
   </varray>
   <i name="volume">     87.42001940 </i>
   <varray name="rec_basis" >
    <v>       0.23493854      -0.09146577      -0.00001656 </v>
    <v>      -0.00000877       0.25211523      -0.00001651 </v>
    <v>      -0.13375716      -0.09146565       0.19314523 </v>
   </varray>
  </crystal>
  <varray name="positions" >
   <v>       0.64790400       0.64790300       0.64790300 </v>
   <v>       0.85209700       0.85209700       0.85209700 </v>
   <v>       0.14790400       0.14790300       0.14790300 </v>
   <v>       0.35209700       0.35209600       0.35209600 </v>
   <v>       0.44385500       0.05614500       0.75000100 </v>
   <v>       0.94385500       0.25000100       0.55614500 </v>
   <v>       0.05614400       0.75000000       0.44385500 </v>
   <v>       0.75000100       0.44385600       0.05614400 </v>
   <v>       0.25000000       0.55614400       0.94385500 </v>
   <v>       0.55614400       0.94385600       0.24999900 </v>
  </varray>
 </structure>
 <calculation>
  <scstep>
   <time name="dav">    6.94    6.98</time>
   <time name="total">    7.14    7.18</time>
   <energy>
    <i name="alphaZ">     73.82524319 </i>
    <i name="ewald">  -2375.05633345 </i>
    <i name="hartreedc">   -641.16518395 </i>
    <i name="XCdc">     66.94499372 </i>
    <i name="pawpsdc">   1617.84162041 </i>
    <i name="pawaedc">  -1501.11164650 </i>
    <i name="eentropy">      0.00000000 </i>
    <i name="bandstr">    159.38156246 </i>
    <i name="atom">   2808.30174739 </i>
    <i name="e_fr_energy">    208.96200328 </i>
    <i name="e_wo_entrp">    208.96200328 </i>
    <i name="e_0_energy">    208.96200328 </i>
   </energy>
  </scstep>
  <scstep>
   <time name="dav">    8.48    8.53</time>
   <time name="total">    8.49    8.54</time>
   <energy>
    <i name="e_fr_energy">    -70.37150787 </i>
    <i name="e_wo_entrp">    -70.37150787 </i>
    <i name="e_0_energy">    -70.37150787 </i>
   </energy>
  </scstep>
  <scstep>
   <time name="dav">    8.49    8.54</time>
   <time name="total">    8.50    8.55</time>
   <energy>
    <i name="e_fr_energy">    -81.36934552 </i>
    <i name="e_wo_entrp">    -81.36934552 </i>
    <i name="e_0_energy">    -81.36934552 </i>
   </energy>
  </scstep>
  <scstep>
   <time name="dav">    7.58    7.64</time>
   <time name="total">    7.58    7.64</time>
   <energy>
    <i name="e_fr_energy">    -81.44425191 </i>
    <i name="e_wo_entrp">    -81.44425191 </i>
    <i name="e_0_energy">    -81.44425191 </i>
   </energy>
  </scstep>
  <scstep>
   <time name="dav">    8.61    8.66</time>
   <time name="total">    9.21    9.27</time>
   <energy>
    <i name="e_fr_energy">    -81.44512777 </i>
    <i name="e_wo_entrp">    -81.44512777 </i>
    <i name="e_0_energy">    -81.44512777 </i>
   </energy>
  </scstep>
  <scstep>
   <time name="diag">    1.81    1.83</time>
   <time name="diis">    5.47    5.50</time>
   <time name="orth">    0.07    0.07</time>
   <time name="total">    8.07    8.12</time>
   <energy>
    <i name="e_fr_energy">    -74.74259653 </i>
    <i name="e_wo_entrp">    -74.74259653 </i>
    <i name="e_0_energy">    -74.74259653 </i>
   </energy>
  </scstep>
  <scstep>
   <time name="diag">    1.86    1.87</time>
   <time name="diis">    7.17    7.22</time>
   <time name="orth">    0.09    0.09</time>
   <time name="total">    9.84    9.90</time>
   <energy>
    <i name="e_fr_energy">    -74.78281224 </i>
    <i name="e_wo_entrp">    -74.78281224 </i>
    <i name="e_0_energy">    -74.78281224 </i>
   </energy>
  </scstep>
  <scstep>
   <time name="diag">    1.90    1.91</time>
   <time name="diis">    7.08    7.12</time>
   <time name="orth">    0.07    0.07</time>
   <time name="total">    9.76    9.82</time>
   <energy>
    <i name="e_fr_energy">    -74.79643071 </i>
    <i name="e_wo_entrp">    -74.79643071 </i>
    <i name="e_0_energy">    -74.79643071 </i>
   </energy>
  </scstep>
  <scstep>
   <time name="diag">    1.77    1.78</time>
   <time name="diis">    6.99    7.03</time>
   <time name="orth">    0.08    0.08</time>
   <time name="total">    9.56    9.62</time>
   <energy>
    <i name="e_fr_energy">    -74.81005401 </i>
    <i name="e_wo_entrp">    -74.81005401 </i>
    <i name="e_0_energy">    -74.81005401 </i>
   </energy>
  </scstep>
  <scstep>
   <time name="diag">    1.77    1.78</time>
   <time name="diis">    6.70    6.74</time>
   <time name="orth">    0.09    0.09</time>
   <time name="total">    9.27    9.33</time>
   <energy>
    <i name="e_fr_energy">    -74.80794724 </i>
    <i name="e_wo_entrp">    -74.80794724 </i>
    <i name="e_0_energy">    -74.80794724 </i>
   </energy>
  </scstep>
  <scstep>
   <time name="diag">    1.75    1.77</time>
   <time name="diis">    7.00    7.03</time>
   <time name="orth">    0.09    0.09</time>
   <time name="total">    9.55    9.61</time>
   <energy>
    <i name="e_fr_energy">    -74.80859324 </i>
    <i name="e_wo_entrp">    -74.80859324 </i>
    <i name="e_0_energy">    -74.80859324 </i>
   </energy>
  </scstep>
  <scstep>
   <time name="diag">    1.75    1.76</time>
   <time name="diis">    5.55    5.58</time>
   <time name="orth">    0.08    0.08</time>
   <time name="total">    7.54    7.58</time>
   <energy>
    <i name="alphaZ">     73.82524319 </i>
    <i name="ewald">  -2375.05633345 </i>
    <i name="hartreedc">   -749.92678518 </i>
    <i name="XCdc">     74.47509034 </i>
    <i name="pawpsdc">   2018.79294445 </i>
    <i name="pawaedc">  -1903.91659966 </i>
    <i name="eentropy">      0.00000000 </i>
    <i name="bandstr">    -21.30370560 </i>
    <i name="atom">   2808.30174739 </i>
    <i name="e_fr_energy">    -74.80839851 </i>
    <i name="e_wo_entrp">    -74.80839851 </i>
    <i name="e_0_energy">    -74.80839851 </i>
   </energy>
  </scstep>
  <parameters_embedded>
   <separator name="dft+d2" >
    <i type="logical" name="LVDW"> F  </i>
   </separator>
  </parameters_embedded>
  <structure>
   <crystal>
    <varray name="basis" >
     <v>       4.25677300       0.00034100       2.94806700 </v>
     <v>       1.54451000       3.96668700       2.94806600 </v>
     <v>       0.00049700       0.00033900       5.17795600 </v>
    </varray>
    <i name="volume">     87.42001940 </i>
    <varray name="rec_basis" >
     <v>       0.23493854      -0.09146577      -0.00001656 </v>
     <v>      -0.00000877       0.25211523      -0.00001651 </v>
     <v>      -0.13375716      -0.09146565       0.19314523 </v>
    </varray>
   </crystal>
   <varray name="positions" >
    <v>       0.64790400       0.64790300       0.64790300 </v>
    <v>       0.85209700       0.85209700       0.85209700 </v>
    <v>       0.14790400       0.14790300       0.14790300 </v>
    <v>       0.35209700       0.35209600       0.35209600 </v>
    <v>       0.44385500       0.05614500       0.75000100 </v>
    <v>       0.94385500       0.25000100       0.55614500 </v>
    <v>       0.05614400       0.75000000       0.44385500 </v>
    <v>       0.75000100       0.44385600       0.05614400 </v>
    <v>       0.25000000       0.55614400       0.94385500 </v>
    <v>       0.55614400       0.94385600       0.24999900 </v>
   </varray>
  </structure>
  <varray name="forces" >
   <v>      -0.00592010      -0.00404827      -0.01129992 </v>
   <v>       0.00592010       0.00404827       0.01129992 </v>
   <v>      -0.00592010      -0.00404827      -0.01129992 </v>
   <v>       0.00592010       0.00404827       0.01129992 </v>
   <v>      -0.00261830       0.00382894       0.00000000 </v>
   <v>      -0.00410883       0.00000000       0.00215264 </v>
   <v>       0.00410883       0.00000000      -0.00215264 </v>
   <v>      -0.00149052      -0.00382894       0.00215264 </v>
   <v>       0.00149052       0.00382894      -0.00215264 </v>
   <v>       0.00261830      -0.00382894       0.00000000 </v>
  </varray>
  <varray name="stress" >
   <v>      -2.05857307      -0.17062575      -0.47626372 </v>
   <v>      -0.17062575      -1.92573178      -0.32567739 </v>
   <v>      -0.47626372      -0.32567739      -2.71812060 </v>
  </varray>
  <energy>
   <i name="e_fr_energy">    -74.80839851 </i>
   <i name="e_wo_entrp">    -74.80839851 </i>
   <i name="e_0_energy">      0.00000000 </i>
  </energy>
  <scstep>
   <time name="total">   12.12   12.18</time>
   <energy>
    <i name="e_fr_energy">   -194.39855494 </i>
    <i name="e_wo_entrp">   -194.39855494 </i>
    <i name="e_0_energy">   -194.39855494 </i>
   </energy>
  </scstep>
  <scstep>
   <time name="total">    9.89    9.94</time>
   <energy>
    <i name="e_fr_energy">   -170.90765530 </i>
    <i name="e_wo_entrp">   -170.90765530 </i>
    <i name="e_0_energy">   -170.90765530 </i>
   </energy>
  </scstep>
  <scstep>
   <time name="total">   10.17   10.22</time>
   <energy>
    <i name="e_fr_energy">   -170.93684159 </i>
    <i name="e_wo_entrp">   -170.93684159 </i>
    <i name="e_0_energy">   -170.93684159 </i>
   </energy>
  </scstep>
  <scstep>
   <time name="total">    8.34    8.38</time>
   <energy>
    <i name="e_fr_energy">   -170.93730807 </i>
    <i name="e_wo_entrp">   -170.93730807 </i>
    <i name="e_0_energy">   -170.93730807 </i>
   </energy>
  </scstep>
  <scstep>
   <time name="total">   12.41   12.48</time>
   <energy>
    <i name="e_fr_energy">   -194.98318447 </i>
    <i name="e_wo_entrp">   -194.98318447 </i>
    <i name="e_0_energy">   -194.98318447 </i>
   </energy>
  </scstep>
  <scstep>
   <time name="total">    9.93    9.97</time>
   <energy>
    <i name="e_fr_energy">   -171.22124149 </i>
    <i name="e_wo_entrp">   -171.22124149 </i>
    <i name="e_0_energy">   -171.22124149 </i>
   </energy>
  </scstep>
  <scstep>
   <time name="total">   10.16   10.22</time>
   <energy>
    <i name="e_fr_energy">   -171.25139754 </i>
    <i name="e_wo_entrp">   -171.25139754 </i>
    <i name="e_0_energy">   -171.25139754 </i>
   </energy>
  </scstep>
  <scstep>
   <time name="total">    8.25    8.29</time>
   <energy>
    <i name="e_fr_energy">   -171.25186402 </i>
    <i name="e_wo_entrp">   -171.25186402 </i>
    <i name="e_0_energy">   -171.25186402 </i>
   </energy>
  </scstep>
  <scstep>
   <time name="total">   11.93   11.98</time>
   <energy>
    <i name="e_fr_energy">   -195.36758530 </i>
    <i name="e_wo_entrp">   -195.36758530 </i>
    <i name="e_0_energy">   -195.36758530 </i>
   </energy>
  </scstep>
  <scstep>
   <time name="total">    9.80    9.85</time>
   <energy>
    <i name="e_fr_energy">   -175.70473492 </i>
    <i name="e_wo_entrp">   -175.70473492 </i>
    <i name="e_0_energy">   -175.70473492 </i>
   </energy>
  </scstep>
  <scstep>
   <time name="total">   10.07   10.12</time>
   <energy>
    <i name="e_fr_energy">   -175.73595328 </i>
    <i name="e_wo_entrp">   -175.73595328 </i>
    <i name="e_0_energy">   -175.73595328 </i>
   </energy>
  </scstep>
  <scstep>
   <time name="total">    8.32    8.36</time>
   <energy>
    <i name="e_fr_energy">   -175.73636476 </i>
    <i name="e_wo_entrp">   -175.73636476 </i>
    <i name="e_0_energy">   -175.73636476 </i>
   </energy>
  </scstep>
  <scstep>
   <time name="total">   10.91   10.96</time>
   <energy>
    <i name="e_fr_energy">     -0.53100720 </i>
    <i name="e_wo_entrp">     -0.53100720 </i>
    <i name="e_0_energy">     -0.53100720 </i>
   </energy>
  </scstep>
  <scstep>
   <time name="total">   10.49   10.54</time>
   <energy>
    <i name="e_fr_energy">     -0.53944030 </i>
    <i name="e_wo_entrp">     -0.53944030 </i>
    <i name="e_0_energy">     -0.53944030 </i>
   </energy>
  </scstep>
  <scstep>
   <time name="total">   10.35   10.39</time>
   <energy>
    <i name="e_fr_energy">     -0.53950021 </i>
    <i name="e_wo_entrp">     -0.53950021 </i>
    <i name="e_0_energy">     -0.53950021 </i>
   </energy>
  </scstep>
  <scstep>
   <time name="total">   10.90   10.95</time>
   <energy>
    <i name="e_fr_energy">     -0.54464796 </i>
    <i name="e_wo_entrp">     -0.54464796 </i>
    <i name="e_0_energy">     -0.54464796 </i>
   </energy>
  </scstep>
  <scstep>
   <time name="total">   10.52   10.57</time>
   <energy>
    <i name="e_fr_energy">     -0.55430919 </i>
    <i name="e_wo_entrp">     -0.55430919 </i>
    <i name="e_0_energy">     -0.55430919 </i>
   </energy>
  </scstep>
  <scstep>
   <time name="total">   10.43   10.47</time>
   <energy>
    <i name="e_fr_energy">     -0.55438483 </i>
    <i name="e_wo_entrp">     -0.55438483 </i>
    <i name="e_0_energy">     -0.55438483 </i>
   </energy>
  </scstep>
  <scstep>
   <time name="total">   10.85   10.90</time>
   <energy>
    <i name="e_fr_energy">     -0.58344642 </i>
    <i name="e_wo_entrp">     -0.58344642 </i>
    <i name="e_0_energy">     -0.58344642 </i>
   </energy>
  </scstep>
  <scstep>
   <time name="total">   10.61   10.65</time>
   <energy>
    <i name="e_fr_energy">     -0.59313131 </i>
    <i name="e_wo_entrp">     -0.59313131 </i>
    <i name="e_0_energy">     -0.59313131 </i>
   </energy>
  </scstep>
  <scstep>
   <time name="total">   10.40   10.46</time>
   <energy>
    <i name="e_fr_energy">     -0.59321755 </i>
    <i name="e_wo_entrp">     -0.59321755 </i>
    <i name="e_0_energy">     -0.59321755 </i>
   </energy>
  </scstep>
  <varray name="epsilon_rpa" >
   <v>       3.33402531      -0.00559998      -0.01563666 </v>
   <v>      -0.00559998       3.33838612      -0.01069404 </v>
   <v>      -0.01563666      -0.01069404       3.31237357 </v>
  </varray>
  <kpoints>
   <generation param="Monkhorst-Pack">
    <v type="int" name="divisions">       6        6        6 </v>
    <v name="usershift">      0.00000000       0.00000000       0.00000000 </v>
    <v name="genvec1">      0.16666667       0.00000000       0.00000000 </v>
    <v name="genvec2">      0.00000000       0.16666667       0.00000000 </v>
    <v name="genvec3">      0.00000000       0.00000000       0.16666667 </v>
    <v name="shift">      0.50000000       0.50000000       0.50000000 </v>
   </generation>
   <varray name="kpointlist" >
    <v>       0.08333333       0.08333333       0.08333333 </v>
    <v>       0.25000000       0.08333333       0.08333333 </v>
    <v>       0.41666667       0.08333333       0.08333333 </v>
    <v>      -0.41666667       0.08333333       0.08333333 </v>
    <v>      -0.25000000       0.08333333       0.08333333 </v>
    <v>      -0.08333333       0.08333333       0.08333333 </v>
    <v>       0.08333333       0.25000000       0.08333333 </v>
    <v>       0.25000000       0.25000000       0.08333333 </v>
    <v>       0.41666667       0.25000000       0.08333333 </v>
    <v>      -0.41666667       0.25000000       0.08333333 </v>
    <v>      -0.25000000       0.25000000       0.08333333 </v>
    <v>      -0.08333333       0.25000000       0.08333333 </v>
    <v>       0.08333333       0.41666667       0.08333333 </v>
    <v>       0.25000000       0.41666667       0.08333333 </v>
    <v>       0.41666667       0.41666667       0.08333333 </v>
    <v>      -0.41666667       0.41666667       0.08333333 </v>
    <v>      -0.25000000       0.41666667       0.08333333 </v>
    <v>      -0.08333333       0.41666667       0.08333333 </v>
    <v>       0.08333333      -0.41666667       0.08333333 </v>
    <v>       0.25000000      -0.41666667       0.08333333 </v>
    <v>       0.41666667      -0.41666667       0.08333333 </v>
    <v>      -0.41666667      -0.41666667       0.08333333 </v>
    <v>      -0.25000000      -0.41666667       0.08333333 </v>
    <v>      -0.08333333      -0.41666667       0.08333333 </v>
    <v>       0.08333333      -0.25000000       0.08333333 </v>
    <v>       0.25000000      -0.25000000       0.08333333 </v>
    <v>       0.41666667      -0.25000000       0.08333333 </v>
    <v>      -0.41666667      -0.25000000       0.08333333 </v>
    <v>      -0.25000000      -0.25000000       0.08333333 </v>
    <v>      -0.08333333      -0.25000000       0.08333333 </v>
    <v>       0.08333333      -0.08333333       0.08333333 </v>
    <v>       0.25000000      -0.08333333       0.08333333 </v>
    <v>       0.41666667      -0.08333333       0.08333333 </v>
    <v>      -0.41666667      -0.08333333       0.08333333 </v>
    <v>      -0.25000000      -0.08333333       0.08333333 </v>
    <v>      -0.08333333      -0.08333333       0.08333333 </v>
    <v>       0.08333333       0.08333333       0.25000000 </v>
    <v>       0.25000000       0.08333333       0.25000000 </v>
    <v>       0.41666667       0.08333333       0.25000000 </v>
    <v>      -0.41666667       0.08333333       0.25000000 </v>
    <v>      -0.25000000       0.08333333       0.25000000 </v>
    <v>      -0.08333333       0.08333333       0.25000000 </v>
    <v>       0.08333333       0.25000000       0.25000000 </v>
    <v>       0.25000000       0.25000000       0.25000000 </v>
    <v>       0.41666667       0.25000000       0.25000000 </v>
    <v>      -0.41666667       0.25000000       0.25000000 </v>
    <v>      -0.25000000       0.25000000       0.25000000 </v>
    <v>      -0.08333333       0.25000000       0.25000000 </v>
    <v>       0.08333333       0.41666667       0.25000000 </v>
    <v>       0.25000000       0.41666667       0.25000000 </v>
    <v>       0.41666667       0.41666667       0.25000000 </v>
    <v>      -0.41666667       0.41666667       0.25000000 </v>
    <v>      -0.25000000       0.41666667       0.25000000 </v>
    <v>      -0.08333333       0.41666667       0.25000000 </v>
    <v>       0.08333333      -0.41666667       0.25000000 </v>
    <v>       0.25000000      -0.41666667       0.25000000 </v>
    <v>       0.41666667      -0.41666667       0.25000000 </v>
    <v>      -0.41666667      -0.41666667       0.25000000 </v>
    <v>      -0.25000000      -0.41666667       0.25000000 </v>
    <v>      -0.08333333      -0.41666667       0.25000000 </v>
    <v>       0.08333333      -0.25000000       0.25000000 </v>
    <v>       0.25000000      -0.25000000       0.25000000 </v>
    <v>       0.41666667      -0.25000000       0.25000000 </v>
    <v>      -0.41666667      -0.25000000       0.25000000 </v>
    <v>      -0.25000000      -0.25000000       0.25000000 </v>
    <v>      -0.08333333      -0.25000000       0.25000000 </v>
    <v>       0.08333333      -0.08333333       0.25000000 </v>
    <v>       0.25000000      -0.08333333       0.25000000 </v>
    <v>       0.41666667      -0.08333333       0.25000000 </v>
    <v>      -0.41666667      -0.08333333       0.25000000 </v>
    <v>      -0.25000000      -0.08333333       0.25000000 </v>
    <v>      -0.08333333      -0.08333333       0.25000000 </v>
    <v>       0.08333333       0.08333333       0.41666667 </v>
    <v>       0.25000000       0.08333333       0.41666667 </v>
    <v>       0.41666667       0.08333333       0.41666667 </v>
    <v>      -0.41666667       0.08333333       0.41666667 </v>
    <v>      -0.25000000       0.08333333       0.41666667 </v>
    <v>      -0.08333333       0.08333333       0.41666667 </v>
    <v>       0.08333333       0.25000000       0.41666667 </v>
    <v>       0.25000000       0.25000000       0.41666667 </v>
    <v>       0.41666667       0.25000000       0.41666667 </v>
    <v>      -0.41666667       0.25000000       0.41666667 </v>
    <v>      -0.25000000       0.25000000       0.41666667 </v>
    <v>      -0.08333333       0.25000000       0.41666667 </v>
    <v>       0.08333333       0.41666667       0.41666667 </v>
    <v>       0.25000000       0.41666667       0.41666667 </v>
    <v>       0.41666667       0.41666667       0.41666667 </v>
    <v>      -0.41666667       0.41666667       0.41666667 </v>
    <v>      -0.25000000       0.41666667       0.41666667 </v>
    <v>      -0.08333333       0.41666667       0.41666667 </v>
    <v>       0.08333333      -0.41666667       0.41666667 </v>
    <v>       0.25000000      -0.41666667       0.41666667 </v>
    <v>       0.41666667      -0.41666667       0.41666667 </v>
    <v>      -0.41666667      -0.41666667       0.41666667 </v>
    <v>      -0.25000000      -0.41666667       0.41666667 </v>
    <v>      -0.08333333      -0.41666667       0.41666667 </v>
    <v>       0.08333333      -0.25000000       0.41666667 </v>
    <v>       0.25000000      -0.25000000       0.41666667 </v>
    <v>       0.41666667      -0.25000000       0.41666667 </v>
    <v>      -0.41666667      -0.25000000       0.41666667 </v>
    <v>      -0.25000000      -0.25000000       0.41666667 </v>
    <v>      -0.08333333      -0.25000000       0.41666667 </v>
    <v>       0.08333333      -0.08333333       0.41666667 </v>
    <v>       0.25000000      -0.08333333       0.41666667 </v>
    <v>       0.41666667      -0.08333333       0.41666667 </v>
    <v>      -0.41666667      -0.08333333       0.41666667 </v>
    <v>      -0.25000000      -0.08333333       0.41666667 </v>
    <v>      -0.08333333      -0.08333333       0.41666667 </v>
   </varray>
   <varray name="weights" >
    <v>       0.00925926 </v>
    <v>       0.00925926 </v>
    <v>       0.00925926 </v>
    <v>       0.00925926 </v>
    <v>       0.00925926 </v>
    <v>       0.00925926 </v>
    <v>       0.00925926 </v>
    <v>       0.00925926 </v>
    <v>       0.00925926 </v>
    <v>       0.00925926 </v>
    <v>       0.00925926 </v>
    <v>       0.00925926 </v>
    <v>       0.00925926 </v>
    <v>       0.00925926 </v>
    <v>       0.00925926 </v>
    <v>       0.00925926 </v>
    <v>       0.00925926 </v>
    <v>       0.00925926 </v>
    <v>       0.00925926 </v>
    <v>       0.00925926 </v>
    <v>       0.00925926 </v>
    <v>       0.00925926 </v>
    <v>       0.00925926 </v>
    <v>       0.00925926 </v>
    <v>       0.00925926 </v>
    <v>       0.00925926 </v>
    <v>       0.00925926 </v>
    <v>       0.00925926 </v>
    <v>       0.00925926 </v>
    <v>       0.00925926 </v>
    <v>       0.00925926 </v>
    <v>       0.00925926 </v>
    <v>       0.00925926 </v>
    <v>       0.00925926 </v>
    <v>       0.00925926 </v>
    <v>       0.00925926 </v>
    <v>       0.00925926 </v>
    <v>       0.00925926 </v>
    <v>       0.00925926 </v>
    <v>       0.00925926 </v>
    <v>       0.00925926 </v>
    <v>       0.00925926 </v>
    <v>       0.00925926 </v>
    <v>       0.00925926 </v>
    <v>       0.00925926 </v>
    <v>       0.00925926 </v>
    <v>       0.00925926 </v>
    <v>       0.00925926 </v>
    <v>       0.00925926 </v>
    <v>       0.00925926 </v>
    <v>       0.00925926 </v>
    <v>       0.00925926 </v>
    <v>       0.00925926 </v>
    <v>       0.00925926 </v>
    <v>       0.00925926 </v>
    <v>       0.00925926 </v>
    <v>       0.00925926 </v>
    <v>       0.00925926 </v>
    <v>       0.00925926 </v>
    <v>       0.00925926 </v>
    <v>       0.00925926 </v>
    <v>       0.00925926 </v>
    <v>       0.00925926 </v>
    <v>       0.00925926 </v>
    <v>       0.00925926 </v>
    <v>       0.00925926 </v>
    <v>       0.00925926 </v>
    <v>       0.00925926 </v>
    <v>       0.00925926 </v>
    <v>       0.00925926 </v>
    <v>       0.00925926 </v>
    <v>       0.00925926 </v>
    <v>       0.00925926 </v>
    <v>       0.00925926 </v>
    <v>       0.00925926 </v>
    <v>       0.00925926 </v>
    <v>       0.00925926 </v>
    <v>       0.00925926 </v>
    <v>       0.00925926 </v>
    <v>       0.00925926 </v>
    <v>       0.00925926 </v>
    <v>       0.00925926 </v>
    <v>       0.00925926 </v>
    <v>       0.00925926 </v>
    <v>       0.00925926 </v>
    <v>       0.00925926 </v>
    <v>       0.00925926 </v>
    <v>       0.00925926 </v>
    <v>       0.00925926 </v>
    <v>       0.00925926 </v>
    <v>       0.00925926 </v>
    <v>       0.00925926 </v>
    <v>       0.00925926 </v>
    <v>       0.00925926 </v>
    <v>       0.00925926 </v>
    <v>       0.00925926 </v>
    <v>       0.00925926 </v>
    <v>       0.00925926 </v>
    <v>       0.00925926 </v>
    <v>       0.00925926 </v>
    <v>       0.00925926 </v>
    <v>       0.00925926 </v>
    <v>       0.00925926 </v>
    <v>       0.00925926 </v>
    <v>       0.00925926 </v>
    <v>       0.00925926 </v>
    <v>       0.00925926 </v>
    <v>       0.00925926 </v>
   </varray>
   <varray name="tetrahedronlist"  type="int" >
    <v type="int" >        2        1        7        8       44 </v>
    <v type="int" >        2        1        2        8       44 </v>
    <v type="int" >        2        1        2       38       44 </v>
    <v type="int" >        2        1        7       43       44 </v>
    <v type="int" >        2        1       37       43       44 </v>
    <v type="int" >        2        1       37       38       44 </v>
    <v type="int" >        2        2        8        9       45 </v>
    <v type="int" >        2        2        3        9       45 </v>
    <v type="int" >        2        2        3       39       45 </v>
    <v type="int" >        2        2        8       44       45 </v>
    <v type="int" >        2        2       38       44       45 </v>
    <v type="int" >        2        2       38       39       45 </v>
    <v type="int" >        2        3        9       10       46 </v>
    <v type="int" >        2        3        4       10       46 </v>
    <v type="int" >        2        3        4       40       46 </v>
    <v type="int" >        2        3        9       45       46 </v>
    <v type="int" >        2        3       39       45       46 </v>
    <v type="int" >        2        3       39       40       46 </v>
    <v type="int" >        2        4       10       11       47 </v>
    <v type="int" >        2        4        5       11       47 </v>
    <v type="int" >        2        4        5       41       47 </v>
    <v type="int" >        2        4       10       46       47 </v>
    <v type="int" >        2        4       40       46       47 </v>
    <v type="int" >        2        4       40       41       47 </v>
    <v type="int" >        2        5       11       12       48 </v>
    <v type="int" >        2        5        6       12       48 </v>
    <v type="int" >        2        5        6       42       48 </v>
    <v type="int" >        2        5       11       47       48 </v>
    <v type="int" >        2        5       41       47       48 </v>
    <v type="int" >        2        5       41       42       48 </v>
    <v type="int" >        2        6        7       12       43 </v>
    <v type="int" >        2        1        6        7       43 </v>
    <v type="int" >        2        1        6       37       43 </v>
    <v type="int" >        2        6       12       43       48 </v>
    <v type="int" >        2        6       42       43       48 </v>
    <v type="int" >        2        6       37       42       43 </v>
    <v type="int" >        2        7       13       14       50 </v>
    <v type="int" >        2        7        8       14       50 </v>
    <v type="int" >        2        7        8       44       50 </v>
    <v type="int" >        2        7       13       49       50 </v>
    <v type="int" >        2        7       43       49       50 </v>
    <v type="int" >        2        7       43       44       50 </v>
    <v type="int" >        2        8       14       15       51 </v>
    <v type="int" >        2        8        9       15       51 </v>
    <v type="int" >        2        8        9       45       51 </v>
    <v type="int" >        2        8       14       50       51 </v>
    <v type="int" >        2        8       44       50       51 </v>
    <v type="int" >        2        8       44       45       51 </v>
    <v type="int" >        2        9       15       16       52 </v>
    <v type="int" >        2        9       10       16       52 </v>
    <v type="int" >        2        9       10       46       52 </v>
    <v type="int" >        2        9       15       51       52 </v>
    <v type="int" >        2        9       45       51       52 </v>
    <v type="int" >        2        9       45       46       52 </v>
    <v type="int" >        2       10       16       17       53 </v>
    <v type="int" >        2       10       11       17       53 </v>
    <v type="int" >        2       10       11       47       53 </v>
    <v type="int" >        2       10       16       52       53 </v>
    <v type="int" >        2       10       46       52       53 </v>
    <v type="int" >        2       10       46       47       53 </v>
    <v type="int" >        2       11       17       18       54 </v>
    <v type="int" >        2       11       12       18       54 </v>
    <v type="int" >        2       11       12       48       54 </v>
    <v type="int" >        2       11       17       53       54 </v>
    <v type="int" >        2       11       47       53       54 </v>
    <v type="int" >        2       11       47       48       54 </v>
    <v type="int" >        2       12       13       18       49 </v>
    <v type="int" >        2        7       12       13       49 </v>
    <v type="int" >        2        7       12       43       49 </v>
    <v type="int" >        2       12       18       49       54 </v>
    <v type="int" >        2       12       48       49       54 </v>
    <v type="int" >        2       12       43       48       49 </v>
    <v type="int" >        2       13       19       20       56 </v>
    <v type="int" >        2       13       14       20       56 </v>
    <v type="int" >        2       13       14       50       56 </v>
    <v type="int" >        2       13       19       55       56 </v>
    <v type="int" >        2       13       49       55       56 </v>
    <v type="int" >        2       13       49       50       56 </v>
    <v type="int" >        2       14       20       21       57 </v>
    <v type="int" >        2       14       15       21       57 </v>
    <v type="int" >        2       14       15       51       57 </v>
    <v type="int" >        2       14       20       56       57 </v>
    <v type="int" >        2       14       50       56       57 </v>
    <v type="int" >        2       14       50       51       57 </v>
    <v type="int" >        2       15       21       22       58 </v>
    <v type="int" >        2       15       16       22       58 </v>
    <v type="int" >        2       15       16       52       58 </v>
    <v type="int" >        2       15       21       57       58 </v>
    <v type="int" >        2       15       51       57       58 </v>
    <v type="int" >        2       15       51       52       58 </v>
    <v type="int" >        2       16       22       23       59 </v>
    <v type="int" >        2       16       17       23       59 </v>
    <v type="int" >        2       16       17       53       59 </v>
    <v type="int" >        2       16       22       58       59 </v>
    <v type="int" >        2       16       52       58       59 </v>
    <v type="int" >        2       16       52       53       59 </v>
    <v type="int" >        2       17       23       24       60 </v>
    <v type="int" >        2       17       18       24       60 </v>
    <v type="int" >        2       17       18       54       60 </v>
    <v type="int" >        2       17       23       59       60 </v>
    <v type="int" >        2       17       53       59       60 </v>
    <v type="int" >        2       17       53       54       60 </v>
    <v type="int" >        2       18       19       24       55 </v>
    <v type="int" >        2       13       18       19       55 </v>
    <v type="int" >        2       13       18       49       55 </v>
    <v type="int" >        2       18       24       55       60 </v>
    <v type="int" >        2       18       54       55       60 </v>
    <v type="int" >        2       18       49       54       55 </v>
    <v type="int" >        2       19       25       26       62 </v>
    <v type="int" >        2       19       20       26       62 </v>
    <v type="int" >        2       19       20       56       62 </v>
    <v type="int" >        2       19       25       61       62 </v>
    <v type="int" >        2       19       55       61       62 </v>
    <v type="int" >        2       19       55       56       62 </v>
    <v type="int" >        2       20       26       27       63 </v>
    <v type="int" >        2       20       21       27       63 </v>
    <v type="int" >        2       20       21       57       63 </v>
    <v type="int" >        2       20       26       62       63 </v>
    <v type="int" >        2       20       56       62       63 </v>
    <v type="int" >        2       20       56       57       63 </v>
    <v type="int" >        2       21       27       28       64 </v>
    <v type="int" >        2       21       22       28       64 </v>
    <v type="int" >        2       21       22       58       64 </v>
    <v type="int" >        2       21       27       63       64 </v>
    <v type="int" >        2       21       57       63       64 </v>
    <v type="int" >        2       21       57       58       64 </v>
    <v type="int" >        2       22       28       29       65 </v>
    <v type="int" >        2       22       23       29       65 </v>
    <v type="int" >        2       22       23       59       65 </v>
    <v type="int" >        2       22       28       64       65 </v>
    <v type="int" >        2       22       58       64       65 </v>
    <v type="int" >        2       22       58       59       65 </v>
    <v type="int" >        2       23       29       30       66 </v>
    <v type="int" >        2       23       24       30       66 </v>
    <v type="int" >        2       23       24       60       66 </v>
    <v type="int" >        2       23       29       65       66 </v>
    <v type="int" >        2       23       59       65       66 </v>
    <v type="int" >        2       23       59       60       66 </v>
    <v type="int" >        2       24       25       30       61 </v>
    <v type="int" >        2       19       24       25       61 </v>
    <v type="int" >        2       19       24       55       61 </v>
    <v type="int" >        2       24       30       61       66 </v>
    <v type="int" >        2       24       60       61       66 </v>
    <v type="int" >        2       24       55       60       61 </v>
    <v type="int" >        2       25       31       32       68 </v>
    <v type="int" >        2       25       26       32       68 </v>
    <v type="int" >        2       25       26       62       68 </v>
    <v type="int" >        2       25       31       67       68 </v>
    <v type="int" >        2       25       61       67       68 </v>
    <v type="int" >        2       25       61       62       68 </v>
    <v type="int" >        2       26       32       33       69 </v>
    <v type="int" >        2       26       27       33       69 </v>
    <v type="int" >        2       26       27       63       69 </v>
    <v type="int" >        2       26       32       68       69 </v>
    <v type="int" >        2       26       62       68       69 </v>
    <v type="int" >        2       26       62       63       69 </v>
    <v type="int" >        2       27       33       34       70 </v>
    <v type="int" >        2       27       28       34       70 </v>
    <v type="int" >        2       27       28       64       70 </v>
    <v type="int" >        2       27       33       69       70 </v>
    <v type="int" >        2       27       63       69       70 </v>
    <v type="int" >        2       27       63       64       70 </v>
    <v type="int" >        2       28       34       35       71 </v>
    <v type="int" >        2       28       29       35       71 </v>
    <v type="int" >        2       28       29       65       71 </v>
    <v type="int" >        2       28       34       70       71 </v>
    <v type="int" >        2       28       64       70       71 </v>
    <v type="int" >        2       28       64       65       71 </v>
    <v type="int" >        2       29       35       36       72 </v>
    <v type="int" >        2       29       30       36       72 </v>
    <v type="int" >        2       29       30       66       72 </v>
    <v type="int" >        2       29       35       71       72 </v>
    <v type="int" >        2       29       65       71       72 </v>
    <v type="int" >        2       29       65       66       72 </v>
    <v type="int" >        2       30       31       36       67 </v>
    <v type="int" >        2       25       30       31       67 </v>
    <v type="int" >        2       25       30       61       67 </v>
    <v type="int" >        2       30       36       67       72 </v>
    <v type="int" >        2       30       66       67       72 </v>
    <v type="int" >        2       30       61       66       67 </v>
    <v type="int" >        2        1        2       31       38 </v>
    <v type="int" >        2        2       31       32       38 </v>
    <v type="int" >        2       31       32       38       68 </v>
    <v type="int" >        2        1       31       37       38 </v>
    <v type="int" >        2       31       37       38       67 </v>
    <v type="int" >        2       31       38       67       68 </v>
    <v type="int" >        2        2        3       32       39 </v>
    <v type="int" >        2        3       32       33       39 </v>
    <v type="int" >        2       32       33       39       69 </v>
    <v type="int" >        2        2       32       38       39 </v>
    <v type="int" >        2       32       38       39       68 </v>
    <v type="int" >        2       32       39       68       69 </v>
    <v type="int" >        2        3        4       33       40 </v>
    <v type="int" >        2        4       33       34       40 </v>
    <v type="int" >        2       33       34       40       70 </v>
    <v type="int" >        2        3       33       39       40 </v>
    <v type="int" >        2       33       39       40       69 </v>
    <v type="int" >        2       33       40       69       70 </v>
    <v type="int" >        2        4        5       34       41 </v>
    <v type="int" >        2        5       34       35       41 </v>
    <v type="int" >        2       34       35       41       71 </v>
    <v type="int" >        2        4       34       40       41 </v>
    <v type="int" >        2       34       40       41       70 </v>
    <v type="int" >        2       34       41       70       71 </v>
    <v type="int" >        2        5        6       35       42 </v>
    <v type="int" >        2        6       35       36       42 </v>
    <v type="int" >        2       35       36       42       72 </v>
    <v type="int" >        2        5       35       41       42 </v>
    <v type="int" >        2       35       41       42       71 </v>
    <v type="int" >        2       35       42       71       72 </v>
    <v type="int" >        2        1        6       36       37 </v>
    <v type="int" >        2        1       31       36       37 </v>
    <v type="int" >        2       31       36       37       67 </v>
    <v type="int" >        2        6       36       37       42 </v>
    <v type="int" >        2       36       37       42       72 </v>
    <v type="int" >        2       36       37       67       72 </v>
    <v type="int" >        2       37       43       44       80 </v>
    <v type="int" >        2       37       38       44       80 </v>
    <v type="int" >        2       37       38       74       80 </v>
    <v type="int" >        2       37       43       79       80 </v>
    <v type="int" >        2       37       73       79       80 </v>
    <v type="int" >        2       37       73       74       80 </v>
    <v type="int" >        2       38       44       45       81 </v>
    <v type="int" >        2       38       39       45       81 </v>
    <v type="int" >        2       38       39       75       81 </v>
    <v type="int" >        2       38       44       80       81 </v>
    <v type="int" >        2       38       74       80       81 </v>
    <v type="int" >        2       38       74       75       81 </v>
    <v type="int" >        2       39       45       46       82 </v>
    <v type="int" >        2       39       40       46       82 </v>
    <v type="int" >        2       39       40       76       82 </v>
    <v type="int" >        2       39       45       81       82 </v>
    <v type="int" >        2       39       75       81       82 </v>
    <v type="int" >        2       39       75       76       82 </v>
    <v type="int" >        2       40       46       47       83 </v>
    <v type="int" >        2       40       41       47       83 </v>
    <v type="int" >        2       40       41       77       83 </v>
    <v type="int" >        2       40       46       82       83 </v>
    <v type="int" >        2       40       76       82       83 </v>
    <v type="int" >        2       40       76       77       83 </v>
    <v type="int" >        2       41       47       48       84 </v>
    <v type="int" >        2       41       42       48       84 </v>
    <v type="int" >        2       41       42       78       84 </v>
    <v type="int" >        2       41       47       83       84 </v>
    <v type="int" >        2       41       77       83       84 </v>
    <v type="int" >        2       41       77       78       84 </v>
    <v type="int" >        2       42       43       48       79 </v>
    <v type="int" >        2       37       42       43       79 </v>
    <v type="int" >        2       37       42       73       79 </v>
    <v type="int" >        2       42       48       79       84 </v>
    <v type="int" >        2       42       78       79       84 </v>
    <v type="int" >        2       42       73       78       79 </v>
    <v type="int" >        2       43       49       50       86 </v>
    <v type="int" >        2       43       44       50       86 </v>
    <v type="int" >        2       43       44       80       86 </v>
    <v type="int" >        2       43       49       85       86 </v>
    <v type="int" >        2       43       79       85       86 </v>
    <v type="int" >        2       43       79       80       86 </v>
    <v type="int" >        2       44       50       51       87 </v>
    <v type="int" >        2       44       45       51       87 </v>
    <v type="int" >        2       44       45       81       87 </v>
    <v type="int" >        2       44       50       86       87 </v>
    <v type="int" >        2       44       80       86       87 </v>
    <v type="int" >        2       44       80       81       87 </v>
    <v type="int" >        2       45       51       52       88 </v>
    <v type="int" >        2       45       46       52       88 </v>
    <v type="int" >        2       45       46       82       88 </v>
    <v type="int" >        2       45       51       87       88 </v>
    <v type="int" >        2       45       81       87       88 </v>
    <v type="int" >        2       45       81       82       88 </v>
    <v type="int" >        2       46       52       53       89 </v>
    <v type="int" >        2       46       47       53       89 </v>
    <v type="int" >        2       46       47       83       89 </v>
    <v type="int" >        2       46       52       88       89 </v>
    <v type="int" >        2       46       82       88       89 </v>
    <v type="int" >        2       46       82       83       89 </v>
    <v type="int" >        2       47       53       54       90 </v>
    <v type="int" >        2       47       48       54       90 </v>
    <v type="int" >        2       47       48       84       90 </v>
    <v type="int" >        2       47       53       89       90 </v>
    <v type="int" >        2       47       83       89       90 </v>
    <v type="int" >        2       47       83       84       90 </v>
    <v type="int" >        2       48       49       54       85 </v>
    <v type="int" >        2       43       48       49       85 </v>
    <v type="int" >        2       43       48       79       85 </v>
    <v type="int" >        2       48       54       85       90 </v>
    <v type="int" >        2       48       84       85       90 </v>
    <v type="int" >        2       48       79       84       85 </v>
    <v type="int" >        2       49       55       56       92 </v>
    <v type="int" >        2       49       50       56       92 </v>
    <v type="int" >        2       49       50       86       92 </v>
    <v type="int" >        2       49       55       91       92 </v>
    <v type="int" >        2       49       85       91       92 </v>
    <v type="int" >        2       49       85       86       92 </v>
    <v type="int" >        2       50       56       57       93 </v>
    <v type="int" >        2       50       51       57       93 </v>
    <v type="int" >        2       50       51       87       93 </v>
    <v type="int" >        2       50       56       92       93 </v>
    <v type="int" >        2       50       86       92       93 </v>
    <v type="int" >        2       50       86       87       93 </v>
    <v type="int" >        2       51       57       58       94 </v>
    <v type="int" >        2       51       52       58       94 </v>
    <v type="int" >        2       51       52       88       94 </v>
    <v type="int" >        2       51       57       93       94 </v>
    <v type="int" >        2       51       87       93       94 </v>
    <v type="int" >        2       51       87       88       94 </v>
    <v type="int" >        2       52       58       59       95 </v>
    <v type="int" >        2       52       53       59       95 </v>
    <v type="int" >        2       52       53       89       95 </v>
    <v type="int" >        2       52       58       94       95 </v>
    <v type="int" >        2       52       88       94       95 </v>
    <v type="int" >        2       52       88       89       95 </v>
    <v type="int" >        2       53       59       60       96 </v>
    <v type="int" >        2       53       54       60       96 </v>
    <v type="int" >        2       53       54       90       96 </v>
    <v type="int" >        2       53       59       95       96 </v>
    <v type="int" >        2       53       89       95       96 </v>
    <v type="int" >        2       53       89       90       96 </v>
    <v type="int" >        2       54       55       60       91 </v>
    <v type="int" >        2       49       54       55       91 </v>
    <v type="int" >        2       49       54       85       91 </v>
    <v type="int" >        2       54       60       91       96 </v>
    <v type="int" >        2       54       90       91       96 </v>
    <v type="int" >        2       54       85       90       91 </v>
    <v type="int" >        2       55       61       62       98 </v>
    <v type="int" >        2       55       56       62       98 </v>
    <v type="int" >        2       55       56       92       98 </v>
    <v type="int" >        2       55       61       97       98 </v>
    <v type="int" >        2       55       91       97       98 </v>
    <v type="int" >        2       55       91       92       98 </v>
    <v type="int" >        2       56       62       63       99 </v>
    <v type="int" >        2       56       57       63       99 </v>
    <v type="int" >        2       56       57       93       99 </v>
    <v type="int" >        2       56       62       98       99 </v>
    <v type="int" >        2       56       92       98       99 </v>
    <v type="int" >        2       56       92       93       99 </v>
    <v type="int" >        2       57       63       64      100 </v>
    <v type="int" >        2       57       58       64      100 </v>
    <v type="int" >        2       57       58       94      100 </v>
    <v type="int" >        2       57       63       99      100 </v>
    <v type="int" >        2       57       93       99      100 </v>
    <v type="int" >        2       57       93       94      100 </v>
    <v type="int" >        2       58       64       65      101 </v>
    <v type="int" >        2       58       59       65      101 </v>
    <v type="int" >        2       58       59       95      101 </v>
    <v type="int" >        2       58       64      100      101 </v>
    <v type="int" >        2       58       94      100      101 </v>
    <v type="int" >        2       58       94       95      101 </v>
    <v type="int" >        2       59       65       66      102 </v>
    <v type="int" >        2       59       60       66      102 </v>
    <v type="int" >        2       59       60       96      102 </v>
    <v type="int" >        2       59       65      101      102 </v>
    <v type="int" >        2       59       95      101      102 </v>
    <v type="int" >        2       59       95       96      102 </v>
    <v type="int" >        2       60       61       66       97 </v>
    <v type="int" >        2       55       60       61       97 </v>
    <v type="int" >        2       55       60       91       97 </v>
    <v type="int" >        2       60       66       97      102 </v>
    <v type="int" >        2       60       96       97      102 </v>
    <v type="int" >        2       60       91       96       97 </v>
    <v type="int" >        2       61       67       68      104 </v>
    <v type="int" >        2       61       62       68      104 </v>
    <v type="int" >        2       61       62       98      104 </v>
    <v type="int" >        2       61       67      103      104 </v>
    <v type="int" >        2       61       97      103      104 </v>
    <v type="int" >        2       61       97       98      104 </v>
    <v type="int" >        2       62       68       69      105 </v>
    <v type="int" >        2       62       63       69      105 </v>
    <v type="int" >        2       62       63       99      105 </v>
    <v type="int" >        2       62       68      104      105 </v>
    <v type="int" >        2       62       98      104      105 </v>
    <v type="int" >        2       62       98       99      105 </v>
    <v type="int" >        2       63       69       70      106 </v>
    <v type="int" >        2       63       64       70      106 </v>
    <v type="int" >        2       63       64      100      106 </v>
    <v type="int" >        2       63       69      105      106 </v>
    <v type="int" >        2       63       99      105      106 </v>
    <v type="int" >        2       63       99      100      106 </v>
    <v type="int" >        2       64       70       71      107 </v>
    <v type="int" >        2       64       65       71      107 </v>
    <v type="int" >        2       64       65      101      107 </v>
    <v type="int" >        2       64       70      106      107 </v>
    <v type="int" >        2       64      100      106      107 </v>
    <v type="int" >        2       64      100      101      107 </v>
    <v type="int" >        2       65       71       72      108 </v>
    <v type="int" >        2       65       66       72      108 </v>
    <v type="int" >        2       65       66      102      108 </v>
    <v type="int" >        2       65       71      107      108 </v>
    <v type="int" >        2       65      101      107      108 </v>
    <v type="int" >        2       65      101      102      108 </v>
    <v type="int" >        2       66       67       72      103 </v>
    <v type="int" >        2       61       66       67      103 </v>
    <v type="int" >        2       61       66       97      103 </v>
    <v type="int" >        2       66       72      103      108 </v>
    <v type="int" >        2       66      102      103      108 </v>
    <v type="int" >        2       66       97      102      103 </v>
    <v type="int" >        2       37       38       67       74 </v>
    <v type="int" >        2       38       67       68       74 </v>
    <v type="int" >        2       67       68       74      104 </v>
    <v type="int" >        2       37       67       73       74 </v>
    <v type="int" >        2       67       73       74      103 </v>
    <v type="int" >        2       67       74      103      104 </v>
    <v type="int" >        2       38       39       68       75 </v>
    <v type="int" >        2       39       68       69       75 </v>
    <v type="int" >        2       68       69       75      105 </v>
    <v type="int" >        2       38       68       74       75 </v>
    <v type="int" >        2       68       74       75      104 </v>
    <v type="int" >        2       68       75      104      105 </v>
    <v type="int" >        2       39       40       69       76 </v>
    <v type="int" >        2       40       69       70       76 </v>
    <v type="int" >        2       69       70       76      106 </v>
    <v type="int" >        2       39       69       75       76 </v>
    <v type="int" >        2       69       75       76      105 </v>
    <v type="int" >        2       69       76      105      106 </v>
    <v type="int" >        2       40       41       70       77 </v>
    <v type="int" >        2       41       70       71       77 </v>
    <v type="int" >        2       70       71       77      107 </v>
    <v type="int" >        2       40       70       76       77 </v>
    <v type="int" >        2       70       76       77      106 </v>
    <v type="int" >        2       70       77      106      107 </v>
    <v type="int" >        2       41       42       71       78 </v>
    <v type="int" >        2       42       71       72       78 </v>
    <v type="int" >        2       71       72       78      108 </v>
    <v type="int" >        2       41       71       77       78 </v>
    <v type="int" >        2       71       77       78      107 </v>
    <v type="int" >        2       71       78      107      108 </v>
    <v type="int" >        2       37       42       72       73 </v>
    <v type="int" >        2       37       67       72       73 </v>
    <v type="int" >        2       67       72       73      103 </v>
    <v type="int" >        2       42       72       73       78 </v>
    <v type="int" >        2       72       73       78      108 </v>
    <v type="int" >        2       72       73      103      108 </v>
    <v type="int" >        2       73       79       80      101 </v>
    <v type="int" >        2       73       74       80      101 </v>
    <v type="int" >        2       73       74      101      107 </v>
    <v type="int" >        2       73       79      101      102 </v>
    <v type="int" >        2       73      101      102      108 </v>
    <v type="int" >        2       73      101      107      108 </v>
    <v type="int" >        2       74       80       81      100 </v>
    <v type="int" >        2       74       75       81      100 </v>
[...]
        <r>  0.0024  0.0000  0.0084  0.0049  0.0000  0.0000  0.0000  0.0000  0.0000 </r>
        <r>  0.0024  0.0000  0.0084  0.0049  0.0000  0.0000  0.0000  0.0000  0.0000 </r>
        <r>  0.0024  0.0025  0.0048  0.0060  0.0000  0.0000  0.0000  0.0000  0.0000 </r>
        <r>  0.0025  0.0524  0.0092  0.0185  0.0000  0.0000  0.0000  0.0000  0.0000 </r>
        <r>  0.0025  0.0115  0.0651  0.0035  0.0000  0.0000  0.0000  0.0000  0.0000 </r>
        <r>  0.0025  0.0115  0.0651  0.0035  0.0000  0.0000  0.0000  0.0000  0.0000 </r>
        <r>  0.0007  0.0232  0.0014  0.1178  0.0000  0.0000  0.0000  0.0000  0.0000 </r>
        <r>  0.0007  0.0232  0.0014  0.1178  0.0000  0.0000  0.0000  0.0000  0.0000 </r>
        <r>  0.0025  0.0524  0.0092  0.0185  0.0000  0.0000  0.0000  0.0000  0.0000 </r>
       </set>
       <set comment="band 18">
        <r>  0.0011  0.0005  0.0048  0.0058  0.0000  0.0000  0.0000  0.0000  0.0000 </r>
        <r>  0.0011  0.0030  0.0043  0.0039  0.0000  0.0000  0.0000  0.0000  0.0000 </r>
        <r>  0.0011  0.0030  0.0043  0.0039  0.0000  0.0000  0.0000  0.0000  0.0000 </r>
        <r>  0.0011  0.0005  0.0048  0.0058  0.0000  0.0000  0.0000  0.0000  0.0000 </r>
        <r>  0.0020  0.0329  0.0036  0.0705  0.0000  0.0000  0.0000  0.0000  0.0000 </r>
        <r>  0.0020  0.0263  0.0633  0.0174  0.0000  0.0000  0.0000  0.0000  0.0000 </r>
        <r>  0.0020  0.0263  0.0633  0.0174  0.0000  0.0000  0.0000  0.0000  0.0000 </r>
        <r>  0.0014  0.0480  0.0140  0.0349  0.0000  0.0000  0.0000  0.0000  0.0000 </r>
        <r>  0.0014  0.0480  0.0140  0.0348  0.0000  0.0000  0.0000  0.0000  0.0000 </r>
        <r>  0.0020  0.0329  0.0036  0.0705  0.0000  0.0000  0.0000  0.0000  0.0000 </r>
       </set>
       <set comment="band 19">
        <r>  0.0007  0.0013  0.0024  0.0013  0.0000  0.0000  0.0000  0.0000  0.0000 </r>
        <r>  0.0007  0.0033  0.0000  0.0016  0.0000  0.0000  0.0000  0.0000  0.0000 </r>
        <r>  0.0007  0.0033  0.0000  0.0016  0.0000  0.0000  0.0000  0.0000  0.0000 </r>
        <r>  0.0007  0.0013  0.0024  0.0013  0.0000  0.0000  0.0000  0.0000  0.0000 </r>
        <r>  0.0001  0.0209  0.0915  0.0322  0.0000  0.0000  0.0000  0.0000  0.0000 </r>
        <r>  0.0001  0.0309  0.0511  0.0625  0.0000  0.0000  0.0000  0.0000  0.0000 </r>
        <r>  0.0001  0.0309  0.0512  0.0625  0.0000  0.0000  0.0000  0.0000  0.0000 </r>
        <r>  0.0008  0.0299  0.0093  0.0091  0.0000  0.0000  0.0000  0.0000  0.0000 </r>
        <r>  0.0008  0.0299  0.0093  0.0091  0.0000  0.0000  0.0000  0.0000  0.0000 </r>
        <r>  0.0001  0.0209  0.0915  0.0322  0.0000  0.0000  0.0000  0.0000  0.0000 </r>
       </set>
       <set comment="band 20">
        <r>  0.0003  0.0011  0.0024  0.0002  0.0000  0.0000  0.0000  0.0000  0.0000 </r>
        <r>  0.0003  0.0015  0.0018  0.0004  0.0000  0.0000  0.0000  0.0000  0.0000 </r>
        <r>  0.0003  0.0015  0.0018  0.0004  0.0000  0.0000  0.0000  0.0000  0.0000 </r>
        <r>  0.0003  0.0011  0.0024  0.0002  0.0000  0.0000  0.0000  0.0000  0.0000 </r>
        <r>  0.0007  0.0168  0.0220  0.0463  0.0000  0.0000  0.0000  0.0000  0.0000 </r>
        <r>  0.0007  0.0340  0.0156  0.0355  0.0000  0.0000  0.0000  0.0000  0.0000 </r>
        <r>  0.0007  0.0340  0.0156  0.0355  0.0000  0.0000  0.0000  0.0000  0.0000 </r>
        <r>  0.0000  0.0297  0.1300  0.0087  0.0000  0.0000  0.0000  0.0000  0.0000 </r>
        <r>  0.0000  0.0297  0.1300  0.0087  0.0000  0.0000  0.0000  0.0000  0.0000 </r>
        <r>  0.0007  0.0168  0.0220  0.0463  0.0000  0.0000  0.0000  0.0000  0.0000 </r>
       </set>
       <set comment="band 21">
        <r>  0.0005  0.0008  0.0040  0.0012  0.0000  0.0000  0.0000  0.0000  0.0000 </r>
        <r>  0.0005  0.0029  0.0022  0.0010  0.0000  0.0000  0.0000  0.0000  0.0000 </r>
        <r>  0.0005  0.0029  0.0021  0.0010  0.0000  0.0000  0.0000  0.0000  0.0000 </r>
        <r>  0.0005  0.0008  0.0040  0.0012  0.0000  0.0000  0.0000  0.0000  0.0000 </r>
        <r>  0.0003  0.0442  0.0062  0.0460  0.0000  0.0000  0.0000  0.0000  0.0000 </r>
        <r>  0.0003  0.0159  0.0191  0.0626  0.0000  0.0000  0.0000  0.0000  0.0000 </r>
        <r>  0.0003  0.0156  0.0192  0.0615  0.0000  0.0000  0.0000  0.0000  0.0000 </r>
        <r>  0.0000  0.0562  0.0721  0.0361  0.0000  0.0000  0.0000  0.0000  0.0000 </r>
        <r>  0.0000  0.0567  0.0729  0.0365  0.0000  0.0000  0.0000  0.0000  0.0000 </r>
        <r>  0.0003  0.0444  0.0061  0.0471  0.0000  0.0000  0.0000  0.0000  0.0000 </r>
       </set>
       <set comment="band 22">
        <r>  0.0003  0.0022  0.0001  0.0038  0.0000  0.0000  0.0000  0.0000  0.0000 </r>
        <r>  0.0003  0.0020  0.0031  0.0010  0.0000  0.0000  0.0000  0.0000  0.0000 </r>
        <r>  0.0003  0.0020  0.0031  0.0010  0.0000  0.0000  0.0000  0.0000  0.0000 </r>
        <r>  0.0003  0.0023  0.0001  0.0038  0.0000  0.0000  0.0000  0.0000  0.0000 </r>
        <r>  0.0003  0.0048  0.0029  0.1216  0.0000  0.0000  0.0000  0.0000  0.0000 </r>
        <r>  0.0003  0.0151  0.0073  0.1057  0.0000  0.0000  0.0000  0.0000  0.0000 </r>
        <r>  0.0003  0.0153  0.0071  0.1069  0.0000  0.0000  0.0000  0.0000  0.0000 </r>
        <r>  0.0002  0.0331  0.0428  0.0233  0.0000  0.0000  0.0000  0.0000  0.0000 </r>
        <r>  0.0002  0.0326  0.0420  0.0229  0.0000  0.0000  0.0000  0.0000  0.0000 </r>
        <r>  0.0003  0.0046  0.0029  0.1205  0.0000  0.0000  0.0000  0.0000  0.0000 </r>
       </set>
       <set comment="band 23">
        <r>  0.0001  0.0025  0.0004  0.0002  0.0000  0.0000  0.0000  0.0000  0.0000 </r>
        <r>  0.0001  0.0014  0.0009  0.0008  0.0000  0.0000  0.0000  0.0000  0.0000 </r>
        <r>  0.0001  0.0014  0.0009  0.0008  0.0000  0.0000  0.0000  0.0000  0.0000 </r>
        <r>  0.0001  0.0025  0.0004  0.0002  0.0000  0.0000  0.0000  0.0000  0.0000 </r>
        <r>  0.0000  0.0926  0.0028  0.0322  0.0000  0.0000  0.0000  0.0000  0.0000 </r>
        <r>  0.0000  0.0531  0.0633  0.0113  0.0000  0.0000  0.0000  0.0000  0.0000 </r>
        <r>  0.0000  0.0530  0.0632  0.0113  0.0000  0.0000  0.0000  0.0000  0.0000 </r>
        <r>  0.0000  0.0740  0.0288  0.0114  0.0000  0.0000  0.0000  0.0000  0.0000 </r>
        <r>  0.0000  0.0741  0.0289  0.0114  0.0000  0.0000  0.0000  0.0000  0.0000 </r>
        <r>  0.0000  0.0927  0.0028  0.0322  0.0000  0.0000  0.0000  0.0000  0.0000 </r>
       </set>
       <set comment="band 24">
        <r>  0.0003  0.0030  0.0002  0.0013  0.0000  0.0000  0.0000  0.0000  0.0000 </r>
        <r>  0.0003  0.0007  0.0009  0.0029  0.0000  0.0000  0.0000  0.0000  0.0000 </r>
        <r>  0.0003  0.0007  0.0009  0.0029  0.0000  0.0000  0.0000  0.0000  0.0000 </r>
        <r>  0.0003  0.0030  0.0002  0.0013  0.0000  0.0000  0.0000  0.0000  0.0000 </r>
        <r>  0.0000  0.0994  0.0002  0.0283  0.0000  0.0000  0.0000  0.0000  0.0000 </r>
        <r>  0.0000  0.0437  0.0819  0.0020  0.0000  0.0000  0.0000  0.0000  0.0000 </r>
        <r>  0.0000  0.0438  0.0820  0.0020  0.0000  0.0000  0.0000  0.0000  0.0000 </r>
        <r>  0.0000  0.0771  0.0245  0.0121  0.0000  0.0000  0.0000  0.0000  0.0000 </r>
        <r>  0.0000  0.0770  0.0244  0.0121  0.0000  0.0000  0.0000  0.0000  0.0000 </r>
        <r>  0.0000  0.0992  0.0002  0.0282  0.0000  0.0000  0.0000  0.0000  0.0000 </r>
       </set>
       <set comment="band 25">
        <r>  0.0364  0.0005  0.0114  0.0046  0.0000  0.0000  0.0000  0.0000  0.0000 </r>
        <r>  0.0364  0.0015  0.0095  0.0056  0.0000  0.0000  0.0000  0.0000  0.0000 </r>
        <r>  0.0364  0.0015  0.0095  0.0056  0.0000  0.0000  0.0000  0.0000  0.0000 </r>
        <r>  0.0364  0.0005  0.0114  0.0046  0.0000  0.0000  0.0000  0.0000  0.0000 </r>
        <r>  0.0295  0.0005  0.0101  0.0221  0.0000  0.0000  0.0000  0.0000  0.0000 </r>
        <r>  0.0295  0.0000  0.0125  0.0202  0.0000  0.0000  0.0000  0.0000  0.0000 </r>
        <r>  0.0295  0.0000  0.0125  0.0202  0.0000  0.0000  0.0000  0.0000  0.0000 </r>
        <r>  0.0300  0.0003  0.0106  0.0138  0.0000  0.0000  0.0000  0.0000  0.0000 </r>
        <r>  0.0300  0.0003  0.0106  0.0138  0.0000  0.0000  0.0000  0.0000  0.0000 </r>
        <r>  0.0295  0.0005  0.0101  0.0221  0.0000  0.0000  0.0000  0.0000  0.0000 </r>
       </set>
       <set comment="band 26">
        <r>  0.0340  0.0015  0.0158  0.0024  0.0000  0.0000  0.0000  0.0000  0.0000 </r>
        <r>  0.0340  0.0033  0.0132  0.0033  0.0000  0.0000  0.0000  0.0000  0.0000 </r>
        <r>  0.0340  0.0033  0.0132  0.0033  0.0000  0.0000  0.0000  0.0000  0.0000 </r>
        <r>  0.0340  0.0015  0.0159  0.0024  0.0000  0.0000  0.0000  0.0000  0.0000 </r>
        <r>  0.0274  0.0095  0.0179  0.0002  0.0000  0.0000  0.0000  0.0000  0.0000 </r>
        <r>  0.0274  0.0041  0.0229  0.0005  0.0000  0.0000  0.0000  0.0000  0.0000 </r>
        <r>  0.0274  0.0041  0.0229  0.0005  0.0000  0.0000  0.0000  0.0000  0.0000 </r>
        <r>  0.0282  0.0085  0.0228  0.0003  0.0000  0.0000  0.0000  0.0000  0.0000 </r>
        <r>  0.0282  0.0085  0.0228  0.0003  0.0000  0.0000  0.0000  0.0000  0.0000 </r>
        <r>  0.0274  0.0095  0.0179  0.0002  0.0000  0.0000  0.0000  0.0000  0.0000 </r>
       </set>
       <set comment="band 27">
        <r>  0.0478  0.0137  0.0083  0.0019  0.0000  0.0000  0.0000  0.0000  0.0000 </r>
        <r>  0.0478  0.0037  0.0164  0.0038  0.0000  0.0000  0.0000  0.0000  0.0000 </r>
        <r>  0.0478  0.0037  0.0164  0.0038  0.0000  0.0000  0.0000  0.0000  0.0000 </r>
        <r>  0.0478  0.0137  0.0083  0.0019  0.0000  0.0000  0.0000  0.0000  0.0000 </r>
        <r>  0.0060  0.0057  0.0092  0.0021  0.0000  0.0000  0.0000  0.0000  0.0000 </r>
        <r>  0.0060  0.0048  0.0099  0.0024  0.0000  0.0000  0.0000  0.0000  0.0000 </r>
        <r>  0.0060  0.0048  0.0099  0.0024  0.0000  0.0000  0.0000  0.0000  0.0000 </r>
        <r>  0.0052  0.0024  0.0002  0.0106  0.0000  0.0000  0.0000  0.0000  0.0000 </r>
        <r>  0.0052  0.0024  0.0002  0.0106  0.0000  0.0000  0.0000  0.0000  0.0000 </r>
        <r>  0.0060  0.0057  0.0092  0.0021  0.0000  0.0000  0.0000  0.0000  0.0000 </r>
       </set>
       <set comment="band 28">
        <r>  0.0714  0.0010  0.0142  0.0035  0.0000  0.0000  0.0000  0.0000  0.0000 </r>
        <r>  0.0714  0.0031  0.0114  0.0043  0.0000  0.0000  0.0000  0.0000  0.0000 </r>
        <r>  0.0714  0.0031  0.0114  0.0043  0.0000  0.0000  0.0000  0.0000  0.0000 </r>
        <r>  0.0714  0.0010  0.0142  0.0035  0.0000  0.0000  0.0000  0.0000  0.0000 </r>
        <r>  0.0006  0.0017  0.0062  0.0032  0.0000  0.0000  0.0000  0.0000  0.0000 </r>
        <r>  0.0006  0.0031  0.0009  0.0071  0.0000  0.0000  0.0000  0.0000  0.0000 </r>
        <r>  0.0006  0.0031  0.0009  0.0071  0.0000  0.0000  0.0000  0.0000  0.0000 </r>
        <r>  0.0005  0.0062  0.0123  0.0032  0.0000  0.0000  0.0000  0.0000  0.0000 </r>
        <r>  0.0005  0.0062  0.0123  0.0032  0.0000  0.0000  0.0000  0.0000  0.0000 </r>
        <r>  0.0006  0.0017  0.0062  0.0032  0.0000  0.0000  0.0000  0.0000  0.0000 </r>
       </set>
       <set comment="band 29">
        <r>  0.0595  0.0017  0.0000  0.0018  0.0000  0.0000  0.0000  0.0000  0.0000 </r>
        <r>  0.0596  0.0010  0.0023  0.0002  0.0000  0.0000  0.0000  0.0000  0.0000 </r>
        <r>  0.0595  0.0010  0.0023  0.0002  0.0000  0.0000  0.0000  0.0000  0.0000 </r>
        <r>  0.0595  0.0017  0.0000  0.0018  0.0000  0.0000  0.0000  0.0000  0.0000 </r>
        <r>  0.0035  0.0139  0.0139  0.0125  0.0000  0.0000  0.0000  0.0000  0.0000 </r>
        <r>  0.0035  0.0232  0.0066  0.0104  0.0000  0.0000  0.0000  0.0000  0.0000 </r>
        <r>  0.0035  0.0232  0.0066  0.0104  0.0000  0.0000  0.0000  0.0000  0.0000 </r>
        <r>  0.0001  0.0281  0.0102  0.0283  0.0000  0.0000  0.0000  0.0000  0.0000 </r>
        <r>  0.0001  0.0281  0.0102  0.0283  0.0000  0.0000  0.0000  0.0000  0.0000 </r>
        <r>  0.0035  0.0139  0.0139  0.0125  0.0000  0.0000  0.0000  0.0000  0.0000 </r>
       </set>
       <set comment="band 30">
        <r>  0.0383  0.0003  0.0028  0.0154  0.0000  0.0000  0.0000  0.0000  0.0000 </r>
        <r>  0.0383  0.0104  0.0000  0.0081  0.0000  0.0000  0.0000  0.0000  0.0000 </r>
        <r>  0.0383  0.0104  0.0000  0.0081  0.0000  0.0000  0.0000  0.0000  0.0000 </r>
        <r>  0.0383  0.0003  0.0028  0.0154  0.0000  0.0000  0.0000  0.0000  0.0000 </r>
        <r>  0.0106  0.0095  0.0074  0.0309  0.0000  0.0000  0.0000  0.0000  0.0000 </r>
        <r>  0.0106  0.0163  0.0049  0.0266  0.0000  0.0000  0.0000  0.0000  0.0000 </r>
        <r>  0.0106  0.0163  0.0049  0.0266  0.0000  0.0000  0.0000  0.0000  0.0000 </r>
        <r>  0.0157  0.0080  0.0003  0.0431  0.0000  0.0000  0.0000  0.0000  0.0000 </r>
        <r>  0.0157  0.0080  0.0003  0.0431  0.0000  0.0000  0.0000  0.0000  0.0000 </r>
        <r>  0.0106  0.0095  0.0074  0.0309  0.0000  0.0000  0.0000  0.0000  0.0000 </r>
       </set>
       <set comment="band 31">
        <r>  0.0210  0.0026  0.0018  0.0147  0.0000  0.0000  0.0000  0.0000  0.0000 </r>
        <r>  0.0210  0.0109  0.0020  0.0063  0.0000  0.0000  0.0000  0.0000  0.0000 </r>
        <r>  0.0210  0.0109  0.0020  0.0063  0.0000  0.0000  0.0000  0.0000  0.0000 </r>
        <r>  0.0210  0.0026  0.0018  0.0148  0.0000  0.0000  0.0000  0.0000  0.0000 </r>
        <r>  0.0046  0.0292  0.0188  0.0040  0.0000  0.0000  0.0000  0.0000  0.0000 </r>
        <r>  0.0046  0.0347  0.0040  0.0134  0.0000  0.0000  0.0000  0.0000  0.0000 </r>
        <r>  0.0046  0.0347  0.0040  0.0134  0.0000  0.0000  0.0000  0.0000  0.0000 </r>
        <r>  0.0043  0.0113  0.0035  0.0020  0.0000  0.0000  0.0000  0.0000  0.0000 </r>
        <r>  0.0043  0.0113  0.0035  0.0020  0.0000  0.0000  0.0000  0.0000  0.0000 </r>
        <r>  0.0046  0.0292  0.0188  0.0040  0.0000  0.0000  0.0000  0.0000  0.0000 </r>
       </set>
       <set comment="band 32">
        <r>  0.0323  0.0296  0.0045  0.0003  0.0000  0.0000  0.0000  0.0000  0.0000 </r>
        <r>  0.0323  0.0036  0.0207  0.0101  0.0000  0.0000  0.0000  0.0000  0.0000 </r>
        <r>  0.0323  0.0036  0.0207  0.0101  0.0000  0.0000  0.0000  0.0000  0.0000 </r>
        <r>  0.0323  0.0296  0.0045  0.0003  0.0000  0.0000  0.0000  0.0000  0.0000 </r>
        <r>  0.0088  0.0073  0.0047  0.0085  0.0000  0.0000  0.0000  0.0000  0.0000 </r>
        <r>  0.0088  0.0120  0.0032  0.0054  0.0000  0.0000  0.0000  0.0000  0.0000 </r>
        <r>  0.0088  0.0120  0.0032  0.0054  0.0000  0.0000  0.0000  0.0000  0.0000 </r>
        <r>  0.0068  0.0280  0.0093  0.0138  0.0000  0.0000  0.0000  0.0000  0.0000 </r>
        <r>  0.0068  0.0280  0.0093  0.0138  0.0000  0.0000  0.0000  0.0000  0.0000 </r>
        <r>  0.0088  0.0073  0.0047  0.0085  0.0000  0.0000  0.0000  0.0000  0.0000 </r>
       </set>
       <set comment="band 33">
        <r>  0.0052  0.0050  0.0107  0.0050  0.0000  0.0000  0.0000  0.0000  0.0000 </r>
        <r>  0.0052  0.0186  0.0006  0.0014  0.0000  0.0000  0.0000  0.0000  0.0000 </r>
        <r>  0.0052  0.0186  0.0006  0.0014  0.0000  0.0000  0.0000  0.0000  0.0000 </r>
        <r>  0.0052  0.0050  0.0107  0.0050  0.0000  0.0000  0.0000  0.0000  0.0000 </r>
        <r>  0.0032  0.0289  0.0128  0.0029  0.0000  0.0000  0.0000  0.0000  0.0000 </r>
        <r>  0.0032  0.0248  0.0049  0.0149  0.0000  0.0000  0.0000  0.0000  0.0000 </r>
        <r>  0.0032  0.0248  0.0049  0.0149  0.0000  0.0000  0.0000  0.0000  0.0000 </r>
        <r>  0.0067  0.0072  0.0018  0.0152  0.0000  0.0000  0.0000  0.0000  0.0000 </r>
        <r>  0.0067  0.0072  0.0018  0.0152  0.0000  0.0000  0.0000  0.0000  0.0000 </r>
        <r>  0.0032  0.0289  0.0128  0.0029  0.0000  0.0000  0.0000  0.0000  0.0000 </r>
       </set>
       <set comment="band 34">
        <r>  0.0032  0.0031  0.0027  0.0105  0.0000  0.0000  0.0000  0.0000  0.0000 </r>
        <r>  0.0032  0.0053  0.0002  0.0108  0.0000  0.0000  0.0000  0.0000  0.0000 </r>
        <r>  0.0032  0.0053  0.0002  0.0108  0.0000  0.0000  0.0000  0.0000  0.0000 </r>
        <r>  0.0032  0.0031  0.0027  0.0105  0.0000  0.0000  0.0000  0.0000  0.0000 </r>
        <r>  0.0025  0.0055  0.0061  0.0313  0.0000  0.0000  0.0000  0.0000  0.0000 </r>
        <r>  0.0025  0.0229  0.0014  0.0186  0.0000  0.0000  0.0000  0.0000  0.0000 </r>
        <r>  0.0025  0.0229  0.0014  0.0186  0.0000  0.0000  0.0000  0.0000  0.0000 </r>
        <r>  0.0001  0.0194  0.0058  0.0088  0.0000  0.0000  0.0000  0.0000  0.0000 </r>
        <r>  0.0001  0.0194  0.0058  0.0088  0.0000  0.0000  0.0000  0.0000  0.0000 </r>
        <r>  0.0025  0.0055  0.0061  0.0313  0.0000  0.0000  0.0000  0.0000  0.0000 </r>
       </set>
       <set comment="band 35">
        <r>  0.0010  0.0052  0.0101  0.0361  0.0000  0.0000  0.0000  0.0000  0.0000 </r>
        <r>  0.0010  0.0136  0.0009  0.0369  0.0000  0.0000  0.0000  0.0000  0.0000 </r>
        <r>  0.0010  0.0136  0.0009  0.0368  0.0000  0.0000  0.0000  0.0000  0.0000 </r>
        <r>  0.0010  0.0051  0.0101  0.0360  0.0000  0.0000  0.0000  0.0000  0.0000 </r>
        <r>  0.0001  0.0009  0.0100  0.0131  0.0000  0.0000  0.0000  0.0000  0.0000 </r>
        <r>  0.0001  0.0009  0.0123  0.0107  0.0000  0.0000  0.0000  0.0000  0.0000 </r>
        <r>  0.0001  0.0009  0.0123  0.0107  0.0000  0.0000  0.0000  0.0000  0.0000 </r>
        <r>  0.0003  0.0051  0.0071  0.0026  0.0000  0.0000  0.0000  0.0000  0.0000 </r>
        <r>  0.0003  0.0051  0.0071  0.0026  0.0000  0.0000  0.0000  0.0000  0.0000 </r>
        <r>  0.0001  0.0009  0.0100  0.0131  0.0000  0.0000  0.0000  0.0000  0.0000 </r>
       </set>
       <set comment="band 36">
        <r>  0.0020  0.0200  0.0138  0.0175  0.0000  0.0000  0.0000  0.0000  0.0000 </r>
        <r>  0.0020  0.0348  0.0125  0.0041  0.0000  0.0000  0.0000  0.0000  0.0000 </r>
        <r>  0.0020  0.0342  0.0124  0.0039  0.0000  0.0000  0.0000  0.0000  0.0000 </r>
        <r>  0.0020  0.0195  0.0136  0.0175  0.0000  0.0000  0.0000  0.0000  0.0000 </r>
        <r>  0.0004  0.0102  0.0298  0.0050  0.0000  0.0000  0.0000  0.0000  0.0000 </r>
        <r>  0.0004  0.0199  0.0223  0.0029  0.0000  0.0000  0.0000  0.0000  0.0000 </r>
        <r>  0.0004  0.0197  0.0222  0.0030  0.0000  0.0000  0.0000  0.0000  0.0000 </r>
        <r>  0.0028  0.0010  0.0081  0.0109  0.0000  0.0000  0.0000  0.0000  0.0000 </r>
        <r>  0.0028  0.0010  0.0078  0.0107  0.0000  0.0000  0.0000  0.0000  0.0000 </r>
        <r>  0.0004  0.0102  0.0297  0.0050  0.0000  0.0000  0.0000  0.0000  0.0000 </r>
       </set>
      </set>
     </set>
    </set>
   </array>
  </projected>
 </calculation>
 <structure name="finalpos" >
  <crystal>
   <varray name="basis" >
    <v>       4.25677300       0.00034100       2.94806700 </v>
    <v>       1.54451000       3.96668700       2.94806600 </v>
    <v>       0.00049700       0.00033900       5.17795600 </v>
   </varray>
   <i name="volume">     87.42001940 </i>
   <varray name="rec_basis" >
    <v>       0.23493854      -0.09146577      -0.00001656 </v>
    <v>      -0.00000877       0.25211523      -0.00001651 </v>
    <v>      -0.13375716      -0.09146565       0.19314523 </v>
   </varray>
  </crystal>
  <varray name="positions" >
   <v>       0.64790400       0.64790300       0.64790300 </v>
   <v>       0.85209700       0.85209700       0.85209700 </v>
   <v>       0.14790400       0.14790300       0.14790300 </v>
   <v>       0.35209700       0.35209600       0.35209600 </v>
   <v>       0.44385500       0.05614500       0.75000100 </v>
   <v>       0.94385500       0.25000100       0.55614500 </v>
   <v>       0.05614400       0.75000000       0.44385500 </v>
   <v>       0.75000100       0.44385600       0.05614400 </v>
   <v>       0.25000000       0.55614400       0.94385500 </v>
   <v>       0.55614400       0.94385600       0.24999900 </v>
  </varray>
 </structure>
</modeling>
