<?xml version="1.0" encoding="ISO-8859-1"?>
<modeling>
 <generator>
  <i name="program" type="string">vasp </i>
  <i name="version" type="string">5.4.1  </i>
  <i name="subversion" type="string">24Jun15 (build Nov 16 2016 21:04:10) complex                          parallel </i>
  <i name="platform" type="string">LinuxIFC </i>
  <i name="date" type="string">2018 08 10 </i>
  <i name="time" type="string">10:04:38 </i>
 </generator>
 <incar>
  <i type="string" name="PREC">accurate</i>
  <i type="string" name="ALGO"> Normal</i>
  <i type="int" name="ISPIN">     1</i>
  <i type="int" name="ICHARG">     0</i>
  <i type="int" name="NELM">   100</i>
  <i type="int" name="NELMIN">     5</i>
  <i type="int" name="IBRION">    -1</i>
  <i name="EDIFF">      0.00010000</i>
  <i type="int" name="NSW">     0</i>
  <i type="int" name="ISIF">     3</i>
  <i type="int" name="ISYM">    -1</i>
  <i name="ENCUT">    520.00000000</i>
  <i type="int" name="NBANDS">    18</i>
  <v name="MAGMOM">      0.60000000      0.60000000</v>
  <i type="string" name="LREAL"> Auto</i>
  <i type="int" name="ISMEAR">    -5</i>
  <i name="SIGMA">      0.05000000</i>
  <i type="logical" name="LWAVE"> T  </i>
  <i type="logical" name="LCHARG"> T  </i>
  <i type="logical" name="LVHAR"> T  </i>
  <i type="logical" name="LORBIT"> F  </i>
  <i type="logical" name="LAECHG"> T  </i>
  <v type="int" name="KPOINT_BSE">    -1     0     0     0</v>
  <i type="int" name="NELM">   100</i>
 </incar>
 <kpoints>
  <generation param="Monkhorst-Pack">
   <v type="int" name="divisions">       3        3        3 </v>
   <v name="usershift">      0.00000000       0.00000000       0.00000000 </v>
   <v name="genvec1">      0.33333333       0.00000000       0.00000000 </v>
   <v name="genvec2">      0.00000000       0.33333333       0.00000000 </v>
   <v name="genvec3">      0.00000000       0.00000000       0.33333333 </v>
   <v name="shift">      0.00000000       0.00000000       0.00000000 </v>
  </generation>
  <varray name="kpointlist" >
   <v>       0.00000000       0.00000000       0.00000000 </v>
   <v>       0.33333333       0.00000000       0.00000000 </v>
   <v>      -0.33333333       0.00000000       0.00000000 </v>
   <v>       0.00000000       0.33333333       0.00000000 </v>
   <v>       0.33333333       0.33333333       0.00000000 </v>
   <v>      -0.33333333       0.33333333       0.00000000 </v>
   <v>       0.00000000      -0.33333333       0.00000000 </v>
   <v>       0.33333333      -0.33333333       0.00000000 </v>
   <v>      -0.33333333      -0.33333333       0.00000000 </v>
   <v>       0.00000000       0.00000000       0.33333333 </v>
   <v>       0.33333333       0.00000000       0.33333333 </v>
   <v>      -0.33333333       0.00000000       0.33333333 </v>
   <v>       0.00000000       0.33333333       0.33333333 </v>
   <v>       0.33333333       0.33333333       0.33333333 </v>
   <v>      -0.33333333       0.33333333       0.33333333 </v>
   <v>       0.00000000      -0.33333333       0.33333333 </v>
   <v>       0.33333333      -0.33333333       0.33333333 </v>
   <v>      -0.33333333      -0.33333333       0.33333333 </v>
   <v>       0.00000000       0.00000000      -0.33333333 </v>
   <v>       0.33333333       0.00000000      -0.33333333 </v>
   <v>      -0.33333333       0.00000000      -0.33333333 </v>
   <v>       0.00000000       0.33333333      -0.33333333 </v>
   <v>       0.33333333       0.33333333      -0.33333333 </v>
   <v>      -0.33333333       0.33333333      -0.33333333 </v>
   <v>       0.00000000      -0.33333333      -0.33333333 </v>
   <v>       0.33333333      -0.33333333      -0.33333333 </v>
   <v>      -0.33333333      -0.33333333      -0.33333333 </v>
  </varray>
  <varray name="weights" >
   <v>       0.03703704 </v>
   <v>       0.03703704 </v>
   <v>       0.03703704 </v>
   <v>       0.03703704 </v>
   <v>       0.03703704 </v>
   <v>       0.03703704 </v>
   <v>       0.03703704 </v>
   <v>       0.03703704 </v>
   <v>       0.03703704 </v>
   <v>       0.03703704 </v>
   <v>       0.03703704 </v>
   <v>       0.03703704 </v>
   <v>       0.03703704 </v>
   <v>       0.03703704 </v>
   <v>       0.03703704 </v>
   <v>       0.03703704 </v>
   <v>       0.03703704 </v>
   <v>       0.03703704 </v>
   <v>       0.03703704 </v>
   <v>       0.03703704 </v>
   <v>       0.03703704 </v>
   <v>       0.03703704 </v>
   <v>       0.03703704 </v>
   <v>       0.03703704 </v>
   <v>       0.03703704 </v>
   <v>       0.03703704 </v>
   <v>       0.03703704 </v>
  </varray>
  <varray name="tetrahedronlist"  type="int" >
   <v type="int" >        1        1        4        5       14 </v>
   <v type="int" >        1        1        2        5       14 </v>
   <v type="int" >        1        1        2       11       14 </v>
   <v type="int" >        1        1        4       13       14 </v>
   <v type="int" >        1        1       10       13       14 </v>
   <v type="int" >        1        1       10       11       14 </v>
   <v type="int" >        1        2        5        6       15 </v>
   <v type="int" >        1        2        3        6       15 </v>
   <v type="int" >        1        2        3       12       15 </v>
   <v type="int" >        1        2        5       14       15 </v>
   <v type="int" >        1        2       11       14       15 </v>
   <v type="int" >        1        2       11       12       15 </v>
   <v type="int" >        1        3        4        6       13 </v>
   <v type="int" >        1        1        3        4       13 </v>
   <v type="int" >        1        1        3       10       13 </v>
   <v type="int" >        1        3        6       13       15 </v>
   <v type="int" >        1        3       12       13       15 </v>
   <v type="int" >        1        3       10       12       13 </v>
   <v type="int" >        1        4        7        8       17 </v>
   <v type="int" >        1        4        5        8       17 </v>
   <v type="int" >        1        4        5       14       17 </v>
   <v type="int" >        1        4        7       16       17 </v>
   <v type="int" >        1        4       13       16       17 </v>
   <v type="int" >        1        4       13       14       17 </v>
   <v type="int" >        1        5        8        9       18 </v>
   <v type="int" >        1        5        6        9       18 </v>
   <v type="int" >        1        5        6       15       18 </v>
   <v type="int" >        1        5        8       17       18 </v>
   <v type="int" >        1        5       14       17       18 </v>
   <v type="int" >        1        5       14       15       18 </v>
   <v type="int" >        1        6        7        9       16 </v>
   <v type="int" >        1        4        6        7       16 </v>
   <v type="int" >        1        4        6       13       16 </v>
   <v type="int" >        1        6        9       16       18 </v>
   <v type="int" >        1        6       15       16       18 </v>
   <v type="int" >        1        6       13       15       16 </v>
   <v type="int" >        1        1        2        7       11 </v>
   <v type="int" >        1        2        7        8       11 </v>
   <v type="int" >        1        7        8       11       17 </v>
   <v type="int" >        1        1        7       10       11 </v>
   <v type="int" >        1        7       10       11       16 </v>
   <v type="int" >        1        7       11       16       17 </v>
   <v type="int" >        1        2        3        8       12 </v>
   <v type="int" >        1        3        8        9       12 </v>
   <v type="int" >        1        8        9       12       18 </v>
   <v type="int" >        1        2        8       11       12 </v>
   <v type="int" >        1        8       11       12       17 </v>
   <v type="int" >        1        8       12       17       18 </v>
   <v type="int" >        1        1        3        9       10 </v>
   <v type="int" >        1        1        7        9       10 </v>
   <v type="int" >        1        7        9       10       16 </v>
   <v type="int" >        1        3        9       10       12 </v>
   <v type="int" >        1        9       10       12       18 </v>
   <v type="int" >        1        9       10       16       18 </v>
   <v type="int" >        1       10       13       14       23 </v>
   <v type="int" >        1       10       11       14       23 </v>
   <v type="int" >        1       10       11       20       23 </v>
   <v type="int" >        1       10       13       22       23 </v>
   <v type="int" >        1       10       19       22       23 </v>
   <v type="int" >        1       10       19       20       23 </v>
   <v type="int" >        1       11       14       15       24 </v>
   <v type="int" >        1       11       12       15       24 </v>
   <v type="int" >        1       11       12       21       24 </v>
   <v type="int" >        1       11       14       23       24 </v>
   <v type="int" >        1       11       20       23       24 </v>
   <v type="int" >        1       11       20       21       24 </v>
   <v type="int" >        1       12       13       15       22 </v>
   <v type="int" >        1       10       12       13       22 </v>
   <v type="int" >        1       10       12       19       22 </v>
   <v type="int" >        1       12       15       22       24 </v>
   <v type="int" >        1       12       21       22       24 </v>
   <v type="int" >        1       12       19       21       22 </v>
   <v type="int" >        1       13       16       17       26 </v>
   <v type="int" >        1       13       14       17       26 </v>
   <v type="int" >        1       13       14       23       26 </v>
   <v type="int" >        1       13       16       25       26 </v>
   <v type="int" >        1       13       22       25       26 </v>
   <v type="int" >        1       13       22       23       26 </v>
   <v type="int" >        1       14       17       18       27 </v>
   <v type="int" >        1       14       15       18       27 </v>
   <v type="int" >        1       14       15       24       27 </v>
   <v type="int" >        1       14       17       26       27 </v>
   <v type="int" >        1       14       23       26       27 </v>
   <v type="int" >        1       14       23       24       27 </v>
   <v type="int" >        1       15       16       18       25 </v>
   <v type="int" >        1       13       15       16       25 </v>
   <v type="int" >        1       13       15       22       25 </v>
   <v type="int" >        1       15       18       25       27 </v>
   <v type="int" >        1       15       24       25       27 </v>
   <v type="int" >        1       15       22       24       25 </v>
   <v type="int" >        1       10       11       16       20 </v>
   <v type="int" >        1       11       16       17       20 </v>
   <v type="int" >        1       16       17       20       26 </v>
   <v type="int" >        1       10       16       19       20 </v>
   <v type="int" >        1       16       19       20       25 </v>
   <v type="int" >        1       16       20       25       26 </v>
   <v type="int" >        1       11       12       17       21 </v>
   <v type="int" >        1       12       17       18       21 </v>
   <v type="int" >        1       17       18       21       27 </v>
   <v type="int" >        1       11       17       20       21 </v>
   <v type="int" >        1       17       20       21       26 </v>
   <v type="int" >        1       17       21       26       27 </v>
   <v type="int" >        1       10       12       18       19 </v>
   <v type="int" >        1       10       16       18       19 </v>
   <v type="int" >        1       16       18       19       25 </v>
   <v type="int" >        1       12       18       19       21 </v>
   <v type="int" >        1       18       19       21       27 </v>
   <v type="int" >        1       18       19       25       27 </v>
   <v type="int" >        1        5       19       22       23 </v>
   <v type="int" >        1        5       19       20       23 </v>
   <v type="int" >        1        2        5       19       20 </v>
   <v type="int" >        1        4        5       19       22 </v>
   <v type="int" >        1        1        4        5       19 </v>
   <v type="int" >        1        1        2        5       19 </v>
   <v type="int" >        1        6       20       23       24 </v>
   <v type="int" >        1        6       20       21       24 </v>
   <v type="int" >        1        3        6       20       21 </v>
   <v type="int" >        1        5        6       20       23 </v>
   <v type="int" >        1        2        5        6       20 </v>
   <v type="int" >        1        2        3        6       20 </v>
   <v type="int" >        1        4       21       22       24 </v>
   <v type="int" >        1        4       19       21       22 </v>
   <v type="int" >        1        1        4       19       21 </v>
   <v type="int" >        1        4        6       21       24 </v>
   <v type="int" >        1        3        4        6       21 </v>
   <v type="int" >        1        1        3        4       21 </v>
   <v type="int" >        1        8       22       25       26 </v>
   <v type="int" >        1        8       22       23       26 </v>
   <v type="int" >        1        5        8       22       23 </v>
   <v type="int" >        1        7        8       22       25 </v>
   <v type="int" >        1        4        7        8       22 </v>
   <v type="int" >        1        4        5        8       22 </v>
   <v type="int" >        1        9       23       26       27 </v>
   <v type="int" >        1        9       23       24       27 </v>
   <v type="int" >        1        6        9       23       24 </v>
   <v type="int" >        1        8        9       23       26 </v>
   <v type="int" >        1        5        8        9       23 </v>
   <v type="int" >        1        5        6        9       23 </v>
   <v type="int" >        1        7       24       25       27 </v>
   <v type="int" >        1        7       22       24       25 </v>
   <v type="int" >        1        4        7       22       24 </v>
   <v type="int" >        1        7        9       24       27 </v>
   <v type="int" >        1        6        7        9       24 </v>
   <v type="int" >        1        4        6        7       24 </v>
   <v type="int" >        1        2       19       20       25 </v>
   <v type="int" >        1        2       20       25       26 </v>
   <v type="int" >        1        2        8       25       26 </v>
   <v type="int" >        1        1        2       19       25 </v>
   <v type="int" >        1        1        2        7       25 </v>
   <v type="int" >        1        2        7        8       25 </v>
   <v type="int" >        1        3       20       21       26 </v>
   <v type="int" >        1        3       21       26       27 </v>
   <v type="int" >        1        3        9       26       27 </v>
   <v type="int" >        1        2        3       20       26 </v>
   <v type="int" >        1        2        3        8       26 </v>
   <v type="int" >        1        3        8        9       26 </v>
   <v type="int" >        1        1       19       21       27 </v>
   <v type="int" >        1        1       19       25       27 </v>
   <v type="int" >        1        1        7       25       27 </v>
   <v type="int" >        1        1        3       21       27 </v>
   <v type="int" >        1        1        3        9       27 </v>
   <v type="int" >        1        1        7        9       27 </v>
  </varray>
  <i name="volumeweight">      0.00617284 </i>
 </kpoints>
 <parameters>
  <separator name="general" >
   <i type="string" name="SYSTEM">unknown system</i>
   <i type="logical" name="LCOMPAT"> F  </i>
  </separator>
  <separator name="electronic" >
   <i type="string" name="PREC">accura</i>
   <i name="ENMAX">    520.00000000</i>
   <i name="ENAUG">    613.61400000</i>
   <i name="EDIFF">      0.00010000</i>
   <i type="int" name="IALGO">    38</i>
   <i type="int" name="IWAVPR">    10</i>
   <i type="int" name="NBANDS">    24</i>
   <i name="NELECT">     16.00000000</i>
   <i type="int" name="TURBO">     0</i>
   <i type="int" name="IRESTART">     0</i>
   <i type="int" name="NREBOOT">     0</i>
   <i type="int" name="NMIN">     0</i>
   <i name="EREF">      0.00000000</i>
   <separator name="electronic smearing" >
    <i type="int" name="ISMEAR">    -5</i>
    <i name="SIGMA">      0.05000000</i>
    <i name="KSPACING">      0.50000000</i>
    <i type="logical" name="KGAMMA"> T  </i>
   </separator>
   <separator name="electronic projectors" >
    <i type="logical" name="LREAL"> T  </i>
    <v name="ROPT">     -0.00025000     -0.00025000</v>
    <i type="int" name="LMAXPAW">  -100</i>
    <i type="int" name="LMAXMIX">     2</i>
    <i type="logical" name="NLSPLINE"> F  </i>
   </separator>
   <separator name="electronic startup" >
    <i type="int" name="ISTART">     1</i>
    <i type="int" name="ICHARG">     0</i>
    <i type="int" name="INIWAV">     1</i>
   </separator>
   <separator name="electronic spin" >
    <i type="int" name="ISPIN">     1</i>
    <i type="logical" name="LNONCOLLINEAR"> F  </i>
    <v name="MAGMOM">      0.60000000      0.60000000</v>
    <i name="NUPDOWN">     -1.00000000</i>
    <i type="logical" name="LSORBIT"> F  </i>
    <v name="SAXIS">      0.00000000      0.00000000      1.00000000</v>
    <i type="logical" name="LSPIRAL"> F  </i>
    <v name="QSPIRAL">      0.00000000      0.00000000      0.00000000</v>
    <i type="logical" name="LZEROZ"> F  </i>
   </separator>
   <separator name="electronic exchange-correlation" >
    <i type="logical" name="LASPH"> F  </i>
    <i type="logical" name="LMETAGGA"> F  </i>
   </separator>
   <separator name="electronic convergence" >
    <i type="int" name="NELM">   100</i>
    <i type="int" name="NELMDL">     0</i>
    <i type="int" name="NELMIN">     5</i>
    <i name="ENINI">    520.00000000</i>
    <separator name="electronic convergence detail" >
     <i type="logical" name="LDIAG"> T  </i>
     <i type="logical" name="LSUBROT"> F  </i>
     <i name="WEIMIN">      0.00000000</i>
     <i name="EBREAK">      0.00000104</i>
     <i name="DEPER">      0.30000000</i>
     <i type="int" name="NRMM">     4</i>
     <i name="TIME">      0.40000000</i>
    </separator>
   </separator>
   <separator name="electronic mixer" >
    <i name="AMIX">      0.40000000</i>
    <i name="BMIX">      1.00000000</i>
    <i name="AMIN">      0.10000000</i>
    <i name="AMIX_MAG">      1.60000000</i>
    <i name="BMIX_MAG">      1.00000000</i>
    <separator name="electronic mixer details" >
     <i type="int" name="IMIX">     4</i>
     <i type="logical" name="MIXFIRST"> F  </i>
     <i type="int" name="MAXMIX">   -45</i>
     <i name="WC">    100.00000000</i>
     <i type="int" name="INIMIX">     1</i>
     <i type="int" name="MIXPRE">     1</i>
     <i type="int" name="MREMOVE">     5</i>
    </separator>
   </separator>
   <separator name="electronic dipolcorrection" >
    <i type="logical" name="LDIPOL"> F  </i>
    <i type="logical" name="LMONO"> F  </i>
    <i type="int" name="IDIPOL">     0</i>
    <i name="EPSILON">      1.00000000</i>
    <v name="DIPOL">   -100.00000000   -100.00000000   -100.00000000</v>
    <i name="EFIELD">      0.00000000</i>
   </separator>
  </separator>
  <separator name="grids" >
   <i type="int" name="NGX">    30</i>
   <i type="int" name="NGY">    30</i>
   <i type="int" name="NGZ">    30</i>
   <i type="int" name="NGXF">    60</i>
   <i type="int" name="NGYF">    60</i>
   <i type="int" name="NGZF">    60</i>
   <i type="logical" name="ADDGRID"> F  </i>
  </separator>
  <separator name="ionic" >
   <i type="int" name="NSW">     0</i>
   <i type="int" name="IBRION">    -1</i>
   <i type="int" name="ISIF">     3</i>
   <i name="PSTRESS">      0.00000000</i>
   <i name="EDIFFG">      0.00100000</i>
   <i type="int" name="NFREE">     0</i>
   <i name="POTIM">      0.50000000</i>
   <i name="SMASS">     -3.00000000</i>
   <i name="SCALEE">      1.00000000</i>
  </separator>
  <separator name="ionic md" >
   <i name="TEBEG">      0.00010000</i>
   <i name="TEEND">      0.00010000</i>
   <i type="int" name="NBLOCK">     1</i>
   <i type="int" name="KBLOCK">     1</i>
   <i type="int" name="NPACO">   256</i>
   <i name="APACO">     16.00000000</i>
  </separator>
  <separator name="symmetry" >
   <i type="int" name="ISYM">    -1</i>
   <i name="SYMPREC">      0.00001000</i>
  </separator>
  <separator name="dos" >
   <i type="logical" name="LORBIT"> F  </i>
   <v name="RWIGS">     -1.00000000     -1.00000000</v>
   <i type="int" name="NEDOS">   301</i>
   <i name="EMIN">     10.00000000</i>
   <i name="EMAX">    -10.00000000</i>
   <i name="EFERMI">      0.00000000</i>
  </separator>
  <separator name="writing" >
   <i type="int" name="NWRITE">     2</i>
   <i type="logical" name="LWAVE"> T  </i>
   <i type="logical" name="LCHARG"> T  </i>
   <i type="logical" name="LPARD"> F  </i>
   <i type="logical" name="LVTOT"> F  </i>
   <i type="logical" name="LVHAR"> T  </i>
   <i type="logical" name="LELF"> F  </i>
   <i type="logical" name="LOPTICS"> F  </i>
   <v name="STM">      0.00000000      0.00000000      0.00000000      0.00000000      0.00000000      0.00000000      0.00000000</v>
  </separator>
  <separator name="performance" >
   <i type="int" name="NPAR">    24</i>
   <i type="int" name="NSIM">     4</i>
   <i type="int" name="NBLK">    -1</i>
   <i type="logical" name="LPLANE"> T  </i>
   <i type="logical" name="LSCALAPACK"> T  </i>
   <i type="logical" name="LSCAAWARE"> F  </i>
   <i type="logical" name="LSCALU"> F  </i>
   <i type="logical" name="LASYNC"> F  </i>
   <i type="logical" name="LORBITALREAL"> F  </i>
  </separator>
  <separator name="miscellaneous" >
   <i type="int" name="IDIOT">     3</i>
   <i type="logical" name="LMUSIC"> F  </i>
   <v name="POMASS">     18.99800000     39.09800000</v>
   <v name="DARWINR">      0.00000000      0.00000000</v>
   <v name="DARWINV">      1.00000000      1.00000000</v>
   <i type="logical" name="LCORR"> T  </i>
  </separator>
  <i type="logical" name="GGA_COMPAT"> T  </i>
  <i type="logical" name="LBERRY"> F  </i>
  <i type="int" name="ICORELEVEL">     0</i>
  <i type="logical" name="LDAU"> F  </i>
  <i type="int" name="I_CONSTRAINED_M">     0</i>
  <separator name="electronic exchange-correlation" >
   <i type="string" name="GGA">--</i>
   <i type="int" name="VOSKOWN">     0</i>
   <i type="logical" name="LHFCALC"> F  </i>
   <i type="string" name="PRECFOCK"></i>
   <i type="logical" name="LSYMGRAD"> F  </i>
   <i type="logical" name="LHFONE"> F  </i>
   <i type="logical" name="LRHFCALC"> F  </i>
   <i type="logical" name="LTHOMAS"> F  </i>
   <i type="logical" name="LMODELHF"> F  </i>
   <i name="ENCUT4O">     -1.00000000</i>
   <i type="int" name="EXXOEP">     0</i>
   <i type="int" name="FOURORBIT">     0</i>
   <i name="AEXX">      0.00000000</i>
   <i name="HFALPHA">      0.00000000</i>
   <i name="MCALPHA">      0.00000000</i>
   <i name="ALDAX">      1.00000000</i>
   <i name="AGGAX">      1.00000000</i>
   <i name="ALDAC">      1.00000000</i>
   <i name="AGGAC">      1.00000000</i>
   <i type="int" name="NKREDX">     1</i>
   <i type="int" name="NKREDY">     1</i>
   <i type="int" name="NKREDZ">     1</i>
   <i type="logical" name="SHIFTRED"> F  </i>
   <i type="logical" name="ODDONLY"> F  </i>
   <i type="logical" name="EVENONLY"> F  </i>
   <i type="int" name="LMAXFOCK">     0</i>
   <i type="int" name="NMAXFOCKAE">     0</i>
   <i type="logical" name="LFOCKAEDFT"> F  </i>
   <i name="HFSCREEN">      0.00000000</i>
   <i name="HFSCREENC">      0.00000000</i>
   <i type="int" name="NBANDSGWLOW">     0</i>
  </separator>
  <separator name="vdW DFT" >
   <i type="logical" name="LUSE_VDW"> F  </i>
   <i name="Zab_VDW">     -0.84910000</i>
   <i name="PARAM1">      0.12340000</i>
   <i name="PARAM2">      1.00000000</i>
   <i name="PARAM3">      0.00000000</i>
  </separator>
  <separator name="model GW" >
   <i type="int" name="MODEL_GW">     0</i>
   <i name="MODEL_EPS0">     11.96786337</i>
   <i name="MODEL_ALPHA">      1.00000000</i>
  </separator>
  <separator name="linear response parameters" >
   <i type="logical" name="LEPSILON"> F  </i>
   <i type="logical" name="LRPA"> F  </i>
   <i type="logical" name="LNABLA"> F  </i>
   <i type="logical" name="LVEL"> F  </i>
   <i type="int" name="KINTER">     0</i>
   <i name="CSHIFT">      0.10000000</i>
   <i name="OMEGAMAX">     -1.00000000</i>
   <i name="DEG_THRESHOLD">      0.00200000</i>
  </separator>
  <separator name="orbital magnetization" >
   <i type="logical" name="NUCIND"> F  </i>
   <v name="MAGPOS">      0.00000000      0.00000000      0.00000000</v>
   <i type="logical" name="LNICSALL"> T  </i>
   <i type="logical" name="ORBITALMAG"> F  </i>
   <i type="logical" name="LMAGBLOCH"> F  </i>
   <i type="logical" name="LCHIMAG"> F  </i>
   <i type="logical" name="LGAUGE"> T  </i>
   <i type="int" name="MAGATOM">     0</i>
   <v name="MAGDIPOL">      0.00000000      0.00000000      0.00000000</v>
   <v name="AVECCONST">      0.00000000      0.00000000      0.00000000</v>
  </separator>
  <separator name="response functions" >
   <i type="logical" name="LADDER"> F  </i>
   <i type="logical" name="LFXC"> F  </i>
   <i type="logical" name="LHARTREE"> T  </i>
   <i type="int" name="IBSE">     0</i>
   <v type="int" name="KPOINT">    -1     0     0     0</v>
   <i type="logical" name="LTCTE"> F  </i>
   <i type="logical" name="LTETE"> F  </i>
   <i type="logical" name="LTRIPLET"> F  </i>
   <i type="logical" name="LFXCEPS"> F  </i>
   <i type="logical" name="LFXHEG"> F  </i>
   <i type="int" name="NATURALO">     0</i>
   <i type="logical" name="L2ORDER"> F  </i>
   <i type="logical" name="LUSEW"> F  </i>
   <i name="ENCUTGW">     -2.00000000</i>
   <i name="ENCUTGWSOFT">     -2.00000000</i>
   <i name="ENCUTLF">     -1.00000000</i>
   <i type="int" name="LMAXMP2">    -1</i>
   <i name="SCISSOR">      0.00000000</i>
   <i type="int" name="NOMEGA">     0</i>
   <i type="int" name="NOMEGAR">     0</i>
   <i type="int" name="NBANDSGW">    -1</i>
   <i type="int" name="NBANDSO">    -1</i>
   <i type="int" name="NBANDSV">    -1</i>
   <i type="int" name="NELM">   100</i>
   <i type="int" name="NELMHF">     1</i>
   <i type="int" name="DIM">     3</i>
   <i type="int" name="ANTIRES">     0</i>
   <i name="OMEGAMAX">    -30.00000000</i>
   <i name="OMEGAMIN">    -30.00000000</i>
   <i name="OMEGATL">   -200.00000000</i>
   <i type="int" name="OMEGAGRID">     0</i>
   <i name="CSHIFT">     -0.10000000</i>
   <i type="logical" name="SELFENERGY"> F  </i>
   <i type="logical" name="LSPECTRAL"> F  </i>
   <i type="logical" name="LSPECTRALGW"> F  </i>
   <i type="logical" name="LSINGLES"> F  </i>
   <i type="logical" name="LFERMIGW"> F  </i>
   <i type="logical" name="ODDONLYGW"> F  </i>
   <i type="logical" name="EVENONLYGW"> F  </i>
   <i type="int" name="NKREDLFX">     1</i>
   <i type="int" name="NKREDLFY">     1</i>
   <i type="int" name="NKREDLFZ">     1</i>
   <i type="int" name="MAXMEM">  1800</i>
   <i type="int" name="TELESCOPE">     0</i>
   <i type="int" name="TAUPAR">     1</i>
   <i type="int" name="OMEGAPAR">    -1</i>
   <i name="LAMBDA">      1.00000000</i>
  </separator>
  <separator name="External order field" >
   <i name="OFIELD_KAPPA">      0.00000000</i>
   <v name="OFIELD_K">      0.00000000      0.00000000      0.00000000</v>
   <i name="OFIELD_Q6_NEAR">      0.00000000</i>
   <i name="OFIELD_Q6_FAR">      0.00000000</i>
   <i name="OFIELD_A">      0.00000000</i>
  </separator>
  <separator name="solvation model" >
   <i type="logical" name="LSOL"> F  </i>
  </separator>
 </parameters>
 <atominfo>
  <atoms>       2 </atoms>
  <types>       2 </types>
  <array name="atoms" >
   <dimension dim="1">ion</dimension>
   <field type="string">element</field>
   <field type="int">atomtype</field>
   <set>
    <rc><c>F </c><c>   1</c></rc>
    <rc><c>K </c><c>   2</c></rc>
   </set>
  </array>
  <array name="atomtypes" >
   <dimension dim="1">type</dimension>
   <field type="int">atomspertype</field>
   <field type="string">element</field>
   <field>mass</field>
   <field>valence</field>
   <field type="string">pseudopotential</field>
   <set>
    <rc><c>   1</c><c>F </c><c>     18.99800000</c><c>      7.00000000</c><c>  PAW_PBE F 08Apr2002                   </c></rc>
    <rc><c>   1</c><c>K </c><c>     39.09800000</c><c>      9.00000000</c><c>  PAW_PBE K_sv 06Sep2000                </c></rc>
   </set>
  </array>
 </atominfo>
 <structure name="initialpos" >
  <crystal>
   <varray name="basis" >
    <v>       3.32149900       0.00000000       1.91766800 </v>
    <v>       1.10716600       3.13153900       1.91766800 </v>
    <v>       0.00000000       0.00000000       3.83533600 </v>
   </varray>
   <i name="volume">     39.89287790 </i>
   <varray name="rec_basis" >
    <v>       0.30106888      -0.10644390       0.00000000 </v>
    <v>       0.00000000       0.31933180       0.00000000 </v>
    <v>      -0.15053444      -0.10644395       0.26073335 </v>
   </varray>
  </crystal>
  <varray name="positions" >
   <v>       0.50000000       0.50000000       0.50000000 </v>
   <v>       0.00000000       0.00000000       0.00000000 </v>
  </varray>
 </structure>
 <calculation>
  <scstep>
   <time name="dav">    0.30    0.60</time>
   <time name="total">    0.33    0.64</time>
   <energy>
    <i name="alphaZ">     65.36186331 </i>
    <i name="ewald">   -973.44644278 </i>
    <i name="hartreedc">   -417.61253308 </i>
    <i name="XCdc">     74.10084969 </i>
    <i name="pawpsdc">   1780.56341984 </i>
    <i name="pawaedc">  -1782.85576245 </i>
    <i name="eentropy">      0.00000000 </i>
    <i name="bandstr">   -188.96361887 </i>
    <i name="atom">   1434.62047331 </i>
    <i name="e_fr_energy">     -8.23175105 </i>
    <i name="e_wo_entrp">     -8.23175105 </i>
    <i name="e_0_energy">     -8.23175105 </i>
   </energy>
  </scstep>
  <scstep>
   <time name="dav">    0.41    0.41</time>
   <time name="total">    0.44    0.44</time>
   <energy>
    <i name="e_fr_energy">     -8.31300553 </i>
    <i name="e_wo_entrp">     -8.31300553 </i>
    <i name="e_0_energy">     -8.31300553 </i>
   </energy>
  </scstep>
  <scstep>
   <time name="dav">    0.45    0.71</time>
   <time name="total">    0.47    0.75</time>
   <energy>
    <i name="e_fr_energy">     -8.30526254 </i>
    <i name="e_wo_entrp">     -8.30526254 </i>
    <i name="e_0_energy">     -8.30526254 </i>
   </energy>
  </scstep>
  <scstep>
   <time name="dav">    0.29    0.48</time>
   <time name="total">    0.31    0.51</time>
   <energy>
    <i name="e_fr_energy">     -8.29912038 </i>
    <i name="e_wo_entrp">     -8.29912038 </i>
    <i name="e_0_energy">     -8.29912038 </i>
   </energy>
  </scstep>
  <scstep>
   <time name="dav">    0.55    0.57</time>
   <time name="total">    0.57    0.60</time>
   <energy>
    <i name="e_fr_energy">     -8.29843281 </i>
    <i name="e_wo_entrp">     -8.29843281 </i>
    <i name="e_0_energy">     -8.29843281 </i>
   </energy>
  </scstep>
  <scstep>
   <time name="dav">    0.32    0.49</time>
   <time name="total">    0.33    0.51</time>
   <energy>
    <i name="alphaZ">     65.36186331 </i>
    <i name="ewald">   -973.44644278 </i>
    <i name="hartreedc">   -410.67287088 </i>
    <i name="XCdc">     73.63771453 </i>
    <i name="pawpsdc">   1206.84074103 </i>
    <i name="pawaedc">  -1208.36059291 </i>
    <i name="eentropy">      0.00000000 </i>
    <i name="bandstr">   -196.27930913 </i>
    <i name="atom">   1434.62047331 </i>
    <i name="e_fr_energy">     -8.29842352 </i>
    <i name="e_wo_entrp">     -8.29842352 </i>
    <i name="e_0_energy">     -8.29842352 </i>
   </energy>
  </scstep>
  <structure>
   <crystal>
    <varray name="basis" >
     <v>       3.32149900       0.00000000       1.91766800 </v>
     <v>       1.10716600       3.13153900       1.91766800 </v>
     <v>       0.00000000       0.00000000       3.83533600 </v>
    </varray>
    <i name="volume">     39.89287790 </i>
    <varray name="rec_basis" >
     <v>       0.30106888      -0.10644390       0.00000000 </v>
     <v>       0.00000000       0.31933180       0.00000000 </v>
     <v>      -0.15053444      -0.10644395       0.26073335 </v>
    </varray>
   </crystal>
   <varray name="positions" >
    <v>       0.50000000       0.50000000       0.50000000 </v>
    <v>       0.00000000       0.00000000       0.00000000 </v>
   </varray>
  </structure>
  <varray name="forces" >
   <v>       0.00000015      -0.00000023       0.00000055 </v>
   <v>      -0.00000015       0.00000023      -0.00000055 </v>
  </varray>
  <varray name="stress" >
   <v>      -0.54186414       0.13947184       0.06201891 </v>
   <v>       0.13947256      -0.61185762       0.02303880 </v>
   <v>       0.06201909       0.02303879      -0.46870029 </v>
  </varray>
  <energy>
   <i name="e_fr_energy">     -8.29842352 </i>
   <i name="e_wo_entrp">     -8.29842352 </i>
   <i name="e_0_energy">      0.00000000 </i>
  </energy>
  <time name="totalsc">    3.18    4.39</time>
  <eigenvalues>
   <array>
    <dimension dim="1">band</dimension>
    <dimension dim="2">kpoint</dimension>
    <dimension dim="3">spin</dimension>
    <field>eigene</field>
    <field>occ</field>
    <set>
     <set comment="spin 1">
      <set comment="kpoint 1">
       <r>  -29.1836    1.0000 </r>
       <r>  -21.5478    1.0000 </r>
       <r>  -12.4651    1.0000 </r>
       <r>  -12.4642    1.0000 </r>
       <r>  -12.4638    1.0000 </r>
       <r>   -2.9158    1.0000 </r>
       <r>   -2.9156    1.0000 </r>
       <r>   -2.9152    1.0000 </r>
       <r>    3.0218    0.0000 </r>
       <r>    7.6338    0.0000 </r>
       <r>    7.6343    0.0000 </r>
       <r>    7.6345    0.0000 </r>
       <r>    9.2466    0.0000 </r>
       <r>    9.2471    0.0000 </r>
       <r>   13.7330    0.0000 </r>
       <r>   20.7951    0.0000 </r>
       <r>   20.7954    0.0000 </r>
       <r>   20.7955    0.0000 </r>
       <r>   21.7534    0.0000 </r>
       <r>   21.7539    0.0000 </r>
       <r>   21.7542    0.0000 </r>
       <r>   23.1065    0.0000 </r>
       <r>   23.1070    0.0000 </r>
       <r>   23.1073    0.0000 </r>
      </set>
      <set comment="kpoint 2">
       <r>  -29.1264    1.0000 </r>
       <r>  -21.5980    1.0000 </r>
       <r>  -12.6526    1.0000 </r>
       <r>  -12.4900    1.0000 </r>
       <r>  -12.4896    1.0000 </r>
       <r>   -3.4996    1.0000 </r>
       <r>   -3.1518    1.0000 </r>
       <r>   -3.1516    1.0000 </r>
       <r>    5.2755    0.0000 </r>
       <r>    6.9800    0.0000 </r>
       <r>    8.6540    0.0000 </r>
       <r>    8.6541    0.0000 </r>
       <r>   10.2609    0.0000 </r>
       <r>   10.2611    0.0000 </r>
       <r>   14.3207    0.0000 </r>
       <r>   16.7104    0.0000 </r>
       <r>   16.7112    0.0000 </r>
       <r>   17.2703    0.0000 </r>
       <r>   20.1819    0.0000 </r>
       <r>   22.2136    0.0000 </r>
       <r>   22.2137    0.0000 </r>
       <r>   23.3296    0.0000 </r>
       <r>   23.3297    0.0000 </r>
       <r>   26.6856    0.0000 </r>
      </set>
      <set comment="kpoint 3">
       <r>  -29.1264    1.0000 </r>
       <r>  -21.5980    1.0000 </r>
       <r>  -12.6526    1.0000 </r>
       <r>  -12.4900    1.0000 </r>
       <r>  -12.4896    1.0000 </r>
       <r>   -3.4996    1.0000 </r>
       <r>   -3.1518    1.0000 </r>
       <r>   -3.1516    1.0000 </r>
       <r>    5.2755    0.0000 </r>
       <r>    6.9800    0.0000 </r>
       <r>    8.6540    0.0000 </r>
       <r>    8.6541    0.0000 </r>
       <r>   10.2609    0.0000 </r>
       <r>   10.2611    0.0000 </r>
       <r>   14.3207    0.0000 </r>
       <r>   16.7104    0.0000 </r>
       <r>   16.7112    0.0000 </r>
       <r>   17.2703    0.0000 </r>
       <r>   20.1819    0.0000 </r>
       <r>   22.2136    0.0000 </r>
       <r>   22.2137    0.0000 </r>
       <r>   23.3296    0.0000 </r>
       <r>   23.3297    0.0000 </r>
       <r>   26.6856    0.0000 </r>
      </set>
      <set comment="kpoint 4">
       <r>  -29.1264    1.0000 </r>
       <r>  -21.5980    1.0000 </r>
       <r>  -12.6524    1.0000 </r>
       <r>  -12.4903    1.0000 </r>
       <r>  -12.4896    1.0000 </r>
       <r>   -3.4998    1.0000 </r>
       <r>   -3.1517    1.0000 </r>
       <r>   -3.1512    1.0000 </r>
       <r>    5.2760    0.0000 </r>
       <r>    6.9790    0.0000 </r>
       <r>    8.6541    0.0000 </r>
       <r>    8.6548    0.0000 </r>
       <r>   10.2606    0.0000 </r>
       <r>   10.2610    0.0000 </r>
       <r>   14.3216    0.0000 </r>
       <r>   16.7081    0.0000 </r>
       <r>   16.7103    0.0000 </r>
       <r>   17.2716    0.0000 </r>
       <r>   20.1796    0.0000 </r>
       <r>   22.2135    0.0000 </r>
       <r>   22.2136    0.0000 </r>
       <r>   23.3301    0.0000 </r>
       <r>   23.3316    0.0000 </r>
       <r>   26.6870    0.0000 </r>
      </set>
      <set comment="kpoint 5">
       <r>  -29.1119    1.0000 </r>
       <r>  -21.5686    1.0000 </r>
       <r>  -12.7526    1.0000 </r>
       <r>  -12.6018    1.0000 </r>
       <r>  -12.6007    1.0000 </r>
       <r>   -3.3315    1.0000 </r>
       <r>   -2.9775    1.0000 </r>
       <r>   -2.9770    1.0000 </r>
       <r>    5.6734    0.0000 </r>
       <r>    5.7498    0.0000 </r>
       <r>    9.1497    0.0000 </r>
       <r>    9.8666    0.0000 </r>
       <r>    9.8672    0.0000 </r>
       <r>   10.1056    0.0000 </r>
       <r>   14.6152    0.0000 </r>
       <r>   15.5788    0.0000 </r>
       <r>   15.5792    0.0000 </r>
       <r>   17.9112    0.0000 </r>
       <r>   21.6094    0.0000 </r>
       <r>   22.4864    0.0000 </r>
       <r>   22.4867    0.0000 </r>
       <r>   23.1812    0.0000 </r>
       <r>   24.0177    0.0000 </r>
       <r>   27.9371    0.0000 </r>
      </set>
      <set comment="kpoint 6">
       <r>  -29.0926    1.0000 </r>
       <r>  -21.5851    1.0000 </r>
       <r>  -12.8051    1.0000 </r>
       <r>  -12.6715    1.0000 </r>
       <r>  -12.5599    1.0000 </r>
       <r>   -3.3635    1.0000 </r>
       <r>   -3.1581    1.0000 </r>
       <r>   -3.1055    1.0000 </r>
       <r>    6.2199    0.0000 </r>
       <r>    7.2111    0.0000 </r>
       <r>    8.2129    0.0000 </r>
       <r>   10.0832    0.0000 </r>
       <r>   10.3497    0.0000 </r>
       <r>   11.2050    0.0000 </r>
       <r>   13.1931    0.0000 </r>
       <r>   13.2820    0.0000 </r>
       <r>   15.5221    0.0000 </r>
       <r>   18.9324    0.0000 </r>
       <r>   20.2125    0.0000 </r>
       <r>   21.1511    0.0000 </r>
       <r>   23.5280    0.0000 </r>
       <r>   25.8802    0.0000 </r>
       <r>   26.7490    0.0000 </r>
       <r>   26.9513    0.0000 </r>
      </set>
      <set comment="kpoint 7">
       <r>  -29.1264    1.0000 </r>
       <r>  -21.5980    1.0000 </r>
       <r>  -12.6524    1.0000 </r>
       <r>  -12.4903    1.0000 </r>
       <r>  -12.4896    1.0000 </r>
       <r>   -3.4998    1.0000 </r>
       <r>   -3.1517    1.0000 </r>
       <r>   -3.1512    1.0000 </r>
       <r>    5.2760    0.0000 </r>
       <r>    6.9790    0.0000 </r>
       <r>    8.6541    0.0000 </r>
       <r>    8.6548    0.0000 </r>
       <r>   10.2606    0.0000 </r>
       <r>   10.2610    0.0000 </r>
       <r>   14.3216    0.0000 </r>
       <r>   16.7081    0.0000 </r>
       <r>   16.7103    0.0000 </r>
       <r>   17.2716    0.0000 </r>
       <r>   20.1796    0.0000 </r>
       <r>   22.2135    0.0000 </r>
       <r>   22.2136    0.0000 </r>
       <r>   23.3301    0.0000 </r>
       <r>   23.3316    0.0000 </r>
       <r>   26.6870    0.0000 </r>
      </set>
      <set comment="kpoint 8">
       <r>  -29.0926    1.0000 </r>
       <r>  -21.5851    1.0000 </r>
       <r>  -12.8051    1.0000 </r>
       <r>  -12.6715    1.0000 </r>
       <r>  -12.5599    1.0000 </r>
       <r>   -3.3635    1.0000 </r>
       <r>   -3.1581    1.0000 </r>
       <r>   -3.1055    1.0000 </r>
       <r>    6.2199    0.0000 </r>
       <r>    7.2111    0.0000 </r>
       <r>    8.2129    0.0000 </r>
       <r>   10.0832    0.0000 </r>
       <r>   10.3497    0.0000 </r>
       <r>   11.2050    0.0000 </r>
       <r>   13.1931    0.0000 </r>
       <r>   13.2820    0.0000 </r>
       <r>   15.5221    0.0000 </r>
       <r>   18.9324    0.0000 </r>
       <r>   20.2125    0.0000 </r>
       <r>   21.1511    0.0000 </r>
       <r>   23.5280    0.0000 </r>
       <r>   25.8802    0.0000 </r>
       <r>   26.7490    0.0000 </r>
       <r>   26.9513    0.0000 </r>
      </set>
      <set comment="kpoint 9">
       <r>  -29.1119    1.0000 </r>
       <r>  -21.5686    1.0000 </r>
       <r>  -12.7526    1.0000 </r>
       <r>  -12.6018    1.0000 </r>
       <r>  -12.6007    1.0000 </r>
       <r>   -3.3315    1.0000 </r>
       <r>   -2.9775    1.0000 </r>
       <r>   -2.9770    1.0000 </r>
       <r>    5.6734    0.0000 </r>
       <r>    5.7498    0.0000 </r>
       <r>    9.1497    0.0000 </r>
       <r>    9.8666    0.0000 </r>
       <r>    9.8672    0.0000 </r>
       <r>   10.1056    0.0000 </r>
       <r>   14.6152    0.0000 </r>
       <r>   15.5788    0.0000 </r>
       <r>   15.5792    0.0000 </r>
       <r>   17.9112    0.0000 </r>
       <r>   21.6094    0.0000 </r>
       <r>   22.4864    0.0000 </r>
       <r>   22.4867    0.0000 </r>
       <r>   23.1812    0.0000 </r>
       <r>   24.0177    0.0000 </r>
       <r>   27.9371    0.0000 </r>
      </set>
      <set comment="kpoint 10">
       <r>  -29.1264    1.0000 </r>
       <r>  -21.5980    1.0000 </r>
       <r>  -12.6520    1.0000 </r>
       <r>  -12.4908    1.0000 </r>
       <r>  -12.4895    1.0000 </r>
       <r>   -3.4998    1.0000 </r>
       <r>   -3.1516    1.0000 </r>
       <r>   -3.1512    1.0000 </r>
       <r>    5.2762    0.0000 </r>
       <r>    6.9788    0.0000 </r>
       <r>    8.6539    0.0000 </r>
       <r>    8.6550    0.0000 </r>
       <r>   10.2605    0.0000 </r>
       <r>   10.2611    0.0000 </r>
       <r>   14.3219    0.0000 </r>
       <r>   16.7081    0.0000 </r>
       <r>   16.7094    0.0000 </r>
       <r>   17.2720    0.0000 </r>
       <r>   20.1789    0.0000 </r>
       <r>   22.2133    0.0000 </r>
       <r>   22.2137    0.0000 </r>
       <r>   23.3300    0.0000 </r>
       <r>   23.3321    0.0000 </r>
       <r>   26.6875    0.0000 </r>
      </set>
      <set comment="kpoint 11">
       <r>  -29.1119    1.0000 </r>
       <r>  -21.5686    1.0000 </r>
       <r>  -12.7530    1.0000 </r>
       <r>  -12.6014    1.0000 </r>
       <r>  -12.6007    1.0000 </r>
       <r>   -3.3316    1.0000 </r>
       <r>   -2.9773    1.0000 </r>
       <r>   -2.9770    1.0000 </r>
       <r>    5.6731    0.0000 </r>
       <r>    5.7496    0.0000 </r>
       <r>    9.1496    0.0000 </r>
       <r>    9.8668    0.0000 </r>
       <r>    9.8671    0.0000 </r>
       <r>   10.1059    0.0000 </r>
       <r>   14.6148    0.0000 </r>
       <r>   15.5791    0.0000 </r>
       <r>   15.5796    0.0000 </r>
       <r>   17.9113    0.0000 </r>
       <r>   21.6091    0.0000 </r>
       <r>   22.4866    0.0000 </r>
       <r>   22.4868    0.0000 </r>
       <r>   23.1821    0.0000 </r>
       <r>   24.0170    0.0000 </r>
       <r>   27.9365    0.0000 </r>
      </set>
      <set comment="kpoint 12">
       <r>  -29.0926    1.0000 </r>
       <r>  -21.5851    1.0000 </r>
       <r>  -12.8054    1.0000 </r>
       <r>  -12.6711    1.0000 </r>
       <r>  -12.5600    1.0000 </r>
       <r>   -3.3635    1.0000 </r>
       <r>   -3.1579    1.0000 </r>
       <r>   -3.1056    1.0000 </r>
       <r>    6.2198    0.0000 </r>
       <r>    7.2113    0.0000 </r>
       <r>    8.2126    0.0000 </r>
       <r>   10.0831    0.0000 </r>
       <r>   10.3499    0.0000 </r>
       <r>   11.2050    0.0000 </r>
       <r>   13.1927    0.0000 </r>
       <r>   13.2822    0.0000 </r>
       <r>   15.5225    0.0000 </r>
       <r>   18.9324    0.0000 </r>
       <r>   20.2129    0.0000 </r>
       <r>   21.1514    0.0000 </r>
       <r>   23.5278    0.0000 </r>
       <r>   25.8803    0.0000 </r>
       <r>   26.7491    0.0000 </r>
       <r>   26.9501    0.0000 </r>
      </set>
      <set comment="kpoint 13">
       <r>  -29.1119    1.0000 </r>
       <r>  -21.5686    1.0000 </r>
       <r>  -12.7531    1.0000 </r>
       <r>  -12.6012    1.0000 </r>
       <r>  -12.6009    1.0000 </r>
       <r>   -3.3316    1.0000 </r>
       <r>   -2.9773    1.0000 </r>
       <r>   -2.9770    1.0000 </r>
       <r>    5.6731    0.0000 </r>
       <r>    5.7496    0.0000 </r>
       <r>    9.1495    0.0000 </r>
       <r>    9.8669    0.0000 </r>
       <r>    9.8670    0.0000 </r>
       <r>   10.1059    0.0000 </r>
       <r>   14.6148    0.0000 </r>
       <r>   15.5791    0.0000 </r>
       <r>   15.5796    0.0000 </r>
       <r>   17.9113    0.0000 </r>
       <r>   21.6091    0.0000 </r>
       <r>   22.4866    0.0000 </r>
       <r>   22.4868    0.0000 </r>
       <r>   23.1820    0.0000 </r>
       <r>   24.0171    0.0000 </r>
       <r>   27.9365    0.0000 </r>
      </set>
      <set comment="kpoint 14">
       <r>  -29.1264    1.0000 </r>
       <r>  -21.5980    1.0000 </r>
       <r>  -12.6516    1.0000 </r>
       <r>  -12.4908    1.0000 </r>
       <r>  -12.4899    1.0000 </r>
       <r>   -3.4998    1.0000 </r>
       <r>   -3.1516    1.0000 </r>
       <r>   -3.1512    1.0000 </r>
       <r>    5.2762    0.0000 </r>
       <r>    6.9789    0.0000 </r>
       <r>    8.6538    0.0000 </r>
       <r>    8.6547    0.0000 </r>
       <r>   10.2607    0.0000 </r>
       <r>   10.2611    0.0000 </r>
       <r>   14.3221    0.0000 </r>
       <r>   16.7080    0.0000 </r>
       <r>   16.7094    0.0000 </r>
       <r>   17.2722    0.0000 </r>
       <r>   20.1789    0.0000 </r>
       <r>   22.2133    0.0000 </r>
       <r>   22.2136    0.0000 </r>
       <r>   23.3300    0.0000 </r>
       <r>   23.3320    0.0000 </r>
       <r>   26.6877    0.0000 </r>
      </set>
      <set comment="kpoint 15">
       <r>  -29.0926    1.0000 </r>
       <r>  -21.5851    1.0000 </r>
       <r>  -12.8055    1.0000 </r>
       <r>  -12.6707    1.0000 </r>
       <r>  -12.5602    1.0000 </r>
       <r>   -3.3635    1.0000 </r>
       <r>   -3.1579    1.0000 </r>
       <r>   -3.1056    1.0000 </r>
       <r>    6.2198    0.0000 </r>
       <r>    7.2113    0.0000 </r>
       <r>    8.2126    0.0000 </r>
       <r>   10.0829    0.0000 </r>
       <r>   10.3500    0.0000 </r>
       <r>   11.2051    0.0000 </r>
       <r>   13.1928    0.0000 </r>
       <r>   13.2823    0.0000 </r>
       <r>   15.5224    0.0000 </r>
       <r>   18.9324    0.0000 </r>
       <r>   20.2128    0.0000 </r>
       <r>   21.1514    0.0000 </r>
       <r>   23.5279    0.0000 </r>
       <r>   25.8802    0.0000 </r>
       <r>   26.7491    0.0000 </r>
       <r>   26.9501    0.0000 </r>
      </set>
      <set comment="kpoint 16">
       <r>  -29.0926    1.0000 </r>
       <r>  -21.5851    1.0000 </r>
       <r>  -12.8055    1.0000 </r>
       <r>  -12.6708    1.0000 </r>
       <r>  -12.5602    1.0000 </r>
       <r>   -3.3637    1.0000 </r>
       <r>   -3.1576    1.0000 </r>
       <r>   -3.1056    1.0000 </r>
       <r>    6.2201    0.0000 </r>
       <r>    7.2112    0.0000 </r>
       <r>    8.2127    0.0000 </r>
       <r>   10.0829    0.0000 </r>
       <r>   10.3500    0.0000 </r>
       <r>   11.2049    0.0000 </r>
       <r>   13.1918    0.0000 </r>
       <r>   13.2826    0.0000 </r>
       <r>   15.5224    0.0000 </r>
       <r>   18.9324    0.0000 </r>
       <r>   20.2128    0.0000 </r>
       <r>   21.1523    0.0000 </r>
       <r>   23.5275    0.0000 </r>
       <r>   25.8802    0.0000 </r>
       <r>   26.7510    0.0000 </r>
       <r>   26.9475    0.0000 </r>
      </set>
      <set comment="kpoint 17">
       <r>  -29.0926    1.0000 </r>
       <r>  -21.5851    1.0000 </r>
       <r>  -12.8054    1.0000 </r>
       <r>  -12.6706    1.0000 </r>
       <r>  -12.5605    1.0000 </r>
       <r>   -3.3637    1.0000 </r>
       <r>   -3.1576    1.0000 </r>
       <r>   -3.1056    1.0000 </r>
       <r>    6.2201    0.0000 </r>
       <r>    7.2113    0.0000 </r>
       <r>    8.2126    0.0000 </r>
       <r>   10.0828    0.0000 </r>
       <r>   10.3499    0.0000 </r>
       <r>   11.2050    0.0000 </r>
       <r>   13.1919    0.0000 </r>
       <r>   13.2828    0.0000 </r>
       <r>   15.5223    0.0000 </r>
       <r>   18.9323    0.0000 </r>
       <r>   20.2128    0.0000 </r>
       <r>   21.1524    0.0000 </r>
       <r>   23.5276    0.0000 </r>
       <r>   25.8801    0.0000 </r>
       <r>   26.7509    0.0000 </r>
       <r>   26.9474    0.0000 </r>
      </set>
      <set comment="kpoint 18">
       <r>  -29.0926    1.0000 </r>
       <r>  -21.5851    1.0000 </r>
       <r>  -12.8051    1.0000 </r>
       <r>  -12.6705    1.0000 </r>
       <r>  -12.5610    1.0000 </r>
       <r>   -3.3638    1.0000 </r>
       <r>   -3.1576    1.0000 </r>
       <r>   -3.1055    1.0000 </r>
       <r>    6.2204    0.0000 </r>
       <r>    7.2111    0.0000 </r>
       <r>    8.2129    0.0000 </r>
       <r>   10.0826    0.0000 </r>
       <r>   10.3496    0.0000 </r>
       <r>   11.2049    0.0000 </r>
       <r>   13.1920    0.0000 </r>
       <r>   13.2830    0.0000 </r>
       <r>   15.5218    0.0000 </r>
       <r>   18.9323    0.0000 </r>
       <r>   20.2123    0.0000 </r>
       <r>   21.1527    0.0000 </r>
       <r>   23.5276    0.0000 </r>
       <r>   25.8798    0.0000 </r>
       <r>   26.7518    0.0000 </r>
       <r>   26.9469    0.0000 </r>
      </set>
      <set comment="kpoint 19">
       <r>  -29.1264    1.0000 </r>
       <r>  -21.5980    1.0000 </r>
       <r>  -12.6520    1.0000 </r>
       <r>  -12.4908    1.0000 </r>
       <r>  -12.4895    1.0000 </r>
       <r>   -3.4998    1.0000 </r>
       <r>   -3.1516    1.0000 </r>
       <r>   -3.1512    1.0000 </r>
       <r>    5.2762    0.0000 </r>
       <r>    6.9788    0.0000 </r>
       <r>    8.6539    0.0000 </r>
       <r>    8.6550    0.0000 </r>
       <r>   10.2605    0.0000 </r>
       <r>   10.2611    0.0000 </r>
       <r>   14.3219    0.0000 </r>
       <r>   16.7081    0.0000 </r>
       <r>   16.7094    0.0000 </r>
       <r>   17.2720    0.0000 </r>
       <r>   20.1789    0.0000 </r>
       <r>   22.2133    0.0000 </r>
       <r>   22.2137    0.0000 </r>
       <r>   23.3300    0.0000 </r>
       <r>   23.3321    0.0000 </r>
       <r>   26.6875    0.0000 </r>
      </set>
      <set comment="kpoint 20">
       <r>  -29.0926    1.0000 </r>
       <r>  -21.5851    1.0000 </r>
       <r>  -12.8054    1.0000 </r>
       <r>  -12.6711    1.0000 </r>
       <r>  -12.5600    1.0000 </r>
       <r>   -3.3635    1.0000 </r>
       <r>   -3.1579    1.0000 </r>
       <r>   -3.1056    1.0000 </r>
       <r>    6.2198    0.0000 </r>
       <r>    7.2113    0.0000 </r>
       <r>    8.2126    0.0000 </r>
       <r>   10.0831    0.0000 </r>
       <r>   10.3499    0.0000 </r>
       <r>   11.2050    0.0000 </r>
       <r>   13.1927    0.0000 </r>
       <r>   13.2822    0.0000 </r>
       <r>   15.5225    0.0000 </r>
       <r>   18.9324    0.0000 </r>
       <r>   20.2129    0.0000 </r>
       <r>   21.1514    0.0000 </r>
       <r>   23.5278    0.0000 </r>
       <r>   25.8803    0.0000 </r>
       <r>   26.7491    0.0000 </r>
       <r>   26.9501    0.0000 </r>
      </set>
      <set comment="kpoint 21">
       <r>  -29.1119    1.0000 </r>
       <r>  -21.5686    1.0000 </r>
       <r>  -12.7530    1.0000 </r>
       <r>  -12.6014    1.0000 </r>
       <r>  -12.6007    1.0000 </r>
       <r>   -3.3316    1.0000 </r>
       <r>   -2.9773    1.0000 </r>
       <r>   -2.9770    1.0000 </r>
       <r>    5.6731    0.0000 </r>
       <r>    5.7496    0.0000 </r>
       <r>    9.1496    0.0000 </r>
       <r>    9.8668    0.0000 </r>
       <r>    9.8671    0.0000 </r>
       <r>   10.1059    0.0000 </r>
       <r>   14.6148    0.0000 </r>
       <r>   15.5791    0.0000 </r>
       <r>   15.5796    0.0000 </r>
       <r>   17.9113    0.0000 </r>
       <r>   21.6091    0.0000 </r>
       <r>   22.4866    0.0000 </r>
       <r>   22.4868    0.0000 </r>
       <r>   23.1821    0.0000 </r>
       <r>   24.0170    0.0000 </r>
       <r>   27.9365    0.0000 </r>
      </set>
      <set comment="kpoint 22">
       <r>  -29.0926    1.0000 </r>
       <r>  -21.5851    1.0000 </r>
       <r>  -12.8055    1.0000 </r>
       <r>  -12.6708    1.0000 </r>
       <r>  -12.5602    1.0000 </r>
       <r>   -3.3637    1.0000 </r>
       <r>   -3.1576    1.0000 </r>
       <r>   -3.1056    1.0000 </r>
       <r>    6.2201    0.0000 </r>
       <r>    7.2112    0.0000 </r>
       <r>    8.2127    0.0000 </r>
       <r>   10.0829    0.0000 </r>
       <r>   10.3500    0.0000 </r>
       <r>   11.2049    0.0000 </r>
       <r>   13.1918    0.0000 </r>
       <r>   13.2826    0.0000 </r>
       <r>   15.5224    0.0000 </r>
       <r>   18.9324    0.0000 </r>
       <r>   20.2128    0.0000 </r>
       <r>   21.1523    0.0000 </r>
       <r>   23.5275    0.0000 </r>
       <r>   25.8802    0.0000 </r>
       <r>   26.7510    0.0000 </r>
       <r>   26.9475    0.0000 </r>
      </set>
      <set comment="kpoint 23">
       <r>  -29.0926    1.0000 </r>
       <r>  -21.5851    1.0000 </r>
       <r>  -12.8051    1.0000 </r>
       <r>  -12.6705    1.0000 </r>
       <r>  -12.5610    1.0000 </r>
       <r>   -3.3638    1.0000 </r>
       <r>   -3.1576    1.0000 </r>
       <r>   -3.1055    1.0000 </r>
       <r>    6.2204    0.0000 </r>
       <r>    7.2111    0.0000 </r>
       <r>    8.2129    0.0000 </r>
       <r>   10.0826    0.0000 </r>
       <r>   10.3496    0.0000 </r>
       <r>   11.2049    0.0000 </r>
       <r>   13.1920    0.0000 </r>
       <r>   13.2830    0.0000 </r>
       <r>   15.5218    0.0000 </r>
       <r>   18.9323    0.0000 </r>
       <r>   20.2123    0.0000 </r>
       <r>   21.1527    0.0000 </r>
       <r>   23.5276    0.0000 </r>
       <r>   25.8798    0.0000 </r>
       <r>   26.7518    0.0000 </r>
       <r>   26.9469    0.0000 </r>
      </set>
      <set comment="kpoint 24">
       <r>  -29.0926    1.0000 </r>
       <r>  -21.5851    1.0000 </r>
       <r>  -12.8054    1.0000 </r>
       <r>  -12.6706    1.0000 </r>
       <r>  -12.5605    1.0000 </r>
       <r>   -3.3637    1.0000 </r>
       <r>   -3.1576    1.0000 </r>
       <r>   -3.1056    1.0000 </r>
       <r>    6.2201    0.0000 </r>
       <r>    7.2113    0.0000 </r>
       <r>    8.2126    0.0000 </r>
       <r>   10.0828    0.0000 </r>
       <r>   10.3499    0.0000 </r>
       <r>   11.2050    0.0000 </r>
       <r>   13.1919    0.0000 </r>
       <r>   13.2828    0.0000 </r>
       <r>   15.5223    0.0000 </r>
       <r>   18.9323    0.0000 </r>
       <r>   20.2128    0.0000 </r>
       <r>   21.1524    0.0000 </r>
       <r>   23.5276    0.0000 </r>
       <r>   25.8801    0.0000 </r>
       <r>   26.7509    0.0000 </r>
       <r>   26.9474    0.0000 </r>
      </set>
      <set comment="kpoint 25">
       <r>  -29.1119    1.0000 </r>
       <r>  -21.5686    1.0000 </r>
       <r>  -12.7531    1.0000 </r>
       <r>  -12.6012    1.0000 </r>
       <r>  -12.6009    1.0000 </r>
       <r>   -3.3316    1.0000 </r>
       <r>   -2.9773    1.0000 </r>
       <r>   -2.9770    1.0000 </r>
       <r>    5.6731    0.0000 </r>
       <r>    5.7496    0.0000 </r>
       <r>    9.1495    0.0000 </r>
       <r>    9.8669    0.0000 </r>
       <r>    9.8670    0.0000 </r>
       <r>   10.1059    0.0000 </r>
       <r>   14.6148    0.0000 </r>
       <r>   15.5791    0.0000 </r>
       <r>   15.5796    0.0000 </r>
       <r>   17.9113    0.0000 </r>
       <r>   21.6091    0.0000 </r>
       <r>   22.4866    0.0000 </r>
       <r>   22.4868    0.0000 </r>
       <r>   23.1820    0.0000 </r>
       <r>   24.0171    0.0000 </r>
       <r>   27.9365    0.0000 </r>
      </set>
      <set comment="kpoint 26">
       <r>  -29.0926    1.0000 </r>
       <r>  -21.5851    1.0000 </r>
       <r>  -12.8055    1.0000 </r>
       <r>  -12.6707    1.0000 </r>
       <r>  -12.5602    1.0000 </r>
       <r>   -3.3635    1.0000 </r>
       <r>   -3.1579    1.0000 </r>
       <r>   -3.1056    1.0000 </r>
       <r>    6.2198    0.0000 </r>
       <r>    7.2113    0.0000 </r>
       <r>    8.2126    0.0000 </r>
       <r>   10.0829    0.0000 </r>
       <r>   10.3500    0.0000 </r>
       <r>   11.2051    0.0000 </r>
       <r>   13.1928    0.0000 </r>
       <r>   13.2823    0.0000 </r>
       <r>   15.5224    0.0000 </r>
       <r>   18.9324    0.0000 </r>
       <r>   20.2128    0.0000 </r>
       <r>   21.1514    0.0000 </r>
       <r>   23.5279    0.0000 </r>
       <r>   25.8802    0.0000 </r>
       <r>   26.7491    0.0000 </r>
       <r>   26.9501    0.0000 </r>
      </set>
      <set comment="kpoint 27">
       <r>  -29.1264    1.0000 </r>
       <r>  -21.5980    1.0000 </r>
       <r>  -12.6516    1.0000 </r>
       <r>  -12.4908    1.0000 </r>
       <r>  -12.4899    1.0000 </r>
       <r>   -3.4998    1.0000 </r>
       <r>   -3.1516    1.0000 </r>
       <r>   -3.1512    1.0000 </r>
       <r>    5.2762    0.0000 </r>
       <r>    6.9789    0.0000 </r>
       <r>    8.6538    0.0000 </r>
       <r>    8.6547    0.0000 </r>
       <r>   10.2607    0.0000 </r>
       <r>   10.2611    0.0000 </r>
       <r>   14.3221    0.0000 </r>
       <r>   16.7080    0.0000 </r>
       <r>   16.7094    0.0000 </r>
       <r>   17.2722    0.0000 </r>
       <r>   20.1789    0.0000 </r>
       <r>   22.2133    0.0000 </r>
       <r>   22.2136    0.0000 </r>
       <r>   23.3300    0.0000 </r>
       <r>   23.3320    0.0000 </r>
       <r>   26.6877    0.0000 </r>
      </set>
     </set>
    </set>
   </array>
  </eigenvalues>
  <separator name="orbital magnetization" >
   <v name="MAGDIPOLOUT">      0.00000000      0.00000000      0.00000000</v>
  </separator>
  <dos>
   <i name="efermi">     -2.87474583 </i>
   <total>
    <array>
     <dimension dim="1">gridpoints</dimension>
     <dimension dim="2">spin</dimension>
     <field>energy</field>
     <field>total</field>
     <field>integrated</field>
     <set>
      <set comment="spin 1">
       <r>   -32.0397     0.0000     0.0000 </r>
       <r>   -31.8302     0.0000     0.0000 </r>
       <r>   -31.6208     0.0000     0.0000 </r>
       <r>   -31.4113     0.0000     0.0000 </r>
       <r>   -31.2019     0.0000     0.0000 </r>
       <r>   -30.9924     0.0000     0.0000 </r>
       <r>   -30.7830     0.0000     0.0000 </r>
       <r>   -30.5736     0.0000     0.0000 </r>
       <r>   -30.3641     0.0000     0.0000 </r>
       <r>   -30.1547     0.0000     0.0000 </r>
       <r>   -29.9452     0.0000     0.0000 </r>
       <r>   -29.7358     0.0000     0.0000 </r>
       <r>   -29.5263     0.0000     0.0000 </r>
       <r>   -29.3169     0.0000     0.0000 </r>
       <r>   -29.1075    64.3662     0.9804 </r>
       <r>   -28.8980     0.0000     2.0000 </r>
       <r>   -28.6886     0.0000     2.0000 </r>
       <r>   -28.4791     0.0000     2.0000 </r>
       <r>   -28.2697     0.0000     2.0000 </r>
       <r>   -28.0602     0.0000     2.0000 </r>
       <r>   -27.8508     0.0000     2.0000 </r>
       <r>   -27.6414     0.0000     2.0000 </r>
       <r>   -27.4319     0.0000     2.0000 </r>
       <r>   -27.2225     0.0000     2.0000 </r>
       <r>   -27.0130     0.0000     2.0000 </r>
       <r>   -26.8036     0.0000     2.0000 </r>
       <r>   -26.5941     0.0000     2.0000 </r>
       <r>   -26.3847     0.0000     2.0000 </r>
       <r>   -26.1753     0.0000     2.0000 </r>
       <r>   -25.9658     0.0000     2.0000 </r>
       <r>   -25.7564     0.0000     2.0000 </r>
       <r>   -25.5469     0.0000     2.0000 </r>
       <r>   -25.3375     0.0000     2.0000 </r>
       <r>   -25.1280     0.0000     2.0000 </r>
       <r>   -24.9186     0.0000     2.0000 </r>
       <r>   -24.7092     0.0000     2.0000 </r>
       <r>   -24.4997     0.0000     2.0000 </r>
       <r>   -24.2903     0.0000     2.0000 </r>
       <r>   -24.0808     0.0000     2.0000 </r>
       <r>   -23.8714     0.0000     2.0000 </r>
       <r>   -23.6619     0.0000     2.0000 </r>
       <r>   -23.4525     0.0000     2.0000 </r>
       <r>   -23.2431     0.0000     2.0000 </r>
       <r>   -23.0336     0.0000     2.0000 </r>
       <r>   -22.8242     0.0000     2.0000 </r>
       <r>   -22.6147     0.0000     2.0000 </r>
       <r>   -22.4053     0.0000     2.0000 </r>
       <r>   -22.1958     0.0000     2.0000 </r>
       <r>   -21.9864     0.0000     2.0000 </r>
       <r>   -21.7770     0.0000     2.0000 </r>
       <r>   -21.5675     6.5704     3.9569 </r>
       <r>   -21.3581     0.0000     4.0000 </r>
       <r>   -21.1486     0.0000     4.0000 </r>
       <r>   -20.9392     0.0000     4.0000 </r>
       <r>   -20.7297     0.0000     4.0000 </r>
       <r>   -20.5203     0.0000     4.0000 </r>
       <r>   -20.3109     0.0000     4.0000 </r>
       <r>   -20.1014     0.0000     4.0000 </r>
       <r>   -19.8920     0.0000     4.0000 </r>
       <r>   -19.6825     0.0000     4.0000 </r>
       <r>   -19.4731     0.0000     4.0000 </r>
       <r>   -19.2636     0.0000     4.0000 </r>
       <r>   -19.0542     0.0000     4.0000 </r>
       <r>   -18.8448     0.0000     4.0000 </r>
       <r>   -18.6353     0.0000     4.0000 </r>
       <r>   -18.4259     0.0000     4.0000 </r>
       <r>   -18.2164     0.0000     4.0000 </r>
       <r>   -18.0070     0.0000     4.0000 </r>
       <r>   -17.7975     0.0000     4.0000 </r>
       <r>   -17.5881     0.0000     4.0000 </r>
       <r>   -17.3787     0.0000     4.0000 </r>
       <r>   -17.1692     0.0000     4.0000 </r>
       <r>   -16.9598     0.0000     4.0000 </r>
       <r>   -16.7503     0.0000     4.0000 </r>
       <r>   -16.5409     0.0000     4.0000 </r>
       <r>   -16.3314     0.0000     4.0000 </r>
       <r>   -16.1220     0.0000     4.0000 </r>
       <r>   -15.9126     0.0000     4.0000 </r>
       <r>   -15.7031     0.0000     4.0000 </r>
       <r>   -15.4937     0.0000     4.0000 </r>
       <r>   -15.2842     0.0000     4.0000 </r>
       <r>   -15.0748     0.0000     4.0000 </r>
       <r>   -14.8653     0.0000     4.0000 </r>
       <r>   -14.6559     0.0000     4.0000 </r>
       <r>   -14.4465     0.0000     4.0000 </r>
       <r>   -14.2370     0.0000     4.0000 </r>
       <r>   -14.0276     0.0000     4.0000 </r>
       <r>   -13.8181     0.0000     4.0000 </r>
       <r>   -13.6087     0.0000     4.0000 </r>
       <r>   -13.3992     0.0000     4.0000 </r>
       <r>   -13.1898     0.0000     4.0000 </r>
       <r>   -12.9804     0.0000     4.0000 </r>
       <r>   -12.7709    17.2193     4.6993 </r>
       <r>   -12.5615    49.5463     8.0451 </r>
       <r>   -12.3520     0.0000    10.0000 </r>
       <r>   -12.1426     0.0000    10.0000 </r>
       <r>   -11.9331     0.0000    10.0000 </r>
       <r>   -11.7237     0.0000    10.0000 </r>
       <r>   -11.5143     0.0000    10.0000 </r>
       <r>   -11.3048     0.0000    10.0000 </r>
       <r>   -11.0954     0.0000    10.0000 </r>
       <r>   -10.8859     0.0000    10.0000 </r>
       <r>   -10.6765     0.0000    10.0000 </r>
       <r>   -10.4670     0.0000    10.0000 </r>
       <r>   -10.2576     0.0000    10.0000 </r>
       <r>   -10.0482     0.0000    10.0000 </r>
       <r>    -9.8387     0.0000    10.0000 </r>
       <r>    -9.6293     0.0000    10.0000 </r>
       <r>    -9.4198     0.0000    10.0000 </r>
       <r>    -9.2104     0.0000    10.0000 </r>
       <r>    -9.0009     0.0000    10.0000 </r>
       <r>    -8.7915     0.0000    10.0000 </r>
       <r>    -8.5821     0.0000    10.0000 </r>
       <r>    -8.3726     0.0000    10.0000 </r>
       <r>    -8.1632     0.0000    10.0000 </r>
       <r>    -7.9537     0.0000    10.0000 </r>
       <r>    -7.7443     0.0000    10.0000 </r>
       <r>    -7.5348     0.0000    10.0000 </r>
       <r>    -7.3254     0.0000    10.0000 </r>
       <r>    -7.1160     0.0000    10.0000 </r>
       <r>    -6.9065     0.0000    10.0000 </r>
       <r>    -6.6971     0.0000    10.0000 </r>
       <r>    -6.4876     0.0000    10.0000 </r>
       <r>    -6.2782     0.0000    10.0000 </r>
       <r>    -6.0687     0.0000    10.0000 </r>
       <r>    -5.8593     0.0000    10.0000 </r>
       <r>    -5.6499     0.0000    10.0000 </r>
       <r>    -5.4404     0.0000    10.0000 </r>
       <r>    -5.2310     0.0000    10.0000 </r>
       <r>    -5.0215     0.0000    10.0000 </r>
       <r>    -4.8121     0.0000    10.0000 </r>
       <r>    -4.6026     0.0000    10.0000 </r>
       <r>    -4.3932     0.0000    10.0000 </r>
       <r>    -4.1838     0.0000    10.0000 </r>
       <r>    -3.9743     0.0000    10.0000 </r>
       <r>    -3.7649     0.0000    10.0000 </r>
       <r>    -3.5554     0.0000    10.0000 </r>
       <r>    -3.3460    15.9669    11.7326 </r>
       <r>    -3.1365    30.0757    12.8039 </r>
       <r>    -2.9271     0.0717    15.9997 </r>
       <r>    -2.7177     0.0000    16.0000 </r>
       <r>    -2.5082     0.0000    16.0000 </r>
       <r>    -2.2988     0.0000    16.0000 </r>
       <r>    -2.0893     0.0000    16.0000 </r>
       <r>    -1.8799     0.0000    16.0000 </r>
       <r>    -1.6704     0.0000    16.0000 </r>
       <r>    -1.4610     0.0000    16.0000 </r>
       <r>    -1.2516     0.0000    16.0000 </r>
       <r>    -1.0421     0.0000    16.0000 </r>
       <r>    -0.8327     0.0000    16.0000 </r>
       <r>    -0.6232     0.0000    16.0000 </r>
       <r>    -0.4138     0.0000    16.0000 </r>
       <r>    -0.2044     0.0000    16.0000 </r>
       <r>     0.0051     0.0000    16.0000 </r>
       <r>     0.2145     0.0000    16.0000 </r>
       <r>     0.4240     0.0000    16.0000 </r>
       <r>     0.6334     0.0000    16.0000 </r>
       <r>     0.8429     0.0000    16.0000 </r>
       <r>     1.0523     0.0000    16.0000 </r>
       <r>     1.2617     0.0000    16.0000 </r>
       <r>     1.4712     0.0000    16.0000 </r>
       <r>     1.6806     0.0000    16.0000 </r>
       <r>     1.8901     0.0000    16.0000 </r>
       <r>     2.0995     0.0000    16.0000 </r>
       <r>     2.3090     0.0000    16.0000 </r>
       <r>     2.5184     0.0000    16.0000 </r>
       <r>     2.7278     0.0000    16.0000 </r>
       <r>     2.9373     0.0000    16.0000 </r>
       <r>     3.1467     0.0010    16.0000 </r>
       <r>     3.3562     0.0074    16.0008 </r>
       <r>     3.5656     0.0195    16.0035 </r>
       <r>     3.7751     0.0374    16.0094 </r>
       <r>     3.9845     0.0611    16.0196 </r>
       <r>     4.1939     0.0906    16.0354 </r>
       <r>     4.4034     0.1259    16.0580 </r>
       <r>     4.6128     0.1670    16.0886 </r>
       <r>     4.8223     0.2139    16.1284 </r>
       <r>     5.0317     0.2665    16.1786 </r>
       <r>     5.2412     0.3250    16.2404 </r>
       <r>     5.4506     1.1116    16.3813 </r>
       <r>     5.6600     1.7658    16.6879 </r>
       <r>     5.8695     2.5094    17.1438 </r>
       <r>     6.0789     2.5434    17.6865 </r>
       <r>     6.2884     0.6279    18.1329 </r>
       <r>     6.4978     1.0901    18.3107 </r>
       <r>     6.7073     1.6743    18.5980 </r>
       <r>     6.9167     2.3806    19.0205 </r>
       <r>     7.1261     3.4195    19.7026 </r>
       <r>     7.3356     0.0979    19.9903 </r>
       <r>     7.5450     0.0087    19.9997 </r>
       <r>     7.7545     0.0137    20.0005 </r>
       <r>     7.9639     0.1028    20.0113 </r>
       <r>     8.1734     0.2751    20.0494 </r>
       <r>     8.3828     3.4504    20.5601 </r>
       <r>     8.5922     3.8191    21.3661 </r>
       <r>     8.8017     2.1755    22.0006 </r>
       <r>     9.0111     1.1279    22.3313 </r>
       <r>     9.2206     0.9716    22.5352 </r>
       <r>     9.4300     1.1988    22.7596 </r>
       <r>     9.6395     1.5996    23.0496 </r>
       <r>     9.8489     2.1756    23.4419 </r>
       <r>    10.0583     7.0471    24.3757 </r>
       <r>    10.2678     8.8124    25.6438 </r>
       <r>    10.4772     1.7934    26.6849 </r>
       <r>    10.6867     2.0072    27.0899 </r>
       <r>    10.8961     1.8192    27.4976 </r>
       <r>    11.1056     1.2293    27.8239 </r>
       <r>    11.3150     0.0000    28.0000 </r>
       <r>    11.5244     0.0000    28.0000 </r>
       <r>    11.7339     0.0000    28.0000 </r>
       <r>    11.9433     0.0000    28.0000 </r>
       <r>    12.1528     0.0000    28.0000 </r>
       <r>    12.3622     0.0000    28.0000 </r>
       <r>    12.5717     0.0000    28.0000 </r>
       <r>    12.7811     0.0000    28.0000 </r>
       <r>    12.9905     0.0000    28.0000 </r>
       <r>    13.2000     0.6488    28.0789 </r>
       <r>    13.4094     1.6341    28.4024 </r>
       <r>    13.6189     2.0344    28.7907 </r>
       <r>    13.8283     2.2262    29.2390 </r>
       <r>    14.0378     2.4003    29.7231 </r>
       <r>    14.2472     2.5947    30.2459 </r>
       <r>    14.4566     1.2754    30.6990 </r>
       <r>    14.6661     0.6526    30.8708 </r>
       <r>    14.8755     0.6342    31.0058 </r>
       <r>    15.0850     0.6004    31.1353 </r>
       <r>    15.2944     0.5512    31.2562 </r>
       <r>    15.5039     0.4866    31.3652 </r>
       <r>    15.7133     1.9274    32.2403 </r>
       <r>    15.9227     1.7593    32.6279 </r>
       <r>    16.1322     1.5032    32.9711 </r>
       <r>    16.3416     1.1591    33.2514 </r>
       <r>    16.5511     0.7271    33.4505 </r>
       <r>    16.7605     0.3324    33.5530 </r>
       <r>    16.9700     0.2987    33.6191 </r>
       <r>    17.1794     0.2669    33.6783 </r>
       <r>    17.3888     0.5749    33.7514 </r>
       <r>    17.5983     1.0187    33.9211 </r>
       <r>    17.8077     1.2957    34.1664 </r>
       <r>    18.0172     1.4988    34.4571 </r>
       <r>    18.2266     1.6400    34.7884 </r>
       <r>    18.4361     1.6334    35.1338 </r>
       <r>    18.6455     1.4789    35.4623 </r>
       <r>    18.8549     1.1766    35.7430 </r>
       <r>    19.0644     0.1355    35.9218 </r>
       <r>    19.2738     0.1047    35.9469 </r>
       <r>    19.4833     0.0779    35.9659 </r>
       <r>    19.6927     0.0550    35.9798 </r>
       <r>    19.9022     0.0361    35.9893 </r>
       <r>    20.1116     0.0211    35.9952 </r>
       <r>    20.3210     2.2736    36.6550 </r>
       <r>    20.5305     1.8117    37.0821 </r>
       <r>    20.7399     1.3908    37.4167 </r>
       <r>    20.9494     1.0098    37.6675 </r>
       <r>    21.1588     1.3566    37.9211 </r>
       <r>    21.3683     1.6602    38.2410 </r>
       <r>    21.5777     1.7360    38.6006 </r>
       <r>    21.7871     1.7404    38.9635 </r>
       <r>    21.9966     2.2202    39.3653 </r>
       <r>    22.2060     3.4436    39.9454 </r>
       <r>    22.4155     1.1468    40.3896 </r>
       <r>    22.6249     1.3302    40.6301 </r>
       <r>    22.8344     1.5866    40.9395 </r>
       <r>    23.0438     1.6214    41.2793 </r>
       <r>    23.2532     4.2891    41.8094 </r>
       <r>    23.4627     2.2395    42.4226 </r>
       <r>    23.6721     1.0736    42.7954 </r>
       <r>    23.8816     1.0520    43.0159 </r>
       <r>    24.0910     1.1482    43.2444 </r>
       <r>    24.3005     1.2590    43.4971 </r>
       <r>    24.5099     1.3364    43.7694 </r>
       <r>    24.7193     1.3803    44.0545 </r>
       <r>    24.9288     1.3908    44.3453 </r>
       <r>    25.1382     1.3679    44.6348 </r>
       <r>    25.3477     1.3115    44.9159 </r>
       <r>    25.5571     1.2216    45.1818 </r>
       <r>    25.7666     1.0984    45.4253 </r>
       <r>    25.9760     0.6786    45.6852 </r>
       <r>    26.1854     0.6497    45.8245 </r>
       <r>    26.3949     0.6095    45.9565 </r>
       <r>    26.6043     0.5582    46.0790 </r>
       <r>    26.8138     2.6645    46.4311 </r>
       <r>    27.0232     2.6275    47.0732 </r>
       <r>    27.2327     1.7078    47.5239 </r>
       <r>    27.4421     0.9769    47.8018 </r>
       <r>    27.6515     0.4347    47.9463 </r>
       <r>    27.8610     0.0813    47.9971 </r>
       <r>    28.0704     0.0000    48.0000 </r>
       <r>    28.2799     0.0000    48.0000 </r>
       <r>    28.4893     0.0000    48.0000 </r>
       <r>    28.6988     0.0000    48.0000 </r>
       <r>    28.9082     0.0000    48.0000 </r>
       <r>    29.1176     0.0000    48.0000 </r>
       <r>    29.3271     0.0000    48.0000 </r>
       <r>    29.5365     0.0000    48.0000 </r>
       <r>    29.7460     0.0000    48.0000 </r>
       <r>    29.9554     0.0000    48.0000 </r>
       <r>    30.1649     0.0000    48.0000 </r>
       <r>    30.3743     0.0000    48.0000 </r>
       <r>    30.5837     0.0000    48.0000 </r>
       <r>    30.7932     0.0000    48.0000 </r>
      </set>
     </set>
    </array>
   </total>
   <partial>
    <array>
     <dimension dim="1">gridpoints</dimension>
     <dimension dim="2">spin</dimension>
     <dimension dim="3">ion</dimension>
     <field>energy</field>
     <field>  s</field>
     <field> py</field>
     <field> pz</field>
     <field> px</field>
     <field>dxy</field>
     <field>dyz</field>
     <field>dz2</field>
     <field>dxz</field>
     <field>dx2</field>
     <set>
      <set comment="ion 1">
       <set comment="spin 1">
        <r>   -32.0397     0.0000     0.0000     0.0000     0.0000     0.0000     0.0000     0.0000     0.0000     0.0000 </r>
        <r>   -31.8302     0.0000     0.0000     0.0000     0.0000     0.0000     0.0000     0.0000     0.0000     0.0000 </r>
        <r>   -31.6208     0.0000     0.0000     0.0000     0.0000     0.0000     0.0000     0.0000     0.0000     0.0000 </r>
        <r>   -31.4113     0.0000     0.0000     0.0000     0.0000     0.0000     0.0000     0.0000     0.0000     0.0000 </r>
        <r>   -31.2019     0.0000     0.0000     0.0000     0.0000     0.0000     0.0000     0.0000     0.0000     0.0000 </r>
        <r>   -30.9924     0.0000     0.0000     0.0000     0.0000     0.0000     0.0000     0.0000     0.0000     0.0000 </r>
        <r>   -30.7830     0.0000     0.0000     0.0000     0.0000     0.0000     0.0000     0.0000     0.0000     0.0000 </r>
        <r>   -30.5736     0.0000     0.0000     0.0000     0.0000     0.0000     0.0000     0.0000     0.0000     0.0000 </r>
        <r>   -30.3641     0.0000     0.0000     0.0000     0.0000     0.0000     0.0000     0.0000     0.0000     0.0000 </r>
        <r>   -30.1547     0.0000     0.0000     0.0000     0.0000     0.0000     0.0000     0.0000     0.0000     0.0000 </r>
        <r>   -29.9452     0.0000     0.0000     0.0000     0.0000     0.0000     0.0000     0.0000     0.0000     0.0000 </r>
        <r>   -29.7358     0.0000     0.0000     0.0000     0.0000     0.0000     0.0000     0.0000     0.0000     0.0000 </r>
        <r>   -29.5263     0.0000     0.0000     0.0000     0.0000     0.0000     0.0000     0.0000     0.0000     0.0000 </r>
        <r>   -29.3169     0.0000     0.0000     0.0000     0.0000     0.0000     0.0000     0.0000     0.0000     0.0000 </r>
        <r>   -29.1075     0.0288     0.0018     0.0018     0.0018     0.0000     0.0000     0.0000     0.0000     0.0000 </r>
        <r>   -28.8980     0.0000     0.0000     0.0000     0.0000     0.0000     0.0000     0.0000     0.0000     0.0000 </r>
        <r>   -28.6886     0.0000     0.0000     0.0000     0.0000     0.0000     0.0000     0.0000     0.0000     0.0000 </r>
        <r>   -28.4791     0.0000     0.0000     0.0000     0.0000     0.0000     0.0000     0.0000     0.0000     0.0000 </r>
        <r>   -28.2697     0.0000     0.0000     0.0000     0.0000     0.0000     0.0000     0.0000     0.0000     0.0000 </r>
        <r>   -28.0602     0.0000     0.0000     0.0000     0.0000     0.0000     0.0000     0.0000     0.0000     0.0000 </r>
        <r>   -27.8508     0.0000     0.0000     0.0000     0.0000     0.0000     0.0000     0.0000     0.0000     0.0000 </r>
        <r>   -27.6414     0.0000     0.0000     0.0000     0.0000     0.0000     0.0000     0.0000     0.0000     0.0000 </r>
        <r>   -27.4319     0.0000     0.0000     0.0000     0.0000     0.0000     0.0000     0.0000     0.0000     0.0000 </r>
        <r>   -27.2225     0.0000     0.0000     0.0000     0.0000     0.0000     0.0000     0.0000     0.0000     0.0000 </r>
        <r>   -27.0130     0.0000     0.0000     0.0000     0.0000     0.0000     0.0000     0.0000     0.0000     0.0000 </r>
        <r>   -26.8036     0.0000     0.0000     0.0000     0.0000     0.0000     0.0000     0.0000     0.0000     0.0000 </r>
        <r>   -26.5941     0.0000     0.0000     0.0000     0.0000     0.0000     0.0000     0.0000     0.0000     0.0000 </r>
        <r>   -26.3847     0.0000     0.0000     0.0000     0.0000     0.0000     0.0000     0.0000     0.0000     0.0000 </r>
        <r>   -26.1753     0.0000     0.0000     0.0000     0.0000     0.0000     0.0000     0.0000     0.0000     0.0000 </r>
        <r>   -25.9658     0.0000     0.0000     0.0000     0.0000     0.0000     0.0000     0.0000     0.0000     0.0000 </r>
        <r>   -25.7564     0.0000     0.0000     0.0000     0.0000     0.0000     0.0000     0.0000     0.0000     0.0000 </r>
        <r>   -25.5469     0.0000     0.0000     0.0000     0.0000     0.0000     0.0000     0.0000     0.0000     0.0000 </r>
        <r>   -25.3375     0.0000     0.0000     0.0000     0.0000     0.0000     0.0000     0.0000     0.0000     0.0000 </r>
        <r>   -25.1280     0.0000     0.0000     0.0000     0.0000     0.0000     0.0000     0.0000     0.0000     0.0000 </r>
        <r>   -24.9186     0.0000     0.0000     0.0000     0.0000     0.0000     0.0000     0.0000     0.0000     0.0000 </r>
        <r>   -24.7092     0.0000     0.0000     0.0000     0.0000     0.0000     0.0000     0.0000     0.0000     0.0000 </r>
        <r>   -24.4997     0.0000     0.0000     0.0000     0.0000     0.0000     0.0000     0.0000     0.0000     0.0000 </r>
        <r>   -24.2903     0.0000     0.0000     0.0000     0.0000     0.0000     0.0000     0.0000     0.0000     0.0000 </r>
        <r>   -24.0808     0.0000     0.0000     0.0000     0.0000     0.0000     0.0000     0.0000     0.0000     0.0000 </r>
        <r>   -23.8714     0.0000     0.0000     0.0000     0.0000     0.0000     0.0000     0.0000     0.0000     0.0000 </r>
        <r>   -23.6619     0.0000     0.0000     0.0000     0.0000     0.0000     0.0000     0.0000     0.0000     0.0000 </r>
        <r>   -23.4525     0.0000     0.0000     0.0000     0.0000     0.0000     0.0000     0.0000     0.0000     0.0000 </r>
        <r>   -23.2431     0.0000     0.0000     0.0000     0.0000     0.0000     0.0000     0.0000     0.0000     0.0000 </r>
        <r>   -23.0336     0.0000     0.0000     0.0000     0.0000     0.0000     0.0000     0.0000     0.0000     0.0000 </r>
        <r>   -22.8242     0.0000     0.0000     0.0000     0.0000     0.0000     0.0000     0.0000     0.0000     0.0000 </r>
        <r>   -22.6147     0.0000     0.0000     0.0000     0.0000     0.0000     0.0000     0.0000     0.0000     0.0000 </r>
        <r>   -22.4053     0.0000     0.0000     0.0000     0.0000     0.0000     0.0000     0.0000     0.0000     0.0000 </r>
[...]
       </set>
       <set comment="band 12">
        <r>  0.0000  0.0000  0.0000  0.0000  0.0000  0.0000  0.0000  0.0000  0.0000 </r>
        <r>  0.0000  0.0000  0.0000  0.0000  0.1963  0.0652  0.2934  0.1303  0.0979 </r>
       </set>
       <set comment="band 13">
        <r>  0.0000  0.0000  0.0209  0.0627  0.0000  0.0000  0.0000  0.0000  0.0000 </r>
        <r>  0.0000  0.0000  0.0015  0.0046  0.3699  0.1232  0.1389  0.0619  0.0464 </r>
       </set>
       <set comment="band 14">
        <r>  0.0002  0.0453  0.0170  0.0057  0.0000  0.0000  0.0000  0.0000  0.0000 </r>
        <r>  0.1868  0.0012  0.0005  0.0002  0.0115  0.0348  0.0001  0.0493  0.0720 </r>
       </set>
       <set comment="band 15">
        <r>  0.0054  0.0030  0.0011  0.0004  0.0000  0.0000  0.0000  0.0000  0.0000 </r>
        <r>  0.0268  0.0917  0.0345  0.0115  0.1126  0.3381  0.0202  0.0008  0.0458 </r>
       </set>
       <set comment="band 16">
        <r>  0.0000  0.0103  0.0154  0.0051  0.0000  0.0000  0.0000  0.0000  0.0000 </r>
        <r>  0.0000  0.0361  0.0540  0.0179  0.0189  0.0570  0.2551  0.1133  0.2359 </r>
       </set>
       <set comment="band 17">
        <r>  0.0000  0.0000  0.0100  0.0300  0.0000  0.0000  0.0000  0.0000  0.0000 </r>
        <r>  0.0000  0.0000  0.0669  0.2012  0.0632  0.0210  0.0237  0.0106  0.0079 </r>
       </set>
       <set comment="band 18">
        <r>  0.0254  0.0035  0.0013  0.0004  0.0000  0.0000  0.0000  0.0000  0.0000 </r>
        <r>  0.0024  0.0116  0.0043  0.0014  0.0003  0.0010  0.0055  0.2408  0.1916 </r>
       </set>
       <set comment="band 19">
        <r>  0.0000  0.0000  0.0000  0.0000  0.0000  0.0000  0.0000  0.0000  0.0000 </r>
        <r>  0.0000  0.0000  0.0000  0.0000  0.0573  0.0191  0.0859  0.0382  0.0286 </r>
       </set>
       <set comment="band 20">
        <r>  0.0000  0.0208  0.0311  0.0104  0.0000  0.0000  0.0000  0.0000  0.0000 </r>
        <r>  0.0000  0.0234  0.0351  0.0117  0.0006  0.0019  0.0087  0.0039  0.0081 </r>
       </set>
       <set comment="band 21">
        <r>  0.0223  0.0073  0.0027  0.0009  0.0000  0.0000  0.0000  0.0000  0.0000 </r>
        <r>  0.1572  0.0024  0.0009  0.0003  0.0200  0.0600  0.0092  0.0521  0.0096 </r>
       </set>
       <set comment="band 22">
        <r>  0.0000  0.0000  0.0073  0.0219  0.0000  0.0000  0.0000  0.0000  0.0000 </r>
        <r>  0.0000  0.0000  0.0466  0.1395  0.1054  0.0351  0.0395  0.0175  0.0132 </r>
       </set>
       <set comment="band 23">
        <r>  0.0060  0.0185  0.0069  0.0023  0.0000  0.0000  0.0000  0.0000  0.0000 </r>
        <r>  0.0047  0.0010  0.0004  0.0001  0.0027  0.0081  0.0071  0.1436  0.0850 </r>
       </set>
       <set comment="band 24">
        <r>  0.0000  0.0000  0.0000  0.0000  0.0000  0.0000  0.0000  0.0000  0.0000 </r>
        <r>  0.0000  0.0326  0.0487  0.0163  0.0029  0.0086  0.0385  0.0172  0.0356 </r>
       </set>
      </set>
      <set comment="kpoint 25">
       <set comment="band 1">
        <r>  0.0008  0.0000  0.0000  0.0000  0.0000  0.0000  0.0000  0.0000  0.0000 </r>
        <r>  0.9687  0.0000  0.0000  0.0000  0.0000  0.0000  0.0000  0.0000  0.0000 </r>
       </set>
       <set comment="band 2">
        <r>  0.8591  0.0000  0.0000  0.0000  0.0000  0.0000  0.0000  0.0000  0.0000 </r>
        <r>  0.0023  0.0005  0.0008  0.0003  0.0000  0.0001  0.0000  0.0001  0.0000 </r>
       </set>
       <set comment="band 3">
        <r>  0.0038  0.0012  0.0018  0.0006  0.0000  0.0000  0.0000  0.0000  0.0000 </r>
        <r>  0.0001  0.3014  0.4474  0.1521  0.0000  0.0000  0.0000  0.0000  0.0000 </r>
       </set>
       <set comment="band 4">
        <r>  0.0000  0.0016  0.0021  0.0005  0.0000  0.0000  0.0000  0.0000  0.0000 </r>
        <r>  0.0000  0.3443  0.4609  0.1146  0.0000  0.0000  0.0000  0.0000  0.0000 </r>
       </set>
       <set comment="band 5">
        <r>  0.0000  0.0013  0.0000  0.0031  0.0000  0.0000  0.0000  0.0000  0.0000 </r>
        <r>  0.0000  0.2678  0.0021  0.6500  0.0000  0.0000  0.0000  0.0000  0.0000 </r>
       </set>
       <set comment="band 6">
        <r>  0.0000  0.2318  0.3482  0.1157  0.0000  0.0000  0.0000  0.0000  0.0000 </r>
        <r>  0.0039  0.0078  0.0117  0.0039  0.0008  0.0025  0.0003  0.0013  0.0001 </r>
       </set>
       <set comment="band 7">
        <r>  0.0000  0.4875  0.2442  0.0172  0.0000  0.0000  0.0000  0.0000  0.0000 </r>
        <r>  0.0000  0.0127  0.0064  0.0004  0.0000  0.0000  0.0003  0.0001  0.0002 </r>
       </set>
       <set comment="band 8">
        <r>  0.0000  0.0118  0.1299  0.6071  0.0000  0.0000  0.0000  0.0000  0.0000 </r>
        <r>  0.0000  0.0003  0.0034  0.0158  0.0001  0.0001  0.0002  0.0001  0.0001 </r>
       </set>
       <set comment="band 9">
        <r>  0.0000  0.0000  0.0000  0.0000  0.0000  0.0000  0.0000  0.0000  0.0000 </r>
        <r>  0.0000  0.0000  0.0000  0.0000  0.0199  0.0597  0.0000  0.1166  0.1565 </r>
       </set>
       <set comment="band 10">
        <r>  0.0418  0.0136  0.0204  0.0068  0.0000  0.0000  0.0000  0.0000  0.0000 </r>
        <r>  0.0832  0.0151  0.0227  0.0076  0.0112  0.0334  0.0043  0.0181  0.0018 </r>
       </set>
       <set comment="band 11">
        <r>  0.0075  0.0376  0.0563  0.0188  0.0000  0.0000  0.0000  0.0000  0.0000 </r>
        <r>  0.0009  0.0130  0.0195  0.0065  0.0753  0.2269  0.0285  0.1133  0.0095 </r>
       </set>
       <set comment="band 12">
        <r>  0.0000  0.0083  0.0000  0.0178  0.0000  0.0000  0.0000  0.0000  0.0000 </r>
        <r>  0.0000  0.0052  0.0000  0.0111  0.0423  0.1155  0.0003  0.2316  0.3049 </r>
       </set>
       <set comment="band 13">
        <r>  0.0000  0.0091  0.0131  0.0039  0.0000  0.0000  0.0000  0.0000  0.0000 </r>
        <r>  0.0000  0.0057  0.0081  0.0025  0.1511  0.0001  0.5203  0.0001  0.0231 </r>
       </set>
       <set comment="band 14">
        <r>  0.0000  0.0000  0.0000  0.0000  0.0000  0.0000  0.0000  0.0000  0.0000 </r>
        <r>  0.0000  0.0000  0.0000  0.0000  0.4047  0.1349  0.1520  0.0674  0.0506 </r>
       </set>
       <set comment="band 15">
        <r>  0.0000  0.0001  0.0002  0.0001  0.0000  0.0000  0.0000  0.0000  0.0000 </r>
        <r>  0.1726  0.0432  0.0649  0.0216  0.0347  0.1045  0.0131  0.0521  0.0043 </r>
       </set>
       <set comment="band 16">
        <r>  0.0000  0.0247  0.0000  0.0440  0.0000  0.0000  0.0000  0.0000  0.0000 </r>
        <r>  0.0000  0.0761  0.0002  0.1361  0.0114  0.0399  0.0003  0.0798  0.1085 </r>
       </set>
       <set comment="band 17">
        <r>  0.0000  0.0212  0.0343  0.0132  0.0000  0.0000  0.0000  0.0000  0.0000 </r>
        <r>  0.0000  0.0655  0.1059  0.0410  0.0552  0.0001  0.1796  0.0001  0.0048 </r>
       </set>
       <set comment="band 18">
        <r>  0.0000  0.0000  0.0000  0.0000  0.0000  0.0000  0.0000  0.0000  0.0000 </r>
        <r>  0.0000  0.0000  0.0000  0.0000  0.0346  0.1039  0.0000  0.2079  0.2769 </r>
       </set>
       <set comment="band 19">
        <r>  0.0627  0.0023  0.0034  0.0011  0.0000  0.0000  0.0000  0.0000  0.0000 </r>
        <r>  0.0166  0.0174  0.0262  0.0087  0.0490  0.1470  0.0184  0.0736  0.0061 </r>
       </set>
       <set comment="band 20">
        <r>  0.0000  0.0228  0.0354  0.0127  0.0000  0.0000  0.0000  0.0000  0.0000 </r>
        <r>  0.0000  0.0027  0.0043  0.0015  0.0014  0.0000  0.0046  0.0000  0.0001 </r>
       </set>
       <set comment="band 21">
        <r>  0.0000  0.0245  0.0000  0.0464  0.0000  0.0000  0.0000  0.0000  0.0000 </r>
        <r>  0.0000  0.0029  0.0000  0.0056  0.0003  0.0010  0.0000  0.0020  0.0028 </r>
       </set>
       <set comment="band 22">
        <r>  0.0000  0.0000  0.0000  0.0000  0.0000  0.0000  0.0000  0.0000  0.0000 </r>
        <r>  0.0000  0.0000  0.0000  0.0000  0.0554  0.0185  0.0208  0.0092  0.0069 </r>
       </set>
       <set comment="band 23">
        <r>  0.0000  0.0000  0.0000  0.0000  0.0000  0.0000  0.0000  0.0000  0.0000 </r>
        <r>  0.0000  0.0000  0.0000  0.0000  0.0155  0.0464  0.0000  0.0925  0.1234 </r>
       </set>
       <set comment="band 24">
        <r>  0.0006  0.0163  0.0244  0.0081  0.0000  0.0000  0.0000  0.0000  0.0000 </r>
        <r>  0.1429  0.0144  0.0211  0.0070  0.0372  0.1114  0.0140  0.0559  0.0046 </r>
       </set>
      </set>
      <set comment="kpoint 26">
       <set comment="band 1">
        <r>  0.0000  0.0000  0.0000  0.0001  0.0000  0.0000  0.0000  0.0000  0.0000 </r>
        <r>  0.9713  0.0000  0.0000  0.0000  0.0000  0.0000  0.0000  0.0000  0.0000 </r>
       </set>
       <set comment="band 2">
        <r>  0.8583  0.0000  0.0000  0.0000  0.0000  0.0000  0.0000  0.0000  0.0000 </r>
        <r>  0.0000  0.0000  0.0008  0.0023  0.0000  0.0001  0.0000  0.0001  0.0000 </r>
       </set>
       <set comment="band 3">
        <r>  0.0000  0.0022  0.0033  0.0011  0.0000  0.0000  0.0000  0.0000  0.0000 </r>
        <r>  0.0000  0.2995  0.4452  0.1517  0.0000  0.0000  0.0000  0.0000  0.0000 </r>
       </set>
       <set comment="band 4">
        <r>  0.0072  0.0000  0.0004  0.0013  0.0000  0.0000  0.0000  0.0000  0.0000 </r>
        <r>  0.0000  0.0000  0.2305  0.6788  0.0000  0.0000  0.0000  0.0000  0.0000 </r>
       </set>
       <set comment="band 5">
        <r>  0.0000  0.0012  0.0004  0.0001  0.0000  0.0000  0.0000  0.0000  0.0000 </r>
        <r>  0.0000  0.6170  0.2315  0.0781  0.0000  0.0000  0.0000  0.0000  0.0000 </r>
       </set>
       <set comment="band 6">
        <r>  0.0000  0.0000  0.1751  0.5235  0.0000  0.0000  0.0000  0.0000  0.0000 </r>
        <r>  0.0071  0.0000  0.0025  0.0075  0.0010  0.0030  0.0002  0.0000  0.0004 </r>
       </set>
       <set comment="band 7">
        <r>  0.0000  0.4888  0.1839  0.0614  0.0000  0.0000  0.0000  0.0000  0.0000 </r>
        <r>  0.0000  0.0058  0.0022  0.0007  0.0042  0.0014  0.0016  0.0007  0.0005 </r>
       </set>
       <set comment="band 8">
        <r>  0.0000  0.2390  0.3567  0.1194  0.0000  0.0000  0.0000  0.0000  0.0000 </r>
        <r>  0.0000  0.0123  0.0185  0.0062  0.0004  0.0001  0.0006  0.0003  0.0002 </r>
       </set>
       <set comment="band 9">
        <r>  0.0035  0.0000  0.0169  0.0507  0.0000  0.0000  0.0000  0.0000  0.0000 </r>
        <r>  0.0126  0.0000  0.0089  0.0267  0.0108  0.0322  0.0001  0.0953  0.1161 </r>
       </set>
       <set comment="band 10">
        <r>  0.0000  0.0279  0.0419  0.0139  0.0000  0.0000  0.0000  0.0000  0.0000 </r>
        <r>  0.0000  0.0202  0.0303  0.0101  0.0650  0.0218  0.0977  0.0435  0.0325 </r>
       </set>
       <set comment="band 11">
        <r>  0.0443  0.0000  0.0038  0.0113  0.0000  0.0000  0.0000  0.0000  0.0000 </r>
        <r>  0.0015  0.0000  0.0090  0.0271  0.0945  0.2832  0.0266  0.0518  0.0004 </r>
       </set>
       <set comment="band 12">
        <r>  0.0000  0.0000  0.0000  0.0000  0.0000  0.0000  0.0000  0.0000  0.0000 </r>
        <r>  0.0000  0.0000  0.0000  0.0000  0.0218  0.0652  0.2936  0.1305  0.2720 </r>
       </set>
       <set comment="band 13">
        <r>  0.0000  0.0557  0.0209  0.0070  0.0000  0.0000  0.0000  0.0000  0.0000 </r>
        <r>  0.0000  0.0041  0.0015  0.0005  0.3702  0.1234  0.1388  0.0616  0.0462 </r>
       </set>
       <set comment="band 14">
        <r>  0.0002  0.0000  0.0170  0.0510  0.0000  0.0000  0.0000  0.0000  0.0000 </r>
        <r>  0.1867  0.0000  0.0005  0.0014  0.0073  0.0216  0.0001  0.0625  0.0766 </r>
       </set>
       <set comment="band 15">
        <r>  0.0055  0.0000  0.0011  0.0034  0.0000  0.0000  0.0000  0.0000  0.0000 </r>
        <r>  0.0269  0.0000  0.0348  0.1030  0.0157  0.0487  0.0207  0.2890  0.1430 </r>
       </set>
       <set comment="band 16">
        <r>  0.0000  0.0103  0.0155  0.0051  0.0000  0.0000  0.0000  0.0000  0.0000 </r>
        <r>  0.0000  0.0360  0.0537  0.0184  0.1704  0.0563  0.2545  0.1150  0.0841 </r>
       </set>
       <set comment="band 17">
        <r>  0.0000  0.0267  0.0100  0.0033  0.0000  0.0000  0.0000  0.0000  0.0000 </r>
        <r>  0.0000  0.1788  0.0670  0.0223  0.0632  0.0211  0.0238  0.0105  0.0079 </r>
       </set>
       <set comment="band 18">
        <r>  0.0253  0.0000  0.0013  0.0039  0.0000  0.0000  0.0000  0.0000  0.0000 </r>
        <r>  0.0024  0.0000  0.0043  0.0130  0.0681  0.2045  0.0055  0.0374  0.1239 </r>
       </set>
       <set comment="band 19">
        <r>  0.0000  0.0000  0.0000  0.0000  0.0000  0.0000  0.0000  0.0000  0.0000 </r>
        <r>  0.0000  0.0000  0.0000  0.0000  0.0064  0.0191  0.0860  0.0382  0.0796 </r>
       </set>
       <set comment="band 20">
        <r>  0.0000  0.0208  0.0311  0.0104  0.0000  0.0000  0.0000  0.0000  0.0000 </r>
        <r>  0.0000  0.0234  0.0351  0.0117  0.0058  0.0019  0.0087  0.0038  0.0029 </r>
       </set>
       <set comment="band 21">
        <r>  0.0223  0.0000  0.0027  0.0082  0.0000  0.0000  0.0000  0.0000  0.0000 </r>
        <r>  0.1572  0.0000  0.0009  0.0027  0.0294  0.0881  0.0092  0.0240  0.0002 </r>
       </set>
       <set comment="band 22">
        <r>  0.0000  0.0195  0.0073  0.0024  0.0000  0.0000  0.0000  0.0000  0.0000 </r>
        <r>  0.0000  0.1240  0.0465  0.0155  0.1053  0.0351  0.0395  0.0176  0.0132 </r>
       </set>
       <set comment="band 23">
        <r>  0.0061  0.0000  0.0069  0.0208  0.0000  0.0000  0.0000  0.0000  0.0000 </r>
        <r>  0.0048  0.0000  0.0004  0.0012  0.0500  0.1497  0.0070  0.0018  0.0378 </r>
       </set>
       <set comment="band 24">
        <r>  0.0000  0.0000  0.0000  0.0000  0.0000  0.0000  0.0000  0.0000  0.0000 </r>
        <r>  0.0000  0.0326  0.0488  0.0163  0.0256  0.0086  0.0385  0.0172  0.0128 </r>
       </set>
      </set>
      <set comment="kpoint 27">
       <set comment="band 1">
        <r>  0.0009  0.0000  0.0001  0.0000  0.0000  0.0000  0.0000  0.0000  0.0000 </r>
        <r>  0.9674  0.0000  0.0000  0.0000  0.0000  0.0000  0.0000  0.0000  0.0000 </r>
       </set>
       <set comment="band 2">
        <r>  0.8535  0.0000  0.0000  0.0000  0.0000  0.0000  0.0000  0.0000  0.0000 </r>
        <r>  0.0023  0.0005  0.0030  0.0010  0.0000  0.0000  0.0000  0.0000  0.0000 </r>
       </set>
       <set comment="band 3">
        <r>  0.0110  0.0001  0.0004  0.0001  0.0000  0.0000  0.0000  0.0000  0.0000 </r>
        <r>  0.0000  0.1009  0.6061  0.2022  0.0000  0.0000  0.0000  0.0000  0.0000 </r>
       </set>
       <set comment="band 4">
        <r>  0.0000  0.0003  0.0000  0.0003  0.0000  0.0000  0.0000  0.0000  0.0000 </r>
        <r>  0.0000  0.4745  0.0112  0.4487  0.0000  0.0000  0.0000  0.0000  0.0000 </r>
       </set>
       <set comment="band 5">
        <r>  0.0000  0.0002  0.0002  0.0002  0.0000  0.0000  0.0000  0.0000  0.0000 </r>
        <r>  0.0000  0.3562  0.3003  0.2780  0.0000  0.0000  0.0000  0.0000  0.0000 </r>
       </set>
       <set comment="band 6">
        <r>  0.0006  0.0753  0.4518  0.1503  0.0000  0.0000  0.0000  0.0000  0.0000 </r>
        <r>  0.0126  0.0001  0.0007  0.0002  0.0003  0.0008  0.0009  0.0015  0.0000 </r>
       </set>
       <set comment="band 7">
        <r>  0.0000  0.4867  0.1867  0.0652  0.0000  0.0000  0.0000  0.0000  0.0000 </r>
        <r>  0.0000  0.0015  0.0006  0.0002  0.0050  0.0009  0.0006  0.0014  0.0015 </r>
       </set>
       <set comment="band 8">
        <r>  0.0000  0.1698  0.0593  0.5094  0.0000  0.0000  0.0000  0.0000  0.0000 </r>
        <r>  0.0000  0.0005  0.0002  0.0015  0.0025  0.0050  0.0002  0.0017  0.0000 </r>
       </set>
       <set comment="band 9">
        <r>  0.0275  0.0124  0.0744  0.0248  0.0000  0.0000  0.0000  0.0000  0.0000 </r>
        <r>  0.0795  0.0046  0.0274  0.0091  0.0036  0.0108  0.0122  0.0217  0.0005 </r>
       </set>
       <set comment="band 10">
        <r>  0.0106  0.0023  0.0135  0.0045  0.0000  0.0000  0.0000  0.0000  0.0000 </r>
        <r>  0.0017  0.0068  0.0411  0.0137  0.0203  0.0609  0.0685  0.1218  0.0025 </r>
       </set>
       <set comment="band 11">
        <r>  0.0000  0.0156  0.0011  0.0214  0.0000  0.0000  0.0000  0.0000  0.0000 </r>
        <r>  0.0000  0.0004  0.0000  0.0005  0.1489  0.1000  0.0108  0.0053  0.3437 </r>
       </set>
       <set comment="band 12">
        <r>  0.0000  0.0183  0.0116  0.0082  0.0000  0.0000  0.0000  0.0000  0.0000 </r>
        <r>  0.0000  0.0005  0.0003  0.0002  0.1905  0.0226  0.1100  0.1409  0.1447 </r>
       </set>
       <set comment="band 13">
        <r>  0.0000  0.0259  0.0001  0.0091  0.0000  0.0000  0.0000  0.0000  0.0000 </r>
        <r>  0.0000  0.0062  0.0000  0.0022  0.0288  0.4312  0.0042  0.1929  0.1011 </r>
       </set>
       <set comment="band 14">
        <r>  0.0000  0.0053  0.0116  0.0182  0.0000  0.0000  0.0000  0.0000  0.0000 </r>
        <r>  0.0000  0.0013  0.0028  0.0044  0.2458  0.0029  0.4183  0.0457  0.0455 </r>
       </set>
       <set comment="band 15">
        <r>  0.0002  0.0027  0.0162  0.0054  0.0000  0.0000  0.0000  0.0000  0.0000 </r>
        <r>  0.0946  0.0083  0.0497  0.0165  0.0378  0.1135  0.1277  0.2268  0.0047 </r>
       </set>
       <set comment="band 16">
        <r>  0.0000  0.0028  0.0009  0.0002  0.0000  0.0000  0.0000  0.0000  0.0000 </r>
        <r>  0.0000  0.1551  0.0497  0.0116  0.0101  0.0431  0.1006  0.0060  0.0362 </r>
       </set>
       <set comment="band 17">
        <r>  0.0000  0.0007  0.0004  0.0028  0.0000  0.0000  0.0000  0.0000  0.0000 </r>
        <r>  0.0000  0.0373  0.0223  0.1569  0.0074  0.0065  0.0453  0.0431  0.0936 </r>
       </set>
       <set comment="band 18">
        <r>  0.0357  0.0047  0.0280  0.0093  0.0000  0.0000  0.0000  0.0000  0.0000 </r>
        <r>  0.0181  0.0071  0.0424  0.0140  0.0002  0.0007  0.0007  0.0013  0.0000 </r>
       </set>
       <set comment="band 19">
        <r>  0.0216  0.0003  0.0020  0.0007  0.0000  0.0000  0.0000  0.0000  0.0000 </r>
        <r>  0.0364  0.0008  0.0048  0.0016  0.0084  0.0253  0.0284  0.0505  0.0011 </r>
       </set>
       <set comment="band 20">
        <r>  0.0000  0.0480  0.0005  0.0371  0.0000  0.0000  0.0000  0.0000  0.0000 </r>
        <r>  0.0000  0.0721  0.0007  0.0556  0.0019  0.0347  0.0001  0.0162  0.0014 </r>
       </set>
       <set comment="band 21">
        <r>  0.0000  0.0281  0.0281  0.0295  0.0000  0.0000  0.0000  0.0000  0.0000 </r>
        <r>  0.0000  0.0421  0.0421  0.0442  0.0404  0.0001  0.0060  0.0016  0.0061 </r>
       </set>
       <set comment="band 22">
        <r>  0.0000  0.0090  0.0007  0.0131  0.0000  0.0000  0.0000  0.0000  0.0000 </r>
        <r>  0.0000  0.0433  0.0036  0.0629  0.1286  0.1734  0.0024  0.0298  0.1830 </r>
       </set>
       <set comment="band 23">
        <r>  0.0000  0.0113  0.0069  0.0047  0.0000  0.0000  0.0000  0.0000  0.0000 </r>
        <r>  0.0000  0.0542  0.0330  0.0225  0.2529  0.0032  0.0224  0.1089  0.1297 </r>
       </set>
       <set comment="band 24">
        <r>  0.0021  0.0001  0.0005  0.0002  0.0000  0.0000  0.0000  0.0000  0.0000 </r>
        <r>  0.1999  0.0009  0.0056  0.0018  0.0192  0.0578  0.0650  0.1155  0.0024 </r>
       </set>
      </set>
     </set>
    </set>
   </array>
  </projected>
 </calculation>
 <structure name="finalpos" >
  <crystal>
   <varray name="basis" >
    <v>       3.32149900       0.00000000       1.91766800 </v>
    <v>       1.10716600       3.13153900       1.91766800 </v>
    <v>       0.00000000       0.00000000       3.83533600 </v>
   </varray>
   <i name="volume">     39.89287790 </i>
   <varray name="rec_basis" >
    <v>       0.30106888      -0.10644390       0.00000000 </v>
    <v>       0.00000000       0.31933180       0.00000000 </v>
    <v>      -0.15053444      -0.10644395       0.26073335 </v>
   </varray>
  </crystal>
  <varray name="positions" >
   <v>       0.50000000       0.50000000       0.50000000 </v>
   <v>       0.00000000       0.00000000       0.00000000 </v>
  </varray>
 </structure>
</modeling>
