<?xml version="1.0" encoding="ISO-8859-1"?>
<modeling>
 <generator>
  <i name="program" type="string">vasp </i>
  <i name="version" type="string">5.3.5  </i>
  <i name="subversion" type="string">31Mar14 (build Jul 23 2014 12:37:54) complex                          parallel </i>
  <i name="platform" type="string">LinuxIFC </i>
  <i name="date" type="string">2014 09 01 </i>
  <i name="time" type="string">22:51:03 </i>
 </generator>
 <incar>
  <i type="string" name="PREC">accurate</i>
  <i type="string" name="ALGO"> Fast</i>
  <i type="int" name="ISPIN">     2</i>
  <i type="int" name="ICHARG">     1</i>
  <i type="int" name="NELM">     7</i>
  <i type="int" name="IBRION">     8</i>
  <i name="EDIFF">      0.00020000</i>
  <i type="int" name="ISIF">     3</i>
  <i name="ENCUT">    520.00000000</i>
  <v name="MAGMOM">      0.60000000      0.60000000</v>
  <i type="logical" name="LREAL"> F  </i>
  <i type="int" name="ISMEAR">    -5</i>
  <i name="SIGMA">      0.20000000</i>
  <i type="logical" name="LWAVE"> F  </i>
  <i type="logical" name="LORBIT"> F  </i>
  <i type="int" name="NELM">     7</i>
  <i type="logical" name="LEPSILON"> T  </i>
 </incar>
 <kpoints>
  <generation param="Monkhorst-Pack">
   <v type="int" name="divisions">       8        8        8 </v>
   <v name="usershift">      0.00000000       0.00000000       0.00000000 </v>
   <v name="genvec1">      0.12500000       0.00000000       0.00000000 </v>
   <v name="genvec2">      0.00000000       0.12500000       0.00000000 </v>
   <v name="genvec3">      0.00000000       0.00000000       0.12500000 </v>
   <v name="shift">      0.50000000       0.50000000       0.50000000 </v>
  </generation>
  <varray name="kpointlist" >
   <v>       0.06250000       0.06250000       0.06250000 </v>
   <v>       0.18750000       0.06250000       0.06250000 </v>
   <v>       0.31250000       0.06250000       0.06250000 </v>
   <v>       0.43750000       0.06250000       0.06250000 </v>
   <v>      -0.43750000       0.06250000       0.06250000 </v>
   <v>      -0.31250000       0.06250000       0.06250000 </v>
   <v>      -0.18750000       0.06250000       0.06250000 </v>
   <v>      -0.06250000       0.06250000       0.06250000 </v>
   <v>       0.18750000       0.18750000       0.06250000 </v>
   <v>       0.31250000       0.18750000       0.06250000 </v>
   <v>       0.43750000       0.18750000       0.06250000 </v>
   <v>      -0.43750000       0.18750000       0.06250000 </v>
   <v>      -0.31250000       0.18750000       0.06250000 </v>
   <v>      -0.18750000       0.18750000       0.06250000 </v>
   <v>      -0.06250000       0.18750000       0.06250000 </v>
   <v>       0.31250000       0.31250000       0.06250000 </v>
   <v>       0.43750000       0.31250000       0.06250000 </v>
   <v>      -0.43750000       0.31250000       0.06250000 </v>
   <v>      -0.31250000       0.31250000       0.06250000 </v>
   <v>      -0.18750000       0.31250000       0.06250000 </v>
   <v>      -0.06250000       0.31250000       0.06250000 </v>
   <v>       0.43750000       0.43750000       0.06250000 </v>
   <v>      -0.43750000       0.43750000       0.06250000 </v>
   <v>      -0.31250000       0.43750000       0.06250000 </v>
   <v>      -0.18750000       0.43750000       0.06250000 </v>
   <v>      -0.06250000       0.43750000       0.06250000 </v>
   <v>      -0.43750000      -0.43750000       0.06250000 </v>
   <v>      -0.31250000      -0.43750000       0.06250000 </v>
   <v>      -0.18750000      -0.43750000       0.06250000 </v>
   <v>      -0.31250000      -0.31250000       0.06250000 </v>
   <v>      -0.18750000      -0.31250000       0.06250000 </v>
   <v>      -0.18750000      -0.18750000       0.06250000 </v>
   <v>       0.18750000       0.18750000       0.18750000 </v>
   <v>       0.31250000       0.18750000       0.18750000 </v>
   <v>       0.43750000       0.18750000       0.18750000 </v>
   <v>      -0.43750000       0.18750000       0.18750000 </v>
   <v>      -0.31250000       0.18750000       0.18750000 </v>
   <v>      -0.18750000       0.18750000       0.18750000 </v>
   <v>       0.31250000       0.31250000       0.18750000 </v>
   <v>       0.43750000       0.31250000       0.18750000 </v>
   <v>      -0.43750000       0.31250000       0.18750000 </v>
   <v>      -0.31250000       0.31250000       0.18750000 </v>
   <v>      -0.18750000       0.31250000       0.18750000 </v>
   <v>       0.43750000       0.43750000       0.18750000 </v>
   <v>      -0.43750000       0.43750000       0.18750000 </v>
   <v>      -0.31250000       0.43750000       0.18750000 </v>
   <v>      -0.18750000       0.43750000       0.18750000 </v>
   <v>      -0.43750000      -0.43750000       0.18750000 </v>
   <v>      -0.31250000      -0.43750000       0.18750000 </v>
   <v>      -0.31250000      -0.31250000       0.18750000 </v>
   <v>       0.31250000       0.31250000       0.31250000 </v>
   <v>       0.43750000       0.31250000       0.31250000 </v>
   <v>      -0.43750000       0.31250000       0.31250000 </v>
   <v>      -0.31250000       0.31250000       0.31250000 </v>
   <v>       0.43750000       0.43750000       0.31250000 </v>
   <v>      -0.43750000       0.43750000       0.31250000 </v>
   <v>      -0.31250000       0.43750000       0.31250000 </v>
   <v>      -0.43750000      -0.43750000       0.31250000 </v>
   <v>       0.43750000       0.43750000       0.43750000 </v>
   <v>      -0.43750000       0.43750000       0.43750000 </v>
  </varray>
  <varray name="weights" >
   <v>       0.00390625 </v>
   <v>       0.01171875 </v>
   <v>       0.01171875 </v>
   <v>       0.01171875 </v>
   <v>       0.01171875 </v>
   <v>       0.01171875 </v>
   <v>       0.01171875 </v>
   <v>       0.01171875 </v>
   <v>       0.01171875 </v>
   <v>       0.02343750 </v>
   <v>       0.02343750 </v>
   <v>       0.02343750 </v>
   <v>       0.02343750 </v>
   <v>       0.02343750 </v>
   <v>       0.02343750 </v>
   <v>       0.01171875 </v>
   <v>       0.02343750 </v>
   <v>       0.02343750 </v>
   <v>       0.02343750 </v>
   <v>       0.02343750 </v>
   <v>       0.02343750 </v>
   <v>       0.01171875 </v>
   <v>       0.02343750 </v>
   <v>       0.02343750 </v>
   <v>       0.02343750 </v>
   <v>       0.02343750 </v>
   <v>       0.01171875 </v>
   <v>       0.02343750 </v>
   <v>       0.02343750 </v>
   <v>       0.01171875 </v>
   <v>       0.02343750 </v>
   <v>       0.01171875 </v>
   <v>       0.00390625 </v>
   <v>       0.01171875 </v>
   <v>       0.01171875 </v>
   <v>       0.01171875 </v>
   <v>       0.01171875 </v>
   <v>       0.01171875 </v>
   <v>       0.01171875 </v>
   <v>       0.02343750 </v>
   <v>       0.02343750 </v>
   <v>       0.02343750 </v>
   <v>       0.02343750 </v>
   <v>       0.01171875 </v>
   <v>       0.02343750 </v>
   <v>       0.02343750 </v>
   <v>       0.02343750 </v>
   <v>       0.01171875 </v>
   <v>       0.02343750 </v>
   <v>       0.01171875 </v>
   <v>       0.00390625 </v>
   <v>       0.01171875 </v>
   <v>       0.01171875 </v>
   <v>       0.01171875 </v>
   <v>       0.01171875 </v>
   <v>       0.02343750 </v>
   <v>       0.02343750 </v>
   <v>       0.01171875 </v>
   <v>       0.00390625 </v>
   <v>       0.01171875 </v>
  </varray>
  <varray name="tetrahedronlist"  type="int" >
   <v type="int" >       24        1        2        8       33 </v>
   <v type="int" >       24        2        7        8       15 </v>
   <v type="int" >       24        7        8        9       15 </v>
   <v type="int" >       24        2        7        8       33 </v>
   <v type="int" >       24        9       10       15       39 </v>
   <v type="int" >       24        9       10       32       39 </v>
   <v type="int" >       24        7        9       15       39 </v>
   <v type="int" >       24       10       31       32       38 </v>
   <v type="int" >       24       16       31       32       38 </v>
   <v type="int" >       24       10       32       38       39 </v>
   <v type="int" >       24       16       17       31       44 </v>
   <v type="int" >       24       16       17       30       44 </v>
   <v type="int" >       24       16       31       38       44 </v>
   <v type="int" >       24       17       28       30       50 </v>
   <v type="int" >       24       22       28       30       50 </v>
   <v type="int" >       24       17       30       44       50 </v>
   <v type="int" >       24       22       23       28       48 </v>
   <v type="int" >       24       22       23       27       48 </v>
   <v type="int" >       24       22       28       48       50 </v>
   <v type="int" >       24       23       23       27       48 </v>
   <v type="int" >       24       23       27       27       48 </v>
   <v type="int" >       24       23       27       48       48 </v>
   <v type="int" >       24       23       27       28       50 </v>
   <v type="int" >       24       22       27       28       50 </v>
   <v type="int" >       24       23       27       48       50 </v>
   <v type="int" >       24       17       22       28       44 </v>
   <v type="int" >       24       17       22       30       44 </v>
   <v type="int" >       24       22       28       44       50 </v>
   <v type="int" >       24       17       30       31       38 </v>
   <v type="int" >       24       16       30       31       38 </v>
   <v type="int" >       24       17       30       38       44 </v>
   <v type="int" >       24       10       16       31       39 </v>
   <v type="int" >       24       10       16       32       39 </v>
   <v type="int" >       24       16       31       38       39 </v>
   <v type="int" >       24        7       10       15       32 </v>
   <v type="int" >       24        7        9       15       32 </v>
   <v type="int" >       24        7       10       32       39 </v>
   <v type="int" >       24        2        9       15       33 </v>
   <v type="int" >       24        2        8        9       33 </v>
   <v type="int" >       24        7        9       15       33 </v>
   <v type="int" >       36        2        2        8        8 </v>
   <v type="int" >       48        1        2        8        8 </v>
   <v type="int" >       24        2        2        8       33 </v>
   <v type="int" >       24        1        1        2        8 </v>
   <v type="int" >       24        1        2        2        8 </v>
   <v type="int" >       24        2        3       15       34 </v>
   <v type="int" >       24        2        3        7       15 </v>
   <v type="int" >       24        2        3        7       33 </v>
   <v type="int" >       24       14       15       21       34 </v>
   <v type="int" >       24       10       14       15       21 </v>
   <v type="int" >       24       10       15       21       39 </v>
   <v type="int" >       24        3       15       21       34 </v>
   <v type="int" >       24        3        7       15       21 </v>
   <v type="int" >       24        7       15       21       39 </v>
   <v type="int" >       24       10       11       14       40 </v>
   <v type="int" >       24       10       11       31       40 </v>
   <v type="int" >       24       10       11       31       38 </v>
   <v type="int" >       24       10       11       14       21 </v>
   <v type="int" >       24       10       11       21       39 </v>
   <v type="int" >       24       10       11       38       39 </v>
   <v type="int" >       24       29       31       40       43 </v>
   <v type="int" >       24       17       29       31       43 </v>
   <v type="int" >       24       17       29       31       44 </v>
   <v type="int" >       24       11       29       31       40 </v>
   <v type="int" >       24       11       29       31       38 </v>
   <v type="int" >       24       29       31       38       44 </v>
   <v type="int" >       24       17       18       43       45 </v>
   <v type="int" >       24       17       18       28       45 </v>
   <v type="int" >       24       17       18       28       50 </v>
   <v type="int" >       24       17       18       29       43 </v>
   <v type="int" >       24       17       18       29       44 </v>
   <v type="int" >       24       17       18       44       50 </v>
   <v type="int" >       24       24       28       45       49 </v>
   <v type="int" >       24       23       24       28       49 </v>
   <v type="int" >       24       23       24       28       48 </v>
   <v type="int" >       24       18       24       28       45 </v>
   <v type="int" >       24       18       24       28       50 </v>
   <v type="int" >       24       24       28       48       50 </v>
   <v type="int" >       24       23       24       49       49 </v>
   <v type="int" >       24       23       23       24       49 </v>
   <v type="int" >       24       23       23       24       48 </v>
   <v type="int" >       24       23       24       24       49 </v>
   <v type="int" >       24       23       24       24       48 </v>
   <v type="int" >       24       23       24       48       48 </v>
   <v type="int" >       24       18       23       45       49 </v>
   <v type="int" >       24       18       23       28       45 </v>
   <v type="int" >       24       18       23       28       50 </v>
   <v type="int" >       24       18       23       24       49 </v>
   <v type="int" >       24       18       23       24       48 </v>
   <v type="int" >       24       18       23       48       50 </v>
   <v type="int" >       24       28       29       43       45 </v>
   <v type="int" >       24       17       28       29       43 </v>
   <v type="int" >       24       17       28       29       44 </v>
   <v type="int" >       24       18       28       29       45 </v>
   <v type="int" >       24       18       28       29       50 </v>
   <v type="int" >       24       28       29       44       50 </v>
   <v type="int" >       24       11       17       40       43 </v>
   <v type="int" >       24       11       17       31       40 </v>
   <v type="int" >       24       11       17       31       38 </v>
   <v type="int" >       24       11       17       29       43 </v>
   <v type="int" >       24       11       17       29       44 </v>
   <v type="int" >       24       11       17       38       44 </v>
   <v type="int" >       24       14       21       31       40 </v>
   <v type="int" >       24       10       14       21       31 </v>
   <v type="int" >       24       10       21       31       39 </v>
   <v type="int" >       24       11       21       31       40 </v>
   <v type="int" >       24       11       21       31       38 </v>
   <v type="int" >       24       21       31       38       39 </v>
   <v type="int" >       24        3       10       14       34 </v>
   <v type="int" >       24        3       10       15       34 </v>
   <v type="int" >       24        3        7       10       15 </v>
   <v type="int" >       24        3       10       14       21 </v>
   <v type="int" >       24        3       10       21       39 </v>
   <v type="int" >       24        3        7       10       39 </v>
   <v type="int" >       24        7       15       15       34 </v>
   <v type="int" >       48        2        7       15       15 </v>
   <v type="int" >       48        2        7       15       33 </v>
   <v type="int" >       24        3        7       15       34 </v>
   <v type="int" >       24        3        7        7       15 </v>
   <v type="int" >       24        7        7       15       33 </v>
   <v type="int" >       48        2        9       15       15 </v>
   <v type="int" >       24        2        8        9       15 </v>
   <v type="int" >       48        2        2        8       15 </v>
   <v type="int" >       24        2        2       15       33 </v>
   <v type="int" >       24        8        9        9       15 </v>
   <v type="int" >       24        8        8        9       15 </v>
   <v type="int" >       24        2        8        8       15 </v>
   <v type="int" >       24        8        9       15       15 </v>
   <v type="int" >       24        2        8       15       15 </v>
   <v type="int" >       24       14       34       35       52 </v>
   <v type="int" >       24       14       21       34       52 </v>
   <v type="int" >       24        3       21       34       52 </v>
   <v type="int" >       24       13       14       20       35 </v>
   <v type="int" >       24       13       14       20       40 </v>
   <v type="int" >       24       11       13       14       40 </v>
   <v type="int" >       24       13       14       35       52 </v>
   <v type="int" >       24       13       14       21       52 </v>
   <v type="int" >       24       11       13       14       21 </v>
   <v type="int" >       24       20       40       41       56 </v>
   <v type="int" >       24       40       41       43       56 </v>
   <v type="int" >       24       29       40       43       56 </v>
   <v type="int" >       24       13       20       40       56 </v>
   <v type="int" >       24       11       13       40       56 </v>
   <v type="int" >       24       11       29       40       56 </v>
   <v type="int" >       24       41       42       43       47 </v>
   <v type="int" >       24       42       43       45       47 </v>
   <v type="int" >       24       18       42       43       45 </v>
   <v type="int" >       24       41       42       43       56 </v>
   <v type="int" >       24       29       42       43       56 </v>
   <v type="int" >       24       18       29       42       43 </v>
   <v type="int" >       24       45       46       47       57 </v>
   <v type="int" >       24       45       46       49       57 </v>
   <v type="int" >       24       24       45       49       57 </v>
   <v type="int" >       24       42       45       47       57 </v>
   <v type="int" >       24       18       42       45       57 </v>
   <v type="int" >       24       18       24       45       57 </v>
   <v type="int" >       24       46       46       49       57 </v>
   <v type="int" >       24       46       49       49       57 </v>
   <v type="int" >       24       24       49       49       57 </v>
   <v type="int" >       24       46       49       57       57 </v>
   <v type="int" >       24       24       49       57       57 </v>
   <v type="int" >       24       24       24       49       57 </v>
   <v type="int" >       24       42       46       47       49 </v>
   <v type="int" >       24       42       45       47       49 </v>
   <v type="int" >       24       18       42       45       49 </v>
   <v type="int" >       24       42       46       49       57 </v>
   <v type="int" >       24       24       42       49       57 </v>
   <v type="int" >       24       18       24       42       49 </v>
   <v type="int" >       24       41       45       47       56 </v>
   <v type="int" >       24       41       43       45       56 </v>
   <v type="int" >       24       29       43       45       56 </v>
   <v type="int" >       24       42       45       47       56 </v>
   <v type="int" >       24       18       42       45       56 </v>
   <v type="int" >       24       18       29       45       56 </v>
   <v type="int" >       24       13       20       41       43 </v>
   <v type="int" >       24       13       20       40       43 </v>
   <v type="int" >       24       11       13       40       43 </v>
   <v type="int" >       24       13       41       43       56 </v>
   <v type="int" >       24       13       29       43       56 </v>
   <v type="int" >       24       11       13       29       43 </v>
   <v type="int" >       24       20       35       40       52 </v>
   <v type="int" >       24       14       35       40       52 </v>
   <v type="int" >       24       14       21       40       52 </v>
   <v type="int" >       24       13       20       40       52 </v>
   <v type="int" >       24       11       13       40       52 </v>
   <v type="int" >       24       11       21       40       52 </v>
   <v type="int" >       24       14       14       21       35 </v>
   <v type="int" >       24       14       14       21       34 </v>
   <v type="int" >       24        3       14       21       34 </v>
   <v type="int" >       24       14       21       35       52 </v>
   <v type="int" >       24       14       21       21       52 </v>
   <v type="int" >       24        3       14       21       21 </v>
   <v type="int" >       24       10       14       34       39 </v>
   <v type="int" >       24       10       15       34       39 </v>
   <v type="int" >       24        7       15       34       39 </v>
   <v type="int" >       24       14       21       34       39 </v>
   <v type="int" >       24        3       21       34       39 </v>
   <v type="int" >       24        3        7       34       39 </v>
   <v type="int" >       48       10       10       15       32 </v>
   <v type="int" >       24        9       10       15       32 </v>
   <v type="int" >       48        9       10       15       15 </v>
   <v type="int" >       24       10       10       15       39 </v>
   <v type="int" >       24        7       10       15       39 </v>
   <v type="int" >       24        7       10       15       15 </v>
   <v type="int" >       24        9       10       32       32 </v>
   <v type="int" >       24        9        9       10       32 </v>
   <v type="int" >       24        9        9       10       15 </v>
   <v type="int" >       24        9       10       10       32 </v>
   <v type="int" >       24        9       10       10       15 </v>
   <v type="int" >       24       20       35       36       53 </v>
   <v type="int" >       24       13       20       35       36 </v>
   <v type="int" >       24       13       35       36       52 </v>
   <v type="int" >       24       19       20       25       53 </v>
   <v type="int" >       24       19       20       25       41 </v>
   <v type="int" >       24       20       25       41       56 </v>
   <v type="int" >       24       20       25       36       53 </v>
   <v type="int" >       24       13       20       25       36 </v>
   <v type="int" >       24       13       20       25       56 </v>
   <v type="int" >       24       19       41       42       57 </v>
   <v type="int" >       24       41       42       47       57 </v>
   <v type="int" >       24       41       42       42       47 </v>
   <v type="int" >       24       19       25       41       42 </v>
   <v type="int" >       24       25       41       42       56 </v>
   <v type="int" >       24       41       42       42       56 </v>
   <v type="int" >       72       46       47       47       57 </v>
   <v type="int" >       36       46       46       47       47 </v>
   <v type="int" >       24       42       47       47       57 </v>
   <v type="int" >       12       42       42       47       47 </v>
   <v type="int" >       48       46       46       46       47 </v>
   <v type="int" >       48       46       46       47       57 </v>
   <v type="int" >       72       46       47       57       57 </v>
   <v type="int" >       24       42       46       46       57 </v>
   <v type="int" >       48       42       46       47       57 </v>
   <v type="int" >       24       42       42       46       47 </v>
   <v type="int" >       24       42       46       46       47 </v>
   <v type="int" >       24       42       42       46       57 </v>
   <v type="int" >       24       19       25       47       57 </v>
   <v type="int" >       24       19       25       41       47 </v>
   <v type="int" >       24       25       41       47       56 </v>
   <v type="int" >       24       25       42       47       57 </v>
   <v type="int" >       24       25       42       42       47 </v>
   <v type="int" >       24       25       42       47       56 </v>
   <v type="int" >       24       19       36       41       53 </v>
   <v type="int" >       24       20       36       41       53 </v>
   <v type="int" >       24       13       20       36       41 </v>
   <v type="int" >       24       19       25       36       41 </v>
   <v type="int" >       24       25       36       41       56 </v>
   <v type="int" >       24       13       36       41       56 </v>
   <v type="int" >       24       13       20       20       53 </v>
   <v type="int" >       24       13       20       20       35 </v>
   <v type="int" >       24       13       20       35       52 </v>
   <v type="int" >       24       13       20       36       53 </v>
   <v type="int" >       24       13       13       20       36 </v>
   <v type="int" >       24       13       13       20       52 </v>
   <v type="int" >       24       11       20       35       40 </v>
   <v type="int" >       24       11       14       35       40 </v>
   <v type="int" >       24       11       14       21       35 </v>
   <v type="int" >       24       11       13       20       35 </v>
   <v type="int" >       24       11       13       35       52 </v>
   <v type="int" >       24       11       21       35       52 </v>
   <v type="int" >       24       14       31       38       40 </v>
   <v type="int" >       24       10       14       31       38 </v>
   <v type="int" >       24       10       14       38       39 </v>
   <v type="int" >       24       11       14       38       40 </v>
   <v type="int" >       24       11       14       21       38 </v>
   <v type="int" >       24       14       21       38       39 </v>
   <v type="int" >       48       10       16       31       31 </v>
   <v type="int" >       24       10       16       31       32 </v>
   <v type="int" >       48       10       10       31       32 </v>
   <v type="int" >       24       10       31       31       38 </v>
   <v type="int" >       24       10       31       38       39 </v>
   <v type="int" >       24       10       10       31       39 </v>
   <v type="int" >       24       16       16       31       32 </v>
   <v type="int" >       24       16       31       32       32 </v>
   <v type="int" >       24       10       31       32       32 </v>
   <v type="int" >       24       16       31       31       32 </v>
   <v type="int" >       24       10       31       31       32 </v>
   <v type="int" >       24       19       53       54       58 </v>
   <v type="int" >       24       19       25       53       58 </v>
   <v type="int" >       24       25       36       53       58 </v>
   <v type="int" >       24       18       19       24       54 </v>
   <v type="int" >       24       18       19       24       57 </v>
   <v type="int" >       24       18       19       42       57 </v>
   <v type="int" >       24       18       19       54       58 </v>
   <v type="int" >       24       18       19       25       58 </v>
   <v type="int" >       24       18       19       25       42 </v>
   <v type="int" >       24       45       46       49       49 </v>
   <v type="int" >       24       45       46       46       49 </v>
   <v type="int" >       24       45       46       46       47 </v>
   <v type="int" >       24       45       45       46       49 </v>
   <v type="int" >       24       45       45       46       47 </v>
   <v type="int" >       24       45       46       47       47 </v>
   <v type="int" >       24       18       24       46       49 </v>
   <v type="int" >       24       18       24       46       57 </v>
   <v type="int" >       24       18       42       46       57 </v>
   <v type="int" >       24       18       45       46       49 </v>
   <v type="int" >       24       18       45       46       47 </v>
   <v type="int" >       24       18       42       46       47 </v>
   <v type="int" >       24       24       54       57       58 </v>
   <v type="int" >       24       19       54       57       58 </v>
   <v type="int" >       24       19       25       57       58 </v>
   <v type="int" >       24       18       24       57       58 </v>
   <v type="int" >       24       18       42       57       58 </v>
   <v type="int" >       24       25       42       57       58 </v>
   <v type="int" >       24       19       19       25       54 </v>
   <v type="int" >       24       19       19       25       53 </v>
   <v type="int" >       24       19       25       36       53 </v>
   <v type="int" >       24       19       25       54       58 </v>
   <v type="int" >       24       19       25       25       58 </v>
   <v type="int" >       24       19       25       25       36 </v>
   <v type="int" >       24       19       41       53       56 </v>
   <v type="int" >       24       20       41       53       56 </v>
   <v type="int" >       24       13       20       53       56 </v>
   <v type="int" >       24       19       25       53       56 </v>
   <v type="int" >       24       25       36       53       56 </v>
   <v type="int" >       24       13       36       53       56 </v>
   <v type="int" >       24       20       29       41       43 </v>
   <v type="int" >       24       20       29       40       43 </v>
   <v type="int" >       24       11       20       29       40 </v>
   <v type="int" >       24       20       29       41       56 </v>
   <v type="int" >       24       13       20       29       56 </v>
   <v type="int" >       24       11       13       20       29 </v>
   <v type="int" >       24       17       40       43       44 </v>
   <v type="int" >       24       17       31       40       44 </v>
   <v type="int" >       24       31       38       40       44 </v>
   <v type="int" >       24       29       40       43       44 </v>
   <v type="int" >       24       11       29       40       44 </v>
   <v type="int" >       24       11       38       40       44 </v>
   <v type="int" >       48       17       17       30       31 </v>
   <v type="int" >       24       16       17       30       31 </v>
   <v type="int" >       48       16       17       31       31 </v>
   <v type="int" >       24       17       17       31       44 </v>
   <v type="int" >       24       17       31       38       44 </v>
   <v type="int" >       24       17       31       31       38 </v>
   <v type="int" >       24       16       17       30       30 </v>
   <v type="int" >       24       16       16       17       30 </v>
   <v type="int" >       24       16       16       17       31 </v>
   <v type="int" >       24       16       17       17       30 </v>
   <v type="int" >       24       16       17       17       31 </v>
   <v type="int" >       24       24       48       50       54 </v>
   <v type="int" >       24       18       24       50       54 </v>
   <v type="int" >       24       18       50       54       58 </v>
   <v type="int" >       24       23       23       28       49 </v>
   <v type="int" >       24       23       28       49       49 </v>
   <v type="int" >       24       28       45       49       49 </v>
   <v type="int" >       24       23       28       28       49 </v>
   <v type="int" >       24       28       28       45       49 </v>
   <v type="int" >       24       28       45       45       49 </v>
   <v type="int" >       24       23       48       49       50 </v>
   <v type="int" >       24       24       48       49       50 </v>
   <v type="int" >       24       18       24       49       50 </v>
   <v type="int" >       24       23       28       49       50 </v>
   <v type="int" >       24       28       45       49       50 </v>
   <v type="int" >       24       18       45       49       50 </v>
   <v type="int" >       24       18       24       24       48 </v>
   <v type="int" >       24       18       24       24       54 </v>
   <v type="int" >       24       18       24       54       58 </v>
   <v type="int" >       24       18       24       48       50 </v>
   <v type="int" >       24       18       18       24       50 </v>
   <v type="int" >       24       18       18       24       58 </v>
   <v type="int" >       24       24       42       54       57 </v>
   <v type="int" >       24       19       42       54       57 </v>
   <v type="int" >       24       19       25       42       54 </v>
   <v type="int" >       24       18       24       42       54 </v>
   <v type="int" >       24       18       42       54       58 </v>
   <v type="int" >       24       25       42       54       58 </v>
   <v type="int" >       24       19       42       47       57 </v>
   <v type="int" >       24       19       41       42       47 </v>
   <v type="int" >       24       19       41       42       56 </v>
   <v type="int" >       24       19       42       42       57 </v>
   <v type="int" >       24       19       25       42       42 </v>
   <v type="int" >       24       19       25       42       56 </v>
   <v type="int" >       24       18       41       45       47 </v>
   <v type="int" >       24       18       41       43       45 </v>
   <v type="int" >       24       18       29       41       43 </v>
   <v type="int" >       24       18       41       42       47 </v>
   <v type="int" >       24       18       41       42       56 </v>
   <v type="int" >       24       18       29       41       56 </v>
   <v type="int" >       24       28       43       45       50 </v>
   <v type="int" >       24       17       28       43       50 </v>
   <v type="int" >       24       17       43       44       50 </v>
   <v type="int" >       24       18       43       45       50 </v>
   <v type="int" >       24       18       29       43       50 </v>
   <v type="int" >       24       29       43       44       50 </v>
   <v type="int" >       48       17       22       28       28 </v>
   <v type="int" >       24       17       22       28       30 </v>
   <v type="int" >       48       17       17       28       30 </v>
   <v type="int" >       24       17       28       28       50 </v>
   <v type="int" >       24       17       28       44       50 </v>
   <v type="int" >       24       17       17       28       44 </v>
   <v type="int" >       24       22       22       28       30 </v>
   <v type="int" >       24       22       28       30       30 </v>
   <v type="int" >       24       17       28       30       30 </v>
   <v type="int" >       24       22       28       28       30 </v>
   <v type="int" >       24       17       28       28       30 </v>
   <v type="int" >       24       22       23       27       27 </v>
   <v type="int" >       24       22       23       23       27 </v>
   <v type="int" >       24       22       23       23       28 </v>
   <v type="int" >       24       22       22       23       27 </v>
   <v type="int" >       24       22       22       23       28 </v>
   <v type="int" >       48       22       23       28       28 </v>
   <v type="int" >       48       23       23       27       28 </v>
   <v type="int" >       24       23       23       28       48 </v>
   <v type="int" >       24       23       28       48       50 </v>
   <v type="int" >       24       22       23       27       28 </v>
   <v type="int" >       24       23       28       28       50 </v>
   <v type="int" >       24       23       45       48       49 </v>
   <v type="int" >       24       24       45       48       49 </v>
   <v type="int" >       24       18       24       45       48 </v>
   <v type="int" >       24       23       28       45       48 </v>
   <v type="int" >       24       28       45       48       50 </v>
   <v type="int" >       24       18       45       48       50 </v>
   <v type="int" >       24       24       46       47       49 </v>
   <v type="int" >       24       24       46       47       57 </v>
   <v type="int" >       24       24       42       47       57 </v>
   <v type="int" >       24       24       45       47       49 </v>
   <v type="int" >       24       18       24       45       47 </v>
   <v type="int" >       24       18       24       42       47 </v>
   <v type="int" >       36       46       46       57       57 </v>
   <v type="int" >       24       42       47       57       57 </v>
   <v type="int" >       12       42       42       57       57 </v>
   <v type="int" >       24       22       27       27       27 </v>
   <v type="int" >       24       22       22       27       27 </v>
   <v type="int" >       24       22       22       22       27 </v>
   <v type="int" >       24       23       27       27       28 </v>
   <v type="int" >       24       23       27       28       28 </v>
   <v type="int" >       24       22       27       27       28 </v>
   <v type="int" >       24       22       22       27       28 </v>
   <v type="int" >       24       22       27       28       28 </v>
   <v type="int" >       24       23       23       45       49 </v>
   <v type="int" >       24       23       45       49       49 </v>
   <v type="int" >       24       23       45       45       49 </v>
   <v type="int" >       24       23       23       28       45 </v>
   <v type="int" >       24       23       28       28       45 </v>
   <v type="int" >       24       23       28       45       45 </v>
   <v type="int" >       24       46       47       49       49 </v>
   <v type="int" >       24       46       46       47       49 </v>
   <v type="int" >       24       46       47       47       49 </v>
   <v type="int" >       24       45       47       49       49 </v>
   <v type="int" >       24       45       45       47       49 </v>
   <v type="int" >       24       45       47       47       49 </v>
   <v type="int" >       48       46       46       46       57 </v>
   <v type="int" >       24       24       46       46       49 </v>
   <v type="int" >       24       24       46       49       49 </v>
   <v type="int" >       24       24       24       46       49 </v>
   <v type="int" >       24       24       46       46       57 </v>
   <v type="int" >       24       24       46       57       57 </v>
   <v type="int" >       24       24       24       46       57 </v>
   <v type="int" >       24       23       48       49       49 </v>
   <v type="int" >       24       23       23       48       49 </v>
   <v type="int" >       24       23       48       48       49 </v>
   <v type="int" >       24       24       48       49       49 </v>
   <v type="int" >       24       24       24       48       49 </v>
   <v type="int" >       24       24       48       48       49 </v>
   <v type="int" >       72       23       23       23       27 </v>
   <v type="int" >       60       23       23       27       27 </v>
   <v type="int" >       24       23       23       23       48 </v>
   <v type="int" >       12       23       23       48       48 </v>
   <v type="int" >       48       23       27       27       27 </v>
   <v type="int" >       24       24       48       54       58 </v>
   <v type="int" >       24       18       24       48       58 </v>
   <v type="int" >       24       18       48       50       58 </v>
   <v type="int" >       24       19       24       25       54 </v>
   <v type="int" >       24       19       24       25       57 </v>
   <v type="int" >       24       24       25       42       57 </v>
   <v type="int" >       24       24       25       54       58 </v>
   <v type="int" >       24       18       24       25       58 </v>
   <v type="int" >       24       18       24       25       42 </v>
   <v type="int" >       24       19       41       56       57 </v>
   <v type="int" >       24       41       47       56       57 </v>
   <v type="int" >       24       42       47       56       57 </v>
   <v type="int" >       24       19       25       56       57 </v>
   <v type="int" >       24       25       42       56       57 </v>
   <v type="int" >       24       42       42       56       57 </v>
   <v type="int" >       24       29       41       43       47 </v>
   <v type="int" >       24       29       43       45       47 </v>
   <v type="int" >       24       18       29       45       47 </v>
   <v type="int" >       24       29       41       47       56 </v>
   <v type="int" >       24       29       42       47       56 </v>
   <v type="int" >       24       18       29       42       47 </v>
   <v type="int" >       24       17       43       44       45 </v>
   <v type="int" >       24       17       28       44       45 </v>
   <v type="int" >       24       28       44       45       50 </v>
   <v type="int" >       24       29       43       44       45 </v>
   <v type="int" >       24       18       29       44       45 </v>
   <v type="int" >       24       18       44       45       50 </v>
   <v type="int" >       24       17       22       30       30 </v>
   <v type="int" >       24       17       22       22       30 </v>
   <v type="int" >       24       17       22       22       28 </v>
   <v type="int" >       24       17       17       22       30 </v>
   <v type="int" >       24       17       17       22       28 </v>
   <v type="int" >       24       19       36       53       54 </v>
   <v type="int" >       24       19       25       36       54 </v>
   <v type="int" >       24       25       36       54       58 </v>
   <v type="int" >       24       13       19       20       53 </v>
   <v type="int" >       24       13       19       20       41 </v>
   <v type="int" >       24       13       19       41       56 </v>
   <v type="int" >       24       13       19       36       53 </v>
   <v type="int" >       24       13       19       25       36 </v>
   <v type="int" >       24       13       19       25       56 </v>
   <v type="int" >       24       11       20       40       41 </v>
   <v type="int" >       24       11       40       41       43 </v>
   <v type="int" >       24       11       29       41       43 </v>
   <v type="int" >       24       11       13       20       41 </v>
   <v type="int" >       24       11       13       41       56 </v>
   <v type="int" >       24       11       29       41       56 </v>
   <v type="int" >       24       31       38       40       43 </v>
   <v type="int" >       24       17       31       38       43 </v>
   <v type="int" >       24       17       38       43       44 </v>
   <v type="int" >       24       11       38       40       43 </v>
   <v type="int" >       24       11       29       38       43 </v>
   <v type="int" >       24       29       38       43       44 </v>
   <v type="int" >       24       16       16       30       31 </v>
   <v type="int" >       24       16       30       30       31 </v>
   <v type="int" >       24       17       30       30       31 </v>
   <v type="int" >       24       16       30       31       31 </v>
   <v type="int" >       24       17       30       31       31 </v>
   <v type="int" >       24       20       35       52       53 </v>
   <v type="int" >       24       13       20       52       53 </v>
   <v type="int" >       24       13       36       52       53 </v>
   <v type="int" >       24       14       20       21       35 </v>
   <v type="int" >       24       14       20       21       40 </v>
   <v type="int" >       24       11       20       21       40 </v>
   <v type="int" >       24       20       21       35       52 </v>
   <v type="int" >       24       13       20       21       52 </v>
   <v type="int" >       24       11       13       20       21 </v>
   <v type="int" >       24       10       14       39       40 </v>
   <v type="int" >       24       10       31       39       40 </v>
   <v type="int" >       24       31       38       39       40 </v>
   <v type="int" >       24       14       21       39       40 </v>
   <v type="int" >       24       11       21       39       40 </v>
   <v type="int" >       24       11       38       39       40 </v>
   <v type="int" >       24       10       16       32       32 </v>
   <v type="int" >       24       10       16       16       32 </v>
   <v type="int" >       24       10       16       16       31 </v>
   <v type="int" >       24       10       10       16       32 </v>
   <v type="int" >       24       10       10       16       31 </v>
   <v type="int" >       24        3       14       34       35 </v>
   <v type="int" >       24        3       14       21       35 </v>
   <v type="int" >       24        3       21       35       52 </v>
   <v type="int" >       24        7       14       15       34 </v>
   <v type="int" >       24        7       10       14       15 </v>
   <v type="int" >       24        7       10       14       39 </v>
   <v type="int" >       24        3        7       14       34 </v>
   <v type="int" >       24        3        7       14       21 </v>
   <v type="int" >       24        7       14       21       39 </v>
   <v type="int" >       24        9        9       15       32 </v>
   <v type="int" >       24        9       15       32       32 </v>
   <v type="int" >       24       10       15       32       32 </v>
   <v type="int" >       24        9       15       15       32 </v>
   <v type="int" >       24       10       15       15       32 </v>
   <v type="int" >       24        2       15       33       34 </v>
   <v type="int" >       24        7       15       33       34 </v>
   <v type="int" >       24        3        7       33       34 </v>
   <v type="int" >       24        2        8        8        9 </v>
   <v type="int" >       24        2        8        9        9 </v>
   <v type="int" >       24        2        9        9       15 </v>
   <v type="int" >       24        2        2        8        9 </v>
   <v type="int" >       24        2        2        9       15 </v>
   <v type="int" >       36        1        1        8        8 </v>
   <v type="int" >       48        1        8        8        8 </v>
   <v type="int" >       24        2        8        8        8 </v>
   <v type="int" >       24        1        1        1        8 </v>
   <v type="int" >       24        3        7       33       51 </v>
   <v type="int" >       24        3        6        7       21 </v>
   <v type="int" >       24        6        7       21       39 </v>
   <v type="int" >       24        3        6        7       51 </v>
   <v type="int" >       24       11       21       39       55 </v>
   <v type="int" >       24       11       38       39       55 </v>
   <v type="int" >       24        6       21       39       55 </v>
   <v type="int" >       24       11       29       37       38 </v>
   <v type="int" >       24       29       37       38       44 </v>
   <v type="int" >       24       11       37       38       55 </v>
   <v type="int" >       24       18       29       44       58 </v>
   <v type="int" >       24       18       44       50       58 </v>
   <v type="int" >       24       29       37       44       58 </v>
   <v type="int" >       24       24       24       48       54 </v>
   <v type="int" >       24       24       48       48       54 </v>
   <v type="int" >       24       24       48       54       54 </v>
   <v type="int" >       24       18       29       37       50 </v>
   <v type="int" >       24       29       37       44       50 </v>
   <v type="int" >       24       18       37       50       58 </v>
   <v type="int" >       24       11       29       44       55 </v>
   <v type="int" >       24       11       38       44       55 </v>
   <v type="int" >       24       29       37       44       55 </v>
   <v type="int" >       24        6       11       21       38 </v>
   <v type="int" >       24        6       21       38       39 </v>
   <v type="int" >       24        6       11       38       55 </v>
   <v type="int" >       24        3       21       39       51 </v>
   <v type="int" >       24        3        7       39       51 </v>
   <v type="int" >       24        6       21       39       51 </v>
   <v type="int" >       24        3        3        7        7 </v>
   <v type="int" >       24        3        7        7       33 </v>
   <v type="int" >       24        3        3        7       51 </v>
   <v type="int" >       24        2       15       15       34 </v>
   <v type="int" >       24        2        2       15       34 </v>
   <v type="int" >       24        2       15       34       34 </v>
   <v type="int" >       24        3        4       21       52 </v>
   <v type="int" >       24        3        4        6       21 </v>
   <v type="int" >       24        3        4        6       51 </v>
   <v type="int" >       24       13       21       26       52 </v>
   <v type="int" >       24       11       13       21       26 </v>
   <v type="int" >       24       11       21       26       55 </v>
   <v type="int" >       24        4       21       26       52 </v>
   <v type="int" >       24        4        6       21       26 </v>
   <v type="int" >       24        6       21       26       55 </v>
   <v type="int" >       24       11       12       13       56 </v>
   <v type="int" >       24       11       12       29       56 </v>
   <v type="int" >       24       11       12       29       37 </v>
   <v type="int" >       24       11       12       13       26 </v>
   <v type="int" >       24       11       12       26       55 </v>
   <v type="int" >       24       11       12       37       55 </v>
   <v type="int" >       24       25       29       42       56 </v>
   <v type="int" >       24       18       25       29       42 </v>
   <v type="int" >       24       18       25       29       58 </v>
   <v type="int" >       24       12       25       29       56 </v>
   <v type="int" >       24       12       25       29       37 </v>
   <v type="int" >       24       25       29       37       58 </v>
   <v type="int" >       24       19       24       57       57 </v>
   <v type="int" >       24       19       24       24       57 </v>
   <v type="int" >       24       19       24       24       54 </v>
   <v type="int" >       24       19       19       24       57 </v>
   <v type="int" >       24       19       19       24       54 </v>
   <v type="int" >       24       19       24       54       54 </v>
   <v type="int" >       24       12       18       42       56 </v>
   <v type="int" >       24       12       18       29       56 </v>
   <v type="int" >       24       12       18       29       37 </v>
   <v type="int" >       24       12       18       25       42 </v>
   <v type="int" >       24       12       18       25       58 </v>
   <v type="int" >       24       12       18       37       58 </v>
   <v type="int" >       24       13       26       29       56 </v>
   <v type="int" >       24       11       13       26       29 </v>
   <v type="int" >       24       11       26       29       55 </v>
   <v type="int" >       24       12       26       29       56 </v>
   <v type="int" >       24       12       26       29       37 </v>
   <v type="int" >       24       26       29       37       55 </v>
   <v type="int" >       24        4       11       13       52 </v>
   <v type="int" >       24        4       11       21       52 </v>
   <v type="int" >       24        4        6       11       21 </v>
   <v type="int" >       24        4       11       13       26 </v>
   <v type="int" >       24        4       11       26       55 </v>
   <v type="int" >       24        4        6       11       55 </v>
   <v type="int" >       24        6       21       21       52 </v>
   <v type="int" >       48        3        6       21       21 </v>
   <v type="int" >       48        3        6       21       51 </v>
   <v type="int" >       24        4        6       21       52 </v>
   <v type="int" >       24        4        6        6       21 </v>
   <v type="int" >       24        6        6       21       51 </v>
   <v type="int" >       24        3       21       21       39 </v>
   <v type="int" >       24        3        7       21       39 </v>
   <v type="int" >       24        3        3        7       21 </v>
   <v type="int" >       24        3        3       21       51 </v>
   <v type="int" >       24       10       10       14       15 </v>
   <v type="int" >       24       10       14       15       15 </v>
   <v type="int" >       24       14       15       15       34 </v>
   <v type="int" >       24       10       14       14       15 </v>
   <v type="int" >       24       14       14       15       34 </v>
   <v type="int" >       24       14       15       34       34 </v>
   <v type="int" >       24       13       36       52       60 </v>
   <v type="int" >       24       13       26       52       60 </v>
   <v type="int" >       24        4       26       52       60 </v>
   <v type="int" >       24       12       13       25       36 </v>
   <v type="int" >       24       12       13       25       56 </v>
   <v type="int" >       24       12       12       13       56 </v>
   <v type="int" >       24       12       13       36       60 </v>
   <v type="int" >       24       12       13       26       60 </v>
   <v type="int" >       24       12       12       13       26 </v>
   <v type="int" >       24       25       42       56       56 </v>
   <v type="int" >       12       42       42       56       56 </v>
   <v type="int" >       24       12       25       56       56 </v>
   <v type="int" >       12       12       12       56       56 </v>
   <v type="int" >       24       41       47       47       57 </v>
   <v type="int" >       24       41       47       57       57 </v>
   <v type="int" >       24       19       41       57       57 </v>
   <v type="int" >       24       41       41       47       57 </v>
   <v type="int" >       24       19       41       41       57 </v>
   <v type="int" >       24       19       19       41       57 </v>
   <v type="int" >       24       12       25       42       42 </v>
   <v type="int" >       48       12       25       42       56 </v>
   <v type="int" >       24       12       12       42       56 </v>
   <v type="int" >       24       12       42       42       56 </v>
   <v type="int" >       24       12       12       25       42 </v>
   <v type="int" >       24       25       36       56       60 </v>
   <v type="int" >       24       13       36       56       60 </v>
   <v type="int" >       24       13       26       56       60 </v>
   <v type="int" >       24       12       25       56       60 </v>
   <v type="int" >       24       12       12       56       60 </v>
   <v type="int" >       24       12       26       56       60 </v>
   <v type="int" >       24       13       13       26       36 </v>
   <v type="int" >       24       13       13       26       52 </v>
   <v type="int" >       24        4       13       26       52 </v>
   <v type="int" >       24       13       26       36       60 </v>
   <v type="int" >       24       13       26       26       60 </v>
   <v type="int" >       24        4       13       26       26 </v>
   <v type="int" >       24       11       13       52       55 </v>
   <v type="int" >       24       11       21       52       55 </v>
   <v type="int" >       24        6       21       52       55 </v>
   <v type="int" >       24       13       26       52       55 </v>
   <v type="int" >       24        4       26       52       55 </v>
   <v type="int" >       24        4        6       52       55 </v>
   <v type="int" >       24       11       11       21       38 </v>
   <v type="int" >       24       11       21       38       39 </v>
   <v type="int" >       24       11       21       21       39 </v>
   <v type="int" >       24       11       11       21       55 </v>
   <v type="int" >       24        6       11       21       55 </v>
   <v type="int" >       24        6       11       21       21 </v>
   <v type="int" >       24       10       31       31       40 </v>
   <v type="int" >       24       10       10       31       40 </v>
   <v type="int" >       24       10       10       14       40 </v>
   <v type="int" >       24       10       31       40       40 </v>
   <v type="int" >       24       10       14       40       40 </v>
   <v type="int" >       24       10       14       14       40 </v>
   <v type="int" >       24       25       36       37       58 </v>
   <v type="int" >       24       12       25       36       37 </v>
   <v type="int" >       24       12       36       37       60 </v>
   <v type="int" >       24       43       45       45       47 </v>
   <v type="int" >       24       43       45       47       47 </v>
   <v type="int" >       24       41       43       47       47 </v>
   <v type="int" >       24       43       43       45       47 </v>
   <v type="int" >       24       41       43       43       47 </v>
   <v type="int" >       24       41       41       43       47 </v>
   <v type="int" >       24       18       37       42       58 </v>
   <v type="int" >       24       25       37       42       58 </v>
   <v type="int" >       24       12       25       37       42 </v>
   <v type="int" >       24       18       29       37       42 </v>
   <v type="int" >       24       29       37       42       56 </v>
   <v type="int" >       24       12       37       42       56 </v>
   <v type="int" >       24       12       25       25       58 </v>
   <v type="int" >       24       12       25       25       36 </v>
   <v type="int" >       24       12       25       36       60 </v>
   <v type="int" >       24       12       25       37       58 </v>
   <v type="int" >       24       12       12       25       37 </v>
   <v type="int" >       24       12       12       25       60 </v>
   <v type="int" >       24       12       25       36       56 </v>
   <v type="int" >       24       12       13       36       56 </v>
   <v type="int" >       24       12       13       26       36 </v>
   <v type="int" >       24       12       12       25       36 </v>
   <v type="int" >       24       12       12       36       60 </v>
   <v type="int" >       24       12       26       36       60 </v>
   <v type="int" >       24       13       29       37       56 </v>
   <v type="int" >       24       11       13       29       37 </v>
   <v type="int" >       24       11       13       37       55 </v>
   <v type="int" >       24       12       13       37       56 </v>
   <v type="int" >       24       12       13       26       37 </v>
   <v type="int" >       24       13       26       37       55 </v>
   <v type="int" >       24       11       29       29       44 </v>
   <v type="int" >       24       11       29       38       44 </v>
   <v type="int" >       24       11       11       29       38 </v>
   <v type="int" >       24       11       29       29       37 </v>
   <v type="int" >       24       11       29       37       55 </v>
   <v type="int" >       24       11       11       29       55 </v>
   <v type="int" >       24       17       17       31       43 </v>
   <v type="int" >       24       17       31       31       43 </v>
   <v type="int" >       24       31       31       40       43 </v>
   <v type="int" >       24       17       31       43       43 </v>
   <v type="int" >       24       31       40       43       43 </v>
   <v type="int" >       24       31       40       40       43 </v>
   <v type="int" >       24       17       28       28       45 </v>
   <v type="int" >       24       17       28       45       45 </v>
   <v type="int" >       24       17       43       45       45 </v>
   <v type="int" >       24       17       17       28       45 </v>
   <v type="int" >       24       17       17       43       45 </v>
   <v type="int" >       24       17       43       43       45 </v>
   <v type="int" >       24       18       18       29       50 </v>
   <v type="int" >       24       18       18       29       58 </v>
   <v type="int" >       24       18       29       37       58 </v>
   <v type="int" >       24       18       29       44       50 </v>
   <v type="int" >       24       18       29       29       44 </v>
   <v type="int" >       24       18       29       29       37 </v>
   <v type="int" >       24       18       42       56       58 </v>
   <v type="int" >       24       25       42       56       58 </v>
   <v type="int" >       24       12       25       56       58 </v>
   <v type="int" >       24       18       29       56       58 </v>
   <v type="int" >       24       29       37       56       58 </v>
   <v type="int" >       24       12       37       56       58 </v>
   <v type="int" >       12       25       25       42       42 </v>
   <v type="int" >       24       25       25       42       56 </v>
   <v type="int" >       24       12       25       25       56 </v>
   <v type="int" >       12       12       12       25       25 </v>
   <v type="int" >       24       22       22       22       30 </v>
   <v type="int" >       24       22       22       30       30 </v>
   <v type="int" >       24       22       30       30       30 </v>
   <v type="int" >       24       28       28       43       45 </v>
   <v type="int" >       24       28       43       45       45 </v>
   <v type="int" >       24       28       43       43       45 </v>
   <v type="int" >       24       17       28       28       43 </v>
   <v type="int" >       24       17       17       28       43 </v>
   <v type="int" >       24       17       28       43       43 </v>
   <v type="int" >       24       41       45       45       47 </v>
   <v type="int" >       24       41       45       47       47 </v>
   <v type="int" >       24       41       41       45       47 </v>
   <v type="int" >       24       41       43       45       45 </v>
   <v type="int" >       24       41       43       43       45 </v>
   <v type="int" >       24       41       41       43       45 </v>
   <v type="int" >       24       19       47       47       57 </v>
   <v type="int" >       24       19       47       57       57 </v>
   <v type="int" >       24       19       19       47       57 </v>
   <v type="int" >       24       19       41       47       47 </v>
   <v type="int" >       24       19       41       41       47 </v>
   <v type="int" >       24       19       19       41       47 </v>
   <v type="int" >       24       24       54       57       57 </v>
   <v type="int" >       24       24       24       54       57 </v>
   <v type="int" >       24       24       54       54       57 </v>
   <v type="int" >       24       19       54       57       57 </v>
   <v type="int" >       24       19       19       54       57 </v>
   <v type="int" >       24       19       54       54       57 </v>
   <v type="int" >       24       24       24       24       48 </v>
   <v type="int" >       12       24       24       48       48 </v>
   <v type="int" >       24       24       24       24       54 </v>
   <v type="int" >       12       24       24       54       54 </v>
   <v type="int" >       48       23       23       23       49 </v>
   <v type="int" >       48       23       23       49       49 </v>
   <v type="int" >       48       23       49       49       49 </v>
   <v type="int" >       24       25       36       58       60 </v>
   <v type="int" >       24       12       25       58       60 </v>
   <v type="int" >       24       12       37       58       60 </v>
   <v type="int" >       24       13       25       26       36 </v>
   <v type="int" >       24       13       25       26       56 </v>
   <v type="int" >       24       12       25       26       56 </v>
   <v type="int" >       24       25       26       36       60 </v>
   <v type="int" >       24       12       25       26       60 </v>
   <v type="int" >       24       12       12       25       26 </v>
   <v type="int" >       24       11       13       55       56 </v>
   <v type="int" >       24       11       29       55       56 </v>
   <v type="int" >       24       29       37       55       56 </v>
   <v type="int" >       24       13       26       55       56 </v>
   <v type="int" >       24       12       26       55       56 </v>
   <v type="int" >       24       12       37       55       56 </v>
   <v type="int" >       24       17       31       31       40 </v>
   <v type="int" >       24       17       17       31       40 </v>
   <v type="int" >       24       17       17       40       43 </v>
   <v type="int" >       24       17       31       40       40 </v>
   <v type="int" >       24       17       40       40       43 </v>
   <v type="int" >       24       17       40       43       43 </v>
   <v type="int" >       24        4       13       36       52 </v>
   <v type="int" >       24        4       13       26       36 </v>
   <v type="int" >       24        4       26       36       60 </v>
   <v type="int" >       24        6       13       21       52 </v>
   <v type="int" >       24        6       11       13       21 </v>
   <v type="int" >       24        6       11       13       55 </v>
   <v type="int" >       24        4        6       13       52 </v>
   <v type="int" >       24        4        6       13       26 </v>
   <v type="int" >       24        6       13       26       55 </v>
   <v type="int" >       24       10       10       14       31 </v>
   <v type="int" >       24       10       14       31       31 </v>
   <v type="int" >       24       14       31       31       40 </v>
   <v type="int" >       24       10       14       14       31 </v>
   <v type="int" >       24       14       14       31       40 </v>
   <v type="int" >       24       14       31       40       40 </v>
   <v type="int" >       24        3       21       51       52 </v>
   <v type="int" >       24        6       21       51       52 </v>
   <v type="int" >       24        4        6       51       52 </v>
   <v type="int" >       24       10       15       15       34 </v>
   <v type="int" >       24       10       10       15       34 </v>
   <v type="int" >       24       10       10       14       34 </v>
   <v type="int" >       24       10       15       34       34 </v>
   <v type="int" >       24       10       14       34       34 </v>
   <v type="int" >       24       10       14       14       34 </v>
   <v type="int" >       12        2        2       15       15 </v>
   <v type="int" >       24        2       15       15       15 </v>
   <v type="int" >       24       15       15       15       34 </v>
   <v type="int" >       12       15       15       34       34 </v>
   <v type="int" >       24        8        8        8        9 </v>
   <v type="int" >       24        8        8        9        9 </v>
   <v type="int" >       24        8        9        9        9 </v>
   <v type="int" >       24        4        6       51       59 </v>
   <v type="int" >       24        4        5        6       26 </v>
   <v type="int" >       24        5        6       26       55 </v>
   <v type="int" >       24        4        5        6       59 </v>
   <v type="int" >       24       12       26       55       60 </v>
   <v type="int" >       24       12       37       55       60 </v>
   <v type="int" >       24        5       26       55       60 </v>
   <v type="int" >       24       19       19       53       54 </v>
   <v type="int" >       24       19       53       54       54 </v>
   <v type="int" >       24       19       53       53       54 </v>
   <v type="int" >       24        5       12       26       37 </v>
   <v type="int" >       24        5       26       37       55 </v>
   <v type="int" >       24        5       12       37       60 </v>
   <v type="int" >       24        4       26       55       59 </v>
   <v type="int" >       24        4        6       55       59 </v>
   <v type="int" >       24        5       26       55       59 </v>
   <v type="int" >       24        4        4        6        6 </v>
   <v type="int" >       24        4        6        6       51 </v>
   <v type="int" >       24        4        4        6       59 </v>
   <v type="int" >       24       14       14       34       35 </v>
   <v type="int" >       24       14       34       34       35 </v>
   <v type="int" >       24       14       34       35       35 </v>
   <v type="int" >       24        4        5       26       60 </v>
   <v type="int" >       24        4        5        5       26 </v>
   <v type="int" >       24        4        5        5       59 </v>
   <v type="int" >       24       12       26       26       60 </v>
   <v type="int" >       12       12       12       26       26 </v>
   <v type="int" >       48        5       26       26       60 </v>
   <v type="int" >       12        5        5       26       26 </v>
   <v type="int" >       24       19       20       41       41 </v>
   <v type="int" >       24       19       19       20       41 </v>
   <v type="int" >       24       19       19       20       53 </v>
   <v type="int" >       24       19       20       20       41 </v>
   <v type="int" >       24       19       20       20       53 </v>
   <v type="int" >       24       19       20       53       53 </v>
   <v type="int" >       24        5       12       12       60 </v>
   <v type="int" >       72        5       12       26       60 </v>
   <v type="int" >       24        5        5       12       26 </v>
   <v type="int" >       24        5       12       12       26 </v>
   <v type="int" >       24        5        5       12       60 </v>
   <v type="int" >       48        4        5       26       26 </v>
   <v type="int" >       48        4        5       26       59 </v>
   <v type="int" >       24        5        5       26       60 </v>
   <v type="int" >       24        5        5        5       26 </v>
   <v type="int" >       24        5        5       26       59 </v>
   <v type="int" >       24        4       26       26       55 </v>
   <v type="int" >       24        4        6       26       55 </v>
   <v type="int" >       24        4        4        6       26 </v>
   <v type="int" >       24        4        4       26       59 </v>
   <v type="int" >       24       14       20       40       40 </v>
   <v type="int" >       24       14       14       20       40 </v>
   <v type="int" >       24       14       14       20       35 </v>
   <v type="int" >       24       14       20       20       40 </v>
   <v type="int" >       24       14       20       20       35 </v>
   <v type="int" >       24       14       20       35       35 </v>
   <v type="int" >       24       40       41       43       43 </v>
   <v type="int" >       24       40       41       41       43 </v>
   <v type="int" >       24       20       40       41       41 </v>
   <v type="int" >       24       40       40       41       43 </v>
   <v type="int" >       24       20       40       40       41 </v>
   <v type="int" >       24       20       20       40       41 </v>
   <v type="int" >       24       12       12       26       37 </v>
   <v type="int" >       24       12       12       26       60 </v>
   <v type="int" >       24       12       26       37       55 </v>
   <v type="int" >       24       12       26       26       55 </v>
   <v type="int" >       24        5       12       26       26 </v>
   <v type="int" >       12       12       12       60       60 </v>
   <v type="int" >       24       12       26       60       60 </v>
   <v type="int" >       24        5       26       60       60 </v>
   <v type="int" >       12        5        5       60       60 </v>
   <v type="int" >       24       16       30       30       30 </v>
   <v type="int" >       24       16       16       30       30 </v>
   <v type="int" >       24       16       16       16       30 </v>
   <v type="int" >       24       20       41       43       43 </v>
   <v type="int" >       24       20       41       41       43 </v>
   <v type="int" >       24       20       20       41       43 </v>
   <v type="int" >       24       20       40       43       43 </v>
   <v type="int" >       24       20       40       40       43 </v>
   <v type="int" >       24       20       20       40       43 </v>
   <v type="int" >       24       19       41       41       53 </v>
   <v type="int" >       24       19       19       41       53 </v>
   <v type="int" >       24       19       41       53       53 </v>
   <v type="int" >       24       20       41       41       53 </v>
   <v type="int" >       24       20       20       41       53 </v>
   <v type="int" >       24       20       41       53       53 </v>
   <v type="int" >       24       19       19       19       54 </v>
   <v type="int" >       12       19       19       54       54 </v>
   <v type="int" >       24       19       19       19       53 </v>
   <v type="int" >       12       19       19       53       53 </v>
   <v type="int" >       48       46       49       49       49 </v>
   <v type="int" >       48       46       46       49       49 </v>
   <v type="int" >       48       46       46       46       49 </v>
   <v type="int" >       24        4       26       59       60 </v>
   <v type="int" >       24        5       26       59       60 </v>
   <v type="int" >       24        5        5       59       60 </v>
   <v type="int" >       24       14       14       35       40 </v>
   <v type="int" >       24       14       35       40       40 </v>
   <v type="int" >       24       20       35       40       40 </v>
   <v type="int" >       24       14       35       35       40 </v>
   <v type="int" >       24       20       35       35       40 </v>
   <v type="int" >       24       20       20       35       40 </v>
   <v type="int" >       12       14       14       34       34 </v>
   <v type="int" >       24       14       14       14       34 </v>
   <v type="int" >       24       14       14       14       35 </v>
   <v type="int" >       12       14       14       35       35 </v>
   <v type="int" >       24        9        9        9       32 </v>
   <v type="int" >       24        9        9       32       32 </v>
   <v type="int" >       24        9       32       32       32 </v>
   <v type="int" >       12        5        5       59       59 </v>
   <v type="int" >       24       20       20       35       53 </v>
   <v type="int" >       24       20       35       53       53 </v>
   <v type="int" >       24       20       35       35       53 </v>
   <v type="int" >       12        5        5        5        5 </v>
   <v type="int" >       24        5        5        5       59 </v>
   <v type="int" >       24       16       16       16       32 </v>
   <v type="int" >       24       16       16       32       32 </v>
   <v type="int" >       24       16       32       32       32 </v>
   <v type="int" >       24       20       20       20       53 </v>
   <v type="int" >       12       20       20       53       53 </v>
   <v type="int" >       24       20       20       20       35 </v>
   <v type="int" >       12       20       20       35       35 </v>
   <v type="int" >       72       46       46       46       46 </v>
   <v type="int" >       12        1        1        1        1 </v>
   <v type="int" >       36       27       27       27       27 </v>
  </varray>
  <i name="volumeweight">      0.00004069 </i>
 </kpoints>
 <parameters>
  <separator name="general" >
   <i type="string" name="SYSTEM">unknown system</i>
   <i type="logical" name="LCOMPAT"> F  </i>
  </separator>
  <separator name="electronic" >
   <i type="string" name="PREC">accura</i>
   <i name="ENMAX">    520.00000000</i>
   <i name="ENAUG">    322.06900000</i>
   <i name="EDIFF">      0.00020000</i>
   <i type="int" name="IALGO">    68</i>
   <i type="int" name="IWAVPR">    11</i>
   <i type="int" name="NBANDS">    12</i>
   <i name="NELECT">      8.00000000</i>
   <i type="int" name="TURBO">     0</i>
   <i type="int" name="IRESTART">     0</i>
   <i type="int" name="NREBOOT">     0</i>
   <i type="int" name="NMIN">     0</i>
   <i name="EREF">      0.00000000</i>
   <separator name="electronic smearing" >
    <i type="int" name="ISMEAR">    -5</i>
    <i name="SIGMA">      0.20000000</i>
    <i name="KSPACING">      0.50000000</i>
    <i type="logical" name="KGAMMA"> T  </i>
   </separator>
   <separator name="electronic projectors" >
    <i type="logical" name="LREAL"> F  </i>
    <v name="ROPT">      0.00000000</v>
    <i type="int" name="LMAXPAW">  -100</i>
    <i type="int" name="LMAXMIX">     2</i>
    <i type="logical" name="NLSPLINE"> F  </i>
   </separator>
   <separator name="electronic startup" >
    <i type="int" name="ISTART">     0</i>
    <i type="int" name="ICHARG">     1</i>
    <i type="int" name="INIWAV">     1</i>
   </separator>
   <separator name="electronic spin" >
    <i type="int" name="ISPIN">     2</i>
    <i type="logical" name="LNONCOLLINEAR"> F  </i>
    <v name="MAGMOM">      0.60000000      0.60000000</v>
    <i name="NUPDOWN">     -1.00000000</i>
    <i type="logical" name="LSORBIT"> F  </i>
    <v name="SAXIS">      0.00000000      0.00000000      1.00000000</v>
    <i type="logical" name="LSPIRAL"> F  </i>
    <v name="QSPIRAL">      0.00000000      0.00000000      0.00000000</v>
    <i type="logical" name="LZEROZ"> F  </i>
   </separator>
   <separator name="electronic exchange-correlation" >
    <i type="logical" name="LASPH"> F  </i>
    <i type="logical" name="LMETAGGA"> F  </i>
   </separator>
   <separator name="electronic convergence" >
    <i type="int" name="NELM">     7</i>
    <i type="int" name="NELMDL">    -5</i>
    <i type="int" name="NELMIN">     2</i>
    <i name="ENINI">    520.00000000</i>
    <separator name="electronic convergence detail" >
     <i type="logical" name="LDIAG"> T  </i>
     <i type="logical" name="LSUBROT"> F  </i>
     <i name="WEIMIN">      0.00100000</i>
     <i name="EBREAK">      0.00000417</i>
     <i name="DEPER">      0.30000000</i>
     <i type="int" name="NRMM">     4</i>
     <i name="TIME">      0.40000000</i>
    </separator>
   </separator>
   <separator name="electronic mixer" >
    <i name="AMIX">      0.40000000</i>
    <i name="BMIX">      1.00000000</i>
    <i name="AMIN">      0.10000000</i>
    <i name="AMIX_MAG">      1.60000000</i>
    <i name="BMIX_MAG">      1.00000000</i>
    <separator name="electronic mixer details" >
     <i type="int" name="IMIX">     4</i>
     <i type="int" name="MAXMIX">   -45</i>
     <i name="WC">    100.00000000</i>
     <i type="int" name="INIMIX">     1</i>
     <i type="int" name="MIXPRE">     1</i>
     <i type="int" name="MREMOVE">     5</i>
    </separator>
   </separator>
   <separator name="electronic dipolcorrection" >
    <i type="logical" name="LDIPOL"> F  </i>
    <i type="logical" name="LMONO"> F  </i>
    <i type="int" name="IDIPOL">     0</i>
    <i name="EPSILON">      1.00000000</i>
    <v name="DIPOL">   -100.00000000   -100.00000000   -100.00000000</v>
    <i name="EFIELD">      0.00000000</i>
   </separator>
  </separator>
  <separator name="grids" >
   <i type="int" name="NGX">    30</i>
   <i type="int" name="NGY">    30</i>
   <i type="int" name="NGZ">    30</i>
   <i type="int" name="NGXF">    60</i>
   <i type="int" name="NGYF">    60</i>
   <i type="int" name="NGZF">    60</i>
   <i type="logical" name="ADDGRID"> F  </i>
  </separator>
  <separator name="ionic" >
   <i type="int" name="NSW">     1</i>
   <i type="int" name="IBRION">     8</i>
   <i type="int" name="ISIF">     3</i>
   <i name="PSTRESS">      0.00000000</i>
   <i name="EDIFFG">      0.00200000</i>
   <i type="int" name="NFREE">     0</i>
   <i name="POTIM">      0.50000000</i>
[...]
        <r>  0.0247  0.0139  0.0632  0.0209  0.0000  0.0000  0.0000  0.0000  0.0000 </r>
       </set>
      </set>
      <set comment="kpoint 54">
       <set comment="band 1">
        <r>  0.2145  0.0048  0.0102  0.0123  0.0000  0.0000  0.0000  0.0000  0.0000 </r>
        <r>  0.2145  0.0048  0.0102  0.0123  0.0000  0.0000  0.0000  0.0000  0.0000 </r>
       </set>
       <set comment="band 2">
        <r>  0.1738  0.0135  0.0159  0.0317  0.0000  0.0000  0.0000  0.0000  0.0000 </r>
        <r>  0.1738  0.0135  0.0159  0.0317  0.0000  0.0000  0.0000  0.0000  0.0000 </r>
       </set>
       <set comment="band 3">
        <r>  0.0059  0.0188  0.0625  0.0690  0.0000  0.0000  0.0000  0.0000  0.0000 </r>
        <r>  0.0059  0.0188  0.0625  0.0690  0.0000  0.0000  0.0000  0.0000  0.0000 </r>
       </set>
       <set comment="band 4">
        <r>  0.0000  0.1335  0.0501  0.0167  0.0000  0.0000  0.0000  0.0000  0.0000 </r>
        <r>  0.0000  0.1335  0.0501  0.0167  0.0000  0.0000  0.0000  0.0000  0.0000 </r>
       </set>
       <set comment="band 5">
        <r>  0.0533  0.0145  0.0245  0.0068  0.0000  0.0000  0.0000  0.0000  0.0000 </r>
        <r>  0.0533  0.0145  0.0245  0.0068  0.0000  0.0000  0.0000  0.0000  0.0000 </r>
       </set>
       <set comment="band 6">
        <r>  0.0118  0.0016  0.0231  0.0578  0.0000  0.0000  0.0000  0.0000  0.0000 </r>
        <r>  0.0118  0.0016  0.0231  0.0578  0.0000  0.0000  0.0000  0.0000  0.0000 </r>
       </set>
       <set comment="band 7">
        <r>  0.0000  0.0914  0.0343  0.0114  0.0000  0.0000  0.0000  0.0000  0.0000 </r>
        <r>  0.0000  0.0914  0.0343  0.0114  0.0000  0.0000  0.0000  0.0000  0.0000 </r>
       </set>
       <set comment="band 8">
        <r>  0.0553  0.0281  0.0932  0.0141  0.0000  0.0000  0.0000  0.0000  0.0000 </r>
        <r>  0.0553  0.0281  0.0932  0.0141  0.0000  0.0000  0.0000  0.0000  0.0000 </r>
       </set>
       <set comment="band 9">
        <r>  0.0444  0.0238  0.0156  0.1108  0.0000  0.0000  0.0000  0.0000  0.0000 </r>
        <r>  0.0444  0.0238  0.0156  0.1108  0.0000  0.0000  0.0000  0.0000  0.0000 </r>
       </set>
       <set comment="band 10">
        <r>  0.0000  0.0197  0.0074  0.0025  0.0000  0.0000  0.0000  0.0000  0.0000 </r>
        <r>  0.0000  0.0197  0.0074  0.0025  0.0000  0.0000  0.0000  0.0000  0.0000 </r>
       </set>
       <set comment="band 11">
        <r>  0.0172  0.0035  0.0202  0.0072  0.0000  0.0000  0.0000  0.0000  0.0000 </r>
        <r>  0.0172  0.0035  0.0202  0.0072  0.0000  0.0000  0.0000  0.0000  0.0000 </r>
       </set>
       <set comment="band 12">
        <r>  0.0033  0.0624  0.0176  0.0835  0.0000  0.0000  0.0000  0.0000  0.0000 </r>
        <r>  0.0034  0.0702  0.0170  0.0764  0.0000  0.0000  0.0000  0.0000  0.0000 </r>
       </set>
      </set>
      <set comment="kpoint 55">
       <set comment="band 1">
        <r>  0.2121  0.0035  0.0061  0.0070  0.0000  0.0000  0.0000  0.0000  0.0000 </r>
        <r>  0.2121  0.0035  0.0061  0.0070  0.0000  0.0000  0.0000  0.0000  0.0000 </r>
       </set>
       <set comment="band 2">
        <r>  0.1177  0.0099  0.0610  0.0198  0.0000  0.0000  0.0000  0.0000  0.0000 </r>
        <r>  0.1177  0.0099  0.0610  0.0198  0.0000  0.0000  0.0000  0.0000  0.0000 </r>
       </set>
       <set comment="band 3">
        <r>  0.0385  0.0339  0.0643  0.0678  0.0000  0.0000  0.0000  0.0000  0.0000 </r>
        <r>  0.0385  0.0339  0.0643  0.0678  0.0000  0.0000  0.0000  0.0000  0.0000 </r>
       </set>
       <set comment="band 4">
        <r>  0.0000  0.1368  0.0000  0.0684  0.0000  0.0000  0.0000  0.0000  0.0000 </r>
        <r>  0.0000  0.1368  0.0000  0.0684  0.0000  0.0000  0.0000  0.0000  0.0000 </r>
       </set>
       <set comment="band 5">
        <r>  0.0851  0.0192  0.0101  0.0383  0.0000  0.0000  0.0000  0.0000  0.0000 </r>
        <r>  0.0851  0.0192  0.0101  0.0383  0.0000  0.0000  0.0000  0.0000  0.0000 </r>
       </set>
       <set comment="band 6">
        <r>  0.0478  0.0107  0.0650  0.0214  0.0000  0.0000  0.0000  0.0000  0.0000 </r>
        <r>  0.0478  0.0107  0.0650  0.0214  0.0000  0.0000  0.0000  0.0000  0.0000 </r>
       </set>
       <set comment="band 7">
        <r>  0.0000  0.0734  0.0000  0.0367  0.0000  0.0000  0.0000  0.0000  0.0000 </r>
        <r>  0.0000  0.0734  0.0000  0.0367  0.0000  0.0000  0.0000  0.0000  0.0000 </r>
       </set>
       <set comment="band 8">
        <r>  0.0177  0.0071  0.0704  0.0141  0.0000  0.0000  0.0000  0.0000  0.0000 </r>
        <r>  0.0177  0.0071  0.0704  0.0141  0.0000  0.0000  0.0000  0.0000  0.0000 </r>
       </set>
       <set comment="band 9">
        <r>  0.0072  0.0078  0.0236  0.0156  0.0000  0.0000  0.0000  0.0000  0.0000 </r>
        <r>  0.0072  0.0078  0.0236  0.0156  0.0000  0.0000  0.0000  0.0000  0.0000 </r>
       </set>
       <set comment="band 10">
        <r>  0.0000  0.0202  0.0000  0.0101  0.0000  0.0000  0.0000  0.0000  0.0000 </r>
        <r>  0.0000  0.0202  0.0000  0.0101  0.0000  0.0000  0.0000  0.0000  0.0000 </r>
       </set>
       <set comment="band 11">
        <r>  0.0596  0.0346  0.0352  0.0693  0.0000  0.0000  0.0000  0.0000  0.0000 </r>
        <r>  0.0596  0.0346  0.0352  0.0693  0.0000  0.0000  0.0000  0.0000  0.0000 </r>
       </set>
       <set comment="band 12">
        <r>  0.0000  0.0525  0.0000  0.0262  0.0000  0.0000  0.0000  0.0000  0.0000 </r>
        <r>  0.0000  0.0523  0.0000  0.0264  0.0000  0.0000  0.0000  0.0000  0.0000 </r>
       </set>
      </set>
      <set comment="kpoint 56">
       <set comment="band 1">
        <r>  0.2137  0.0026  0.0064  0.0124  0.0000  0.0000  0.0000  0.0000  0.0000 </r>
        <r>  0.2137  0.0026  0.0064  0.0124  0.0000  0.0000  0.0000  0.0000  0.0000 </r>
       </set>
       <set comment="band 2">
        <r>  0.1400  0.0123  0.0496  0.0169  0.0000  0.0000  0.0000  0.0000  0.0000 </r>
        <r>  0.1400  0.0123  0.0496  0.0169  0.0000  0.0000  0.0000  0.0000  0.0000 </r>
       </set>
       <set comment="band 3">
        <r>  0.0346  0.0035  0.0503  0.0956  0.0000  0.0000  0.0000  0.0000  0.0000 </r>
        <r>  0.0346  0.0035  0.0503  0.0956  0.0000  0.0000  0.0000  0.0000  0.0000 </r>
       </set>
       <set comment="band 4">
        <r>  0.0017  0.1521  0.0252  0.0131  0.0000  0.0000  0.0000  0.0000  0.0000 </r>
        <r>  0.0017  0.1521  0.0252  0.0131  0.0000  0.0000  0.0000  0.0000  0.0000 </r>
       </set>
       <set comment="band 5">
        <r>  0.0543  0.0439  0.0040  0.0343  0.0000  0.0000  0.0000  0.0000  0.0000 </r>
        <r>  0.0543  0.0439  0.0040  0.0343  0.0000  0.0000  0.0000  0.0000  0.0000 </r>
       </set>
       <set comment="band 6">
        <r>  0.0331  0.0330  0.0357  0.0161  0.0000  0.0000  0.0000  0.0000  0.0000 </r>
        <r>  0.0331  0.0330  0.0357  0.0161  0.0000  0.0000  0.0000  0.0000  0.0000 </r>
       </set>
       <set comment="band 7">
        <r>  0.0307  0.0414  0.0414  0.0556  0.0000  0.0000  0.0000  0.0000  0.0000 </r>
        <r>  0.0307  0.0414  0.0414  0.0556  0.0000  0.0000  0.0000  0.0000  0.0000 </r>
       </set>
       <set comment="band 8">
        <r>  0.0144  0.0069  0.0636  0.0053  0.0000  0.0000  0.0000  0.0000  0.0000 </r>
        <r>  0.0144  0.0069  0.0636  0.0053  0.0000  0.0000  0.0000  0.0000  0.0000 </r>
       </set>
       <set comment="band 9">
        <r>  0.0108  0.0072  0.0308  0.0805  0.0000  0.0000  0.0000  0.0000  0.0000 </r>
        <r>  0.0108  0.0072  0.0308  0.0805  0.0000  0.0000  0.0000  0.0000  0.0000 </r>
       </set>
       <set comment="band 10">
        <r>  0.0107  0.0380  0.0247  0.0140  0.0000  0.0000  0.0000  0.0000  0.0000 </r>
        <r>  0.0107  0.0380  0.0247  0.0140  0.0000  0.0000  0.0000  0.0000  0.0000 </r>
       </set>
       <set comment="band 11">
        <r>  0.0267  0.0335  0.0000  0.0032  0.0000  0.0000  0.0000  0.0000  0.0000 </r>
        <r>  0.0267  0.0335  0.0000  0.0032  0.0000  0.0000  0.0000  0.0000  0.0000 </r>
       </set>
       <set comment="band 12">
        <r>  0.0216  0.0475  0.0406  0.0066  0.0000  0.0000  0.0000  0.0000  0.0000 </r>
        <r>  0.0215  0.0475  0.0406  0.0066  0.0000  0.0000  0.0000  0.0000  0.0000 </r>
       </set>
      </set>
      <set comment="kpoint 57">
       <set comment="band 1">
        <r>  0.2127  0.0052  0.0092  0.0151  0.0000  0.0000  0.0000  0.0000  0.0000 </r>
        <r>  0.2127  0.0052  0.0092  0.0151  0.0000  0.0000  0.0000  0.0000  0.0000 </r>
       </set>
       <set comment="band 2">
        <r>  0.1821  0.0138  0.0272  0.0161  0.0000  0.0000  0.0000  0.0000  0.0000 </r>
        <r>  0.1821  0.0138  0.0272  0.0161  0.0000  0.0000  0.0000  0.0000  0.0000 </r>
       </set>
       <set comment="band 3">
        <r>  0.0052  0.0111  0.0549  0.0859  0.0000  0.0000  0.0000  0.0000  0.0000 </r>
        <r>  0.0052  0.0111  0.0549  0.0859  0.0000  0.0000  0.0000  0.0000  0.0000 </r>
       </set>
       <set comment="band 4">
        <r>  0.0027  0.1219  0.0407  0.0142  0.0000  0.0000  0.0000  0.0000  0.0000 </r>
        <r>  0.0027  0.1219  0.0407  0.0142  0.0000  0.0000  0.0000  0.0000  0.0000 </r>
       </set>
       <set comment="band 5">
        <r>  0.0386  0.0371  0.0293  0.0071  0.0000  0.0000  0.0000  0.0000  0.0000 </r>
        <r>  0.0386  0.0371  0.0293  0.0071  0.0000  0.0000  0.0000  0.0000  0.0000 </r>
       </set>
       <set comment="band 6">
        <r>  0.0148  0.0558  0.0146  0.0240  0.0000  0.0000  0.0000  0.0000  0.0000 </r>
        <r>  0.0148  0.0558  0.0146  0.0240  0.0000  0.0000  0.0000  0.0000  0.0000 </r>
       </set>
       <set comment="band 7">
        <r>  0.0336  0.0131  0.0262  0.0594  0.0000  0.0000  0.0000  0.0000  0.0000 </r>
        <r>  0.0336  0.0131  0.0262  0.0594  0.0000  0.0000  0.0000  0.0000  0.0000 </r>
       </set>
       <set comment="band 8">
        <r>  0.0355  0.0076  0.0672  0.0376  0.0000  0.0000  0.0000  0.0000  0.0000 </r>
        <r>  0.0355  0.0076  0.0672  0.0376  0.0000  0.0000  0.0000  0.0000  0.0000 </r>
       </set>
       <set comment="band 9">
        <r>  0.0126  0.0475  0.0401  0.0449  0.0000  0.0000  0.0000  0.0000  0.0000 </r>
        <r>  0.0126  0.0475  0.0401  0.0449  0.0000  0.0000  0.0000  0.0000  0.0000 </r>
       </set>
       <set comment="band 10">
        <r>  0.0182  0.0330  0.0239  0.0388  0.0000  0.0000  0.0000  0.0000  0.0000 </r>
        <r>  0.0182  0.0330  0.0239  0.0388  0.0000  0.0000  0.0000  0.0000  0.0000 </r>
       </set>
       <set comment="band 11">
        <r>  0.0104  0.0637  0.0480  0.0031  0.0000  0.0000  0.0000  0.0000  0.0000 </r>
        <r>  0.0104  0.0637  0.0480  0.0031  0.0000  0.0000  0.0000  0.0000  0.0000 </r>
       </set>
       <set comment="band 12">
        <r>  0.0080  0.0013  0.0138  0.0495  0.0000  0.0000  0.0000  0.0000  0.0000 </r>
        <r>  0.0080  0.0013  0.0138  0.0495  0.0000  0.0000  0.0000  0.0000  0.0000 </r>
       </set>
      </set>
      <set comment="kpoint 58">
       <set comment="band 1">
        <r>  0.2160  0.0051  0.0082  0.0103  0.0000  0.0000  0.0000  0.0000  0.0000 </r>
        <r>  0.2160  0.0051  0.0082  0.0103  0.0000  0.0000  0.0000  0.0000  0.0000 </r>
       </set>
       <set comment="band 2">
        <r>  0.1499  0.0114  0.0381  0.0227  0.0000  0.0000  0.0000  0.0000  0.0000 </r>
        <r>  0.1499  0.0114  0.0381  0.0227  0.0000  0.0000  0.0000  0.0000  0.0000 </r>
       </set>
       <set comment="band 3">
        <r>  0.0251  0.0221  0.0816  0.0442  0.0000  0.0000  0.0000  0.0000  0.0000 </r>
        <r>  0.0251  0.0221  0.0816  0.0442  0.0000  0.0000  0.0000  0.0000  0.0000 </r>
       </set>
       <set comment="band 4">
        <r>  0.0000  0.1340  0.0000  0.0670  0.0000  0.0000  0.0000  0.0000  0.0000 </r>
        <r>  0.0000  0.1340  0.0000  0.0670  0.0000  0.0000  0.0000  0.0000  0.0000 </r>
       </set>
       <set comment="band 5">
        <r>  0.0535  0.0156  0.0030  0.0312  0.0000  0.0000  0.0000  0.0000  0.0000 </r>
        <r>  0.0535  0.0156  0.0030  0.0312  0.0000  0.0000  0.0000  0.0000  0.0000 </r>
       </set>
       <set comment="band 6">
        <r>  0.0165  0.0036  0.0669  0.0072  0.0000  0.0000  0.0000  0.0000  0.0000 </r>
        <r>  0.0165  0.0036  0.0669  0.0072  0.0000  0.0000  0.0000  0.0000  0.0000 </r>
       </set>
       <set comment="band 7">
        <r>  0.0000  0.0762  0.0000  0.0381  0.0000  0.0000  0.0000  0.0000  0.0000 </r>
        <r>  0.0000  0.0762  0.0000  0.0381  0.0000  0.0000  0.0000  0.0000  0.0000 </r>
       </set>
       <set comment="band 8">
        <r>  0.0632  0.0205  0.0749  0.0410  0.0000  0.0000  0.0000  0.0000  0.0000 </r>
        <r>  0.0632  0.0205  0.0749  0.0410  0.0000  0.0000  0.0000  0.0000  0.0000 </r>
       </set>
       <set comment="band 9">
        <r>  0.0228  0.0294  0.0598  0.0588  0.0000  0.0000  0.0000  0.0000  0.0000 </r>
        <r>  0.0228  0.0294  0.0598  0.0588  0.0000  0.0000  0.0000  0.0000  0.0000 </r>
       </set>
       <set comment="band 10">
        <r>  0.0000  0.0332  0.0000  0.0166  0.0000  0.0000  0.0000  0.0000  0.0000 </r>
        <r>  0.0000  0.0332  0.0000  0.0166  0.0000  0.0000  0.0000  0.0000  0.0000 </r>
       </set>
       <set comment="band 11">
        <r>  0.0282  0.0006  0.0154  0.0013  0.0000  0.0000  0.0000  0.0000  0.0000 </r>
        <r>  0.0282  0.0006  0.0154  0.0013  0.0000  0.0000  0.0000  0.0000  0.0000 </r>
       </set>
       <set comment="band 12">
        <r>  0.0000  0.0351  0.0000  0.0175  0.0000  0.0000  0.0000  0.0000  0.0000 </r>
        <r>  0.0000  0.0351  0.0000  0.0175  0.0000  0.0000  0.0000  0.0000  0.0000 </r>
       </set>
      </set>
      <set comment="kpoint 59">
       <set comment="band 1">
        <r>  0.2183  0.0016  0.0095  0.0032  0.0000  0.0000  0.0000  0.0000  0.0000 </r>
        <r>  0.2183  0.0016  0.0095  0.0032  0.0000  0.0000  0.0000  0.0000  0.0000 </r>
       </set>
       <set comment="band 2">
        <r>  0.1041  0.0102  0.0615  0.0205  0.0000  0.0000  0.0000  0.0000  0.0000 </r>
        <r>  0.1041  0.0102  0.0615  0.0205  0.0000  0.0000  0.0000  0.0000  0.0000 </r>
       </set>
       <set comment="band 3">
        <r>  0.0000  0.1007  0.0039  0.1105  0.0000  0.0000  0.0000  0.0000  0.0000 </r>
        <r>  0.0000  0.1007  0.0039  0.1105  0.0000  0.0000  0.0000  0.0000  0.0000 </r>
       </set>
       <set comment="band 4">
        <r>  0.0000  0.0905  0.0678  0.0568  0.0000  0.0000  0.0000  0.0000  0.0000 </r>
        <r>  0.0000  0.0905  0.0678  0.0568  0.0000  0.0000  0.0000  0.0000  0.0000 </r>
       </set>
       <set comment="band 5">
        <r>  0.1831  0.0025  0.0148  0.0049  0.0000  0.0000  0.0000  0.0000  0.0000 </r>
        <r>  0.1831  0.0025  0.0148  0.0049  0.0000  0.0000  0.0000  0.0000  0.0000 </r>
       </set>
       <set comment="band 6">
        <r>  0.0000  0.0800  0.0170  0.0007  0.0000  0.0000  0.0000  0.0000  0.0000 </r>
        <r>  0.0000  0.0800  0.0170  0.0007  0.0000  0.0000  0.0000  0.0000  0.0000 </r>
       </set>
       <set comment="band 7">
        <r>  0.0000  0.0068  0.0155  0.0753  0.0000  0.0000  0.0000  0.0000  0.0000 </r>
        <r>  0.0000  0.0068  0.0155  0.0753  0.0000  0.0000  0.0000  0.0000  0.0000 </r>
       </set>
       <set comment="band 8">
        <r>  0.0047  0.0066  0.0394  0.0131  0.0000  0.0000  0.0000  0.0000  0.0000 </r>
        <r>  0.0047  0.0066  0.0394  0.0131  0.0000  0.0000  0.0000  0.0000  0.0000 </r>
       </set>
       <set comment="band 9">
        <r>  0.0000  0.0198  0.0119  0.0079  0.0000  0.0000  0.0000  0.0000  0.0000 </r>
        <r>  0.0000  0.0198  0.0119  0.0079  0.0000  0.0000  0.0000  0.0000  0.0000 </r>
       </set>
       <set comment="band 10">
        <r>  0.0000  0.0154  0.0013  0.0229  0.0000  0.0000  0.0000  0.0000  0.0000 </r>
        <r>  0.0000  0.0154  0.0013  0.0229  0.0000  0.0000  0.0000  0.0000  0.0000 </r>
       </set>
       <set comment="band 11">
        <r>  0.0695  0.0155  0.0933  0.0311  0.0000  0.0000  0.0000  0.0000  0.0000 </r>
        <r>  0.0695  0.0155  0.0933  0.0311  0.0000  0.0000  0.0000  0.0000  0.0000 </r>
       </set>
       <set comment="band 12">
        <r>  0.0000  0.0144  0.0239  0.0349  0.0000  0.0000  0.0000  0.0000  0.0000 </r>
        <r>  0.0000  0.0144  0.0239  0.0349  0.0000  0.0000  0.0000  0.0000  0.0000 </r>
       </set>
      </set>
      <set comment="kpoint 60">
       <set comment="band 1">
        <r>  0.2212  0.0018  0.0088  0.0054  0.0000  0.0000  0.0000  0.0000  0.0000 </r>
        <r>  0.2212  0.0018  0.0088  0.0054  0.0000  0.0000  0.0000  0.0000  0.0000 </r>
       </set>
       <set comment="band 2">
        <r>  0.1102  0.0108  0.0600  0.0177  0.0000  0.0000  0.0000  0.0000  0.0000 </r>
        <r>  0.1102  0.0108  0.0600  0.0177  0.0000  0.0000  0.0000  0.0000  0.0000 </r>
       </set>
       <set comment="band 3">
        <r>  0.0369  0.0330  0.0172  0.1132  0.0000  0.0000  0.0000  0.0000  0.0000 </r>
        <r>  0.0369  0.0330  0.0172  0.1132  0.0000  0.0000  0.0000  0.0000  0.0000 </r>
       </set>
       <set comment="band 4">
        <r>  0.0000  0.1399  0.0525  0.0175  0.0000  0.0000  0.0000  0.0000  0.0000 </r>
        <r>  0.0000  0.1399  0.0525  0.0175  0.0000  0.0000  0.0000  0.0000  0.0000 </r>
       </set>
       <set comment="band 5">
        <r>  0.1063  0.0191  0.0229  0.0184  0.0000  0.0000  0.0000  0.0000  0.0000 </r>
        <r>  0.1063  0.0191  0.0229  0.0184  0.0000  0.0000  0.0000  0.0000  0.0000 </r>
       </set>
       <set comment="band 6">
        <r>  0.0333  0.0138  0.0010  0.0766  0.0000  0.0000  0.0000  0.0000  0.0000 </r>
        <r>  0.0333  0.0138  0.0010  0.0766  0.0000  0.0000  0.0000  0.0000  0.0000 </r>
       </set>
       <set comment="band 7">
        <r>  0.0000  0.0681  0.0255  0.0085  0.0000  0.0000  0.0000  0.0000  0.0000 </r>
        <r>  0.0000  0.0681  0.0255  0.0085  0.0000  0.0000  0.0000  0.0000  0.0000 </r>
       </set>
       <set comment="band 8">
        <r>  0.0010  0.0187  0.0501  0.0569  0.0000  0.0000  0.0000  0.0000  0.0000 </r>
        <r>  0.0010  0.0187  0.0501  0.0569  0.0000  0.0000  0.0000  0.0000  0.0000 </r>
       </set>
       <set comment="band 9">
        <r>  0.0156  0.0064  0.0449  0.0198  0.0000  0.0000  0.0000  0.0000  0.0000 </r>
        <r>  0.0156  0.0064  0.0449  0.0198  0.0000  0.0000  0.0000  0.0000  0.0000 </r>
       </set>
       <set comment="band 10">
        <r>  0.0000  0.0311  0.0117  0.0039  0.0000  0.0000  0.0000  0.0000  0.0000 </r>
        <r>  0.0000  0.0311  0.0117  0.0039  0.0000  0.0000  0.0000  0.0000  0.0000 </r>
       </set>
       <set comment="band 11">
        <r>  0.0469  0.0131  0.0280  0.0108  0.0000  0.0000  0.0000  0.0000  0.0000 </r>
        <r>  0.0469  0.0131  0.0280  0.0108  0.0000  0.0000  0.0000  0.0000  0.0000 </r>
       </set>
       <set comment="band 12">
        <r>  0.0000  0.0433  0.0160  0.0055  0.0000  0.0000  0.0000  0.0000  0.0000 </r>
        <r>  0.0000  0.0437  0.0155  0.0055  0.0000  0.0000  0.0000  0.0000  0.0000 </r>
       </set>
      </set>
     </set>
    </set>
   </array>
  </projected>
 </calculation>
 <structure name="finalpos" >
  <crystal>
   <varray name="basis" >
    <v>       3.34889800       0.00000000       1.93348700 </v>
    <v>       1.11629900       3.15737200       1.93348700 </v>
    <v>       0.00000000       0.00000000       3.86697500 </v>
   </varray>
   <i name="volume">     40.88829843 </i>
   <varray name="rec_basis" >
    <v>       0.29860569      -0.10557300       0.00000000 </v>
    <v>       0.00000000       0.31671909       0.00000000 </v>
    <v>      -0.14930281      -0.10557302       0.25860007 </v>
   </varray>
  </crystal>
  <varray name="positions" >
   <v>       0.87500000       0.87500000       0.87500000 </v>
   <v>       0.12500000       0.12500000       0.12500000 </v>
  </varray>
 </structure>
</modeling>
