<?xml version="1.0" encoding="ISO-8859-1"?>
<modeling>
 <generator>
  <i name="program" type="string">vasp </i>
  <i name="version" type="string">5.3.5  </i>
  <i name="subversion" type="string">31Mar14 (build Apr 25 2014 17:03:44) complex                          parallel </i>
  <i name="platform" type="string">LinuxIFC </i>
  <i name="date" type="string">2016 04 06 </i>
  <i name="time" type="string">02:56:33 </i>
 </generator>
 <incar>
  <i type="int" name="ISTART">     0</i>
  <i type="string" name="PREC">accurate</i>
  <i type="string" name="ALGO"> Fast</i>
  <i type="int" name="NSIM">     2</i>
  <i type="int" name="ISPIN">     2</i>
  <i type="int" name="ICHARG">     2</i>
  <i type="int" name="NELM">   100</i>
  <i type="int" name="NELMDL">    -6</i>
  <i type="int" name="NELMIN">     8</i>
  <i type="int" name="IBRION">     1</i>
  <i name="EDIFF">      0.00000100</i>
  <i name="EDIFFG">     -0.01000000</i>
  <i type="int" name="NSW">   800</i>
  <i type="int" name="ISIF">     3</i>
  <i type="int" name="ISYM">     0</i>
  <i name="SYMPREC">      0.00000100</i>
  <i name="ENCUT">    520.00000000</i>
  <i name="POTIM">      0.25000000</i>
  <v name="MAGMOM">      0.60000000      0.60000000</v>
  <i type="logical" name="LREAL"> F  </i>
  <i type="int" name="ISMEAR">     0</i>
  <i name="SIGMA">      0.05000000</i>
  <i type="int" name="LMAXMIX">     4</i>
  <i type="logical" name="LWAVE"> F  </i>
  <i type="logical" name="LCHARG"> F  </i>
  <i type="logical" name="LVTOT"> F  </i>
  <i type="logical" name="LVHAR"> F  </i>
  <i type="logical" name="LORBIT"> F  </i>
  <i type="logical" name="LSCALU"> F  </i>
  <i type="logical" name="LASPH"> T  </i>
  <i type="int" name="NELM">   100</i>
  <i type="string" name="GGA"> Pe</i>
  <i type="logical" name="LASPH"> T  </i>
 </incar>
 <kpoints>
  <generation param="Auto">
   <i name="subdivisionlength">     25.00000000 </i>
   <v type="int" name="divisions">       6        6        6 </v>
   <v name="usershift">      0.00000000       0.00000000       0.00000000 </v>
   <v name="genvec1">      0.16666667      -0.00000000      -0.00000000 </v>
   <v name="genvec2">     -0.00000000       0.16666667       0.00000000 </v>
   <v name="genvec3">      0.00000000       0.00000000       0.16666667 </v>
   <v name="shift">      0.00000000       0.00000000       0.00000000 </v>
  </generation>
  <varray name="kpointlist" >
   <v>       0.00000000       0.00000000       0.00000000 </v>
   <v>       0.16666667      -0.00000000       0.00000000 </v>
   <v>       0.33333333      -0.00000000       0.00000000 </v>
   <v>       0.50000000       0.00000000       0.00000000 </v>
   <v>       0.00000000       0.16666667       0.00000000 </v>
   <v>       0.16666667       0.16666667       0.00000000 </v>
   <v>       0.33333333       0.16666667      -0.00000000 </v>
   <v>       0.50000000       0.16666667       0.00000000 </v>
   <v>      -0.33333333       0.16666667      -0.00000000 </v>
   <v>      -0.16666667       0.16666667       0.00000000 </v>
   <v>       0.00000000       0.33333333       0.00000000 </v>
   <v>       0.16666667       0.33333333       0.00000000 </v>
   <v>       0.33333333       0.33333333      -0.00000000 </v>
   <v>       0.50000000       0.33333333       0.00000000 </v>
   <v>      -0.33333333       0.33333333      -0.00000000 </v>
   <v>      -0.16666667       0.33333333       0.00000000 </v>
   <v>       0.00000000       0.50000000       0.00000000 </v>
   <v>       0.16666667       0.50000000       0.00000000 </v>
   <v>       0.33333333       0.50000000       0.00000000 </v>
   <v>       0.50000000       0.50000000       0.00000000 </v>
   <v>       0.00000000       0.00000000       0.16666667 </v>
   <v>       0.16666667       0.00000000       0.16666667 </v>
   <v>       0.33333333      -0.00000000       0.16666667 </v>
   <v>       0.50000000       0.00000000       0.16666667 </v>
   <v>      -0.33333333       0.00000000       0.16666667 </v>
   <v>      -0.16666667       0.00000000       0.16666667 </v>
   <v>       0.00000000       0.16666667       0.16666667 </v>
   <v>       0.16666667       0.16666667       0.16666667 </v>
   <v>       0.33333333       0.16666667       0.16666667 </v>
   <v>       0.50000000       0.16666667       0.16666667 </v>
   <v>      -0.33333333       0.16666667       0.16666667 </v>
   <v>      -0.16666667       0.16666667       0.16666667 </v>
   <v>      -0.00000000       0.33333333       0.16666667 </v>
   <v>       0.16666667       0.33333333       0.16666667 </v>
   <v>       0.33333333       0.33333333       0.16666667 </v>
   <v>       0.50000000       0.33333333       0.16666667 </v>
   <v>      -0.33333333       0.33333333       0.16666667 </v>
   <v>      -0.16666667       0.33333333       0.16666667 </v>
   <v>       0.00000000       0.50000000       0.16666667 </v>
   <v>       0.16666667       0.50000000       0.16666667 </v>
   <v>       0.33333333       0.50000000       0.16666667 </v>
   <v>       0.50000000       0.50000000       0.16666667 </v>
   <v>      -0.33333333       0.50000000       0.16666667 </v>
   <v>      -0.16666667       0.50000000       0.16666667 </v>
   <v>       0.00000000      -0.33333333       0.16666667 </v>
   <v>       0.16666667      -0.33333333       0.16666667 </v>
   <v>       0.33333333      -0.33333333       0.16666667 </v>
   <v>       0.50000000      -0.33333333       0.16666667 </v>
   <v>      -0.33333333      -0.33333333       0.16666667 </v>
   <v>      -0.16666667      -0.33333333       0.16666667 </v>
   <v>       0.00000000      -0.16666667       0.16666667 </v>
   <v>       0.16666667      -0.16666667       0.16666667 </v>
   <v>       0.33333333      -0.16666667       0.16666667 </v>
   <v>       0.50000000      -0.16666667       0.16666667 </v>
   <v>      -0.33333333      -0.16666667       0.16666667 </v>
   <v>      -0.16666667      -0.16666667       0.16666667 </v>
   <v>       0.00000000       0.00000000       0.33333333 </v>
   <v>       0.16666667       0.00000000       0.33333333 </v>
   <v>       0.33333333       0.00000000       0.33333333 </v>
   <v>       0.50000000      -0.00000000       0.33333333 </v>
   <v>      -0.33333333       0.00000000       0.33333333 </v>
   <v>      -0.16666667       0.00000000       0.33333333 </v>
   <v>       0.00000000       0.16666667       0.33333333 </v>
   <v>       0.16666667       0.16666667       0.33333333 </v>
   <v>       0.33333333       0.16666667       0.33333333 </v>
   <v>       0.50000000       0.16666667       0.33333333 </v>
   <v>      -0.33333333       0.16666667       0.33333333 </v>
   <v>      -0.16666667       0.16666667       0.33333333 </v>
   <v>       0.00000000       0.33333333       0.33333333 </v>
   <v>       0.16666667       0.33333333       0.33333333 </v>
   <v>       0.33333333       0.33333333       0.33333333 </v>
   <v>       0.50000000       0.33333333       0.33333333 </v>
   <v>      -0.33333333       0.33333333       0.33333333 </v>
   <v>      -0.16666667       0.33333333       0.33333333 </v>
   <v>       0.00000000       0.50000000       0.33333333 </v>
   <v>       0.16666667       0.50000000       0.33333333 </v>
   <v>       0.33333333       0.50000000       0.33333333 </v>
   <v>       0.50000000       0.50000000       0.33333333 </v>
   <v>      -0.33333333       0.50000000       0.33333333 </v>
   <v>      -0.16666667       0.50000000       0.33333333 </v>
   <v>       0.00000000      -0.33333333       0.33333333 </v>
   <v>       0.16666667      -0.33333333       0.33333333 </v>
   <v>       0.33333333      -0.33333333       0.33333333 </v>
   <v>       0.50000000      -0.33333333       0.33333333 </v>
   <v>      -0.33333333      -0.33333333       0.33333333 </v>
   <v>      -0.16666667      -0.33333333       0.33333333 </v>
   <v>       0.00000000      -0.16666667       0.33333333 </v>
   <v>       0.16666667      -0.16666667       0.33333333 </v>
   <v>       0.33333333      -0.16666667       0.33333333 </v>
   <v>       0.50000000      -0.16666667       0.33333333 </v>
   <v>      -0.33333333      -0.16666667       0.33333333 </v>
   <v>      -0.16666667      -0.16666667       0.33333333 </v>
   <v>       0.00000000       0.00000000       0.50000000 </v>
   <v>       0.16666667       0.00000000       0.50000000 </v>
   <v>       0.33333333       0.00000000       0.50000000 </v>
   <v>       0.50000000      -0.00000000       0.50000000 </v>
   <v>       0.00000000       0.16666667       0.50000000 </v>
   <v>       0.16666667       0.16666667       0.50000000 </v>
   <v>       0.33333333       0.16666667       0.50000000 </v>
   <v>       0.50000000       0.16666667       0.50000000 </v>
   <v>      -0.33333333       0.16666667       0.50000000 </v>
   <v>      -0.16666667       0.16666667       0.50000000 </v>
   <v>      -0.00000000       0.33333333       0.50000000 </v>
   <v>       0.16666667       0.33333333       0.50000000 </v>
   <v>       0.33333333       0.33333333       0.50000000 </v>
   <v>       0.50000000       0.33333333       0.50000000 </v>
   <v>      -0.33333333       0.33333333       0.50000000 </v>
   <v>      -0.16666667       0.33333333       0.50000000 </v>
   <v>      -0.00000000       0.50000000       0.50000000 </v>
   <v>       0.16666667       0.50000000       0.50000000 </v>
   <v>       0.33333333       0.50000000       0.50000000 </v>
   <v>       0.50000000       0.50000000       0.50000000 </v>
  </varray>
  <varray name="weights" >
   <v>       0.00462963 </v>
   <v>       0.00925926 </v>
   <v>       0.00925926 </v>
   <v>       0.00462963 </v>
   <v>       0.00925926 </v>
   <v>       0.00925926 </v>
   <v>       0.00925926 </v>
   <v>       0.00925926 </v>
   <v>       0.00925926 </v>
   <v>       0.00925926 </v>
   <v>       0.00925926 </v>
   <v>       0.00925926 </v>
   <v>       0.00925926 </v>
   <v>       0.00925926 </v>
   <v>       0.00925926 </v>
   <v>       0.00925926 </v>
   <v>       0.00462963 </v>
   <v>       0.00925926 </v>
   <v>       0.00925926 </v>
   <v>       0.00462963 </v>
   <v>       0.00925926 </v>
   <v>       0.00925926 </v>
   <v>       0.00925926 </v>
   <v>       0.00925926 </v>
   <v>       0.00925926 </v>
   <v>       0.00925926 </v>
   <v>       0.00925926 </v>
   <v>       0.00925926 </v>
   <v>       0.00925926 </v>
   <v>       0.00925926 </v>
   <v>       0.00925926 </v>
   <v>       0.00925926 </v>
   <v>       0.00925926 </v>
   <v>       0.00925926 </v>
   <v>       0.00925926 </v>
   <v>       0.00925926 </v>
   <v>       0.00925926 </v>
   <v>       0.00925926 </v>
   <v>       0.00925926 </v>
   <v>       0.00925926 </v>
   <v>       0.00925926 </v>
   <v>       0.00925926 </v>
   <v>       0.00925926 </v>
   <v>       0.00925926 </v>
   <v>       0.00925926 </v>
   <v>       0.00925926 </v>
   <v>       0.00925926 </v>
   <v>       0.00925926 </v>
   <v>       0.00925926 </v>
   <v>       0.00925926 </v>
   <v>       0.00925926 </v>
   <v>       0.00925926 </v>
   <v>       0.00925926 </v>
   <v>       0.00925926 </v>
   <v>       0.00925926 </v>
   <v>       0.00925926 </v>
   <v>       0.00925926 </v>
   <v>       0.00925926 </v>
   <v>       0.00925926 </v>
   <v>       0.00925926 </v>
   <v>       0.00925926 </v>
   <v>       0.00925926 </v>
   <v>       0.00925926 </v>
   <v>       0.00925926 </v>
   <v>       0.00925926 </v>
   <v>       0.00925926 </v>
   <v>       0.00925926 </v>
   <v>       0.00925926 </v>
   <v>       0.00925926 </v>
   <v>       0.00925926 </v>
   <v>       0.00925926 </v>
   <v>       0.00925926 </v>
   <v>       0.00925926 </v>
   <v>       0.00925926 </v>
   <v>       0.00925926 </v>
   <v>       0.00925926 </v>
   <v>       0.00925926 </v>
   <v>       0.00925926 </v>
   <v>       0.00925926 </v>
   <v>       0.00925926 </v>
   <v>       0.00925926 </v>
   <v>       0.00925926 </v>
   <v>       0.00925926 </v>
   <v>       0.00925926 </v>
   <v>       0.00925926 </v>
   <v>       0.00925926 </v>
   <v>       0.00925926 </v>
   <v>       0.00925926 </v>
   <v>       0.00925926 </v>
   <v>       0.00925926 </v>
   <v>       0.00925926 </v>
   <v>       0.00925926 </v>
   <v>       0.00462963 </v>
   <v>       0.00925926 </v>
   <v>       0.00925926 </v>
   <v>       0.00462963 </v>
   <v>       0.00925926 </v>
   <v>       0.00925926 </v>
   <v>       0.00925926 </v>
   <v>       0.00925926 </v>
   <v>       0.00925926 </v>
   <v>       0.00925926 </v>
   <v>       0.00925926 </v>
   <v>       0.00925926 </v>
   <v>       0.00925926 </v>
   <v>       0.00925926 </v>
   <v>       0.00925926 </v>
   <v>       0.00925926 </v>
   <v>       0.00462963 </v>
   <v>       0.00925926 </v>
   <v>       0.00925926 </v>
   <v>       0.00462963 </v>
  </varray>
 </kpoints>
 <parameters>
  <separator name="general" >
   <i type="string" name="SYSTEM">unknown system</i>
   <i type="logical" name="LCOMPAT"> F  </i>
  </separator>
  <separator name="electronic" >
   <i type="string" name="PREC">accura</i>
   <i name="ENMAX">    520.00000000</i>
   <i name="ENAUG">    407.93300000</i>
   <i name="EDIFF">      0.00000100</i>
   <i type="int" name="IALGO">    68</i>
   <i type="int" name="IWAVPR">    11</i>
   <i type="int" name="NBANDS">    14</i>
   <i name="NELECT">     16.00000000</i>
   <i type="int" name="TURBO">     0</i>
   <i type="int" name="IRESTART">     0</i>
   <i type="int" name="NREBOOT">     0</i>
   <i type="int" name="NMIN">     0</i>
   <i name="EREF">      0.00000000</i>
   <separator name="electronic smearing" >
    <i type="int" name="ISMEAR">     0</i>
    <i name="SIGMA">      0.05000000</i>
    <i name="KSPACING">      0.50000000</i>
    <i type="logical" name="KGAMMA"> T  </i>
   </separator>
   <separator name="electronic projectors" >
    <i type="logical" name="LREAL"> F  </i>
    <v name="ROPT">      0.00000000      0.00000000</v>
    <i type="int" name="LMAXPAW">  -100</i>
    <i type="int" name="LMAXMIX">     4</i>
    <i type="logical" name="NLSPLINE"> F  </i>
   </separator>
   <separator name="electronic startup" >
    <i type="int" name="ISTART">     0</i>
    <i type="int" name="ICHARG">     2</i>
    <i type="int" name="INIWAV">     1</i>
   </separator>
   <separator name="electronic spin" >
    <i type="int" name="ISPIN">     2</i>
    <i type="logical" name="LNONCOLLINEAR"> F  </i>
    <v name="MAGMOM">      0.60000000      0.60000000</v>
    <i name="NUPDOWN">     -1.00000000</i>
    <i type="logical" name="LSORBIT"> F  </i>
    <v name="SAXIS">      0.00000000      0.00000000      1.00000000</v>
    <i type="logical" name="LSPIRAL"> F  </i>
    <v name="QSPIRAL">      0.00000000      0.00000000      0.00000000</v>
    <i type="logical" name="LZEROZ"> F  </i>
   </separator>
   <separator name="electronic exchange-correlation" >
    <i type="logical" name="LASPH"> T  </i>
    <i type="logical" name="LMETAGGA"> F  </i>
   </separator>
   <separator name="electronic convergence" >
    <i type="int" name="NELM">   100</i>
    <i type="int" name="NELMDL">    -6</i>
    <i type="int" name="NELMIN">     8</i>
    <i name="ENINI">    520.00000000</i>
    <separator name="electronic convergence detail" >
     <i type="logical" name="LDIAG"> T  </i>
     <i type="logical" name="LSUBROT"> F  </i>
     <i name="WEIMIN">      0.00100000</i>
     <i name="EBREAK">      0.00000002</i>
     <i name="DEPER">      0.30000000</i>
     <i type="int" name="NRMM">     4</i>
     <i name="TIME">      0.40000000</i>
    </separator>
   </separator>
   <separator name="electronic mixer" >
    <i name="AMIX">      0.40000000</i>
    <i name="BMIX">      1.00000000</i>
    <i name="AMIN">      0.10000000</i>
    <i name="AMIX_MAG">      1.60000000</i>
    <i name="BMIX_MAG">      1.00000000</i>
    <separator name="electronic mixer details" >
     <i type="int" name="IMIX">     4</i>
     <i type="int" name="MAXMIX">   -45</i>
     <i name="WC">    100.00000000</i>
     <i type="int" name="INIMIX">     1</i>
     <i type="int" name="MIXPRE">     1</i>
     <i type="int" name="MREMOVE">     5</i>
    </separator>
   </separator>
   <separator name="electronic dipolcorrection" >
    <i type="logical" name="LDIPOL"> F  </i>
    <i type="logical" name="LMONO"> F  </i>
    <i type="int" name="IDIPOL">     0</i>
    <i name="EPSILON">      1.00000000</i>
    <v name="DIPOL">   -100.00000000   -100.00000000   -100.00000000</v>
    <i name="EFIELD">      0.00000000</i>
   </separator>
  </separator>
  <separator name="grids" >
   <i type="int" name="NGX">    30</i>
   <i type="int" name="NGY">    30</i>
   <i type="int" name="NGZ">    30</i>
   <i type="int" name="NGXF">    60</i>
   <i type="int" name="NGYF">    60</i>
   <i type="int" name="NGZF">    60</i>
   <i type="logical" name="ADDGRID"> F  </i>
  </separator>
  <separator name="ionic" >
   <i type="int" name="NSW">   800</i>
   <i type="int" name="IBRION">     1</i>
   <i type="int" name="ISIF">     3</i>
   <i name="PSTRESS">      0.00000000</i>
   <i name="EDIFFG">     -0.01000000</i>
   <i type="int" name="NFREE">     0</i>
   <i name="POTIM">      0.25000000</i>
   <i name="SMASS">     -3.00000000</i>
   <i name="SCALEE">      1.00000000</i>
  </separator>
  <separator name="ionic md" >
   <i name="TEBEG">      0.00010000</i>
   <i name="TEEND">      0.00010000</i>
   <i type="int" name="NBLOCK">     1</i>
   <i type="int" name="KBLOCK">   800</i>
   <i type="int" name="NPACO">   256</i>
   <i name="APACO">     16.00000000</i>
  </separator>
  <separator name="symmetry" >
   <i type="int" name="ISYM">     0</i>
   <i name="SYMPREC">      0.00000100</i>
  </separator>
  <separator name="dos" >
   <i type="logical" name="LORBIT"> F  </i>
   <v name="RWIGS">     -1.00000000     -1.00000000</v>
   <i type="int" name="NEDOS">   301</i>
   <i name="EMIN">     10.00000000</i>
   <i name="EMAX">    -10.00000000</i>
   <i name="EFERMI">      0.00000000</i>
  </separator>
  <separator name="writing" >
   <i type="int" name="NWRITE">     2</i>
   <i type="logical" name="LWAVE"> F  </i>
   <i type="logical" name="LCHARG"> F  </i>
   <i type="logical" name="LPARD"> F  </i>
   <i type="logical" name="LVTOT"> F  </i>
   <i type="logical" name="LVHAR"> F  </i>
   <i type="logical" name="LELF"> F  </i>
   <i type="logical" name="LOPTICS"> F  </i>
   <v name="STM">      0.00000000      0.00000000      0.00000000      0.00000000      0.00000000      0.00000000      0.00000000</v>
  </separator>
  <separator name="performance" >
   <i type="int" name="NPAR">     2</i>
   <i type="int" name="NSIM">     2</i>
   <i type="int" name="NBLK">    -1</i>
   <i type="logical" name="LPLANE"> T  </i>
   <i type="logical" name="LSCALAPACK"> F  </i>
   <i type="logical" name="LSCAAWARE"> F  </i>
   <i type="logical" name="LSCALU"> F  </i>
   <i type="logical" name="LASYNC"> F  </i>
   <i type="logical" name="LORBITALREAL"> F  </i>
  </separator>
  <separator name="miscellaneous" >
   <i type="int" name="IDIOT">     3</i>
   <i type="logical" name="LMUSIC"> F  </i>
   <v name="POMASS">    132.90000000     35.45300000</v>
   <v name="DARWINR">      0.00000000      0.00000000</v>
   <v name="DARWINV">      1.00000000      1.00000000</v>
   <i type="logical" name="LCORR"> T  </i>
  </separator>
  <i type="logical" name="GGA_COMPAT"> T  </i>
  <i type="logical" name="LBERRY"> F  </i>
  <i type="int" name="ICORELEVEL">     0</i>
  <i type="logical" name="LDAU"> F  </i>
  <i type="int" name="I_CONSTRAINED_M">     0</i>
  <separator name="electronic exchange-correlation" >
   <i type="string" name="GGA">PE</i>
   <i type="int" name="VOSKOWN">     0</i>
   <i type="logical" name="LHFCALC"> F  </i>
   <i type="string" name="PRECFOCK"></i>
   <i type="logical" name="LSYMGRAD"> F  </i>
   <i type="logical" name="LHFONE"> F  </i>
   <i type="logical" name="LRHFCALC"> F  </i>
   <i type="logical" name="LTHOMAS"> F  </i>
   <i type="logical" name="LMODELHF"> F  </i>
   <i name="ENCUT4O">     -1.00000000</i>
   <i type="int" name="EXXOEP">     0</i>
   <i type="int" name="FOURORBIT">     0</i>
   <i name="AEXX">      0.00000000</i>
   <i name="HFALPHA">      0.00000000</i>
   <i name="MCALPHA">      0.00000000</i>
   <i name="ALDAX">      1.00000000</i>
   <i name="AGGAX">      1.00000000</i>
   <i name="ALDAC">      1.00000000</i>
   <i name="AGGAC">      1.00000000</i>
   <i type="int" name="NKREDX">     1</i>
   <i type="int" name="NKREDY">     1</i>
   <i type="int" name="NKREDZ">     1</i>
   <i type="logical" name="SHIFTRED"> F  </i>
   <i type="logical" name="ODDONLY"> F  </i>
   <i type="logical" name="EVENONLY"> F  </i>
   <i type="int" name="LMAXFOCK">     0</i>
   <i type="int" name="NMAXFOCKAE">     0</i>
   <i type="logical" name="LFOCKAEDFT"> F  </i>
   <i name="HFSCREEN">      0.00000000</i>
   <i name="HFSCREENC">      0.00000000</i>
   <i type="int" name="NBANDSGWLOW">     0</i>
  </separator>
  <separator name="vdW DFT" >
   <i type="logical" name="LUSE_VDW"> F  </i>
   <i name="Zab_VDW">     -0.84910000</i>
   <i name="PARAM1">      0.12340000</i>
   <i name="PARAM2">      1.00000000</i>
   <i name="PARAM3">      0.00000000</i>
  </separator>
  <separator name="model GW" >
   <i type="int" name="MODEL_GW">     0</i>
   <i name="MODEL_EPS0">     17.77552085</i>
   <i name="MODEL_ALPHA">      1.00000000</i>
  </separator>
  <separator name="linear response parameters" >
   <i type="logical" name="LEPSILON"> F  </i>
   <i type="logical" name="LRPA"> F  </i>
   <i type="logical" name="LNABLA"> F  </i>
   <i type="logical" name="LVEL"> F  </i>
   <i type="int" name="KINTER">     0</i>
   <i name="CSHIFT">      0.10000000</i>
   <i name="OMEGAMAX">     -1.00000000</i>
   <i name="DEG_THRESHOLD">      0.00200000</i>
  </separator>
  <separator name="orbital magnetization" >
   <i type="logical" name="NUCIND"> F  </i>
   <v name="MAGPOS">      0.00000000      0.00000000      0.00000000</v>
   <i type="logical" name="LNICSALL"> T  </i>
   <i type="logical" name="ORBITALMAG"> F  </i>
   <i type="logical" name="LMAGBLOCH"> F  </i>
   <i type="logical" name="LCHIMAG"> F  </i>
   <i type="logical" name="LGAUGE"> T  </i>
   <i type="int" name="MAGATOM">     0</i>
   <v name="MAGDIPOL">      0.00000000      0.00000000      0.00000000</v>
   <v name="AVECCONST">      0.00000000      0.00000000      0.00000000</v>
  </separator>
  <separator name="response functions" >
   <i type="logical" name="LADDER"> F  </i>
   <i type="logical" name="LFXC"> F  </i>
   <i type="logical" name="LHARTREE"> T  </i>
   <i type="int" name="IBSE">     0</i>
   <i type="logical" name="LTCTE"> F  </i>
   <i type="logical" name="LTETE"> F  </i>
   <i type="logical" name="LTRIPLET"> F  </i>
   <i type="logical" name="LFXCEPS"> F  </i>
   <i type="logical" name="LFXHEG"> F  </i>
   <i type="logical" name="L2ORDER"> F  </i>
   <i type="logical" name="LUSEW"> F  </i>
   <i name="ENCUTGW">     -2.00000000</i>
   <i name="ENCUTGWSOFT">     -2.00000000</i>
   <i name="ENCUTLF">     -1.00000000</i>
   <i type="int" name="LMAXMP2">    -1</i>
   <i name="SCISSOR">      0.00000000</i>
   <i type="int" name="NOMEGA">     0</i>
   <i type="int" name="NOMEGAR">     0</i>
   <i type="int" name="NBANDSGW">    -1</i>
   <i type="int" name="NBANDSO">    -1</i>
   <i type="int" name="NBANDSV">    -1</i>
   <i type="int" name="NELM">   100</i>
   <i type="int" name="DIM">     3</i>
   <i type="int" name="ANTIRES">     0</i>
   <i name="OMEGAMAX">    -30.00000000</i>
   <i name="OMEGAMIN">    -30.00000000</i>
   <i name="OMEGATL">   -200.00000000</i>
   <i type="int" name="OMEGAGRID">     0</i>
   <i name="CSHIFT">     -0.10000000</i>
   <i type="logical" name="SELFENERGY"> F  </i>
   <i type="logical" name="LSPECTRAL"> F  </i>
   <i type="logical" name="ODDONLYGW"> F  </i>
   <i type="logical" name="EVENONLYGW"> F  </i>
   <i type="int" name="NKREDLFX">     1</i>
   <i type="int" name="NKREDLFY">     1</i>
   <i type="int" name="NKREDLFZ">     1</i>
   <i type="int" name="MAXMEM">  1800</i>
   <i type="int" name="TELESCOPE">     0</i>
   <i type="int" name="TAUPAR">     1</i>
  </separator>
  <separator name="External order field" >
   <i name="OFIELD_KAPPA">      0.00000000</i>
   <v name="OFIELD_K">      0.00000000      0.00000000      0.00000000</v>
   <i name="OFIELD_Q6_NEAR">      0.00000000</i>
   <i name="OFIELD_Q6_FAR">      0.00000000</i>
   <i name="OFIELD_A">      0.00000000</i>
  </separator>
 </parameters>
 <atominfo>
  <atoms>       2 </atoms>
  <types>       2 </types>
  <array name="atoms" >
   <dimension dim="1">ion</dimension>
   <field type="string">element</field>
   <field type="int">atomtype</field>
   <set>
    <rc><c>Cs</c><c>   1</c></rc>
    <rc><c>Cl</c><c>   2</c></rc>
   </set>
  </array>
  <array name="atomtypes" >
   <dimension dim="1">type</dimension>
   <field type="int">atomspertype</field>
   <field type="string">element</field>
   <field>mass</field>
   <field>valence</field>
   <field type="string">pseudopotential</field>
   <set>
    <rc><c>   1</c><c>Cs</c><c>    132.90000000</c><c>      9.00000000</c><c>  PAW_PBE Cs_sv 08Apr2002               </c></rc>
    <rc><c>   1</c><c>Cl</c><c>     35.45300000</c><c>      7.00000000</c><c>  PAW_PBE Cl 06Sep2000                  </c></rc>
   </set>
  </array>
 </atominfo>
 <structure name="initialpos" >
  <crystal>
   <varray name="basis" >
    <v>       3.89852534       0.00000000       0.00000001 </v>
    <v>      -0.00000000       3.89852533      -0.00000000 </v>
    <v>       0.00000001      -0.00000000       3.89852532 </v>
   </varray>
   <i name="volume">     59.25173616 </i>
   <varray name="rec_basis" >
    <v>       0.25650725       0.00000000      -0.00000000 </v>
    <v>      -0.00000000       0.25650725       0.00000000 </v>
    <v>      -0.00000000       0.00000000       0.25650725 </v>
   </varray>
  </crystal>
  <varray name="positions" >
   <v>       1.00000000       0.00000000       0.00000000 </v>
   <v>       0.50000000       0.50000000       0.50000000 </v>
  </varray>
 </structure>
 <calculation>
  <scstep>
   <time name="dav">    4.16    4.17</time>
   <time name="total">    5.22    5.23</time>
   <energy>
    <i name="alphaZ">     62.08320549 </i>
    <i name="ewald">   -867.80935931 </i>
    <i name="hartreedc">   -110.21267163 </i>
    <i name="XCdc">     31.31858494 </i>
    <i name="pawpsdc">    749.90156578 </i>
    <i name="pawaedc">   -743.04852496 </i>
    <i name="eentropy">     -0.00092856 </i>
    <i name="bandstr">      8.58408594 </i>
    <i name="atom">    965.40548297 </i>
    <i name="e_fr_energy">     96.22144068 </i>
    <i name="e_wo_entrp">     96.22236923 </i>
    <i name="e_0_energy">     96.22190495 </i>
   </energy>
  </scstep>
  <scstep>
   <time name="dav">    5.14    5.16</time>
   <time name="total">    5.15    5.16</time>
   <energy>
    <i name="e_fr_energy">      1.16548171 </i>
    <i name="e_wo_entrp">      1.16548171 </i>
    <i name="e_0_energy">      1.16548171 </i>
   </energy>
  </scstep>
  <scstep>
   <time name="dav">    4.89    4.90</time>
   <time name="total">    4.90    4.91</time>
   <energy>
    <i name="e_fr_energy">     -6.47262216 </i>
    <i name="e_wo_entrp">     -6.47262216 </i>
    <i name="e_0_energy">     -6.47262216 </i>
   </energy>
  </scstep>
  <scstep>
   <time name="dav">    4.68    4.69</time>
   <time name="total">    4.69    4.70</time>
   <energy>
    <i name="e_fr_energy">     -6.55264327 </i>
    <i name="e_wo_entrp">     -6.55264327 </i>
    <i name="e_0_energy">     -6.55264327 </i>
   </energy>
  </scstep>
  <scstep>
   <time name="dav">    4.72    4.73</time>
   <time name="total">    4.72    4.73</time>
   <energy>
    <i name="e_fr_energy">     -6.55359870 </i>
    <i name="e_wo_entrp">     -6.55359870 </i>
    <i name="e_0_energy">     -6.55359870 </i>
   </energy>
  </scstep>
  <scstep>
   <time name="dav">    4.76    4.77</time>
   <time name="total">    5.07    5.08</time>
   <energy>
    <i name="e_fr_energy">     -6.55361738 </i>
    <i name="e_wo_entrp">     -6.55361738 </i>
    <i name="e_0_energy">     -6.55361738 </i>
   </energy>
  </scstep>
  <scstep>
   <time name="diag">    1.08    1.08</time>
   <time name="diis">    3.21    3.21</time>
   <time name="orth">    0.05    0.06</time>
   <time name="total">    5.68    5.70</time>
   <energy>
    <i name="e_fr_energy">     -6.34845740 </i>
    <i name="e_wo_entrp">     -6.34845740 </i>
    <i name="e_0_energy">     -6.34845740 </i>
   </energy>
  </scstep>
  <scstep>
   <time name="diag">    1.07    1.08</time>
   <time name="diis">    3.24    3.25</time>
   <time name="orth">    0.06    0.06</time>
   <time name="total">    5.51    5.52</time>
   <energy>
    <i name="e_fr_energy">     -6.31385454 </i>
    <i name="e_wo_entrp">     -6.31385454 </i>
    <i name="e_0_energy">     -6.31385454 </i>
   </energy>
  </scstep>
  <scstep>
   <time name="diag">    1.09    1.09</time>
   <time name="diis">    3.27    3.27</time>
   <time name="orth">    0.06    0.06</time>
   <time name="total">    5.53    5.55</time>
   <energy>
    <i name="e_fr_energy">     -6.31419820 </i>
    <i name="e_wo_entrp">     -6.31419820 </i>
    <i name="e_0_energy">     -6.31419820 </i>
   </energy>
  </scstep>
  <scstep>
   <time name="diag">    1.09    1.09</time>
   <time name="diis">    3.25    3.26</time>
   <time name="orth">    0.06    0.06</time>
   <time name="total">    5.51    5.52</time>
   <energy>
    <i name="e_fr_energy">     -6.31470001 </i>
    <i name="e_wo_entrp">     -6.31470001 </i>
    <i name="e_0_energy">     -6.31470001 </i>
   </energy>
  </scstep>
  <scstep>
   <time name="diag">    1.08    1.08</time>
   <time name="diis">    3.20    3.20</time>
   <time name="orth">    0.06    0.06</time>
   <time name="total">    5.43    5.44</time>
   <energy>
    <i name="e_fr_energy">     -6.31475030 </i>
    <i name="e_wo_entrp">     -6.31475030 </i>
    <i name="e_0_energy">     -6.31475030 </i>
   </energy>
  </scstep>
  <scstep>
   <time name="diag">    1.11    1.11</time>
   <time name="diis">    3.26    3.27</time>
   <time name="orth">    0.06    0.06</time>
   <time name="total">    5.51    5.52</time>
   <energy>
    <i name="e_fr_energy">     -6.31487540 </i>
    <i name="e_wo_entrp">     -6.31487540 </i>
    <i name="e_0_energy">     -6.31487540 </i>
   </energy>
  </scstep>
  <scstep>
   <time name="diag">    1.09    1.09</time>
   <time name="diis">    3.34    3.34</time>
   <time name="orth">    0.06    0.06</time>
   <time name="total">    5.60    5.62</time>
   <energy>
    <i name="e_fr_energy">     -6.31492555 </i>
    <i name="e_wo_entrp">     -6.31492555 </i>
    <i name="e_0_energy">     -6.31492555 </i>
   </energy>
  </scstep>
  <scstep>
   <time name="diag">    1.09    1.09</time>
   <time name="diis">    3.05    3.06</time>
   <time name="orth">    0.06    0.06</time>
   <time name="total">    5.02    5.03</time>
   <energy>
    <i name="alphaZ">     62.08320549 </i>
    <i name="ewald">   -867.80935931 </i>
    <i name="hartreedc">   -115.07257653 </i>
    <i name="XCdc">     31.77808589 </i>
    <i name="pawpsdc">    879.44354989 </i>
    <i name="pawaedc">   -872.95968917 </i>
    <i name="eentropy">     -0.00000000 </i>
    <i name="bandstr">    -89.18362434 </i>
    <i name="atom">    965.40548297 </i>
    <i name="e_fr_energy">     -6.31492511 </i>
    <i name="e_wo_entrp">     -6.31492511 </i>
    <i name="e_0_energy">     -6.31492511 </i>
   </energy>
  </scstep>
  <structure>
   <crystal>
    <varray name="basis" >
     <v>       3.89852534       0.00000000       0.00000001 </v>
     <v>      -0.00000000       3.89852533      -0.00000000 </v>
     <v>       0.00000001      -0.00000000       3.89852532 </v>
    </varray>
    <i name="volume">     59.25173616 </i>
    <varray name="rec_basis" >
     <v>       0.25650725       0.00000000      -0.00000000 </v>
     <v>      -0.00000000       0.25650725       0.00000000 </v>
     <v>      -0.00000000       0.00000000       0.25650725 </v>
    </varray>
   </crystal>
   <varray name="positions" >
    <v>       1.00000000       0.00000000       0.00000000 </v>
    <v>       0.50000000       0.50000000       0.50000000 </v>
   </varray>
  </structure>
  <varray name="forces" >
   <v>       0.00000030      -0.00000006       0.00000020 </v>
   <v>      -0.00000030       0.00000006      -0.00000020 </v>
  </varray>
  <varray name="stress" >
   <v>      -0.55910799       0.00000208      -0.00001754 </v>
   <v>       0.00000240      -0.55914259      -0.00000596 </v>
   <v>      -0.00001731      -0.00000578      -0.55915989 </v>
  </varray>
  <energy>
   <i name="e_fr_energy">     -9.78310187 </i>
   <i name="e_wo_entrp">     -9.78310187 </i>
   <i name="e_0_energy">     -0.00000000 </i>
  </energy>
  <time name="totalsc">   76.61   76.80</time>
 </calculation>
 <calculation>
  <scstep>
   <time name="dav">    4.48    4.49</time>
   <time name="total">    5.60    5.61</time>
   <energy>
    <i name="alphaZ">     62.12967754 </i>
    <i name="ewald">   -868.02583665 </i>
    <i name="hartreedc">   -115.09603730 </i>
    <i name="XCdc">     31.78682915 </i>
    <i name="pawpsdc">    879.49791355 </i>
    <i name="pawaedc">   -873.01331001 </i>
    <i name="eentropy">     -0.00000000 </i>
    <i name="bandstr">    -88.99804085 </i>
    <i name="atom">    965.40548297 </i>
    <i name="e_fr_energy">     -6.31332159 </i>
    <i name="e_wo_entrp">     -6.31332159 </i>
    <i name="e_0_energy">     -6.31332159 </i>
   </energy>
  </scstep>
  <scstep>
   <time name="diag">    1.09    1.09</time>
   <time name="diis">    3.27    3.27</time>
   <time name="orth">    0.06    0.06</time>
   <time name="total">    5.53    5.54</time>
   <energy>
    <i name="e_fr_energy">     -6.31328085 </i>
    <i name="e_wo_entrp">     -6.31328085 </i>
    <i name="e_0_energy">     -6.31328085 </i>
   </energy>
  </scstep>
  <scstep>
   <time name="diag">    1.10    1.10</time>
   <time name="diis">    3.26    3.27</time>
   <time name="orth">    0.06    0.06</time>
   <time name="total">    5.54    5.55</time>
   <energy>
    <i name="e_fr_energy">     -6.31327274 </i>
    <i name="e_wo_entrp">     -6.31327274 </i>
    <i name="e_0_energy">     -6.31327274 </i>
   </energy>
  </scstep>
  <scstep>
   <time name="diag">    1.09    1.09</time>
   <time name="diis">    2.44    2.45</time>
   <time name="orth">    0.06    0.06</time>
   <time name="total">    4.70    4.72</time>
   <energy>
    <i name="e_fr_energy">     -6.31327313 </i>
    <i name="e_wo_entrp">     -6.31327313 </i>
    <i name="e_0_energy">     -6.31327313 </i>
   </energy>
  </scstep>
  <scstep>
   <time name="diag">    1.09    1.10</time>
   <time name="diis">    1.89    1.90</time>
   <time name="orth">    0.06    0.06</time>
   <time name="total">    4.16    4.18</time>
   <energy>
    <i name="e_fr_energy">     -6.31327329 </i>
    <i name="e_wo_entrp">     -6.31327329 </i>
    <i name="e_0_energy">     -6.31327329 </i>
   </energy>
  </scstep>
  <scstep>
   <time name="diag">    1.09    1.09</time>
   <time name="diis">    1.71    1.71</time>
   <time name="orth">    0.06    0.06</time>
   <time name="total">    3.98    3.99</time>
   <energy>
    <i name="e_fr_energy">     -6.31327345 </i>
    <i name="e_wo_entrp">     -6.31327345 </i>
    <i name="e_0_energy">     -6.31327345 </i>
   </energy>
  </scstep>
  <scstep>
   <time name="diag">    1.09    1.09</time>
   <time name="diis">    1.41    1.41</time>
   <time name="orth">    0.06    0.06</time>
   <time name="total">    3.68    3.69</time>
   <energy>
    <i name="e_fr_energy">     -6.31327346 </i>
    <i name="e_wo_entrp">     -6.31327346 </i>
    <i name="e_0_energy">     -6.31327346 </i>
   </energy>
  </scstep>
  <scstep>
   <time name="diag">    1.08    1.08</time>
   <time name="diis">    1.35    1.35</time>
   <time name="orth">    0.06    0.06</time>
   <time name="total">    3.30    3.31</time>
   <energy>
    <i name="alphaZ">     62.12967754 </i>
    <i name="ewald">   -868.02583665 </i>
    <i name="hartreedc">   -114.97822222 </i>
    <i name="XCdc">     31.78036195 </i>
    <i name="pawpsdc">    879.68942664 </i>
    <i name="pawaedc">   -873.20500753 </i>
    <i name="eentropy">     -0.00000000 </i>
    <i name="bandstr">    -89.10915616 </i>
    <i name="atom">    965.40548297 </i>
    <i name="e_fr_energy">     -6.31327346 </i>
    <i name="e_wo_entrp">     -6.31327346 </i>
    <i name="e_0_energy">     -6.31327346 </i>
   </energy>
  </scstep>
  <structure>
   <crystal>
    <varray name="basis" >
     <v>       3.89755313       0.00000000      -0.00000002 </v>
     <v>       0.00000000       3.89755306      -0.00000001 </v>
     <v>      -0.00000002      -0.00000001       3.89755302 </v>
    </varray>
    <i name="volume">     59.20741677 </i>
    <varray name="rec_basis" >
     <v>       0.25657123      -0.00000000       0.00000000 </v>
     <v>      -0.00000000       0.25657123       0.00000000 </v>
     <v>       0.00000000       0.00000000       0.25657124 </v>
    </varray>
   </crystal>
   <varray name="positions" >
    <v>       1.00000000       0.00000000       0.00000000 </v>
    <v>       0.50000000       0.50000000       0.50000000 </v>
   </varray>
  </structure>
  <varray name="forces" >
   <v>      -0.00000005      -0.00000028      -0.00000013 </v>
   <v>       0.00000005       0.00000028       0.00000013 </v>
  </varray>
  <varray name="stress" >
   <v>       0.07306296      -0.00000091       0.00000157 </v>
   <v>      -0.00000108       0.07308626       0.00000137 </v>
   <v>       0.00000149       0.00000176       0.07309166 </v>
  </varray>
  <energy>
   <i name="e_fr_energy">     -9.78310677 </i>
   <i name="e_wo_entrp">     -9.78310677 </i>
   <i name="e_0_energy">     -0.00000000 </i>
  </energy>
  <time name="totalsc">   39.41   39.52</time>
  <eigenvalues>
   <array>
    <dimension dim="1">band</dimension>
    <dimension dim="2">kpoint</dimension>
    <dimension dim="3">spin</dimension>
    <field>eigene</field>
    <field>occ</field>
    <set>
     <set comment="spin 1">
      <set comment="kpoint 1">
       <r>  -18.4060    1.0000 </r>
       <r>  -11.5949    1.0000 </r>
       <r>   -4.7459    1.0000 </r>
       <r>   -4.7459    1.0000 </r>
       <r>   -4.7459    1.0000 </r>
       <r>    0.8635    1.0000 </r>
       <r>    0.8635    1.0000 </r>
       <r>    0.8635    1.0000 </r>
       <r>    6.0016    0.0000 </r>
       <r>    6.0016    0.0000 </r>
       <r>    6.9911    0.0000 </r>
       <r>   11.4463    0.0000 </r>
       <r>   11.4463    0.0000 </r>
       <r>   11.4463    0.0000 </r>
      </set>
      <set comment="kpoint 2">
       <r>  -18.3654    1.0000 </r>
       <r>  -11.6294    1.0000 </r>
       <r>   -4.9460    1.0000 </r>
       <r>   -4.6829    1.0000 </r>
       <r>   -4.6829    1.0000 </r>
       <r>    0.3955    1.0000 </r>
       <r>    0.7563    1.0000 </r>
       <r>    0.7563    1.0000 </r>
       <r>    6.2218    0.0000 </r>
       <r>    6.8168    0.0000 </r>
       <r>    7.7641    0.0000 </r>
       <r>   11.2313    0.0000 </r>
       <r>   11.2313    0.0000 </r>
       <r>   11.6482    0.0000 </r>
      </set>
      <set comment="kpoint 3">
       <r>  -18.2816    1.0000 </r>
       <r>  -11.7081    1.0000 </r>
       <r>   -5.2754    1.0000 </r>
       <r>   -4.5489    1.0000 </r>
       <r>   -4.5489    1.0000 </r>
       <r>   -0.3744    1.0000 </r>
       <r>    0.5301    1.0000 </r>
       <r>    0.5301    1.0000 </r>
       <r>    6.8103    0.0000 </r>
       <r>    8.4842    0.0000 </r>
       <r>    9.5615    0.0000 </r>
       <r>   10.9797    0.0000 </r>
       <r>   11.0521    0.0000 </r>
       <r>   11.0521    0.0000 </r>
      </set>
      <set comment="kpoint 4">
       <r>  -18.2383    1.0000 </r>
       <r>  -11.7525    1.0000 </r>
       <r>   -5.4103    1.0000 </r>
       <r>   -4.4773    1.0000 </r>
       <r>   -4.4773    1.0000 </r>
       <r>   -0.7095    1.0000 </r>
       <r>    0.4105    1.0000 </r>
       <r>    0.4105    1.0000 </r>
       <r>    7.2753    0.0000 </r>
       <r>    9.3150    0.0000 </r>
       <r>   10.0262    0.0000 </r>
       <r>   10.9182    0.0000 </r>
       <r>   11.0845    0.0000 </r>
       <r>   11.0845    0.0000 </r>
      </set>
      <set comment="kpoint 5">
       <r>  -18.3654    1.0000 </r>
       <r>  -11.6294    1.0000 </r>
       <r>   -4.9460    1.0000 </r>
       <r>   -4.6829    1.0000 </r>
       <r>   -4.6829    1.0000 </r>
       <r>    0.3955    1.0000 </r>
       <r>    0.7563    1.0000 </r>
       <r>    0.7563    1.0000 </r>
       <r>    6.2218    0.0000 </r>
       <r>    6.8168    0.0000 </r>
       <r>    7.7641    0.0000 </r>
       <r>   11.2313    0.0000 </r>
       <r>   11.2313    0.0000 </r>
       <r>   11.6482    0.0000 </r>
      </set>
      <set comment="kpoint 6">
       <r>  -18.3268    1.0000 </r>
       <r>  -11.6416    1.0000 </r>
       <r>   -5.0918    1.0000 </r>
       <r>   -4.7713    1.0000 </r>
       <r>   -4.6257    1.0000 </r>
       <r>    0.1333    1.0000 </r>
       <r>    0.6919    1.0000 </r>
       <r>    0.7106    1.0000 </r>
       <r>    6.6995    0.0000 </r>
       <r>    7.3270    0.0000 </r>
       <r>    8.1415    0.0000 </r>
       <r>   10.5628    0.0000 </r>
       <r>   10.8811    0.0000 </r>
       <r>   12.0997    0.0000 </r>
      </set>
      <set comment="kpoint 7">
       <r>  -18.2471    1.0000 </r>
       <r>  -11.6748    1.0000 </r>
       <r>   -5.4078    1.0000 </r>
       <r>   -4.8696    1.0000 </r>
       <r>   -4.5052    1.0000 </r>
       <r>   -0.2416    1.0000 </r>
       <r>    0.5232    1.0000 </r>
       <r>    0.5496    1.0000 </r>
       <r>    7.2450    0.0000 </r>
       <r>    8.5574    0.0000 </r>
       <r>    9.0666    0.0000 </r>
       <r>   10.2039    0.0000 </r>
       <r>   10.9861    0.0000 </r>
       <r>   11.5616    0.0000 </r>
      </set>
      <set comment="kpoint 8">
       <r>  -18.2060    1.0000 </r>
       <r>  -11.6960    1.0000 </r>
       <r>   -5.5403    1.0000 </r>
       <r>   -4.9258    1.0000 </r>
       <r>   -4.4415    1.0000 </r>
       <r>   -0.3629    1.0000 </r>
       <r>    0.3865    1.0000 </r>
       <r>    0.4713    1.0000 </r>
       <r>    7.5552    0.0000 </r>
       <r>    8.8977    0.0000 </r>
       <r>    9.4773    0.0000 </r>
       <r>   10.3772    0.0000 </r>
       <r>   10.8500    0.0000 </r>
       <r>   11.0624    0.0000 </r>
      </set>
      <set comment="kpoint 9">
       <r>  -18.2471    1.0000 </r>
       <r>  -11.6748    1.0000 </r>
       <r>   -5.4078    1.0000 </r>
       <r>   -4.8696    1.0000 </r>
       <r>   -4.5052    1.0000 </r>
       <r>   -0.2416    1.0000 </r>
       <r>    0.5232    1.0000 </r>
       <r>    0.5496    1.0000 </r>
       <r>    7.2450    0.0000 </r>
       <r>    8.5574    0.0000 </r>
       <r>    9.0666    0.0000 </r>
       <r>   10.2039    0.0000 </r>
       <r>   10.9861    0.0000 </r>
       <r>   11.5616    0.0000 </r>
      </set>
      <set comment="kpoint 10">
       <r>  -18.3268    1.0000 </r>
       <r>  -11.6416    1.0000 </r>
       <r>   -5.0918    1.0000 </r>
       <r>   -4.7713    1.0000 </r>
       <r>   -4.6257    1.0000 </r>
       <r>    0.1333    1.0000 </r>
       <r>    0.6919    1.0000 </r>
       <r>    0.7106    1.0000 </r>
       <r>    6.6995    0.0000 </r>
       <r>    7.3270    0.0000 </r>
       <r>    8.1415    0.0000 </r>
       <r>   10.5628    0.0000 </r>
       <r>   10.8811    0.0000 </r>
       <r>   12.0997    0.0000 </r>
      </set>
      <set comment="kpoint 11">
       <r>  -18.2816    1.0000 </r>
       <r>  -11.7081    1.0000 </r>
       <r>   -5.2754    1.0000 </r>
       <r>   -4.5489    1.0000 </r>
       <r>   -4.5489    1.0000 </r>
       <r>   -0.3744    1.0000 </r>
       <r>    0.5301    1.0000 </r>
       <r>    0.5301    1.0000 </r>
       <r>    6.8103    0.0000 </r>
       <r>    8.4842    0.0000 </r>
       <r>    9.5615    0.0000 </r>
       <r>   10.9797    0.0000 </r>
       <r>   11.0521    0.0000 </r>
       <r>   11.0521    0.0000 </r>
      </set>
      <set comment="kpoint 12">
       <r>  -18.2471    1.0000 </r>
       <r>  -11.6748    1.0000 </r>
       <r>   -5.4078    1.0000 </r>
       <r>   -4.8696    1.0000 </r>
       <r>   -4.5052    1.0000 </r>
       <r>   -0.2416    1.0000 </r>
       <r>    0.5232    1.0000 </r>
       <r>    0.5496    1.0000 </r>
       <r>    7.2450    0.0000 </r>
       <r>    8.5574    0.0000 </r>
       <r>    9.0666    0.0000 </r>
       <r>   10.2039    0.0000 </r>
       <r>   10.9861    0.0000 </r>
       <r>   11.5616    0.0000 </r>
      </set>
      <set comment="kpoint 13">
       <r>  -18.1764    1.0000 </r>
       <r>  -11.6090    1.0000 </r>
       <r>   -5.6872    1.0000 </r>
       <r>   -5.3963    1.0000 </r>
       <r>   -4.4148    1.0000 </r>
       <r>   -0.0165    1.0000 </r>
       <r>    0.4988    1.0000 </r>
       <r>    0.5846    1.0000 </r>
       <r>    7.3208    0.0000 </r>
       <r>    7.8735    0.0000 </r>
       <r>    9.4108    0.0000 </r>
       <r>   10.2417    0.0000 </r>
       <r>   10.5327    0.0000 </r>
       <r>   11.9267    0.0000 </r>
      </set>
      <set comment="kpoint 14">
       <r>  -18.1401    1.0000 </r>
       <r>  -11.5768    1.0000 </r>
       <r>   -5.8097    1.0000 </r>
       <r>   -5.6435    1.0000 </r>
       <r>   -4.3679    1.0000 </r>
       <r>    0.1791    1.0000 </r>
       <r>    0.3892    1.0000 </r>
       <r>    0.5996    1.0000 </r>
       <r>    7.2313    0.0000 </r>
       <r>    7.5109    0.0000 </r>
       <r>    9.3785    0.0000 </r>
       <r>    9.4623    0.0000 </r>
       <r>   11.4031    0.0000 </r>
       <r>   12.9989    0.0000 </r>
      </set>
      <set comment="kpoint 15">
       <r>  -18.1764    1.0000 </r>
       <r>  -11.6090    1.0000 </r>
       <r>   -5.6872    1.0000 </r>
       <r>   -5.3963    1.0000 </r>
       <r>   -4.4148    1.0000 </r>
       <r>   -0.0165    1.0000 </r>
       <r>    0.4988    1.0000 </r>
       <r>    0.5846    1.0000 </r>
       <r>    7.3208    0.0000 </r>
       <r>    7.8735    0.0000 </r>
       <r>    9.4108    0.0000 </r>
       <r>   10.2417    0.0000 </r>
       <r>   10.5327    0.0000 </r>
       <r>   11.9267    0.0000 </r>
      </set>
      <set comment="kpoint 16">
       <r>  -18.2471    1.0000 </r>
       <r>  -11.6748    1.0000 </r>
       <r>   -5.4078    1.0000 </r>
       <r>   -4.8696    1.0000 </r>
       <r>   -4.5052    1.0000 </r>
       <r>   -0.2416    1.0000 </r>
       <r>    0.5232    1.0000 </r>
       <r>    0.5496    1.0000 </r>
       <r>    7.2450    0.0000 </r>
       <r>    8.5574    0.0000 </r>
       <r>    9.0666    0.0000 </r>
       <r>   10.2039    0.0000 </r>
       <r>   10.9861    0.0000 </r>
       <r>   11.5616    0.0000 </r>
      </set>
      <set comment="kpoint 17">
       <r>  -18.2383    1.0000 </r>
       <r>  -11.7525    1.0000 </r>
       <r>   -5.4103    1.0000 </r>
       <r>   -4.4773    1.0000 </r>
       <r>   -4.4773    1.0000 </r>
       <r>   -0.7095    1.0000 </r>
       <r>    0.4105    1.0000 </r>
       <r>    0.4105    1.0000 </r>
       <r>    7.2753    0.0000 </r>
       <r>    9.3150    0.0000 </r>
       <r>   10.0262    0.0000 </r>
       <r>   10.9182    0.0000 </r>
       <r>   11.0845    0.0000 </r>
       <r>   11.0845    0.0000 </r>
      </set>
      <set comment="kpoint 18">
       <r>  -18.2060    1.0000 </r>
       <r>  -11.6960    1.0000 </r>
       <r>   -5.5403    1.0000 </r>
       <r>   -4.9258    1.0000 </r>
       <r>   -4.4415    1.0000 </r>
       <r>   -0.3629    1.0000 </r>
       <r>    0.3865    1.0000 </r>
       <r>    0.4713    1.0000 </r>
       <r>    7.5552    0.0000 </r>
       <r>    8.8977    0.0000 </r>
       <r>    9.4773    0.0000 </r>
       <r>   10.3772    0.0000 </r>
       <r>   10.8500    0.0000 </r>
       <r>   11.0624    0.0000 </r>
      </set>
      <set comment="kpoint 19">
       <r>  -18.1401    1.0000 </r>
       <r>  -11.5768    1.0000 </r>
       <r>   -5.8097    1.0000 </r>
       <r>   -5.6435    1.0000 </r>
       <r>   -4.3679    1.0000 </r>
       <r>    0.1791    1.0000 </r>
       <r>    0.3892    1.0000 </r>
       <r>    0.5996    1.0000 </r>
       <r>    7.2313    0.0000 </r>
       <r>    7.5109    0.0000 </r>
       <r>    9.3785    0.0000 </r>
       <r>    9.4623    0.0000 </r>
       <r>   11.4031    0.0000 </r>
       <r>   12.9989    0.0000 </r>
      </set>
      <set comment="kpoint 20">
       <r>  -18.1063    1.0000 </r>
       <r>  -11.5135    1.0000 </r>
       <r>   -5.9490    1.0000 </r>
       <r>   -5.9490    1.0000 </r>
       <r>   -4.3302    1.0000 </r>
       <r>    0.4141    1.0000 </r>
       <r>    0.4141    1.0000 </r>
       <r>    0.6675    1.0000 </r>
       <r>    6.9251    0.0000 </r>
       <r>    6.9854    0.0000 </r>
       <r>    8.9749    0.0000 </r>
       <r>    8.9749    0.0000 </r>
       <r>   14.4015    0.0000 </r>
       <r>   14.4034    0.0000 </r>
      </set>
      <set comment="kpoint 21">
       <r>  -18.3654    1.0000 </r>
       <r>  -11.6294    1.0000 </r>
       <r>   -4.9460    1.0000 </r>
       <r>   -4.6829    1.0000 </r>
       <r>   -4.6829    1.0000 </r>
       <r>    0.3955    1.0000 </r>
       <r>    0.7563    1.0000 </r>
       <r>    0.7563    1.0000 </r>
       <r>    6.2218    0.0000 </r>
       <r>    6.8168    0.0000 </r>
       <r>    7.7641    0.0000 </r>
       <r>   11.2313    0.0000 </r>
       <r>   11.2313    0.0000 </r>
       <r>   11.6482    0.0000 </r>
      </set>
      <set comment="kpoint 22">
       <r>  -18.3268    1.0000 </r>
       <r>  -11.6416    1.0000 </r>
       <r>   -5.0918    1.0000 </r>
       <r>   -4.7713    1.0000 </r>
       <r>   -4.6257    1.0000 </r>
       <r>    0.1333    1.0000 </r>
       <r>    0.6919    1.0000 </r>
       <r>    0.7106    1.0000 </r>
       <r>    6.6995    0.0000 </r>
       <r>    7.3270    0.0000 </r>
       <r>    8.1415    0.0000 </r>
       <r>   10.5628    0.0000 </r>
       <r>   10.8811    0.0000 </r>
       <r>   12.0997    0.0000 </r>
      </set>
      <set comment="kpoint 23">
       <r>  -18.2471    1.0000 </r>
       <r>  -11.6748    1.0000 </r>
       <r>   -5.4078    1.0000 </r>
       <r>   -4.8696    1.0000 </r>
       <r>   -4.5052    1.0000 </r>
       <r>   -0.2416    1.0000 </r>
       <r>    0.5232    1.0000 </r>
       <r>    0.5496    1.0000 </r>
       <r>    7.2450    0.0000 </r>
       <r>    8.5574    0.0000 </r>
       <r>    9.0666    0.0000 </r>
       <r>   10.2039    0.0000 </r>
       <r>   10.9861    0.0000 </r>
       <r>   11.5616    0.0000 </r>
      </set>
      <set comment="kpoint 24">
       <r>  -18.2060    1.0000 </r>
       <r>  -11.6960    1.0000 </r>
       <r>   -5.5403    1.0000 </r>
       <r>   -4.9258    1.0000 </r>
       <r>   -4.4415    1.0000 </r>
       <r>   -0.3629    1.0000 </r>
       <r>    0.3865    1.0000 </r>
       <r>    0.4713    1.0000 </r>
       <r>    7.5552    0.0000 </r>
       <r>    8.8977    0.0000 </r>
       <r>    9.4773    0.0000 </r>
       <r>   10.3772    0.0000 </r>
       <r>   10.8500    0.0000 </r>
       <r>   11.0624    0.0000 </r>
      </set>
      <set comment="kpoint 25">
       <r>  -18.2471    1.0000 </r>
       <r>  -11.6748    1.0000 </r>
       <r>   -5.4078    1.0000 </r>
       <r>   -4.8696    1.0000 </r>
       <r>   -4.5052    1.0000 </r>
       <r>   -0.2416    1.0000 </r>
       <r>    0.5232    1.0000 </r>
       <r>    0.5496    1.0000 </r>
       <r>    7.2450    0.0000 </r>
       <r>    8.5574    0.0000 </r>
       <r>    9.0666    0.0000 </r>
       <r>   10.2039    0.0000 </r>
       <r>   10.9861    0.0000 </r>
       <r>   11.5616    0.0000 </r>
      </set>
      <set comment="kpoint 26">
       <r>  -18.3268    1.0000 </r>
       <r>  -11.6416    1.0000 </r>
       <r>   -5.0918    1.0000 </r>
       <r>   -4.7713    1.0000 </r>
       <r>   -4.6257    1.0000 </r>
       <r>    0.1333    1.0000 </r>
       <r>    0.6919    1.0000 </r>
       <r>    0.7106    1.0000 </r>
       <r>    6.6995    0.0000 </r>
       <r>    7.3270    0.0000 </r>
       <r>    8.1415    0.0000 </r>
       <r>   10.5628    0.0000 </r>
       <r>   10.8811    0.0000 </r>
       <r>   12.0997    0.0000 </r>
      </set>
      <set comment="kpoint 27">
       <r>  -18.3268    1.0000 </r>
       <r>  -11.6416    1.0000 </r>
       <r>   -5.0918    1.0000 </r>
       <r>   -4.7713    1.0000 </r>
       <r>   -4.6257    1.0000 </r>
       <r>    0.1333    1.0000 </r>
       <r>    0.6919    1.0000 </r>
       <r>    0.7106    1.0000 </r>
       <r>    6.6995    0.0000 </r>
       <r>    7.3270    0.0000 </r>
       <r>    8.1415    0.0000 </r>
       <r>   10.5628    0.0000 </r>
       <r>   10.8811    0.0000 </r>
       <r>   12.0997    0.0000 </r>
      </set>
      <set comment="kpoint 28">
       <r>  -18.2897    1.0000 </r>
       <r>  -11.6390    1.0000 </r>
       <r>   -5.0170    1.0000 </r>
       <r>   -5.0170    1.0000 </r>
       <r>   -4.7017    1.0000 </r>
       <r>    0.1540    1.0000 </r>
       <r>    0.5593    1.0000 </r>
       <r>    0.5593    1.0000 </r>
       <r>    7.4952    0.0000 </r>
       <r>    7.4952    0.0000 </r>
       <r>    8.6215    0.0000 </r>
       <r>   10.2698    0.0000 </r>
       <r>   10.2698    0.0000 </r>
       <r>   11.3603    0.0000 </r>
      </set>
      <set comment="kpoint 29">
       <r>  -18.2136    1.0000 </r>
       <r>  -11.6403    1.0000 </r>
       <r>   -5.4366    1.0000 </r>
       <r>   -4.8587    1.0000 </r>
       <r>   -4.8557    1.0000 </r>
       <r>   -0.0528    1.0000 </r>
       <r>    0.2429    1.0000 </r>
       <r>    0.5910    1.0000 </r>
       <r>    7.9164    0.0000 </r>
       <r>    8.6735    0.0000 </r>
       <r>    9.0989    0.0000 </r>
       <r>    9.9046    0.0000 </r>
       <r>   10.3902    0.0000 </r>
       <r>   10.8923    0.0000 </r>
      </set>
      <set comment="kpoint 30">
       <r>  -18.1743    1.0000 </r>
       <r>  -11.6446    1.0000 </r>
       <r>   -5.6081    1.0000 </r>
       <r>   -4.9522    1.0000 </r>
       <r>   -4.7681    1.0000 </r>
       <r>   -0.1722    1.0000 </r>
       <r>    0.0770    1.0000 </r>
       <r>    0.6457    1.0000 </r>
       <r>    8.2061    0.0000 </r>
       <r>    8.6197    0.0000 </r>
       <r>    8.9772    0.0000 </r>
       <r>    9.7508    0.0000 </r>
       <r>   10.7939    0.0000 </r>
       <r>   12.4104    0.0000 </r>
      </set>
      <set comment="kpoint 31">
       <r>  -18.2136    1.0000 </r>
       <r>  -11.6403    1.0000 </r>
       <r>   -5.4366    1.0000 </r>
       <r>   -4.8587    1.0000 </r>
       <r>   -4.8557    1.0000 </r>
       <r>   -0.0528    1.0000 </r>
       <r>    0.2429    1.0000 </r>
       <r>    0.5910    1.0000 </r>
       <r>    7.9164    0.0000 </r>
       <r>    8.6735    0.0000 </r>
       <r>    9.0989    0.0000 </r>
       <r>    9.9046    0.0000 </r>
       <r>   10.3902    0.0000 </r>
       <r>   10.8923    0.0000 </r>
      </set>
      <set comment="kpoint 32">
       <r>  -18.2897    1.0000 </r>
       <r>  -11.6390    1.0000 </r>
       <r>   -5.0170    1.0000 </r>
       <r>   -5.0170    1.0000 </r>
       <r>   -4.7017    1.0000 </r>
       <r>    0.1540    1.0000 </r>
       <r>    0.5593    1.0000 </r>
       <r>    0.5593    1.0000 </r>
       <r>    7.4952    0.0000 </r>
       <r>    7.4952    0.0000 </r>
       <r>    8.6215    0.0000 </r>
       <r>   10.2698    0.0000 </r>
       <r>   10.2698    0.0000 </r>
       <r>   11.3603    0.0000 </r>
      </set>
      <set comment="kpoint 33">
       <r>  -18.2471    1.0000 </r>
       <r>  -11.6748    1.0000 </r>
       <r>   -5.4078    1.0000 </r>
       <r>   -4.8696    1.0000 </r>
       <r>   -4.5052    1.0000 </r>
       <r>   -0.2416    1.0000 </r>
       <r>    0.5232    1.0000 </r>
       <r>    0.5496    1.0000 </r>
       <r>    7.2450    0.0000 </r>
       <r>    8.5574    0.0000 </r>
       <r>    9.0666    0.0000 </r>
       <r>   10.2039    0.0000 </r>
       <r>   10.9861    0.0000 </r>
       <r>   11.5616    0.0000 </r>
      </set>
      <set comment="kpoint 34">
       <r>  -18.2136    1.0000 </r>
       <r>  -11.6403    1.0000 </r>
       <r>   -5.4366    1.0000 </r>
       <r>   -4.8587    1.0000 </r>
       <r>   -4.8557    1.0000 </r>
       <r>   -0.0528    1.0000 </r>
       <r>    0.2429    1.0000 </r>
       <r>    0.5910    1.0000 </r>
       <r>    7.9164    0.0000 </r>
       <r>    8.6735    0.0000 </r>
       <r>    9.0989    0.0000 </r>
       <r>    9.9046    0.0000 </r>
       <r>   10.3902    0.0000 </r>
       <r>   10.8923    0.0000 </r>
      </set>
      <set comment="kpoint 35">
       <r>  -18.1448    1.0000 </r>
       <r>  -11.5712    1.0000 </r>
       <r>   -5.5953    1.0000 </r>
       <r>   -5.3968    1.0000 </r>
       <r>   -4.7799    1.0000 </r>
       <r>   -0.0673    1.0000 </r>
       <r>    0.2513    1.0000 </r>
       <r>    0.4381    1.0000 </r>
       <r>    8.2046    0.0000 </r>
       <r>    8.2878    0.0000 </r>
       <r>    9.4441    0.0000 </r>
       <r>    9.7432    0.0000 </r>
       <r>   10.5829    0.0000 </r>
       <r>   11.6178    0.0000 </r>
      </set>
      <set comment="kpoint 36">
       <r>  -18.1096    1.0000 </r>
       <r>  -11.5368    1.0000 </r>
       <r>   -5.7633    1.0000 </r>
       <r>   -5.5592    1.0000 </r>
       <r>   -4.7206    1.0000 </r>
       <r>   -0.0477    1.0000 </r>
       <r>    0.0555    1.0000 </r>
       <r>    0.5222    1.0000 </r>
       <r>    7.9392    0.0000 </r>
       <r>    8.0652    0.0000 </r>
       <r>    9.4273    0.0000 </r>
       <r>    9.5318    0.0000 </r>
       <r>   11.4812    0.0000 </r>
       <r>   13.1155    0.0000 </r>
      </set>
      <set comment="kpoint 37">
       <r>  -18.1448    1.0000 </r>
       <r>  -11.5712    1.0000 </r>
       <r>   -5.5953    1.0000 </r>
       <r>   -5.3968    1.0000 </r>
       <r>   -4.7799    1.0000 </r>
       <r>   -0.0673    1.0000 </r>
       <r>    0.2513    1.0000 </r>
       <r>    0.4381    1.0000 </r>
       <r>    8.2046    0.0000 </r>
       <r>    8.2878    0.0000 </r>
       <r>    9.4441    0.0000 </r>
       <r>    9.7432    0.0000 </r>
       <r>   10.5829    0.0000 </r>
       <r>   11.6178    0.0000 </r>
      </set>
      <set comment="kpoint 38">
       <r>  -18.2136    1.0000 </r>
       <r>  -11.6403    1.0000 </r>
       <r>   -5.4366    1.0000 </r>
       <r>   -4.8587    1.0000 </r>
       <r>   -4.8557    1.0000 </r>
       <r>   -0.0528    1.0000 </r>
       <r>    0.2429    1.0000 </r>
       <r>    0.5910    1.0000 </r>
       <r>    7.9164    0.0000 </r>
       <r>    8.6735    0.0000 </r>
       <r>    9.0989    0.0000 </r>
       <r>    9.9046    0.0000 </r>
       <r>   10.3902    0.0000 </r>
       <r>   10.8923    0.0000 </r>
      </set>
      <set comment="kpoint 39">
       <r>  -18.2060    1.0000 </r>
       <r>  -11.6960    1.0000 </r>
       <r>   -5.5403    1.0000 </r>
       <r>   -4.9258    1.0000 </r>
       <r>   -4.4415    1.0000 </r>
       <r>   -0.3629    1.0000 </r>
       <r>    0.3865    1.0000 </r>
       <r>    0.4713    1.0000 </r>
       <r>    7.5552    0.0000 </r>
       <r>    8.8977    0.0000 </r>
       <r>    9.4773    0.0000 </r>
       <r>   10.3772    0.0000 </r>
       <r>   10.8500    0.0000 </r>
       <r>   11.0624    0.0000 </r>
      </set>
      <set comment="kpoint 40">
       <r>  -18.1743    1.0000 </r>
       <r>  -11.6446    1.0000 </r>
       <r>   -5.6081    1.0000 </r>
       <r>   -4.9522    1.0000 </r>
       <r>   -4.7681    1.0000 </r>
       <r>   -0.1722    1.0000 </r>
       <r>    0.0770    1.0000 </r>
       <r>    0.6457    1.0000 </r>
       <r>    8.2061    0.0000 </r>
       <r>    8.6197    0.0000 </r>
       <r>    8.9772    0.0000 </r>
       <r>    9.7508    0.0000 </r>
       <r>   10.7939    0.0000 </r>
       <r>   12.4104    0.0000 </r>
      </set>
      <set comment="kpoint 41">
       <r>  -18.1096    1.0000 </r>
       <r>  -11.5368    1.0000 </r>
       <r>   -5.7633    1.0000 </r>
       <r>   -5.5592    1.0000 </r>
       <r>   -4.7206    1.0000 </r>
       <r>   -0.0477    1.0000 </r>
       <r>    0.0555    1.0000 </r>
       <r>    0.5222    1.0000 </r>
       <r>    7.9392    0.0000 </r>
       <r>    8.0652    0.0000 </r>
       <r>    9.4273    0.0000 </r>
       <r>    9.5318    0.0000 </r>
       <r>   11.4812    0.0000 </r>
       <r>   13.1155    0.0000 </r>
      </set>
      <set comment="kpoint 42">
       <r>  -18.0764    1.0000 </r>
       <r>  -11.4800    1.0000 </r>
       <r>   -5.8505    1.0000 </r>
       <r>   -5.8505    1.0000 </r>
       <r>   -4.6605    1.0000 </r>
       <r>    0.1185    1.0000 </r>
       <r>    0.1185    1.0000 </r>
       <r>    0.2389    1.0000 </r>
       <r>    7.7660    0.0000 </r>
       <r>    7.9112    0.0000 </r>
       <r>    9.1942    0.0000 </r>
       <r>    9.1942    0.0000 </r>
       <r>   13.9698    0.0000 </r>
       <r>   13.9704    0.0000 </r>
      </set>
      <set comment="kpoint 43">
       <r>  -18.1096    1.0000 </r>
       <r>  -11.5368    1.0000 </r>
       <r>   -5.7633    1.0000 </r>
       <r>   -5.5592    1.0000 </r>
       <r>   -4.7206    1.0000 </r>
       <r>   -0.0477    1.0000 </r>
       <r>    0.0555    1.0000 </r>
       <r>    0.5222    1.0000 </r>
       <r>    7.9392    0.0000 </r>
       <r>    8.0652    0.0000 </r>
       <r>    9.4273    0.0000 </r>
       <r>    9.5318    0.0000 </r>
       <r>   11.4812    0.0000 </r>
       <r>   13.1155    0.0000 </r>
      </set>
      <set comment="kpoint 44">
       <r>  -18.1743    1.0000 </r>
       <r>  -11.6446    1.0000 </r>
       <r>   -5.6081    1.0000 </r>
       <r>   -4.9522    1.0000 </r>
       <r>   -4.7681    1.0000 </r>
       <r>   -0.1722    1.0000 </r>
       <r>    0.0770    1.0000 </r>
       <r>    0.6457    1.0000 </r>
       <r>    8.2061    0.0000 </r>
       <r>    8.6197    0.0000 </r>
       <r>    8.9772    0.0000 </r>
       <r>    9.7508    0.0000 </r>
       <r>   10.7939    0.0000 </r>
       <r>   12.4104    0.0000 </r>
      </set>
      <set comment="kpoint 45">
       <r>  -18.2471    1.0000 </r>
       <r>  -11.6748    1.0000 </r>
       <r>   -5.4078    1.0000 </r>
       <r>   -4.8696    1.0000 </r>
       <r>   -4.5052    1.0000 </r>
       <r>   -0.2416    1.0000 </r>
       <r>    0.5232    1.0000 </r>
       <r>    0.5496    1.0000 </r>
       <r>    7.2450    0.0000 </r>
       <r>    8.5574    0.0000 </r>
       <r>    9.0666    0.0000 </r>
       <r>   10.2039    0.0000 </r>
       <r>   10.9861    0.0000 </r>
       <r>   11.5616    0.0000 </r>
      </set>
      <set comment="kpoint 46">
       <r>  -18.2136    1.0000 </r>
       <r>  -11.6403    1.0000 </r>
       <r>   -5.4366    1.0000 </r>
       <r>   -4.8587    1.0000 </r>
       <r>   -4.8557    1.0000 </r>
       <r>   -0.0528    1.0000 </r>
       <r>    0.2429    1.0000 </r>
       <r>    0.5910    1.0000 </r>
       <r>    7.9164    0.0000 </r>
       <r>    8.6735    0.0000 </r>
       <r>    9.0989    0.0000 </r>
       <r>    9.9046    0.0000 </r>
       <r>   10.3902    0.0000 </r>
       <r>   10.8923    0.0000 </r>
      </set>
      <set comment="kpoint 47">
       <r>  -18.1448    1.0000 </r>
       <r>  -11.5712    1.0000 </r>
       <r>   -5.5953    1.0000 </r>
       <r>   -5.3968    1.0000 </r>
       <r>   -4.7799    1.0000 </r>
       <r>   -0.0673    1.0000 </r>
       <r>    0.2513    1.0000 </r>
       <r>    0.4381    1.0000 </r>
       <r>    8.2046    0.0000 </r>
       <r>    8.2878    0.0000 </r>
       <r>    9.4441    0.0000 </r>
       <r>    9.7432    0.0000 </r>
       <r>   10.5829    0.0000 </r>
       <r>   11.6178    0.0000 </r>
      </set>
      <set comment="kpoint 48">
       <r>  -18.1096    1.0000 </r>
       <r>  -11.5368    1.0000 </r>
       <r>   -5.7633    1.0000 </r>
       <r>   -5.5592    1.0000 </r>
       <r>   -4.7206    1.0000 </r>
       <r>   -0.0477    1.0000 </r>
       <r>    0.0555    1.0000 </r>
       <r>    0.5222    1.0000 </r>
       <r>    7.9392    0.0000 </r>
       <r>    8.0652    0.0000 </r>
       <r>    9.4273    0.0000 </r>
       <r>    9.5318    0.0000 </r>
       <r>   11.4812    0.0000 </r>
       <r>   13.1155    0.0000 </r>
      </set>
      <set comment="kpoint 49">
       <r>  -18.1448    1.0000 </r>
       <r>  -11.5712    1.0000 </r>
       <r>   -5.5953    1.0000 </r>
       <r>   -5.3968    1.0000 </r>
       <r>   -4.7799    1.0000 </r>
       <r>   -0.0673    1.0000 </r>
       <r>    0.2513    1.0000 </r>
       <r>    0.4381    1.0000 </r>
       <r>    8.2046    0.0000 </r>
       <r>    8.2878    0.0000 </r>
       <r>    9.4441    0.0000 </r>
       <r>    9.7432    0.0000 </r>
       <r>   10.5829    0.0000 </r>
       <r>   11.6178    0.0000 </r>
      </set>
      <set comment="kpoint 50">
       <r>  -18.2136    1.0000 </r>
       <r>  -11.6403    1.0000 </r>
       <r>   -5.4366    1.0000 </r>
       <r>   -4.8587    1.0000 </r>
       <r>   -4.8557    1.0000 </r>
       <r>   -0.0528    1.0000 </r>
       <r>    0.2429    1.0000 </r>
       <r>    0.5910    1.0000 </r>
       <r>    7.9164    0.0000 </r>
       <r>    8.6735    0.0000 </r>
       <r>    9.0989    0.0000 </r>
       <r>    9.9046    0.0000 </r>
       <r>   10.3902    0.0000 </r>
       <r>   10.8923    0.0000 </r>
      </set>
      <set comment="kpoint 51">
       <r>  -18.3268    1.0000 </r>
       <r>  -11.6416    1.0000 </r>
       <r>   -5.0918    1.0000 </r>
       <r>   -4.7713    1.0000 </r>
       <r>   -4.6257    1.0000 </r>
       <r>    0.1333    1.0000 </r>
       <r>    0.6919    1.0000 </r>
       <r>    0.7106    1.0000 </r>
       <r>    6.6995    0.0000 </r>
       <r>    7.3270    0.0000 </r>
       <r>    8.1415    0.0000 </r>
       <r>   10.5628    0.0000 </r>
       <r>   10.8811    0.0000 </r>
       <r>   12.0997    0.0000 </r>
      </set>
      <set comment="kpoint 52">
       <r>  -18.2897    1.0000 </r>
       <r>  -11.6390    1.0000 </r>
       <r>   -5.0170    1.0000 </r>
       <r>   -5.0170    1.0000 </r>
       <r>   -4.7017    1.0000 </r>
       <r>    0.1540    1.0000 </r>
       <r>    0.5593    1.0000 </r>
       <r>    0.5593    1.0000 </r>
       <r>    7.4952    0.0000 </r>
       <r>    7.4952    0.0000 </r>
       <r>    8.6215    0.0000 </r>
       <r>   10.2698    0.0000 </r>
       <r>   10.2698    0.0000 </r>
       <r>   11.3603    0.0000 </r>
      </set>
      <set comment="kpoint 53">
       <r>  -18.2136    1.0000 </r>
       <r>  -11.6403    1.0000 </r>
       <r>   -5.4366    1.0000 </r>
       <r>   -4.8587    1.0000 </r>
       <r>   -4.8557    1.0000 </r>
       <r>   -0.0528    1.0000 </r>
       <r>    0.2429    1.0000 </r>
       <r>    0.5910    1.0000 </r>
       <r>    7.9164    0.0000 </r>
       <r>    8.6735    0.0000 </r>
       <r>    9.0989    0.0000 </r>
       <r>    9.9046    0.0000 </r>
       <r>   10.3902    0.0000 </r>
       <r>   10.8923    0.0000 </r>
      </set>
      <set comment="kpoint 54">
       <r>  -18.1743    1.0000 </r>
       <r>  -11.6446    1.0000 </r>
       <r>   -5.6081    1.0000 </r>
       <r>   -4.9522    1.0000 </r>
       <r>   -4.7681    1.0000 </r>
       <r>   -0.1722    1.0000 </r>
       <r>    0.0770    1.0000 </r>
       <r>    0.6457    1.0000 </r>
       <r>    8.2061    0.0000 </r>
       <r>    8.6197    0.0000 </r>
       <r>    8.9772    0.0000 </r>
       <r>    9.7508    0.0000 </r>
       <r>   10.7939    0.0000 </r>
       <r>   12.4104    0.0000 </r>
      </set>
      <set comment="kpoint 55">
       <r>  -18.2136    1.0000 </r>
       <r>  -11.6403    1.0000 </r>
       <r>   -5.4366    1.0000 </r>
       <r>   -4.8587    1.0000 </r>
       <r>   -4.8557    1.0000 </r>
       <r>   -0.0528    1.0000 </r>
       <r>    0.2429    1.0000 </r>
       <r>    0.5910    1.0000 </r>
       <r>    7.9164    0.0000 </r>
       <r>    8.6735    0.0000 </r>
       <r>    9.0989    0.0000 </r>
       <r>    9.9046    0.0000 </r>
       <r>   10.3902    0.0000 </r>
       <r>   10.8923    0.0000 </r>
      </set>
      <set comment="kpoint 56">
       <r>  -18.2897    1.0000 </r>
       <r>  -11.6390    1.0000 </r>
       <r>   -5.0170    1.0000 </r>
       <r>   -5.0170    1.0000 </r>
       <r>   -4.7017    1.0000 </r>
       <r>    0.1540    1.0000 </r>
       <r>    0.5593    1.0000 </r>
       <r>    0.5593    1.0000 </r>
       <r>    7.4952    0.0000 </r>
       <r>    7.4952    0.0000 </r>
       <r>    8.6215    0.0000 </r>
       <r>   10.2698    0.0000 </r>
       <r>   10.2698    0.0000 </r>
       <r>   11.3603    0.0000 </r>
      </set>
      <set comment="kpoint 57">
       <r>  -18.2816    1.0000 </r>
       <r>  -11.7081    1.0000 </r>
       <r>   -5.2754    1.0000 </r>
       <r>   -4.5489    1.0000 </r>
       <r>   -4.5489    1.0000 </r>
       <r>   -0.3744    1.0000 </r>
       <r>    0.5301    1.0000 </r>
       <r>    0.5301    1.0000 </r>
       <r>    6.8103    0.0000 </r>
       <r>    8.4842    0.0000 </r>
       <r>    9.5615    0.0000 </r>
       <r>   10.9797    0.0000 </r>
       <r>   11.0521    0.0000 </r>
       <r>   11.0521    0.0000 </r>
      </set>
      <set comment="kpoint 58">
       <r>  -18.2471    1.0000 </r>
       <r>  -11.6748    1.0000 </r>
       <r>   -5.4078    1.0000 </r>
       <r>   -4.8696    1.0000 </r>
       <r>   -4.5052    1.0000 </r>
       <r>   -0.2416    1.0000 </r>
       <r>    0.5232    1.0000 </r>
       <r>    0.5496    1.0000 </r>
       <r>    7.2450    0.0000 </r>
       <r>    8.5574    0.0000 </r>
       <r>    9.0666    0.0000 </r>
       <r>   10.2039    0.0000 </r>
       <r>   10.9861    0.0000 </r>
       <r>   11.5616    0.0000 </r>
      </set>
      <set comment="kpoint 59">
       <r>  -18.1764    1.0000 </r>
       <r>  -11.6090    1.0000 </r>
       <r>   -5.6872    1.0000 </r>
       <r>   -5.3963    1.0000 </r>
       <r>   -4.4148    1.0000 </r>
       <r>   -0.0165    1.0000 </r>
       <r>    0.4988    1.0000 </r>
       <r>    0.5846    1.0000 </r>
       <r>    7.3208    0.0000 </r>
       <r>    7.8735    0.0000 </r>
       <r>    9.4108    0.0000 </r>
       <r>   10.2417    0.0000 </r>
       <r>   10.5327    0.0000 </r>
       <r>   11.9267    0.0000 </r>
      </set>
      <set comment="kpoint 60">
       <r>  -18.1401    1.0000 </r>
       <r>  -11.5768    1.0000 </r>
       <r>   -5.8097    1.0000 </r>
       <r>   -5.6435    1.0000 </r>
       <r>   -4.3679    1.0000 </r>
       <r>    0.1791    1.0000 </r>
       <r>    0.3892    1.0000 </r>
       <r>    0.5996    1.0000 </r>
       <r>    7.2313    0.0000 </r>
       <r>    7.5109    0.0000 </r>
       <r>    9.3785    0.0000 </r>
       <r>    9.4623    0.0000 </r>
       <r>   11.4031    0.0000 </r>
       <r>   12.9989    0.0000 </r>
      </set>
      <set comment="kpoint 61">
       <r>  -18.1764    1.0000 </r>
       <r>  -11.6090    1.0000 </r>
       <r>   -5.6872    1.0000 </r>
       <r>   -5.3963    1.0000 </r>
       <r>   -4.4148    1.0000 </r>
       <r>   -0.0165    1.0000 </r>
       <r>    0.4988    1.0000 </r>
       <r>    0.5846    1.0000 </r>
       <r>    7.3208    0.0000 </r>
       <r>    7.8735    0.0000 </r>
       <r>    9.4108    0.0000 </r>
       <r>   10.2417    0.0000 </r>
       <r>   10.5327    0.0000 </r>
       <r>   11.9267    0.0000 </r>
      </set>
      <set comment="kpoint 62">
       <r>  -18.2471    1.0000 </r>
       <r>  -11.6748    1.0000 </r>
       <r>   -5.4078    1.0000 </r>
       <r>   -4.8696    1.0000 </r>
       <r>   -4.5052    1.0000 </r>
       <r>   -0.2416    1.0000 </r>
       <r>    0.5232    1.0000 </r>
       <r>    0.5496    1.0000 </r>
       <r>    7.2450    0.0000 </r>
       <r>    8.5574    0.0000 </r>
       <r>    9.0666    0.0000 </r>
       <r>   10.2039    0.0000 </r>
       <r>   10.9861    0.0000 </r>
       <r>   11.5616    0.0000 </r>
      </set>
      <set comment="kpoint 63">
       <r>  -18.2471    1.0000 </r>
       <r>  -11.6748    1.0000 </r>
       <r>   -5.4078    1.0000 </r>
       <r>   -4.8696    1.0000 </r>
       <r>   -4.5052    1.0000 </r>
       <r>   -0.2416    1.0000 </r>
       <r>    0.5232    1.0000 </r>
       <r>    0.5496    1.0000 </r>
       <r>    7.2450    0.0000 </r>
       <r>    8.5574    0.0000 </r>
       <r>    9.0666    0.0000 </r>
       <r>   10.2039    0.0000 </r>
       <r>   10.9861    0.0000 </r>
       <r>   11.5616    0.0000 </r>
      </set>
      <set comment="kpoint 64">
       <r>  -18.2136    1.0000 </r>
       <r>  -11.6403    1.0000 </r>
       <r>   -5.4366    1.0000 </r>
       <r>   -4.8587    1.0000 </r>
       <r>   -4.8557    1.0000 </r>
       <r>   -0.0528    1.0000 </r>
       <r>    0.2429    1.0000 </r>
       <r>    0.5910    1.0000 </r>
       <r>    7.9164    0.0000 </r>
       <r>    8.6735    0.0000 </r>
       <r>    9.0989    0.0000 </r>
       <r>    9.9046    0.0000 </r>
       <r>   10.3902    0.0000 </r>
       <r>   10.8923    0.0000 </r>
      </set>
      <set comment="kpoint 65">
       <r>  -18.1448    1.0000 </r>
       <r>  -11.5712    1.0000 </r>
       <r>   -5.5953    1.0000 </r>
       <r>   -5.3968    1.0000 </r>
       <r>   -4.7799    1.0000 </r>
       <r>   -0.0673    1.0000 </r>
       <r>    0.2513    1.0000 </r>
       <r>    0.4381    1.0000 </r>
       <r>    8.2046    0.0000 </r>
       <r>    8.2878    0.0000 </r>
       <r>    9.4441    0.0000 </r>
       <r>    9.7432    0.0000 </r>
       <r>   10.5829    0.0000 </r>
       <r>   11.6178    0.0000 </r>
      </set>
      <set comment="kpoint 66">
       <r>  -18.1096    1.0000 </r>
       <r>  -11.5368    1.0000 </r>
       <r>   -5.7633    1.0000 </r>
       <r>   -5.5592    1.0000 </r>
       <r>   -4.7206    1.0000 </r>
       <r>   -0.0477    1.0000 </r>
       <r>    0.0555    1.0000 </r>
       <r>    0.5222    1.0000 </r>
       <r>    7.9392    0.0000 </r>
       <r>    8.0652    0.0000 </r>
       <r>    9.4273    0.0000 </r>
       <r>    9.5318    0.0000 </r>
       <r>   11.4812    0.0000 </r>
       <r>   13.1155    0.0000 </r>
      </set>
      <set comment="kpoint 67">
       <r>  -18.1448    1.0000 </r>
       <r>  -11.5712    1.0000 </r>
       <r>   -5.5953    1.0000 </r>
       <r>   -5.3968    1.0000 </r>
       <r>   -4.7799    1.0000 </r>
       <r>   -0.0673    1.0000 </r>
       <r>    0.2513    1.0000 </r>
       <r>    0.4381    1.0000 </r>
       <r>    8.2046    0.0000 </r>
       <r>    8.2878    0.0000 </r>
       <r>    9.4441    0.0000 </r>
       <r>    9.7432    0.0000 </r>
       <r>   10.5829    0.0000 </r>
       <r>   11.6178    0.0000 </r>
      </set>
      <set comment="kpoint 68">
       <r>  -18.2136    1.0000 </r>
       <r>  -11.6403    1.0000 </r>
       <r>   -5.4366    1.0000 </r>
       <r>   -4.8587    1.0000 </r>
       <r>   -4.8557    1.0000 </r>
       <r>   -0.0528    1.0000 </r>
       <r>    0.2429    1.0000 </r>
       <r>    0.5910    1.0000 </r>
       <r>    7.9164    0.0000 </r>
       <r>    8.6735    0.0000 </r>
       <r>    9.0989    0.0000 </r>
       <r>    9.9046    0.0000 </r>
       <r>   10.3902    0.0000 </r>
       <r>   10.8923    0.0000 </r>
      </set>
      <set comment="kpoint 69">
       <r>  -18.1764    1.0000 </r>
       <r>  -11.6090    1.0000 </r>
       <r>   -5.6872    1.0000 </r>
       <r>   -5.3963    1.0000 </r>
       <r>   -4.4148    1.0000 </r>
       <r>   -0.0165    1.0000 </r>
       <r>    0.4988    1.0000 </r>
       <r>    0.5846    1.0000 </r>
       <r>    7.3208    0.0000 </r>
       <r>    7.8735    0.0000 </r>
       <r>    9.4108    0.0000 </r>
       <r>   10.2417    0.0000 </r>
       <r>   10.5327    0.0000 </r>
       <r>   11.9267    0.0000 </r>
      </set>
      <set comment="kpoint 70">
       <r>  -18.1448    1.0000 </r>
       <r>  -11.5712    1.0000 </r>
       <r>   -5.5953    1.0000 </r>
       <r>   -5.3968    1.0000 </r>
       <r>   -4.7799    1.0000 </r>
       <r>   -0.0673    1.0000 </r>
       <r>    0.2513    1.0000 </r>
       <r>    0.4381    1.0000 </r>
       <r>    8.2046    0.0000 </r>
       <r>    8.2878    0.0000 </r>
       <r>    9.4441    0.0000 </r>
       <r>    9.7432    0.0000 </r>
       <r>   10.5829    0.0000 </r>
       <r>   11.6178    0.0000 </r>
      </set>
      <set comment="kpoint 71">
       <r>  -18.0803    1.0000 </r>
       <r>  -11.4938    1.0000 </r>
       <r>   -5.4202    1.0000 </r>
       <r>   -5.3926    1.0000 </r>
       <r>   -5.3926    1.0000 </r>
       <r>   -0.2462    1.0000 </r>
       <r>   -0.2462    1.0000 </r>
       <r>    0.2054    1.0000 </r>
       <r>    8.5085    0.0000 </r>
       <r>    9.6720    0.0000 </r>
       <r>    9.6720    0.0000 </r>
       <r>   10.5868    0.0000 </r>
       <r>   10.5868    0.0000 </r>
       <r>   11.1399    0.0000 </r>
      </set>
      <set comment="kpoint 72">
       <r>  -18.0473    1.0000 </r>
       <r>  -11.4542    1.0000 </r>
       <r>   -5.6738    1.0000 </r>
       <r>   -5.4271    1.0000 </r>
       <r>   -5.2795    1.0000 </r>
       <r>   -0.4994    1.0000 </r>
       <r>   -0.2718    1.0000 </r>
       <r>    0.0228    1.0000 </r>
       <r>    8.7025    0.0000 </r>
       <r>    9.2707    0.0000 </r>
       <r>    9.9340    0.0000 </r>
       <r>   10.4575    0.0000 </r>
       <r>   11.3416    0.0000 </r>
       <r>   12.8490    0.0000 </r>
      </set>
      <set comment="kpoint 73">
       <r>  -18.0803    1.0000 </r>
       <r>  -11.4938    1.0000 </r>
       <r>   -5.4202    1.0000 </r>
       <r>   -5.3926    1.0000 </r>
       <r>   -5.3926    1.0000 </r>
       <r>   -0.2462    1.0000 </r>
       <r>   -0.2462    1.0000 </r>
       <r>    0.2054    1.0000 </r>
       <r>    8.5085    0.0000 </r>
       <r>    9.6720    0.0000 </r>
       <r>    9.6720    0.0000 </r>
       <r>   10.5868    0.0000 </r>
       <r>   10.5868    0.0000 </r>
       <r>   11.1399    0.0000 </r>
      </set>
      <set comment="kpoint 74">
       <r>  -18.1448    1.0000 </r>
       <r>  -11.5712    1.0000 </r>
       <r>   -5.5953    1.0000 </r>
       <r>   -5.3968    1.0000 </r>
       <r>   -4.7799    1.0000 </r>
       <r>   -0.0673    1.0000 </r>
       <r>    0.2513    1.0000 </r>
       <r>    0.4381    1.0000 </r>
       <r>    8.2046    0.0000 </r>
       <r>    8.2878    0.0000 </r>
       <r>    9.4441    0.0000 </r>
       <r>    9.7432    0.0000 </r>
       <r>   10.5829    0.0000 </r>
       <r>   11.6178    0.0000 </r>
      </set>
      <set comment="kpoint 75">
       <r>  -18.1401    1.0000 </r>
       <r>  -11.5768    1.0000 </r>
       <r>   -5.8097    1.0000 </r>
       <r>   -5.6435    1.0000 </r>
       <r>   -4.3679    1.0000 </r>
       <r>    0.1791    1.0000 </r>
       <r>    0.3892    1.0000 </r>
       <r>    0.5996    1.0000 </r>
       <r>    7.2313    0.0000 </r>
       <r>    7.5109    0.0000 </r>
       <r>    9.3785    0.0000 </r>
       <r>    9.4623    0.0000 </r>
       <r>   11.4031    0.0000 </r>
       <r>   12.9989    0.0000 </r>
      </set>
      <set comment="kpoint 76">
       <r>  -18.1096    1.0000 </r>
       <r>  -11.5368    1.0000 </r>
       <r>   -5.7633    1.0000 </r>
       <r>   -5.5592    1.0000 </r>
       <r>   -4.7206    1.0000 </r>
       <r>   -0.0477    1.0000 </r>
       <r>    0.0555    1.0000 </r>
       <r>    0.5222    1.0000 </r>
       <r>    7.9392    0.0000 </r>
       <r>    8.0652    0.0000 </r>
       <r>    9.4273    0.0000 </r>
       <r>    9.5318    0.0000 </r>
       <r>   11.4812    0.0000 </r>
       <r>   13.1155    0.0000 </r>
      </set>
      <set comment="kpoint 77">
       <r>  -18.0473    1.0000 </r>
       <r>  -11.4542    1.0000 </r>
       <r>   -5.6738    1.0000 </r>
       <r>   -5.4271    1.0000 </r>
       <r>   -5.2795    1.0000 </r>
[...]
        <r>  0.0000  0.0000  0.1492  0.0316  0.0034  0.0159  0.0000  0.0000  0.0000 </r>
        <r>  0.0000  0.0000  0.0122  0.0575  0.0000  0.0000  0.0000  0.0000  0.0000 </r>
       </set>
      </set>
      <set comment="kpoint 107">
       <set comment="band 1">
        <r>  0.9210  0.0000  0.0000  0.0000  0.0000  0.0000  0.0000  0.0000  0.0000 </r>
        <r>  0.0000  0.0000  0.0000  0.0000  0.0000  0.0000  0.0000  0.0000  0.0000 </r>
       </set>
       <set comment="band 2">
        <r>  0.0000  0.0000  0.0014  0.0000  0.0000  0.0003  0.0000  0.0003  0.0000 </r>
        <r>  0.7961  0.0000  0.0000  0.0000  0.0000  0.0000  0.0000  0.0000  0.0000 </r>
       </set>
       <set comment="band 3">
        <r>  0.0000  0.0000  0.6992  0.0000  0.0000  0.0001  0.0000  0.0001  0.0000 </r>
        <r>  0.0047  0.0071  0.0000  0.0071  0.0000  0.0000  0.0000  0.0000  0.0000 </r>
       </set>
       <set comment="band 4">
        <r>  0.0017  0.3552  0.0000  0.3552  0.0003  0.0000  0.0003  0.0000  0.0000 </r>
        <r>  0.0000  0.0000  0.0180  0.0000  0.0000  0.0000  0.0000  0.0000  0.0000 </r>
       </set>
       <set comment="band 5">
        <r>  0.0000  0.3761  0.0000  0.3761  0.0000  0.0000  0.0000  0.0000  0.0008 </r>
        <r>  0.0000  0.0000  0.0000  0.0000  0.0000  0.0000  0.0000  0.0000  0.0000 </r>
       </set>
       <set comment="band 6">
        <r>  0.0000  0.0000  0.0000  0.0000  0.0000  0.0113  0.0000  0.0113  0.0000 </r>
        <r>  0.0000  0.2677  0.0000  0.2677  0.0000  0.0000  0.0000  0.0000  0.0000 </r>
       </set>
       <set comment="band 7">
        <r>  0.0006  0.0300  0.0000  0.0300  0.0153  0.0000  0.0001  0.0000  0.0000 </r>
        <r>  0.0000  0.0000  0.5252  0.0000  0.0000  0.0000  0.0000  0.0000  0.0000 </r>
       </set>
       <set comment="band 8">
        <r>  0.0000  0.0000  0.0482  0.0000  0.0000  0.0057  0.0000  0.0057  0.0000 </r>
        <r>  0.0014  0.2791  0.0000  0.2791  0.0000  0.0000  0.0000  0.0000  0.0000 </r>
       </set>
       <set comment="band 9">
        <r>  0.0000  0.0000  0.0025  0.0000  0.0000  0.1292  0.0000  0.1292  0.0000 </r>
        <r>  0.0277  0.0483  0.0000  0.0483  0.0000  0.0000  0.0000  0.0000  0.0000 </r>
       </set>
       <set comment="band 10">
        <r>  0.0169  0.0139  0.0000  0.0139  0.2058  0.0000  0.0142  0.0000  0.0000 </r>
        <r>  0.0000  0.0000  0.0601  0.0000  0.0000  0.0000  0.0000  0.0000  0.0000 </r>
       </set>
       <set comment="band 11">
        <r>  0.0000  0.0000  0.0000  0.0000  0.0000  0.1294  0.0000  0.1294  0.0000 </r>
        <r>  0.0000  0.1073  0.0000  0.1073  0.0000  0.0000  0.0000  0.0000  0.0000 </r>
       </set>
       <set comment="band 12">
        <r>  0.0000  0.0551  0.0000  0.0551  0.0000  0.0000  0.0000  0.0000  0.2393 </r>
        <r>  0.0000  0.0000  0.0000  0.0000  0.0000  0.0000  0.0000  0.0000  0.0000 </r>
       </set>
       <set comment="band 13">
        <r>  0.0335  0.0316  0.0000  0.0316  0.0835  0.0000  0.1018  0.0000  0.0000 </r>
        <r>  0.0000  0.0000  0.1364  0.0000  0.0000  0.0000  0.0000  0.0000  0.0000 </r>
       </set>
       <set comment="band 14">
        <r>  0.0000  0.0000  0.1795  0.0000  0.0000  0.0002  0.0000  0.0002  0.0000 </r>
        <r>  0.0123  0.0194  0.0000  0.0194  0.0000  0.0000  0.0000  0.0000  0.0000 </r>
       </set>
      </set>
      <set comment="kpoint 108">
       <set comment="band 1">
        <r>  0.9152  0.0000  0.0000  0.0000  0.0000  0.0000  0.0000  0.0000  0.0000 </r>
        <r>  0.0000  0.0000  0.0001  0.0000  0.0000  0.0000  0.0000  0.0000  0.0000 </r>
       </set>
       <set comment="band 2">
        <r>  0.0000  0.0000  0.0041  0.0000  0.0000  0.0009  0.0000  0.0001  0.0000 </r>
        <r>  0.7842  0.0001  0.0000  0.0000  0.0000  0.0000  0.0000  0.0000  0.0000 </r>
       </set>
       <set comment="band 3">
        <r>  0.0000  0.0000  0.6769  0.0000  0.0000  0.0000  0.0000  0.0001  0.0000 </r>
        <r>  0.0121  0.0196  0.0000  0.0018  0.0000  0.0000  0.0000  0.0000  0.0000 </r>
       </set>
       <set comment="band 4">
        <r>  0.0014  0.6841  0.0000  0.0052  0.0001  0.0000  0.0002  0.0000  0.0003 </r>
        <r>  0.0000  0.0000  0.0251  0.0000  0.0000  0.0000  0.0000  0.0000  0.0000 </r>
       </set>
       <set comment="band 5">
        <r>  0.0008  0.0087  0.0000  0.7837  0.0001  0.0000  0.0002  0.0000  0.0006 </r>
        <r>  0.0000  0.0000  0.0023  0.0000  0.0000  0.0000  0.0000  0.0000  0.0000 </r>
       </set>
       <set comment="band 6">
        <r>  0.0000  0.0000  0.0208  0.0000  0.0000  0.0080  0.0000  0.0077  0.0000 </r>
        <r>  0.0005  0.3234  0.0000  0.2430  0.0000  0.0000  0.0000  0.0000  0.0000 </r>
       </set>
       <set comment="band 7">
        <r>  0.0032  0.0813  0.0000  0.0153  0.0051  0.0000  0.0005  0.0000  0.0001 </r>
        <r>  0.0000  0.0000  0.5381  0.0000  0.0000  0.0000  0.0000  0.0000  0.0000 </r>
       </set>
       <set comment="band 8">
        <r>  0.0000  0.0000  0.0553  0.0000  0.0000  0.0011  0.0000  0.0002  0.0000 </r>
        <r>  0.0005  0.2433  0.0000  0.3710  0.0000  0.0000  0.0000  0.0000  0.0000 </r>
       </set>
       <set comment="band 9">
        <r>  0.0000  0.0000  0.0026  0.0000  0.0000  0.1929  0.0000  0.0400  0.0000 </r>
        <r>  0.0469  0.0001  0.0000  0.0356  0.0000  0.0000  0.0000  0.0000  0.0000 </r>
       </set>
       <set comment="band 10">
        <r>  0.0389  0.0019  0.0000  0.0276  0.0217  0.0000  0.0425  0.0000  0.1362 </r>
        <r>  0.0000  0.0000  0.0046  0.0000  0.0000  0.0000  0.0000  0.0000  0.0000 </r>
       </set>
       <set comment="band 11">
        <r>  0.0007  0.0167  0.0000  0.0077  0.2272  0.0000  0.0000  0.0000  0.0527 </r>
        <r>  0.0000  0.0000  0.0281  0.0000  0.0000  0.0000  0.0000  0.0000  0.0000 </r>
       </set>
       <set comment="band 12">
        <r>  0.0000  0.0000  0.0054  0.0000  0.0000  0.0225  0.0000  0.2383  0.0000 </r>
        <r>  0.0004  0.0613  0.0000  0.0395  0.0000  0.0000  0.0000  0.0000  0.0000 </r>
       </set>
       <set comment="band 13">
        <r>  0.0242  0.0522  0.0000  0.0008  0.0441  0.0000  0.1047  0.0000  0.1020 </r>
        <r>  0.0000  0.0000  0.0982  0.0000  0.0000  0.0000  0.0000  0.0000  0.0000 </r>
       </set>
       <set comment="band 14">
        <r>  0.0000  0.0000  0.1379  0.0000  0.0000  0.0007  0.0000  0.0000  0.0000 </r>
        <r>  0.0140  0.0856  0.0000  0.0002  0.0000  0.0000  0.0000  0.0000  0.0000 </r>
       </set>
      </set>
      <set comment="kpoint 109">
       <set comment="band 1">
        <r>  0.9158  0.0000  0.0000  0.0000  0.0000  0.0000  0.0000  0.0000  0.0000 </r>
        <r>  0.0000  0.0000  0.0000  0.0000  0.0000  0.0000  0.0000  0.0000  0.0000 </r>
       </set>
       <set comment="band 2">
        <r>  0.0000  0.0000  0.0000  0.0000  0.0000  0.0016  0.0000  0.0000  0.0000 </r>
        <r>  0.7912  0.0000  0.0000  0.0000  0.0000  0.0000  0.0000  0.0000  0.0000 </r>
       </set>
       <set comment="band 3">
        <r>  0.0000  0.0006  0.6536  0.0000  0.0000  0.0000  0.0000  0.0000  0.0000 </r>
        <r>  0.0000  0.0326  0.0000  0.0000  0.0000  0.0000  0.0000  0.0000  0.0000 </r>
       </set>
       <set comment="band 4">
        <r>  0.0000  0.6536  0.0006  0.0000  0.0000  0.0000  0.0000  0.0000  0.0000 </r>
        <r>  0.0000  0.0000  0.0326  0.0000  0.0000  0.0000  0.0000  0.0000  0.0000 </r>
       </set>
       <set comment="band 5">
        <r>  0.0000  0.0000  0.0000  0.8353  0.0000  0.0000  0.0000  0.0000  0.0000 </r>
        <r>  0.0000  0.0000  0.0000  0.0000  0.0000  0.0000  0.0000  0.0000  0.0000 </r>
       </set>
       <set comment="band 6">
        <r>  0.0000  0.0959  0.0213  0.0000  0.0000  0.0000  0.0000  0.0000  0.0000 </r>
        <r>  0.0000  0.1026  0.4617  0.0000  0.0000  0.0000  0.0000  0.0000  0.0000 </r>
       </set>
       <set comment="band 7">
        <r>  0.0000  0.0213  0.0959  0.0000  0.0000  0.0000  0.0000  0.0000  0.0000 </r>
        <r>  0.0000  0.4617  0.1026  0.0000  0.0000  0.0000  0.0000  0.0000  0.0000 </r>
       </set>
       <set comment="band 8">
        <r>  0.0000  0.0000  0.0000  0.0000  0.0000  0.0000  0.0000  0.0000  0.0000 </r>
        <r>  0.0000  0.0000  0.0000  0.6707  0.0000  0.0000  0.0000  0.0000  0.0000 </r>
       </set>
       <set comment="band 9">
        <r>  0.0522  0.0000  0.0000  0.0000  0.0000  0.0000  0.0468  0.0000  0.1404 </r>
        <r>  0.0000  0.0000  0.0000  0.0000  0.0000  0.0000  0.0000  0.0000  0.0000 </r>
       </set>
       <set comment="band 10">
        <r>  0.0000  0.0000  0.0000  0.0000  0.0000  0.2093  0.0000  0.0000  0.0000 </r>
        <r>  0.0621  0.0000  0.0000  0.0000  0.0000  0.0000  0.0000  0.0000  0.0000 </r>
       </set>
       <set comment="band 11">
        <r>  0.0000  0.0000  0.0000  0.0000  0.0018  0.0000  0.0000  0.2914  0.0000 </r>
        <r>  0.0000  0.0000  0.0000  0.0000  0.0000  0.0000  0.0000  0.0000  0.0000 </r>
       </set>
       <set comment="band 12">
        <r>  0.0000  0.0000  0.0000  0.0000  0.2914  0.0000  0.0000  0.0018  0.0000 </r>
        <r>  0.0000  0.0000  0.0000  0.0000  0.0000  0.0000  0.0000  0.0000  0.0000 </r>
       </set>
       <set comment="band 13">
        <r>  0.0000  0.1502  0.0081  0.0000  0.0000  0.0000  0.0010  0.0000  0.0004 </r>
        <r>  0.0000  0.0092  0.1697  0.0000  0.0000  0.0000  0.0000  0.0000  0.0000 </r>
       </set>
       <set comment="band 14">
        <r>  0.0002  0.0082  0.1507  0.0000  0.0000  0.0000  0.0001  0.0000  0.0009 </r>
        <r>  0.0000  0.1687  0.0092  0.0000  0.0000  0.0000  0.0000  0.0000  0.0000 </r>
       </set>
      </set>
      <set comment="kpoint 110">
       <set comment="band 1">
        <r>  0.9185  0.0000  0.0000  0.0000  0.0000  0.0000  0.0000  0.0000  0.0000 </r>
        <r>  0.0000  0.0000  0.0000  0.0000  0.0000  0.0000  0.0000  0.0000  0.0000 </r>
       </set>
       <set comment="band 2">
        <r>  0.0000  0.0000  0.0000  0.0000  0.0000  0.0012  0.0000  0.0000  0.0000 </r>
        <r>  0.7949  0.0000  0.0000  0.0000  0.0000  0.0000  0.0000  0.0000  0.0000 </r>
       </set>
       <set comment="band 3">
        <r>  0.0000  0.0008  0.6691  0.0000  0.0000  0.0000  0.0000  0.0002  0.0000 </r>
        <r>  0.0000  0.0266  0.0000  0.0000  0.0000  0.0000  0.0000  0.0000  0.0000 </r>
       </set>
       <set comment="band 4">
        <r>  0.0000  0.6691  0.0008  0.0000  0.0002  0.0000  0.0000  0.0000  0.0000 </r>
        <r>  0.0000  0.0000  0.0266  0.0000  0.0000  0.0000  0.0000  0.0000  0.0000 </r>
       </set>
       <set comment="band 5">
        <r>  0.0008  0.0000  0.0000  0.8025  0.0000  0.0000  0.0002  0.0000  0.0005 </r>
        <r>  0.0000  0.0000  0.0000  0.0000  0.0000  0.0000  0.0000  0.0000  0.0000 </r>
       </set>
       <set comment="band 6">
        <r>  0.0000  0.0762  0.0150  0.0000  0.0064  0.0000  0.0000  0.0013  0.0000 </r>
        <r>  0.0000  0.0894  0.4557  0.0000  0.0000  0.0000  0.0000  0.0000  0.0000 </r>
       </set>
       <set comment="band 7">
        <r>  0.0000  0.0150  0.0762  0.0000  0.0013  0.0000  0.0000  0.0064  0.0000 </r>
        <r>  0.0000  0.4557  0.0894  0.0000  0.0000  0.0000  0.0000  0.0000  0.0000 </r>
       </set>
       <set comment="band 8">
        <r>  0.0000  0.0000  0.0000  0.0000  0.0000  0.0101  0.0000  0.0000  0.0000 </r>
        <r>  0.0022  0.0000  0.0000  0.6098  0.0000  0.0000  0.0000  0.0000  0.0000 </r>
       </set>
       <set comment="band 9">
        <r>  0.0000  0.0000  0.0000  0.0000  0.0000  0.2149  0.0000  0.0000  0.0000 </r>
        <r>  0.0496  0.0000  0.0000  0.0749  0.0000  0.0000  0.0000  0.0000  0.0000 </r>
       </set>
       <set comment="band 10">
        <r>  0.0453  0.0000  0.0000  0.0388  0.0000  0.0000  0.0456  0.0000  0.1367 </r>
        <r>  0.0000  0.0000  0.0000  0.0000  0.0000  0.0000  0.0000  0.0000  0.0000 </r>
       </set>
       <set comment="band 11">
        <r>  0.0000  0.0003  0.0089  0.0000  0.0080  0.0000  0.0000  0.2717  0.0000 </r>
        <r>  0.0000  0.0500  0.0015  0.0000  0.0000  0.0000  0.0000  0.0000  0.0000 </r>
       </set>
       <set comment="band 12">
        <r>  0.0000  0.0089  0.0003  0.0000  0.2717  0.0000  0.0000  0.0080  0.0000 </r>
        <r>  0.0000  0.0015  0.0500  0.0000  0.0000  0.0000  0.0000  0.0000  0.0000 </r>
       </set>
       <set comment="band 13">
        <r>  0.0000  0.1254  0.0422  0.0000  0.0091  0.0000  0.0000  0.0030  0.0000 </r>
        <r>  0.0000  0.0360  0.1071  0.0000  0.0000  0.0000  0.0000  0.0000  0.0000 </r>
       </set>
       <set comment="band 14">
        <r>  0.0000  0.0422  0.1254  0.0000  0.0030  0.0000  0.0000  0.0091  0.0000 </r>
        <r>  0.0000  0.1071  0.0360  0.0000  0.0000  0.0000  0.0000  0.0000  0.0000 </r>
       </set>
      </set>
      <set comment="kpoint 111">
       <set comment="band 1">
        <r>  0.9241  0.0000  0.0000  0.0000  0.0000  0.0000  0.0000  0.0000  0.0000 </r>
        <r>  0.0000  0.0000  0.0000  0.0000  0.0000  0.0000  0.0000  0.0000  0.0000 </r>
       </set>
       <set comment="band 2">
        <r>  0.0000  0.0000  0.0000  0.0000  0.0000  0.0004  0.0000  0.0000  0.0000 </r>
        <r>  0.8026  0.0000  0.0000  0.0000  0.0000  0.0000  0.0000  0.0000  0.0000 </r>
       </set>
       <set comment="band 3">
        <r>  0.0000  0.0014  0.7088  0.0000  0.0000  0.0000  0.0000  0.0002  0.0000 </r>
        <r>  0.0000  0.0108  0.0000  0.0000  0.0000  0.0000  0.0000  0.0000  0.0000 </r>
       </set>
       <set comment="band 4">
        <r>  0.0000  0.7088  0.0014  0.0000  0.0002  0.0000  0.0000  0.0000  0.0000 </r>
        <r>  0.0000  0.0000  0.0108  0.0000  0.0000  0.0000  0.0000  0.0000  0.0000 </r>
       </set>
       <set comment="band 5">
        <r>  0.0007  0.0000  0.0000  0.7551  0.0000  0.0000  0.0001  0.0000  0.0004 </r>
        <r>  0.0000  0.0000  0.0000  0.0000  0.0000  0.0000  0.0000  0.0000  0.0000 </r>
       </set>
       <set comment="band 6">
        <r>  0.0000  0.0319  0.0020  0.0000  0.0189  0.0000  0.0000  0.0012  0.0000 </r>
        <r>  0.0000  0.0307  0.4896  0.0000  0.0000  0.0000  0.0000  0.0000  0.0000 </r>
       </set>
       <set comment="band 7">
        <r>  0.0000  0.0020  0.0319  0.0000  0.0012  0.0000  0.0000  0.0189  0.0000 </r>
        <r>  0.0000  0.4896  0.0307  0.0000  0.0000  0.0000  0.0000  0.0000  0.0000 </r>
       </set>
       <set comment="band 8">
        <r>  0.0000  0.0000  0.0000  0.0000  0.0000  0.0215  0.0000  0.0000  0.0000 </r>
        <r>  0.0017  0.0000  0.0000  0.5383  0.0000  0.0000  0.0000  0.0000  0.0000 </r>
       </set>
       <set comment="band 9">
        <r>  0.0000  0.0000  0.0000  0.0000  0.0000  0.2509  0.0000  0.0000  0.0000 </r>
        <r>  0.0214  0.0000  0.0000  0.1874  0.0000  0.0000  0.0000  0.0000  0.0000 </r>
       </set>
       <set comment="band 10">
        <r>  0.0000  0.0009  0.0134  0.0000  0.0165  0.0000  0.0000  0.2534  0.0000 </r>
        <r>  0.0000  0.1499  0.0098  0.0000  0.0000  0.0000  0.0000  0.0000  0.0000 </r>
       </set>
       <set comment="band 11">
        <r>  0.0000  0.0134  0.0009  0.0000  0.2534  0.0000  0.0000  0.0165  0.0000 </r>
        <r>  0.0000  0.0098  0.1499  0.0000  0.0000  0.0000  0.0000  0.0000  0.0000 </r>
       </set>
       <set comment="band 12">
        <r>  0.0262  0.0000  0.0000  0.1123  0.0000  0.0000  0.0381  0.0000  0.1144 </r>
        <r>  0.0000  0.0000  0.0000  0.0000  0.0000  0.0000  0.0000  0.0000  0.0000 </r>
       </set>
       <set comment="band 13">
        <r>  0.0000  0.1703  0.0106  0.0000  0.0182  0.0000  0.0000  0.0011  0.0000 </r>
        <r>  0.0000  0.0041  0.0656  0.0000  0.0000  0.0000  0.0000  0.0000  0.0000 </r>
       </set>
       <set comment="band 14">
        <r>  0.0000  0.0106  0.1703  0.0000  0.0011  0.0000  0.0000  0.0182  0.0000 </r>
        <r>  0.0000  0.0656  0.0041  0.0000  0.0000  0.0000  0.0000  0.0000  0.0000 </r>
       </set>
      </set>
      <set comment="kpoint 112">
       <set comment="band 1">
        <r>  0.9270  0.0000  0.0000  0.0000  0.0000  0.0000  0.0000  0.0000  0.0000 </r>
        <r>  0.0000  0.0000  0.0000  0.0000  0.0000  0.0000  0.0000  0.0000  0.0000 </r>
       </set>
       <set comment="band 2">
        <r>  0.0000  0.0000  0.0000  0.0000  0.0000  0.0000  0.0000  0.0000  0.0000 </r>
        <r>  0.8067  0.0000  0.0000  0.0000  0.0000  0.0000  0.0000  0.0000  0.0000 </r>
       </set>
       <set comment="band 3">
        <r>  0.0000  0.0020  0.7324  0.0028  0.0000  0.0000  0.0000  0.0000  0.0000 </r>
        <r>  0.0000  0.0000  0.0000  0.0000  0.0000  0.0000  0.0000  0.0000  0.0000 </r>
       </set>
       <set comment="band 4">
        <r>  0.0000  0.7350  0.0021  0.0001  0.0000  0.0000  0.0000  0.0000  0.0000 </r>
        <r>  0.0000  0.0000  0.0000  0.0000  0.0000  0.0000  0.0000  0.0000  0.0000 </r>
       </set>
       <set comment="band 5">
        <r>  0.0000  0.0002  0.0027  0.7343  0.0000  0.0000  0.0000  0.0000  0.0000 </r>
        <r>  0.0000  0.0000  0.0000  0.0000  0.0000  0.0000  0.0000  0.0000  0.0000 </r>
       </set>
       <set comment="band 6">
        <r>  0.0000  0.0000  0.0000  0.0000  0.0250  0.0001  0.0000  0.0001  0.0000 </r>
        <r>  0.0000  0.0022  0.5097  0.0027  0.0000  0.0000  0.0000  0.0000  0.0000 </r>
       </set>
       <set comment="band 7">
        <r>  0.0000  0.0000  0.0000  0.0000  0.0001  0.0001  0.0000  0.0251  0.0000 </r>
        <r>  0.0000  0.5107  0.0025  0.0014  0.0000  0.0000  0.0000  0.0000  0.0000 </r>
       </set>
       <set comment="band 8">
        <r>  0.0000  0.0000  0.0000  0.0000  0.0001  0.0251  0.0000  0.0001  0.0000 </r>
        <r>  0.0000  0.0017  0.0024  0.5105  0.0000  0.0000  0.0000  0.0000  0.0000 </r>
       </set>
       <set comment="band 9">
        <r>  0.0000  0.0000  0.0000  0.0000  0.0092  0.2761  0.0000  0.0018  0.0000 </r>
        <r>  0.0000  0.0015  0.0079  0.2354  0.0000  0.0000  0.0000  0.0000  0.0000 </r>
       </set>
       <set comment="band 10">
        <r>  0.0000  0.0000  0.0000  0.0000  0.0099  0.0037  0.0000  0.2736  0.0000 </r>
        <r>  0.0000  0.2332  0.0085  0.0031  0.0000  0.0000  0.0000  0.0000  0.0000 </r>
       </set>
       <set comment="band 11">
        <r>  0.0000  0.0000  0.0000  0.0000  0.2680  0.0074  0.0000  0.0118  0.0000 </r>
        <r>  0.0000  0.0100  0.2284  0.0063  0.0000  0.0000  0.0000  0.0000  0.0000 </r>
       </set>
       <set comment="band 12">
        <r>  0.0000  0.0016  0.0081  0.1913  0.0000  0.0000  0.0000  0.0000  0.0000 </r>
        <r>  0.0000  0.0000  0.0000  0.0000  0.0000  0.0000  0.0000  0.0000  0.0000 </r>
       </set>
       <set comment="band 13">
        <r>  0.0000  0.1876  0.0098  0.0036  0.0000  0.0000  0.0000  0.0000  0.0000 </r>
        <r>  0.0000  0.0000  0.0000  0.0000  0.0000  0.0000  0.0000  0.0000  0.0000 </r>
       </set>
       <set comment="band 14">
        <r>  0.0000  0.0118  0.1831  0.0061  0.0000  0.0000  0.0000  0.0000  0.0000 </r>
        <r>  0.0000  0.0000  0.0000  0.0000  0.0000  0.0000  0.0000  0.0000  0.0000 </r>
       </set>
      </set>
     </set>
    </set>
   </array>
  </projected>
 </calculation>
 <structure name="finalpos" >
  <crystal>
   <varray name="basis" >
    <v>       3.89755313       0.00000000      -0.00000002 </v>
    <v>       0.00000000       3.89755306      -0.00000001 </v>
    <v>      -0.00000002      -0.00000001       3.89755302 </v>
   </varray>
   <i name="volume">     59.20741677 </i>
   <varray name="rec_basis" >
    <v>       0.25657123      -0.00000000       0.00000000 </v>
    <v>      -0.00000000       0.25657123       0.00000000 </v>
    <v>       0.00000000       0.00000000       0.25657124 </v>
   </varray>
  </crystal>
  <varray name="positions" >
   <v>       1.00000000       0.00000000       0.00000000 </v>
   <v>       0.50000000       0.50000000       0.50000000 </v>
  </varray>
 </structure>
</modeling>
