<?xml version="1.0" encoding="ISO-8859-1"?>
<modeling>
 <generator>
  <i name="program" type="string">vasp </i>
  <i name="version" type="string">5.3.5  </i>
  <i name="subversion" type="string">31Mar14 (build Sep 02 2014 18:36:44) complex                          parallel </i>
  <i name="platform" type="string">LinuxIFC </i>
  <i name="date" type="string">2015 01 31 </i>
  <i name="time" type="string">06:11:24 </i>
 </generator>
 <incar>
  <i type="string" name="PREC">accurate</i>
  <i type="string" name="ALGO"> Fast</i>
  <i type="int" name="ISPIN">     2</i>
  <i type="int" name="ICHARG">     1</i>
  <i type="int" name="NELM">   100</i>
  <i type="int" name="NELMDL">    -6</i>
  <i type="int" name="NELMIN">     6</i>
  <i type="int" name="IBRION">     2</i>
  <i name="EDIFF">      0.00000500</i>
  <i type="int" name="NSW">    99</i>
  <i type="int" name="ISIF">     3</i>
  <i name="ENCUT">    520.00000000</i>
  <v name="MAGMOM">      0.60000000</v>
  <i type="string" name="LREAL"> Auto</i>
  <i type="int" name="ISMEAR">    -5</i>
  <i name="SIGMA">      0.05000000</i>
  <i type="logical" name="LWAVE"> F  </i>
  <i type="logical" name="LORBIT"> F  </i>
  <i type="logical" name="LASPH"> F  </i>
  <i type="int" name="NELM">   100</i>
  <i type="string" name="GGA"> Ps</i>
  <i type="logical" name="LASPH"> F  </i>
  <i type="int" name="LMAXTAU">     0</i>
 </incar>
 <kpoints>
  <generation param="Auto">
   <i name="subdivisionlength">     25.00000000 </i>
   <v type="int" name="divisions">       7        7        7 </v>
   <v name="usershift">      0.00000000       0.00000000       0.00000000 </v>
   <v name="genvec1">      0.14285714      -0.00000000       0.00000000 </v>
   <v name="genvec2">     -0.00000000       0.14285714       0.00000000 </v>
   <v name="genvec3">      0.00000000       0.00000000       0.14285714 </v>
   <v name="shift">      0.00000000       0.00000000       0.00000000 </v>
  </generation>
  <varray name="kpointlist" >
   <v>       0.00000000       0.00000000       0.00000000 </v>
   <v>       0.14285714       0.00000000       0.00000000 </v>
   <v>       0.28571429       0.00000000       0.00000000 </v>
   <v>       0.42857143      -0.00000000      -0.00000000 </v>
   <v>       0.14285714       0.14285714      -0.00000000 </v>
   <v>       0.28571429       0.14285714      -0.00000000 </v>
   <v>       0.42857143       0.14285714       0.00000000 </v>
   <v>      -0.42857143       0.14285714       0.00000000 </v>
   <v>      -0.28571429       0.14285714       0.00000000 </v>
   <v>      -0.14285714       0.14285714      -0.00000000 </v>
   <v>       0.28571429       0.28571429       0.00000000 </v>
   <v>       0.42857143       0.28571429       0.00000000 </v>
   <v>      -0.42857143       0.28571429       0.00000000 </v>
   <v>      -0.28571429       0.28571429       0.00000000 </v>
   <v>       0.42857143       0.42857143      -0.00000000 </v>
   <v>      -0.42857143       0.42857143       0.00000000 </v>
   <v>      -0.00000000      -0.00000000       0.14285714 </v>
   <v>       0.14285714      -0.00000000       0.14285714 </v>
   <v>       0.28571429       0.00000000       0.14285714 </v>
   <v>       0.42857143       0.00000000       0.14285714 </v>
   <v>      -0.42857143       0.00000000       0.14285714 </v>
   <v>      -0.28571429      -0.00000000       0.14285714 </v>
   <v>       0.14285714       0.14285714       0.14285714 </v>
   <v>       0.28571429       0.14285714       0.14285714 </v>
   <v>       0.42857143       0.14285714       0.14285714 </v>
   <v>      -0.42857143       0.14285714       0.14285714 </v>
   <v>       0.28571429       0.28571429       0.14285714 </v>
   <v>       0.42857143       0.28571429       0.14285714 </v>
   <v>      -0.28571429       0.28571429       0.14285714 </v>
   <v>      -0.42857143       0.42857143       0.14285714 </v>
   <v>      -0.28571429       0.42857143       0.14285714 </v>
   <v>      -0.42857143      -0.42857143       0.14285714 </v>
   <v>       0.00000000       0.00000000       0.28571429 </v>
   <v>       0.14285714       0.00000000       0.28571429 </v>
   <v>       0.28571429       0.00000000       0.28571429 </v>
   <v>       0.42857143       0.00000000       0.28571429 </v>
   <v>       0.14285714       0.14285714       0.28571429 </v>
   <v>       0.28571429       0.14285714       0.28571429 </v>
   <v>       0.00000000       0.00000000       0.42857143 </v>
   <v>       0.14285714       0.00000000       0.42857143 </v>
  </varray>
  <varray name="weights" >
   <v>       0.00291545 </v>
   <v>       0.02332362 </v>
   <v>       0.02332362 </v>
   <v>       0.02332362 </v>
   <v>       0.02332362 </v>
   <v>       0.04664723 </v>
   <v>       0.04664723 </v>
   <v>       0.04664723 </v>
   <v>       0.04664723 </v>
   <v>       0.01166181 </v>
   <v>       0.02332362 </v>
   <v>       0.04664723 </v>
   <v>       0.04664723 </v>
   <v>       0.01166181 </v>
   <v>       0.02332362 </v>
   <v>       0.01166181 </v>
   <v>       0.00583090 </v>
   <v>       0.02332362 </v>
   <v>       0.02332362 </v>
   <v>       0.02332362 </v>
   <v>       0.02332362 </v>
   <v>       0.01166181 </v>
   <v>       0.02332362 </v>
   <v>       0.04664723 </v>
   <v>       0.04664723 </v>
   <v>       0.02332362 </v>
   <v>       0.02332362 </v>
   <v>       0.02332362 </v>
   <v>       0.02332362 </v>
   <v>       0.02332362 </v>
   <v>       0.04664723 </v>
   <v>       0.02332362 </v>
   <v>       0.00583090 </v>
   <v>       0.02332362 </v>
   <v>       0.02332362 </v>
   <v>       0.01166181 </v>
   <v>       0.02332362 </v>
   <v>       0.02332362 </v>
   <v>       0.00583090 </v>
   <v>       0.01166181 </v>
  </varray>
  <varray name="tetrahedronlist"  type="int" >
   <v type="int" >        4        1        2        5       17 </v>
   <v type="int" >        8        2        5       17       18 </v>
   <v type="int" >        4        5       17       18       23 </v>
   <v type="int" >        4        2        3        6       18 </v>
   <v type="int" >        4        2        5        6       18 </v>
   <v type="int" >        8        5        6       18       23 </v>
   <v type="int" >        8        3        6       18       19 </v>
   <v type="int" >        4        6       18       19       24 </v>
   <v type="int" >        4        6       18       23       24 </v>
   <v type="int" >        4        3        4        7       19 </v>
   <v type="int" >        4        3        6        7       19 </v>
   <v type="int" >        8        6        7       19       24 </v>
   <v type="int" >        8        4        7       19       20 </v>
   <v type="int" >        4        7       19       20       25 </v>
   <v type="int" >        4        7       19       24       25 </v>
   <v type="int" >        4        4        4        8       20 </v>
   <v type="int" >        8        4        7        8       20 </v>
   <v type="int" >        8        7        8       20       25 </v>
   <v type="int" >        8        4        8       20       21 </v>
   <v type="int" >        4        8       20       21       26 </v>
   <v type="int" >        4        8       20       25       26 </v>
   <v type="int" >        4        3        4        9       21 </v>
   <v type="int" >        4        4        8        9       21 </v>
   <v type="int" >        8        8        9       21       26 </v>
   <v type="int" >        8        3        9       21       22 </v>
   <v type="int" >        4        9        9       21       22 </v>
   <v type="int" >        4        9        9       21       26 </v>
   <v type="int" >        4        2        3       10       22 </v>
   <v type="int" >        4        3        9       10       22 </v>
   <v type="int" >        4        9        9       10       22 </v>
   <v type="int" >        4        2        2       10       22 </v>
   <v type="int" >        4        2        5       10       22 </v>
   <v type="int" >        4        5        9       10       22 </v>
   <v type="int" >        4        1        2        2        2 </v>
   <v type="int" >        4        2        2        2       10 </v>
   <v type="int" >        4        2        2        5       10 </v>
   <v type="int" >        4        1        2        2       17 </v>
   <v type="int" >        4        2        2       17       18 </v>
   <v type="int" >        4        2        2        5       18 </v>
   <v type="int" >        4        5        6       11       23 </v>
   <v type="int" >        8        6       11       23       24 </v>
   <v type="int" >        4       11       23       24       27 </v>
   <v type="int" >        4        6        7       12       24 </v>
   <v type="int" >        4        6       11       12       24 </v>
   <v type="int" >        8       11       12       24       27 </v>
   <v type="int" >        8        7       12       24       25 </v>
   <v type="int" >        4       12       24       25       28 </v>
   <v type="int" >        4       12       24       27       28 </v>
   <v type="int" >        4        7        8       13       25 </v>
   <v type="int" >        4        7       12       13       25 </v>
   <v type="int" >        8       12       13       25       28 </v>
   <v type="int" >        8        8       13       25       26 </v>
   <v type="int" >        4       13       13       25       26 </v>
   <v type="int" >        4       13       13       25       28 </v>
   <v type="int" >        4        8        9       14       26 </v>
   <v type="int" >        4        8       13       14       26 </v>
   <v type="int" >        4       13       13       14       26 </v>
   <v type="int" >        4        9        9       14       26 </v>
   <v type="int" >        4        9       14       26       29 </v>
   <v type="int" >        4       13       14       26       29 </v>
   <v type="int" >        4        9        9        9       10 </v>
   <v type="int" >        4        9        9        9       14 </v>
   <v type="int" >        4        9        9       14       29 </v>
   <v type="int" >        4        5        9        9       10 </v>
   <v type="int" >        4        5        6        9        9 </v>
   <v type="int" >        4        6        9        9       29 </v>
   <v type="int" >        4        2        3        5       10 </v>
   <v type="int" >        4        3        5        9       10 </v>
   <v type="int" >        8        3        5        6        9 </v>
   <v type="int" >        8        2        3        5       18 </v>
   <v type="int" >        4        3        5       18       19 </v>
   <v type="int" >        4        3        5        6       19 </v>
   <v type="int" >        4       11       12       15       27 </v>
   <v type="int" >        8       12       15       27       28 </v>
   <v type="int" >        4       15       15       27       28 </v>
   <v type="int" >        4       12       13       16       28 </v>
   <v type="int" >        4       12       15       16       28 </v>
   <v type="int" >        4       15       15       16       28 </v>
   <v type="int" >        4       13       13       16       28 </v>
   <v type="int" >        4       13       16       28       30 </v>
   <v type="int" >        4       15       16       28       30 </v>
   <v type="int" >        4       13       13       13       14 </v>
   <v type="int" >        4       13       13       13       16 </v>
   <v type="int" >        4       13       13       16       30 </v>
   <v type="int" >        4       13       13       14       29 </v>
   <v type="int" >        4       13       13       29       31 </v>
   <v type="int" >        4       13       13       30       31 </v>
   <v type="int" >        4        8        9       14       29 </v>
   <v type="int" >        4        8       13       14       29 </v>
   <v type="int" >        8        8       13       29       31 </v>
   <v type="int" >        8        6        8        9       29 </v>
   <v type="int" >        4        6        7        8       29 </v>
   <v type="int" >        4        7        8       29       31 </v>
   <v type="int" >        4        3        4        6        9 </v>
   <v type="int" >        4        4        6        8        9 </v>
   <v type="int" >        8        4        6        7        8 </v>
   <v type="int" >        8        3        4        6       19 </v>
   <v type="int" >        4        4        6       19       20 </v>
   <v type="int" >        4        4        6        7       20 </v>
   <v type="int" >        4       15       15       15       16 </v>
   <v type="int" >        4       15       15       16       30 </v>
   <v type="int" >        4       15       15       30       32 </v>
   <v type="int" >        4       12       13       16       30 </v>
   <v type="int" >        4       12       15       16       30 </v>
   <v type="int" >        8       12       15       30       32 </v>
   <v type="int" >        8       12       13       30       31 </v>
   <v type="int" >        4       12       30       31       31 </v>
   <v type="int" >        8       12       30       31       32 </v>
   <v type="int" >        4        7        8       13       31 </v>
   <v type="int" >        4        7       12       13       31 </v>
   <v type="int" >       12        7       12       31       31 </v>
   <v type="int" >       12        7        7        8       31 </v>
   <v type="int" >        4        7        8       31       31 </v>
   <v type="int" >        4        4        4        7        8 </v>
   <v type="int" >       12        4        7        7        8 </v>
   <v type="int" >       12        4        4        7       20 </v>
   <v type="int" >        4        4        7       20       21 </v>
   <v type="int" >        4        4        7        8       21 </v>
   <v type="int" >        4       11       12       15       32 </v>
   <v type="int" >        8       11       12       31       32 </v>
   <v type="int" >        4       11       29       31       32 </v>
   <v type="int" >        4        6        7       12       31 </v>
   <v type="int" >        4        6       11       12       31 </v>
   <v type="int" >        8        6       11       29       31 </v>
   <v type="int" >        8        6        7        8       31 </v>
   <v type="int" >        4        6        8        9       31 </v>
   <v type="int" >        4        6        9       29       31 </v>
   <v type="int" >        4        3        4        7        8 </v>
   <v type="int" >        4        3        6        7        8 </v>
   <v type="int" >        8        3        6        8        9 </v>
   <v type="int" >        8        3        4        8       21 </v>
   <v type="int" >        4        3        8       21       22 </v>
   <v type="int" >        4        3        8        9       22 </v>
   <v type="int" >        4        5        6       11       29 </v>
   <v type="int" >        8        5        6        9       29 </v>
   <v type="int" >        4        5        9       10       29 </v>
   <v type="int" >        4        2        3        6        9 </v>
   <v type="int" >        4        2        5        6        9 </v>
   <v type="int" >        8        2        5        9       10 </v>
   <v type="int" >        8        2        3        9       22 </v>
   <v type="int" >        4        2        2        9       22 </v>
   <v type="int" >        4        2        2        9       10 </v>
   <v type="int" >        4        1        2        5       10 </v>
   <v type="int" >        4        1        2        2       10 </v>
   <v type="int" >        4        1        2       10       17 </v>
   <v type="int" >        4       17       18       23       33 </v>
   <v type="int" >        8       18       23       33       34 </v>
   <v type="int" >        4       23       33       34       37 </v>
   <v type="int" >        4       18       19       24       34 </v>
   <v type="int" >        4       18       23       24       34 </v>
   <v type="int" >        8       23       24       34       37 </v>
   <v type="int" >        8       19       24       34       35 </v>
   <v type="int" >        4       24       34       35       38 </v>
   <v type="int" >        4       24       34       37       38 </v>
   <v type="int" >        4       19       20       25       35 </v>
   <v type="int" >        4       19       24       25       35 </v>
   <v type="int" >        8       24       25       35       38 </v>
   <v type="int" >        8       20       25       35       36 </v>
   <v type="int" >        4       25       25       35       36 </v>
   <v type="int" >        4       25       25       35       38 </v>
   <v type="int" >        4       20       21       26       36 </v>
   <v type="int" >        4       20       25       26       36 </v>
   <v type="int" >        4       25       25       26       36 </v>
   <v type="int" >        4       21       21       26       36 </v>
   <v type="int" >        4        8       21       26       36 </v>
   <v type="int" >        4        8       25       26       36 </v>
   <v type="int" >        4        9       21       21       22 </v>
   <v type="int" >        4        9       21       21       26 </v>
   <v type="int" >        4        3        6        9       21 </v>
   <v type="int" >        4        6        8        9       21 </v>
   <v type="int" >        4        2        3        5       22 </v>
   <v type="int" >        4        3        5        9       22 </v>
   <v type="int" >        4        3        5       18       23 </v>
   <v type="int" >        4        3        5        6       23 </v>
   <v type="int" >        4        2       17       18       18 </v>
   <v type="int" >        4        2        5       18       18 </v>
   <v type="int" >        4        5       18       18       23 </v>
   <v type="int" >        4       17       18       18       33 </v>
   <v type="int" >        4       18       18       33       34 </v>
   <v type="int" >        4       18       18       23       34 </v>
   <v type="int" >        4       23       24       27       37 </v>
   <v type="int" >        8       24       27       37       38 </v>
   <v type="int" >        4       27       27       37       38 </v>
   <v type="int" >        4       24       25       28       38 </v>
   <v type="int" >        4       24       27       28       38 </v>
   <v type="int" >        4       27       27       28       38 </v>
   <v type="int" >        4       25       25       28       38 </v>
   <v type="int" >        4       12       25       28       38 </v>
   <v type="int" >        4       12       27       28       38 </v>
   <v type="int" >        4       13       25       25       26 </v>
   <v type="int" >        4       13       25       25       28 </v>
   <v type="int" >        4        8       13       25       31 </v>
   <v type="int" >        4       12       13       25       31 </v>
   <v type="int" >        4        8        9       26       29 </v>
   <v type="int" >        4        8       13       26       29 </v>
   <v type="int" >        4        6        8       11       29 </v>
   <v type="int" >        4        8       11       29       31 </v>
   <v type="int" >        4        5        6        6        9 </v>
   <v type="int" >        4        6        6        9       29 </v>
   <v type="int" >        4        6        6       11       29 </v>
   <v type="int" >        4        5        6        6       23 </v>
   <v type="int" >        4        6        6       23       24 </v>
   <v type="int" >        4        6        6       11       24 </v>
   <v type="int" >        4        5       18       19       23 </v>
   <v type="int" >        4        5        6       19       23 </v>
   <v type="int" >        8        6       19       23       24 </v>
   <v type="int" >        8       18       19       23       34 </v>
   <v type="int" >        4       19       23       34       35 </v>
   <v type="int" >        4       19       23       24       35 </v>
   <v type="int" >        4       15       27       27       28 </v>
   <v type="int" >        4       12       15       27       32 </v>
   <v type="int" >        4       12       13       28       30 </v>
   <v type="int" >        4       12       15       28       30 </v>
   <v type="int" >        4       12       30       32       32 </v>
   <v type="int" >        4       13       29       31       31 </v>
   <v type="int" >        4       13       30       31       31 </v>
   <v type="int" >        8       30       31       31       32 </v>
   <v type="int" >        4       11       29       31       31 </v>
   <v type="int" >        4       11       12       31       31 </v>
   <v type="int" >       16       12       31       31       32 </v>
   <v type="int" >        4        6        7       11       29 </v>
   <v type="int" >        4        7       11       29       31 </v>
   <v type="int" >        8        7       11       12       31 </v>
   <v type="int" >        8        6        7       11       24 </v>
   <v type="int" >        4        7       11       24       25 </v>
   <v type="int" >        4        7       11       12       25 </v>
   <v type="int" >        4        6       19       20       24 </v>
   <v type="int" >        4        6        7       20       24 </v>
   <v type="int" >        8        7       20       24       25 </v>
   <v type="int" >        8       19       20       24       35 </v>
   <v type="int" >        4       20       24       35       36 </v>
   <v type="int" >        4       20       24       25       36 </v>
   <v type="int" >        4       15       30       32       32 </v>
   <v type="int" >        8       30       32       32       32 </v>
   <v type="int" >       12       30       31       32       32 </v>
   <v type="int" >        4       12       13       31       32 </v>
   <v type="int" >        4       13       30       31       32 </v>
   <v type="int" >        8        7        8       12       31 </v>
   <v type="int" >        4        8       12       31       31 </v>
   <v type="int" >        8        8       12       13       31 </v>
   <v type="int" >        8        7        8       12       25 </v>
   <v type="int" >        4        8       12       25       26 </v>
   <v type="int" >        4        8       12       13       26 </v>
   <v type="int" >        4        7       20       21       25 </v>
   <v type="int" >        4        7        8       21       25 </v>
   <v type="int" >        8        8       21       25       26 </v>
   <v type="int" >        8       20       21       25       36 </v>
   <v type="int" >        4       21       21       25       36 </v>
   <v type="int" >        4       21       21       25       26 </v>
   <v type="int" >        4       29       30       31       32 </v>
   <v type="int" >        8       13       29       30       31 </v>
   <v type="int" >        4       13       14       29       30 </v>
   <v type="int" >        4        8        9       13       31 </v>
   <v type="int" >        4        9       13       29       31 </v>
   <v type="int" >        8        9       13       14       29 </v>
   <v type="int" >        8        8        9       13       26 </v>
   <v type="int" >        4        9        9       13       26 </v>
   <v type="int" >        4        9        9       13       14 </v>
   <v type="int" >        4        8       21       22       26 </v>
   <v type="int" >        4        8        9       22       26 </v>
   <v type="int" >        4        9        9       22       26 </v>
   <v type="int" >        4       21       21       22       26 </v>
   <v type="int" >        4        3       21       22       26 </v>
   <v type="int" >        4        3        9       22       26 </v>
   <v type="int" >        4        9       10       14       29 </v>
   <v type="int" >        4        9        9       10       14 </v>
   <v type="int" >        4        5        9       10       14 </v>
   <v type="int" >        4        2        9        9       22 </v>
   <v type="int" >        4        2        9        9       10 </v>
   <v type="int" >        4        2        3        9       18 </v>
   <v type="int" >        4        2        5        9       18 </v>
   <v type="int" >        4        2        5       10       17 </v>
   <v type="int" >        4        5       17       18       33 </v>
   <v type="int" >        4       33       34       37       39 </v>
   <v type="int" >        8       34       37       39       40 </v>
   <v type="int" >        4       37       37       39       40 </v>
   <v type="int" >        4       34       35       38       40 </v>
   <v type="int" >        4       34       37       38       40 </v>
   <v type="int" >        4       37       37       38       40 </v>
   <v type="int" >        4       35       35       38       40 </v>
   <v type="int" >        4       24       35       38       40 </v>
   <v type="int" >        4       24       37       38       40 </v>
   <v type="int" >        4       25       35       35       36 </v>
   <v type="int" >        4       25       35       35       38 </v>
   <v type="int" >        4        7       20       25       35 </v>
   <v type="int" >        4        7       24       25       35 </v>
   <v type="int" >        4        8       20       21       36 </v>
   <v type="int" >        4        8       20       25       36 </v>
   <v type="int" >        4        7        7        8       20 </v>
   <v type="int" >        4        3        4        6       21 </v>
   <v type="int" >        4        4        6        8       21 </v>
   <v type="int" >        4        4        6       19       24 </v>
   <v type="int" >        4        4        6        7       24 </v>
   <v type="int" >        4        3       18       19       23 </v>
   <v type="int" >        4        3        6       19       23 </v>
   <v type="int" >        4       19       23       34       37 </v>
   <v type="int" >        4       19       23       24       37 </v>
   <v type="int" >        4       18       33       34       34 </v>
   <v type="int" >        4       18       23       34       34 </v>
   <v type="int" >        4       23       34       34       37 </v>
   <v type="int" >        4       33       34       34       39 </v>
   <v type="int" >        4       34       34       39       40 </v>
   <v type="int" >        4       34       34       37       40 </v>
   <v type="int" >        4       27       37       37       38 </v>
   <v type="int" >        4       11       24       27       37 </v>
   <v type="int" >        4       12       24       25       38 </v>
   <v type="int" >        4       12       24       27       38 </v>
   <v type="int" >        4        7       12       24       31 </v>
   <v type="int" >        4       11       12       24       31 </v>
   <v type="int" >        4        7        8       25       31 </v>
   <v type="int" >        4        7       12       25       31 </v>
   <v type="int" >        4        7        7       12       31 </v>
   <v type="int" >        4        6        7        8       11 </v>
   <v type="int" >        4        7        8       11       31 </v>
   <v type="int" >        4        7       11       24       27 </v>
   <v type="int" >        4        7       11       12       27 </v>
   <v type="int" >        4        6       23       24       24 </v>
   <v type="int" >        4        6       11       24       24 </v>
   <v type="int" >        4       11       24       24       27 </v>
   <v type="int" >        4       23       24       24       37 </v>
   <v type="int" >        4       24       24       37       38 </v>
   <v type="int" >        4       24       24       27       38 </v>
   <v type="int" >        4       23       34       35       37 </v>
   <v type="int" >        4       23       24       35       37 </v>
   <v type="int" >        8       24       35       37       38 </v>
   <v type="int" >        8       34       35       37       40 </v>
   <v type="int" >        4       35       35       37       40 </v>
   <v type="int" >        4       35       35       37       38 </v>
   <v type="int" >        4       11       12       27       32 </v>
   <v type="int" >        4       11       30       31       32 </v>
   <v type="int" >        4       12       31       32       32 </v>
   <v type="int" >        4       12       15       31       32 </v>
   <v type="int" >        4       15       30       31       32 </v>
   <v type="int" >        4       11       12       12       31 </v>
   <v type="int" >        4       12       12       31       32 </v>
   <v type="int" >        4       12       12       15       32 </v>
   <v type="int" >        4       11       12       12       27 </v>
   <v type="int" >        4       12       12       27       28 </v>
   <v type="int" >        4       12       12       15       28 </v>
   <v type="int" >        4       11       24       25       27 </v>
   <v type="int" >        4       11       12       25       27 </v>
   <v type="int" >        8       12       25       27       28 </v>
   <v type="int" >        8       24       25       27       38 </v>
   <v type="int" >        4       25       25       27       38 </v>
   <v type="int" >        4       25       25       27       28 </v>
   <v type="int" >        4       24       35       36       38 </v>
   <v type="int" >        4       24       25       36       38 </v>
   <v type="int" >        4       25       25       36       38 </v>
   <v type="int" >        4       35       35       36       38 </v>
   <v type="int" >        4       20       35       36       38 </v>
   <v type="int" >        4       20       25       36       38 </v>
   <v type="int" >        4       30       30       32       32 </v>
   <v type="int" >        4       15       30       30       32 </v>
   <v type="int" >        4       15       16       30       30 </v>
   <v type="int" >        4       12       13       15       32 </v>
   <v type="int" >        4       13       15       30       32 </v>
   <v type="int" >        8       13       15       16       30 </v>
   <v type="int" >        8       12       13       15       28 </v>
   <v type="int" >        4       13       13       15       28 </v>
   <v type="int" >        4       13       13       15       16 </v>
   <v type="int" >        4       12       25       26       28 </v>
   <v type="int" >        4       12       13       26       28 </v>
   <v type="int" >        4       13       13       26       28 </v>
   <v type="int" >        4       25       25       26       28 </v>
   <v type="int" >        4        8       25       26       28 </v>
   <v type="int" >        4        8       13       26       28 </v>
   <v type="int" >        4       21       25       25       36 </v>
   <v type="int" >        4       21       25       25       26 </v>
   <v type="int" >        4        4       20       21       25 </v>
   <v type="int" >        4        4        8       21       25 </v>
   <v type="int" >        4       13       14       16       30 </v>
   <v type="int" >        4       13       13       14       16 </v>
   <v type="int" >        4       13       14       16       29 </v>
   <v type="int" >        4        9       13       13       26 </v>
   <v type="int" >        4        9       13       13       14 </v>
   <v type="int" >        4        6        8        9       13 </v>
   <v type="int" >        4        6        9       13       29 </v>
   <v type="int" >        4        3        8       21       26 </v>
   <v type="int" >        4        3        8        9       26 </v>
   <v type="int" >        4        3        4        8       19 </v>
   <v type="int" >        4        3        6        8       19 </v>
   <v type="int" >        4        5        9       14       29 </v>
   <v type="int" >        4        5        6       23       29 </v>
   <v type="int" >        4        3        6        9       18 </v>
   <v type="int" >        4        5        6        9       18 </v>
   <v type="int" >        4        6       18       19       34 </v>
   <v type="int" >        4        6       18       23       34 </v>
   <v type="int" >        4        5       18       23       33 </v>
   <v type="int" >        4       23       33       34       39 </v>
   <v type="int" >        4       37       39       39       40 </v>
   <v type="int" >        4       23       34       37       39 </v>
   <v type="int" >        4       24       34       35       40 </v>
   <v type="int" >        4       24       34       37       40 </v>
   <v type="int" >        4        6       19       24       34 </v>
   <v type="int" >        4        6       23       24       34 </v>
   <v type="int" >        4        7       19       20       35 </v>
   <v type="int" >        4        7       19       24       35 </v>
   <v type="int" >        4        4        7        8       19 </v>
   <v type="int" >        4        6        7        8       19 </v>
   <v type="int" >        4        4        7        7       20 </v>
   <v type="int" >        4        4        7       20       25 </v>
   <v type="int" >        4        4        7        8       25 </v>
   <v type="int" >        4        4       19       20       24 </v>
   <v type="int" >        4        4        7       20       24 </v>
   <v type="int" >        4       20       24       35       38 </v>
   <v type="int" >        4       20       24       25       38 </v>
   <v type="int" >        4       19       34       35       37 </v>
   <v type="int" >        4       19       24       35       37 </v>
   <v type="int" >        4       35       37       37       40 </v>
   <v type="int" >        4       35       37       37       38 </v>
   <v type="int" >        4       34       39       40       40 </v>
   <v type="int" >        4       34       37       40       40 </v>
   <v type="int" >        2       37       37       40       40 </v>
   <v type="int" >        2       39       39       40       40 </v>
   <v type="int" >        4       11       23       24       37 </v>
   <v type="int" >        4        6       11       23       29 </v>
   <v type="int" >        4        6        7       24       31 </v>
   <v type="int" >        4        6       11       24       31 </v>
   <v type="int" >        4        6        8       13       31 </v>
   <v type="int" >        4        6       13       29       31 </v>
   <v type="int" >        4        7        7        8       12 </v>
   <v type="int" >        4        8       12       25       28 </v>
   <v type="int" >        4        8       12       13       28 </v>
   <v type="int" >        4        7       24       25       27 </v>
   <v type="int" >        4        7       12       25       27 </v>
   <v type="int" >        4       25       27       27       38 </v>
   <v type="int" >        4       25       27       27       28 </v>
   <v type="int" >        4       24       37       38       38 </v>
   <v type="int" >        4       24       27       38       38 </v>
   <v type="int" >        2       27       27       38       38 </v>
   <v type="int" >        2       37       37       38       38 </v>
   <v type="int" >        4       11       29       30       31 </v>
   <v type="int" >        4       13       16       29       30 </v>
   <v type="int" >        4       12       13       15       31 </v>
   <v type="int" >        4       13       15       30       31 </v>
   <v type="int" >        4       13       15       15       28 </v>
   <v type="int" >        4       13       15       15       16 </v>
   <v type="int" >        4       12       27       28       28 </v>
   <v type="int" >        4       12       15       28       28 </v>
   <v type="int" >        2       15       15       28       28 </v>
   <v type="int" >        2       27       27       28       28 </v>
   <v type="int" >        4       15       16       16       30 </v>
   <v type="int" >        2       15       15       16       16 </v>
  </varray>
  <i name="volumeweight">      0.00048591 </i>
 </kpoints>
 <parameters>
  <separator name="general" >
   <i type="string" name="SYSTEM">unknown system</i>
   <i type="logical" name="LCOMPAT"> F  </i>
  </separator>
  <separator name="electronic" >
   <i type="string" name="PREC">accura</i>
   <i name="ENMAX">    520.00000000</i>
   <i name="ENAUG">    218.46900000</i>
   <i name="EDIFF">      0.00000500</i>
   <i type="int" name="IALGO">    68</i>
   <i type="int" name="IWAVPR">    11</i>
   <i type="int" name="NBANDS">     8</i>
   <i name="NELECT">      8.00000000</i>
   <i type="int" name="TURBO">     0</i>
   <i type="int" name="IRESTART">     0</i>
   <i type="int" name="NREBOOT">     0</i>
   <i type="int" name="NMIN">     0</i>
   <i name="EREF">      0.00000000</i>
   <separator name="electronic smearing" >
    <i type="int" name="ISMEAR">    -5</i>
    <i name="SIGMA">      0.05000000</i>
    <i name="KSPACING">      0.50000000</i>
    <i type="logical" name="KGAMMA"> T  </i>
   </separator>
   <separator name="electronic projectors" >
    <i type="logical" name="LREAL"> T  </i>
    <v name="ROPT">     -0.00025000</v>
    <i type="int" name="LMAXPAW">  -100</i>
    <i type="int" name="LMAXMIX">     2</i>
    <i type="logical" name="NLSPLINE"> F  </i>
   </separator>
   <separator name="electronic startup" >
    <i type="int" name="ISTART">     0</i>
    <i type="int" name="ICHARG">     1</i>
    <i type="int" name="INIWAV">     1</i>
   </separator>
   <separator name="electronic spin" >
    <i type="int" name="ISPIN">     2</i>
    <i type="logical" name="LNONCOLLINEAR"> F  </i>
    <v name="MAGMOM">      0.60000000</v>
    <i name="NUPDOWN">     -1.00000000</i>
    <i type="logical" name="LSORBIT"> F  </i>
    <v name="SAXIS">      0.00000000      0.00000000      1.00000000</v>
    <i type="logical" name="LSPIRAL"> F  </i>
    <v name="QSPIRAL">      0.00000000      0.00000000      0.00000000</v>
    <i type="logical" name="LZEROZ"> F  </i>
   </separator>
   <separator name="electronic exchange-correlation" >
    <i type="logical" name="LASPH"> F  </i>
    <i type="logical" name="LMETAGGA"> F  </i>
   </separator>
   <separator name="electronic convergence" >
    <i type="int" name="NELM">   100</i>
    <i type="int" name="NELMDL">    -6</i>
    <i type="int" name="NELMIN">     6</i>
    <i name="ENINI">    520.00000000</i>
    <separator name="electronic convergence detail" >
     <i type="logical" name="LDIAG"> T  </i>
     <i type="logical" name="LSUBROT"> F  </i>
     <i name="WEIMIN">      0.00100000</i>
     <i name="EBREAK">      0.00000016</i>
     <i name="DEPER">      0.30000000</i>
     <i type="int" name="NRMM">     4</i>
     <i name="TIME">      0.40000000</i>
    </separator>
   </separator>
   <separator name="electronic mixer" >
    <i name="AMIX">      0.40000000</i>
    <i name="BMIX">      1.00000000</i>
    <i name="AMIN">      0.10000000</i>
    <i name="AMIX_MAG">      1.60000000</i>
    <i name="BMIX_MAG">      1.00000000</i>
    <separator name="electronic mixer details" >
     <i type="int" name="IMIX">     4</i>
     <i type="int" name="MAXMIX">   -45</i>
     <i name="WC">    100.00000000</i>
     <i type="int" name="INIMIX">     1</i>
     <i type="int" name="MIXPRE">     1</i>
     <i type="int" name="MREMOVE">     5</i>
    </separator>
   </separator>
   <separator name="electronic dipolcorrection" >
    <i type="logical" name="LDIPOL"> F  </i>
    <i type="logical" name="LMONO"> F  </i>
    <i type="int" name="IDIPOL">     0</i>
    <i name="EPSILON">      1.00000000</i>
    <v name="DIPOL">   -100.00000000   -100.00000000   -100.00000000</v>
    <i name="EFIELD">      0.00000000</i>
   </separator>
  </separator>
  <separator name="grids" >
   <i type="int" name="NGX">    36</i>
   <i type="int" name="NGY">    36</i>
   <i type="int" name="NGZ">    36</i>
   <i type="int" name="NGXF">    72</i>
   <i type="int" name="NGYF">    72</i>
   <i type="int" name="NGZF">    72</i>
   <i type="logical" name="ADDGRID"> F  </i>
  </separator>
  <separator name="ionic" >
   <i type="int" name="NSW">    99</i>
   <i type="int" name="IBRION">     2</i>
   <i type="int" name="ISIF">     3</i>
   <i name="PSTRESS">      0.00000000</i>
   <i name="EDIFFG">      0.00005000</i>
   <i type="int" name="NFREE">     1</i>
   <i name="POTIM">      0.50000000</i>
   <i name="SMASS">     -3.00000000</i>
   <i name="SCALEE">      1.00000000</i>
  </separator>
  <separator name="ionic md" >
   <i name="TEBEG">      0.00010000</i>
   <i name="TEEND">      0.00010000</i>
   <i type="int" name="NBLOCK">     1</i>
   <i type="int" name="KBLOCK">    99</i>
   <i type="int" name="NPACO">   256</i>
   <i name="APACO">     16.00000000</i>
  </separator>
  <separator name="symmetry" >
   <i type="int" name="ISYM">     2</i>
   <i name="SYMPREC">      0.00001000</i>
  </separator>
  <separator name="dos" >
   <i type="logical" name="LORBIT"> F  </i>
   <v name="RWIGS">     -1.00000000</v>
   <i type="int" name="NEDOS">   301</i>
   <i name="EMIN">     10.00000000</i>
   <i name="EMAX">    -10.00000000</i>
   <i name="EFERMI">      0.00000000</i>
  </separator>
  <separator name="writing" >
   <i type="int" name="NWRITE">     2</i>
   <i type="logical" name="LWAVE"> F  </i>
   <i type="logical" name="LCHARG"> T  </i>
   <i type="logical" name="LPARD"> F  </i>
   <i type="logical" name="LVTOT"> F  </i>
   <i type="logical" name="LVHAR"> F  </i>
   <i type="logical" name="LELF"> F  </i>
   <i type="logical" name="LOPTICS"> F  </i>
   <v name="STM">      0.00000000      0.00000000      0.00000000      0.00000000      0.00000000      0.00000000      0.00000000</v>
  </separator>
  <separator name="performance" >
   <i type="int" name="NPAR">     4</i>
   <i type="int" name="NSIM">     4</i>
   <i type="int" name="NBLK">    -1</i>
   <i type="logical" name="LPLANE"> T  </i>
   <i type="logical" name="LSCALAPACK"> T  </i>
   <i type="logical" name="LSCAAWARE"> F  </i>
   <i type="logical" name="LSCALU"> F  </i>
   <i type="logical" name="LASYNC"> F  </i>
   <i type="logical" name="LORBITALREAL"> F  </i>
  </separator>
  <separator name="miscellaneous" >
   <i type="int" name="IDIOT">     3</i>
   <i type="logical" name="LMUSIC"> F  </i>
   <v name="POMASS">    131.29400000</v>
   <v name="DARWINR">      0.00000000</v>
   <v name="DARWINV">      1.00000000</v>
   <i type="logical" name="LCORR"> T  </i>
  </separator>
  <i type="logical" name="GGA_COMPAT"> T  </i>
  <i type="logical" name="LBERRY"> F  </i>
  <i type="int" name="ICORELEVEL">     0</i>
  <i type="logical" name="LDAU"> F  </i>
  <i type="int" name="I_CONSTRAINED_M">     0</i>
  <separator name="electronic exchange-correlation" >
   <i type="string" name="GGA">PS</i>
   <i type="int" name="VOSKOWN">     0</i>
   <i type="logical" name="LHFCALC"> F  </i>
   <i type="string" name="PRECFOCK"></i>
   <i type="logical" name="LSYMGRAD"> F  </i>
   <i type="logical" name="LHFONE"> F  </i>
   <i type="logical" name="LRHFCALC"> F  </i>
   <i type="logical" name="LTHOMAS"> F  </i>
   <i type="logical" name="LMODELHF"> F  </i>
   <i name="ENCUT4O">     -1.00000000</i>
   <i type="int" name="EXXOEP">     0</i>
   <i type="int" name="FOURORBIT">     0</i>
   <i name="AEXX">      0.00000000</i>
   <i name="HFALPHA">      0.00000000</i>
   <i name="MCALPHA">      0.00000000</i>
   <i name="ALDAX">      1.00000000</i>
   <i name="AGGAX">      1.00000000</i>
   <i name="ALDAC">      1.00000000</i>
   <i name="AGGAC">      1.00000000</i>
   <i type="int" name="NKREDX">     1</i>
   <i type="int" name="NKREDY">     1</i>
   <i type="int" name="NKREDZ">     1</i>
   <i type="logical" name="SHIFTRED"> F  </i>
   <i type="logical" name="ODDONLY"> F  </i>
   <i type="logical" name="EVENONLY"> F  </i>
   <i type="int" name="LMAXFOCK">     0</i>
   <i type="int" name="NMAXFOCKAE">     0</i>
   <i type="logical" name="LFOCKAEDFT"> F  </i>
   <i name="HFSCREEN">      0.00000000</i>
   <i name="HFSCREENC">      0.00000000</i>
   <i type="int" name="NBANDSGWLOW">     0</i>
  </separator>
  <separator name="vdW DFT" >
   <i type="logical" name="LUSE_VDW"> F  </i>
   <i name="Zab_VDW">     -0.84910000</i>
   <i name="PARAM1">      0.12340000</i>
   <i name="PARAM2">      1.00000000</i>
   <i name="PARAM3">      0.00000000</i>
  </separator>
  <separator name="model GW" >
   <i type="int" name="MODEL_GW">     0</i>
   <i name="MODEL_EPS0">     42.32687312</i>
   <i name="MODEL_ALPHA">      1.00000000</i>
  </separator>
  <separator name="linear response parameters" >
   <i type="logical" name="LEPSILON"> F  </i>
   <i type="logical" name="LRPA"> F  </i>
   <i type="logical" name="LNABLA"> F  </i>
   <i type="logical" name="LVEL"> F  </i>
   <i type="int" name="KINTER">     0</i>
   <i name="CSHIFT">      0.10000000</i>
   <i name="OMEGAMAX">     -1.00000000</i>
   <i name="DEG_THRESHOLD">      0.00200000</i>
  </separator>
  <separator name="orbital magnetization" >
   <i type="logical" name="NUCIND"> F  </i>
   <v name="MAGPOS">      0.00000000      0.00000000      0.00000000</v>
   <i type="logical" name="LNICSALL"> T  </i>
   <i type="logical" name="ORBITALMAG"> F  </i>
   <i type="logical" name="LMAGBLOCH"> F  </i>
   <i type="logical" name="LCHIMAG"> F  </i>
   <i type="logical" name="LGAUGE"> T  </i>
   <i type="int" name="MAGATOM">     0</i>
   <v name="MAGDIPOL">      0.00000000      0.00000000      0.00000000</v>
   <v name="AVECCONST">      0.00000000      0.00000000      0.00000000</v>
  </separator>
  <separator name="response functions" >
   <i type="logical" name="LADDER"> F  </i>
   <i type="logical" name="LFXC"> F  </i>
   <i type="logical" name="LHARTREE"> T  </i>
   <i type="int" name="IBSE">     0</i>
   <i type="logical" name="LTCTE"> F  </i>
   <i type="logical" name="LTETE"> F  </i>
   <i type="logical" name="LTRIPLET"> F  </i>
   <i type="logical" name="LFXCEPS"> F  </i>
   <i type="logical" name="LFXHEG"> F  </i>
   <i type="logical" name="L2ORDER"> F  </i>
   <i type="logical" name="LUSEW"> F  </i>
   <i name="ENCUTGW">     -2.00000000</i>
   <i name="ENCUTGWSOFT">     -2.00000000</i>
   <i name="ENCUTLF">     -1.00000000</i>
   <i type="int" name="LMAXMP2">    -1</i>
   <i name="SCISSOR">      0.00000000</i>
   <i type="int" name="NOMEGA">     0</i>
   <i type="int" name="NOMEGAR">     0</i>
   <i type="int" name="NBANDSGW">    -1</i>
   <i type="int" name="NBANDSO">    -1</i>
   <i type="int" name="NBANDSV">    -1</i>
   <i type="int" name="NELM">   100</i>
   <i type="int" name="DIM">     3</i>
   <i type="int" name="ANTIRES">     0</i>
   <i name="OMEGAMAX">    -30.00000000</i>
   <i name="OMEGAMIN">    -30.00000000</i>
   <i name="OMEGATL">   -200.00000000</i>
   <i type="int" name="OMEGAGRID">     0</i>
   <i name="CSHIFT">     -0.10000000</i>
   <i type="logical" name="SELFENERGY"> F  </i>
   <i type="logical" name="LSPECTRAL"> F  </i>
   <i type="logical" name="ODDONLYGW"> F  </i>
   <i type="logical" name="EVENONLYGW"> F  </i>
   <i type="int" name="NKREDLFX">     1</i>
   <i type="int" name="NKREDLFY">     1</i>
   <i type="int" name="NKREDLFZ">     1</i>
   <i type="int" name="MAXMEM">  1800</i>
   <i type="int" name="TELESCOPE">     0</i>
   <i type="int" name="TAUPAR">     1</i>
  </separator>
  <separator name="External order field" >
   <i name="OFIELD_KAPPA">      0.00000000</i>
   <v name="OFIELD_K">      0.00000000      0.00000000      0.00000000</v>
   <i name="OFIELD_Q6_NEAR">      0.00000000</i>
   <i name="OFIELD_Q6_FAR">      0.00000000</i>
   <i name="OFIELD_A">      0.00000000</i>
  </separator>
 </parameters>
 <atominfo>
  <atoms>       1 </atoms>
  <types>       1 </types>
  <array name="atoms" >
   <dimension dim="1">ion</dimension>
   <field type="string">element</field>
   <field type="int">atomtype</field>
   <set>
    <rc><c>X </c><c>   1</c></rc>
   </set>
  </array>
  <array name="atomtypes" >
   <dimension dim="1">type</dimension>
   <field type="int">atomspertype</field>
   <field type="string">element</field>
   <field>mass</field>
   <field>valence</field>
   <field type="string">pseudopotential</field>
   <set>
    <rc><c>   1</c><c>X </c><c>    131.29400000</c><c>      8.00000000</c><c> PAW_PBE Xe 07Sep2000                   </c></rc>
   </set>
  </array>
 </atominfo>
 <structure name="initialpos" >
  <crystal>
   <varray name="basis" >
    <v>      -4.59961383       0.00000000       0.00000011 </v>
    <v>       0.00000000      -4.59961383       0.00000011 </v>
    <v>       2.29980777       2.29980777       3.33443441 </v>
   </varray>
   <i name="volume">     70.54478853 </i>
   <varray name="rec_basis" >
    <v>      -0.21740955       0.00000000       0.14995052 </v>
    <v>       0.00000000      -0.21740955       0.14995052 </v>
    <v>       0.00000001       0.00000001       0.29990093 </v>
   </varray>
  </crystal>
  <varray name="positions" >
   <v>       0.00000000       0.00000000       0.00000000 </v>
  </varray>
 </structure>
 <calculation>
  <scstep>
   <time name="dav">    1.55    1.55</time>
   <time name="total">    1.75    1.75</time>
   <energy>
    <i name="alphaZ">     33.93650091 </i>
    <i name="ewald">   -322.09641672 </i>
    <i name="hartreedc">    -77.20179635 </i>
    <i name="XCdc">    -23.00937760 </i>
    <i name="pawpsdc">    254.12652646 </i>
    <i name="pawaedc">   -215.13955445 </i>
    <i name="eentropy">      0.00000000 </i>
    <i name="bandstr">    -41.01145300 </i>
    <i name="atom">    429.84423765 </i>
    <i name="e_fr_energy">     39.44866690 </i>
    <i name="e_wo_entrp">     39.44866690 </i>
    <i name="e_0_energy">     39.44866690 </i>
   </energy>
  </scstep>
  <scstep>
   <time name="dav">    1.85    1.85</time>
   <time name="total">    1.86    1.86</time>
   <energy>
    <i name="e_fr_energy">      3.29854259 </i>
    <i name="e_wo_entrp">      3.29854259 </i>
    <i name="e_0_energy">      3.29854259 </i>
   </energy>
  </scstep>
  <scstep>
   <time name="dav">    1.84    1.84</time>
   <time name="total">    1.84    1.85</time>
   <energy>
    <i name="e_fr_energy">      0.63736548 </i>
    <i name="e_wo_entrp">      0.63736548 </i>
    <i name="e_0_energy">      0.63736548 </i>
   </energy>
  </scstep>
  <scstep>
   <time name="dav">    2.17    2.17</time>
   <time name="total">    2.17    2.18</time>
   <energy>
    <i name="e_fr_energy">      0.60826763 </i>
    <i name="e_wo_entrp">      0.60826763 </i>
    <i name="e_0_energy">      0.60826763 </i>
   </energy>
  </scstep>
  <scstep>
   <time name="dav">    1.85    1.85</time>
   <time name="total">    1.86    1.86</time>
   <energy>
    <i name="e_fr_energy">      0.60798313 </i>
    <i name="e_wo_entrp">      0.60798313 </i>
    <i name="e_0_energy">      0.60798313 </i>
   </energy>
  </scstep>
  <scstep>
   <time name="dav">    2.22    2.22</time>
   <time name="total">    2.33    2.33</time>
   <energy>
    <i name="e_fr_energy">      0.60798247 </i>
    <i name="e_wo_entrp">      0.60798247 </i>
    <i name="e_0_energy">      0.60798247 </i>
   </energy>
  </scstep>
  <scstep>
   <time name="diag">    0.32    0.32</time>
   <time name="diis">    1.18    1.18</time>
   <time name="orth">    0.03    0.03</time>
   <time name="total">    1.81    1.81</time>
   <energy>
    <i name="e_fr_energy">      0.56457681 </i>
    <i name="e_wo_entrp">      0.56457681 </i>
    <i name="e_0_energy">      0.56457681 </i>
   </energy>
  </scstep>
  <scstep>
   <time name="diag">    0.32    0.32</time>
   <time name="diis">    1.20    1.21</time>
   <time name="orth">    0.03    0.03</time>
   <time name="total">    1.83    1.89</time>
   <energy>
    <i name="e_fr_energy">      0.55662388 </i>
    <i name="e_wo_entrp">      0.55662388 </i>
    <i name="e_0_energy">      0.55662388 </i>
   </energy>
  </scstep>
  <scstep>
   <time name="diag">    0.31    0.32</time>
   <time name="diis">    1.33    1.34</time>
   <time name="orth">    0.03    0.03</time>
   <time name="total">    1.96    1.97</time>
   <energy>
    <i name="e_fr_energy">      0.55657896 </i>
    <i name="e_wo_entrp">      0.55657896 </i>
    <i name="e_0_energy">      0.55657896 </i>
   </energy>
  </scstep>
  <scstep>
   <time name="diag">    0.32    0.32</time>
   <time name="diis">    1.07    1.08</time>
   <time name="orth">    0.03    0.03</time>
   <time name="total">    1.70    1.72</time>
   <energy>
    <i name="e_fr_energy">      0.55643713 </i>
    <i name="e_wo_entrp">      0.55643713 </i>
    <i name="e_0_energy">      0.55643713 </i>
   </energy>
  </scstep>
  <scstep>
   <time name="diag">    0.31    0.31</time>
   <time name="diis">    0.98    1.00</time>
   <time name="orth">    0.03    0.03</time>
   <time name="total">    1.61    1.63</time>
   <energy>
    <i name="e_fr_energy">      0.55643164 </i>
    <i name="e_wo_entrp">      0.55643164 </i>
    <i name="e_0_energy">      0.55643164 </i>
   </energy>
  </scstep>
  <scstep>
   <time name="diag">    0.31    0.31</time>
   <time name="diis">    0.84    0.85</time>
   <time name="orth">    0.03    0.03</time>
   <time name="total">    1.36    1.37</time>
   <energy>
    <i name="alphaZ">     33.93650091 </i>
    <i name="ewald">   -322.09641672 </i>
    <i name="hartreedc">    -77.30521312 </i>
    <i name="XCdc">    -23.04605576 </i>
    <i name="pawpsdc">    259.50350262 </i>
    <i name="pawaedc">   -220.56278959 </i>
    <i name="eentropy">      0.00000000 </i>
    <i name="bandstr">    -79.71733317 </i>
    <i name="atom">    429.84423765 </i>
    <i name="e_fr_energy">      0.55643281 </i>
    <i name="e_wo_entrp">      0.55643281 </i>
    <i name="e_0_energy">      0.55643281 </i>
   </energy>
  </scstep>
  <structure>
   <crystal>
    <varray name="basis" >
     <v>      -4.59961383       0.00000000       0.00000011 </v>
     <v>       0.00000000      -4.59961383       0.00000011 </v>
     <v>       2.29980777       2.29980777       3.33443441 </v>
    </varray>
    <i name="volume">     70.54478853 </i>
    <varray name="rec_basis" >
     <v>      -0.21740955       0.00000000       0.14995052 </v>
     <v>       0.00000000      -0.21740955       0.14995052 </v>
     <v>       0.00000001       0.00000001       0.29990093 </v>
    </varray>
   </crystal>
   <varray name="positions" >
    <v>       0.00000000       0.00000000       0.00000000 </v>
   </varray>
  </structure>
  <varray name="forces" >
   <v>       0.00000000       0.00000000       0.00000000 </v>
  </varray>
  <varray name="stress" >
   <v>       0.59581865      -0.00000000      -0.00000022 </v>
   <v>      -0.00000000       0.59581865      -0.00000022 </v>
   <v>      -0.00000022      -0.00000022      -0.79607324 </v>
  </varray>
  <energy>
   <i name="e_fr_energy">      0.55643281 </i>
   <i name="e_wo_entrp">      0.55643281 </i>
   <i name="e_0_energy">      0.00000000 </i>
  </energy>
  <time name="totalsc">   25.75   25.97</time>
 </calculation>
 <calculation>
  <scstep>
   <time name="dav">    1.69    1.69</time>
   <time name="total">    1.97    1.98</time>
   <energy>
    <i name="alphaZ">     33.90810094 </i>
    <i name="ewald">   -322.00738124 </i>
    <i name="hartreedc">    -77.28027436 </i>
    <i name="XCdc">    -23.04818325 </i>
    <i name="pawpsdc">    259.48266334 </i>
    <i name="pawaedc">   -220.54162344 </i>
    <i name="eentropy">      0.00000000 </i>
    <i name="bandstr">    -79.80138762 </i>
    <i name="atom">    429.84423765 </i>
    <i name="e_fr_energy">      0.55615203 </i>
    <i name="e_wo_entrp">      0.55615203 </i>
    <i name="e_0_energy">      0.55615203 </i>
   </energy>
  </scstep>
  <scstep>
   <time name="diag">    0.31    0.31</time>
   <time name="diis">    1.30    1.30</time>
   <time name="orth">    0.03    0.03</time>
   <time name="total">    1.93    1.94</time>
   <energy>
    <i name="e_fr_energy">      0.55627278 </i>
    <i name="e_wo_entrp">      0.55627278 </i>
    <i name="e_0_energy">      0.55627278 </i>
   </energy>
  </scstep>
  <scstep>
   <time name="diag">    0.31    0.31</time>
   <time name="diis">    1.31    1.31</time>
   <time name="orth">    0.03    0.03</time>
   <time name="total">    1.94    3.27</time>
   <energy>
    <i name="e_fr_energy">      0.55633214 </i>
    <i name="e_wo_entrp">      0.55633214 </i>
    <i name="e_0_energy">      0.55633214 </i>
   </energy>
  </scstep>
  <scstep>
   <time name="diag">    0.31    0.31</time>
   <time name="diis">    0.98    0.98</time>
   <time name="orth">    0.03    0.03</time>
   <time name="total">    1.61    1.61</time>
   <energy>
    <i name="e_fr_energy">      0.55632977 </i>
    <i name="e_wo_entrp">      0.55632977 </i>
    <i name="e_0_energy">      0.55632977 </i>
   </energy>
  </scstep>
  <scstep>
   <time name="diag">    0.32    0.32</time>
   <time name="diis">    0.84    0.84</time>
   <time name="orth">    0.03    0.03</time>
   <time name="total">    1.47    1.47</time>
   <energy>
    <i name="e_fr_energy">      0.55632899 </i>
    <i name="e_wo_entrp">      0.55632899 </i>
    <i name="e_0_energy">      0.55632899 </i>
   </energy>
  </scstep>
  <scstep>
   <time name="diag">    0.31    0.31</time>
   <time name="diis">    0.74    0.74</time>
   <time name="orth">    0.03    0.03</time>
   <time name="total">    1.26    1.26</time>
   <energy>
    <i name="alphaZ">     33.90810094 </i>
    <i name="ewald">   -322.00738124 </i>
    <i name="hartreedc">    -77.35178669 </i>
    <i name="XCdc">    -23.04655788 </i>
    <i name="pawpsdc">    259.43356106 </i>
    <i name="pawaedc">   -220.49206822 </i>
    <i name="eentropy">      0.00000000 </i>
    <i name="bandstr">    -79.73177667 </i>
    <i name="atom">    429.84423765 </i>
    <i name="e_fr_energy">      0.55632896 </i>
    <i name="e_wo_entrp">      0.55632896 </i>
    <i name="e_0_energy">      0.55632896 </i>
   </energy>
  </scstep>
  <structure>
   <crystal>
    <varray name="basis" >
     <v>      -4.60543515       0.00000000       0.00000011 </v>
     <v>       0.00000000      -4.60543515       0.00000011 </v>
     <v>       2.30271843       2.30271843       3.32879594 </v>
    </varray>
    <i name="volume">     70.60387381 </i>
    <varray name="rec_basis" >
     <v>      -0.21713474       0.00000000       0.15020451 </v>
     <v>       0.00000000      -0.21713474       0.15020451 </v>
     <v>       0.00000001       0.00000001       0.30040891 </v>
    </varray>
   </crystal>
   <varray name="positions" >
    <v>      -0.00000000      -0.00000000       0.00000000 </v>
   </varray>
  </structure>
  <varray name="forces" >
   <v>       0.00000000       0.00000000       0.00000000 </v>
  </varray>
  <varray name="stress" >
   <v>      -0.07487066      -0.00000000      -0.00000030 </v>
   <v>      -0.00000000      -0.07487066      -0.00000030 </v>
   <v>      -0.00000030      -0.00000030      -1.16015523 </v>
  </varray>
  <energy>
   <i name="e_fr_energy">      0.55632896 </i>
   <i name="e_wo_entrp">      0.55632896 </i>
   <i name="e_0_energy">      0.00000000 </i>
  </energy>
  <time name="totalsc">   12.89   14.25</time>
 </calculation>
 <calculation>
  <scstep>
   <time name="dav">    1.66    1.66</time>
   <time name="total">    1.95    1.95</time>
   <energy>
    <i name="alphaZ">     33.86197672 </i>
    <i name="ewald">   -321.86242161 </i>
    <i name="hartreedc">    -77.31735635 </i>
    <i name="XCdc">    -23.04976671 </i>
    <i name="pawpsdc">    259.44322751 </i>
    <i name="pawaedc">   -220.50187563 </i>
    <i name="eentropy">      0.00000000 </i>
    <i name="bandstr">    -79.86230800 </i>
    <i name="atom">    429.84423765 </i>
    <i name="e_fr_energy">      0.55571357 </i>
    <i name="e_wo_entrp">      0.55571357 </i>
    <i name="e_0_energy">      0.55571357 </i>
   </energy>
  </scstep>
  <scstep>
   <time name="diag">    0.32    0.32</time>
   <time name="diis">    1.32    1.32</time>
   <time name="orth">    0.03    0.03</time>
   <time name="total">    1.95    1.95</time>
   <energy>
    <i name="e_fr_energy">      0.55604485 </i>
    <i name="e_wo_entrp">      0.55604485 </i>
    <i name="e_0_energy">      0.55604485 </i>
   </energy>
  </scstep>
  <scstep>
   <time name="diag">    0.31    0.31</time>
   <time name="diis">    1.33    1.33</time>
   <time name="orth">    0.03    0.03</time>
   <time name="total">    1.96    1.96</time>
   <energy>
    <i name="e_fr_energy">      0.55620164 </i>
    <i name="e_wo_entrp">      0.55620164 </i>
    <i name="e_0_energy">      0.55620164 </i>
   </energy>
  </scstep>
  <scstep>
   <time name="diag">    0.31    0.32</time>
   <time name="diis">    1.00    1.00</time>
   <time name="orth">    0.03    0.03</time>
   <time name="total">    1.63    1.63</time>
   <energy>
    <i name="e_fr_energy">      0.55619324 </i>
    <i name="e_wo_entrp">      0.55619324 </i>
    <i name="e_0_energy">      0.55619324 </i>
   </energy>
  </scstep>
  <scstep>
   <time name="diag">    0.32    0.32</time>
   <time name="diis">    0.90    0.91</time>
   <time name="orth">    0.03    0.03</time>
   <time name="total">    1.53    1.54</time>
   <energy>
    <i name="e_fr_energy">      0.55618863 </i>
    <i name="e_wo_entrp">      0.55618863 </i>
    <i name="e_0_energy">      0.55618863 </i>
   </energy>
  </scstep>
  <scstep>
   <time name="diag">    0.32    0.32</time>
   <time name="diis">    0.81    0.83</time>
   <time name="orth">    0.03    0.03</time>
   <time name="total">    1.33    1.35</time>
   <energy>
    <i name="alphaZ">     33.86197672 </i>
    <i name="ewald">   -321.86242161 </i>
    <i name="hartreedc">    -77.43794133 </i>
    <i name="XCdc">    -23.04696894 </i>
    <i name="pawpsdc">    259.42333198 </i>
    <i name="pawaedc">   -220.48184071 </i>
    <i name="eentropy">      0.00000000 </i>
    <i name="bandstr">    -79.74418533 </i>
    <i name="atom">    429.84423765 </i>
    <i name="e_fr_energy">      0.55618841 </i>
    <i name="e_wo_entrp">      0.55618841 </i>
    <i name="e_0_energy">      0.55618841 </i>
   </energy>
  </scstep>
  <structure>
   <crystal>
    <varray name="basis" >
     <v>      -4.61499134       0.00000000       0.00000012 </v>
     <v>       0.00000000      -4.61499134       0.00000012 </v>
     <v>       2.30749652       2.30749652       3.31953991 </v>
    </varray>
    <i name="volume">     70.70004507 </i>
    <varray name="rec_basis" >
     <v>      -0.21668513       0.00000000       0.15062333 </v>
     <v>       0.00000000      -0.21668513       0.15062333 </v>
     <v>       0.00000001       0.00000001       0.30124656 </v>
    </varray>
   </crystal>
   <varray name="positions" >
    <v>      -0.00000000      -0.00000000       0.00000000 </v>
   </varray>
  </structure>
  <varray name="forces" >
   <v>      -0.00000000       0.00000000       0.00000000 </v>
  </varray>
  <varray name="stress" >
   <v>       0.41148384      -0.00000000      -0.00000017 </v>
   <v>      -0.00000000       0.41148384      -0.00000017 </v>
   <v>      -0.00000017      -0.00000017      -0.61411236 </v>
  </varray>
  <energy>
   <i name="e_fr_energy">      0.55618841 </i>
   <i name="e_wo_entrp">      0.55618841 </i>
   <i name="e_0_energy">      0.00000000 </i>
  </energy>
  <time name="totalsc">   13.05   13.11</time>
 </calculation>
 <calculation>
  <scstep>
   <time name="dav">    1.67    1.67</time>
   <time name="total">    1.95    1.96</time>
   <energy>
    <i name="alphaZ">     33.77157318 </i>
    <i name="ewald">   -321.57705164 </i>
    <i name="hartreedc">    -77.36899454 </i>
    <i name="XCdc">    -23.05331120 </i>
    <i name="pawpsdc">    259.43585284 </i>
    <i name="pawaedc">   -220.49458128 </i>
    <i name="eentropy">      0.00000000 </i>
    <i name="bandstr">    -80.00358294 </i>
    <i name="atom">    429.84423765 </i>
    <i name="e_fr_energy">      0.55414207 </i>
    <i name="e_wo_entrp">      0.55414207 </i>
    <i name="e_0_energy">      0.55414207 </i>
   </energy>
  </scstep>
  <scstep>
   <time name="diag">    0.31    0.31</time>
   <time name="diis">    1.32    1.32</time>
   <time name="orth">    0.03    0.03</time>
   <time name="total">    1.95    1.96</time>
   <energy>
    <i name="e_fr_energy">      0.55545278 </i>
    <i name="e_wo_entrp">      0.55545278 </i>
    <i name="e_0_energy">      0.55545278 </i>
   </energy>
  </scstep>
  <scstep>
   <time name="diag">    0.31    0.31</time>
   <time name="diis">    1.33    1.33</time>
   <time name="orth">    0.03    0.03</time>
   <time name="total">    1.95    1.96</time>
   <energy>
    <i name="e_fr_energy">      0.55606752 </i>
    <i name="e_wo_entrp">      0.55606752 </i>
    <i name="e_0_energy">      0.55606752 </i>
   </energy>
  </scstep>
  <scstep>
   <time name="diag">    0.31    0.31</time>
   <time name="diis">    1.11    1.11</time>
   <time name="orth">    0.03    0.03</time>
   <time name="total">    1.73    1.74</time>
   <energy>
    <i name="e_fr_energy">      0.55603962 </i>
    <i name="e_wo_entrp">      0.55603962 </i>
    <i name="e_0_energy">      0.55603962 </i>
   </energy>
  </scstep>
  <scstep>
   <time name="diag">    0.31    0.31</time>
   <time name="diis">    1.03    1.03</time>
   <time name="orth">    0.03    0.03</time>
   <time name="total">    1.66    1.66</time>
   <energy>
    <i name="e_fr_energy">      0.55601616 </i>
    <i name="e_wo_entrp">      0.55601616 </i>
    <i name="e_0_energy">      0.55601616 </i>
   </energy>
  </scstep>
  <scstep>
   <time name="diag">    0.32    0.32</time>
   <time name="diis">    0.85    0.85</time>
   <time name="orth">    0.03    0.03</time>
   <time name="total">    1.38    1.38</time>
   <energy>
    <i name="alphaZ">     33.77157318 </i>
    <i name="ewald">   -321.57705164 </i>
    <i name="hartreedc">    -77.60525824 </i>
    <i name="XCdc">    -23.04782661 </i>
    <i name="pawpsdc">    259.40318135 </i>
    <i name="pawaedc">   -220.46131098 </i>
    <i name="eentropy">      0.00000000 </i>
    <i name="bandstr">    -79.77152871 </i>
    <i name="atom">    429.84423765 </i>
    <i name="e_fr_energy">      0.55601600 </i>
    <i name="e_wo_entrp">      0.55601600 </i>
    <i name="e_0_energy">      0.55601600 </i>
   </energy>
  </scstep>
  <structure>
   <crystal>
    <varray name="basis" >
     <v>      -4.63410373       0.00000000       0.00000012 </v>
     <v>       0.00000000      -4.63410373       0.00000012 </v>
     <v>       2.31705272       2.31705272       3.30102784 </v>
    </varray>
    <i name="volume">     70.88930288 </i>
    <varray name="rec_basis" >
     <v>      -0.21579145       0.00000000       0.15146802 </v>
     <v>       0.00000000      -0.21579145       0.15146802 </v>
     <v>       0.00000001       0.00000001       0.30293594 </v>
    </varray>
   </crystal>
   <varray name="positions" >
    <v>      -0.00000000      -0.00000000       0.00000000 </v>
   </varray>
  </structure>
  <varray name="forces" >
   <v>      -0.00000000       0.00000000       0.00000000 </v>
  </varray>
  <varray name="stress" >
   <v>      -0.35317762      -0.00000000      -0.00000004 </v>
   <v>      -0.00000000      -0.35317762      -0.00000004 </v>
   <v>      -0.00000004      -0.00000004      -0.17543272 </v>
  </varray>
  <energy>
   <i name="e_fr_energy">      0.55601600 </i>
   <i name="e_wo_entrp">      0.55601600 </i>
   <i name="e_0_energy">      0.00000000 </i>
  </energy>
  <time name="totalsc">   13.32   13.35</time>
 </calculation>
 <calculation>
  <scstep>
   <time name="dav">    1.60    1.61</time>
   <time name="total">    1.89    1.89</time>
   <energy>
    <i name="alphaZ">     33.89806765 </i>
    <i name="ewald">   -321.97798804 </i>
    <i name="hartreedc">    -77.70394886 </i>
    <i name="XCdc">    -23.03872712 </i>
    <i name="pawpsdc">    259.42118213 </i>
    <i name="pawaedc">   -220.47947577 </i>
    <i name="eentropy">      0.00000000 </i>
    <i name="bandstr">    -79.40804476 </i>
    <i name="atom">    429.84423765 </i>
    <i name="e_fr_energy">      0.55530287 </i>
    <i name="e_wo_entrp">      0.55530287 </i>
    <i name="e_0_energy">      0.55530287 </i>
   </energy>
  </scstep>
  <scstep>
   <time name="diag">    0.31    0.32</time>
   <time name="diis">    1.33    1.33</time>
   <time name="orth">    0.03    0.03</time>
   <time name="total">    1.96    1.97</time>
   <energy>
    <i name="e_fr_energy">      0.55581317 </i>
    <i name="e_wo_entrp">      0.55581317 </i>
    <i name="e_0_energy">      0.55581317 </i>
   </energy>
  </scstep>
  <scstep>
   <time name="diag">    0.32    0.32</time>
   <time name="diis">    1.34    1.35</time>
   <time name="orth">    0.03    0.03</time>
   <time name="total">    1.97    1.98</time>
   <energy>
    <i name="e_fr_energy">      0.55596065 </i>
    <i name="e_wo_entrp">      0.55596065 </i>
    <i name="e_0_energy">      0.55596065 </i>
   </energy>
  </scstep>
  <scstep>
   <time name="diag">    0.32    0.32</time>
   <time name="diis">    1.29    1.29</time>
   <time name="orth">    0.03    0.03</time>
   <time name="total">    1.92    1.92</time>
   <energy>
    <i name="e_fr_energy">      0.55595136 </i>
    <i name="e_wo_entrp">      0.55595136 </i>
    <i name="e_0_energy">      0.55595136 </i>
   </energy>
  </scstep>
  <scstep>
   <time name="diag">    0.31    0.31</time>
   <time name="diis">    0.88    0.88</time>
   <time name="orth">    0.03    0.03</time>
   <time name="total">    1.51    1.51</time>
   <energy>
    <i name="e_fr_energy">      0.55594732 </i>
    <i name="e_wo_entrp">      0.55594732 </i>
    <i name="e_0_energy">      0.55594732 </i>
   </energy>
  </scstep>
  <scstep>
   <time name="diag">    0.31    0.32</time>
   <time name="diis">    0.79    0.79</time>
   <time name="orth">    0.03    0.03</time>
   <time name="total">    1.31    1.31</time>
   <energy>
    <i name="alphaZ">     33.89806765 </i>
    <i name="ewald">   -321.97798804 </i>
    <i name="hartreedc">    -77.37750048 </i>
    <i name="XCdc">    -23.04628969 </i>
    <i name="pawpsdc">    259.50798994 </i>
    <i name="pawaedc">   -220.56756866 </i>
    <i name="eentropy">      0.00000000 </i>
    <i name="bandstr">    -79.72500078 </i>
    <i name="atom">    429.84423765 </i>
    <i name="e_fr_energy">      0.55594758 </i>
    <i name="e_wo_entrp">      0.55594758 </i>
    <i name="e_0_energy">      0.55594758 </i>
   </energy>
  </scstep>
  <structure>
   <crystal>
    <varray name="basis" >
     <v>      -4.62716931       0.00000000       0.00000012 </v>
     <v>       0.00000000      -4.62716931       0.00000012 </v>
     <v>       2.31358550       2.31358550       3.29857420 </v>
    </varray>
    <i name="volume">     70.62477143 </i>
    <varray name="rec_basis" >
     <v>      -0.21611485       0.00000000       0.15158069 </v>
     <v>       0.00000000      -0.21611485       0.15158069 </v>
     <v>       0.00000001       0.00000001       0.30316128 </v>
    </varray>
   </crystal>
   <varray name="positions" >
    <v>      -0.00000000      -0.00000000       0.00000000 </v>
   </varray>
  </structure>
  <varray name="forces" >
   <v>       0.00000000      -0.00000000      -0.00000000 </v>
  </varray>
  <varray name="stress" >
   <v>      -0.68607495       0.00000000       0.00000009 </v>
   <v>       0.00000000      -0.68607495       0.00000009 </v>
   <v>       0.00000009       0.00000009       0.29851236 </v>
  </varray>
  <energy>
   <i name="e_fr_energy">      0.55594758 </i>
   <i name="e_wo_entrp">      0.55594758 </i>
   <i name="e_0_energy">      0.00000000 </i>
  </energy>
  <time name="totalsc">   13.27   13.29</time>
 </calculation>
 <calculation>
  <scstep>
   <time name="dav">    1.59    1.60</time>
   <time name="total">    1.88    1.89</time>
   <energy>
    <i name="alphaZ">     34.28144061 </i>
    <i name="ewald">   -323.18702571 </i>
    <i name="hartreedc">    -77.66521231 </i>
    <i name="XCdc">    -23.01938498 </i>
    <i name="pawpsdc">    259.47850102 </i>
    <i name="pawaedc">   -220.53773205 </i>
    <i name="eentropy">      0.00000000 </i>
    <i name="bandstr">    -78.64480382 </i>
    <i name="atom">    429.84423765 </i>
    <i name="e_fr_energy">      0.55002042 </i>
    <i name="e_wo_entrp">      0.55002042 </i>
    <i name="e_0_energy">      0.55002042 </i>
   </energy>
  </scstep>
  <scstep>
   <time name="diag">    0.35    0.37</time>
   <time name="diis">    1.35    1.36</time>
   <time name="orth">    0.03    0.03</time>
   <time name="total">    2.01    2.04</time>
   <energy>
    <i name="e_fr_energy">      0.55483903 </i>
    <i name="e_wo_entrp">      0.55483903 </i>
    <i name="e_0_energy">      0.55483903 </i>
   </energy>
  </scstep>
  <scstep>
   <time name="diag">    0.31    0.31</time>
   <time name="diis">    1.35    1.35</time>
   <time name="orth">    0.03    0.03</time>
   <time name="total">    1.98    1.98</time>
   <energy>
    <i name="e_fr_energy">      0.55615983 </i>
    <i name="e_wo_entrp">      0.55615983 </i>
    <i name="e_0_energy">      0.55615983 </i>
   </energy>
  </scstep>
  <scstep>
   <time name="diag">    0.31    0.32</time>
   <time name="diis">    1.17    1.17</time>
   <time name="orth">    0.03    0.03</time>
   <time name="total">    1.80    1.80</time>
   <energy>
    <i name="e_fr_energy">      0.55611206 </i>
    <i name="e_wo_entrp">      0.55611206 </i>
    <i name="e_0_energy">      0.55611206 </i>
   </energy>
  </scstep>
  <scstep>
   <time name="diag">    0.32    0.32</time>
   <time name="diis">    1.22    1.22</time>
   <time name="orth">    0.03    0.03</time>
   <time name="total">    1.85    1.85</time>
   <energy>
    <i name="e_fr_energy">      0.55608713 </i>
    <i name="e_wo_entrp">      0.55608713 </i>
    <i name="e_0_energy">      0.55608713 </i>
   </energy>
  </scstep>
  <scstep>
   <time name="diag">    0.32    0.32</time>
   <time name="diis">    0.94    0.94</time>
   <time name="orth">    0.03    0.03</time>
   <time name="total">    1.46    1.47</time>
   <energy>
    <i name="alphaZ">     34.28144061 </i>
    <i name="ewald">   -323.18702571 </i>
    <i name="hartreedc">    -76.64802803 </i>
    <i name="XCdc">    -23.04344644 </i>
    <i name="pawpsdc">    259.48481525 </i>
    <i name="pawaedc">   -220.54422209 </i>
    <i name="eentropy">      0.00000000 </i>
    <i name="bandstr">    -79.63168097 </i>
    <i name="atom">    429.84423765 </i>
    <i name="e_fr_energy">      0.55609028 </i>
    <i name="e_wo_entrp">      0.55609028 </i>
    <i name="e_0_energy">      0.55609028 </i>
   </energy>
  </scstep>
  <structure>
   <crystal>
    <varray name="basis" >
     <v>      -4.60636604       0.00000000       0.00000012 </v>
     <v>       0.00000000      -4.60636604       0.00000012 </v>
     <v>       2.30318386       2.30318386       3.29121327 </v>
    </varray>
    <i name="volume">     69.83496717 </i>
    <varray name="rec_basis" >
     <v>      -0.21709086       0.00000000       0.15191971 </v>
     <v>       0.00000000      -0.21709086       0.15191971 </v>
     <v>       0.00000001       0.00000001       0.30383931 </v>
    </varray>
   </crystal>
   <varray name="positions" >
    <v>      -0.00000000      -0.00000000       0.00000000 </v>
   </varray>
  </structure>
  <varray name="forces" >
   <v>       0.00000000      -0.00000000       0.00000000 </v>
  </varray>
  <varray name="stress" >
   <v>       0.88216771       0.00000000       0.00000004 </v>
   <v>       0.00000000       0.88216771       0.00000004 </v>
   <v>       0.00000004       0.00000004       0.23555453 </v>
  </varray>
  <energy>
   <i name="e_fr_energy">      0.55609028 </i>
   <i name="e_wo_entrp">      0.55609028 </i>
   <i name="e_0_energy">      0.00000000 </i>
  </energy>
  <time name="totalsc">   13.70   13.84</time>
 </calculation>
 <calculation>
  <scstep>
   <time name="dav">    1.58    1.59</time>
   <time name="total">    1.87    1.88</time>
   <energy>
    <i name="alphaZ">     34.04949732 </i>
    <i name="ewald">   -322.45664070 </i>
    <i name="hartreedc">    -76.46600906 </i>
    <i name="XCdc">    -23.06023123 </i>
    <i name="pawpsdc">    259.41533511 </i>
    <i name="pawaedc">   -220.47365039 </i>
    <i name="eentropy">      0.00000000 </i>
    <i name="bandstr">    -80.29884966 </i>
    <i name="atom">    429.84423765 </i>
    <i name="e_fr_energy">      0.55368903 </i>
    <i name="e_wo_entrp">      0.55368903 </i>
    <i name="e_0_energy">      0.55368903 </i>
   </energy>
  </scstep>
  <scstep>
   <time name="diag">    0.32    0.32</time>
   <time name="diis">    1.34    1.34</time>
   <time name="orth">    0.03    0.03</time>
   <time name="total">    1.97    1.98</time>
   <energy>
    <i name="e_fr_energy">      0.55545753 </i>
    <i name="e_wo_entrp">      0.55545753 </i>
    <i name="e_0_energy">      0.55545753 </i>
   </energy>
  </scstep>
  <scstep>
   <time name="diag">    0.32    0.32</time>
   <time name="diis">    1.35    1.35</time>
   <time name="orth">    0.03    0.03</time>
   <time name="total">    1.98    1.98</time>
   <energy>
    <i name="e_fr_energy">      0.55596973 </i>
    <i name="e_wo_entrp">      0.55596973 </i>
    <i name="e_0_energy">      0.55596973 </i>
   </energy>
  </scstep>
  <scstep>
   <time name="diag">    0.32    0.32</time>
   <time name="diis">    1.32    1.32</time>
   <time name="orth">    0.03    0.03</time>
   <time name="total">    1.95    1.95</time>
   <energy>
    <i name="e_fr_energy">      0.55594241 </i>
    <i name="e_wo_entrp">      0.55594241 </i>
    <i name="e_0_energy">      0.55594241 </i>
   </energy>
  </scstep>
  <scstep>
   <time name="diag">    0.32    0.32</time>
   <time name="diis">    1.11    1.11</time>
   <time name="orth">    0.03    0.03</time>
   <time name="total">    1.74    1.74</time>
   <energy>
    <i name="e_fr_energy">      0.55593130 </i>
    <i name="e_wo_entrp">      0.55593130 </i>
    <i name="e_0_energy">      0.55593130 </i>
   </energy>
  </scstep>
  <scstep>
   <time name="diag">    0.31    0.32</time>
   <time name="diis">    0.97    0.97</time>
   <time name="orth">    0.03    0.03</time>
   <time name="total">    1.49    1.49</time>
   <energy>
    <i name="alphaZ">     34.04949732 </i>
    <i name="ewald">   -322.45664070 </i>
    <i name="hartreedc">    -77.07216053 </i>
    <i name="XCdc">    -23.04593710 </i>
    <i name="pawpsdc">    259.34718061 </i>
    <i name="pawaedc">   -220.40456598 </i>
    <i name="eentropy">      0.00000000 </i>
    <i name="bandstr">    -79.70567836 </i>
    <i name="atom">    429.84423765 </i>
    <i name="e_fr_energy">      0.55593290 </i>
    <i name="e_wo_entrp">      0.55593290 </i>
    <i name="e_0_energy">      0.55593290 </i>
   </energy>
  </scstep>
  <structure>
   <crystal>
    <varray name="basis" >
     <v>      -4.61891410       0.00000000       0.00000012 </v>
     <v>       0.00000000      -4.61891410       0.00000012 </v>
     <v>       2.30945789       2.30945789       3.29565321 </v>
    </varray>
    <i name="volume">     70.31067912 </i>
    <varray name="rec_basis" >
     <v>      -0.21650110       0.00000000       0.15171504 </v>
     <v>       0.00000000      -0.21650110       0.15171504 </v>
     <v>       0.00000001       0.00000001       0.30342997 </v>
    </varray>
   </crystal>
   <varray name="positions" >
    <v>      -0.00000000      -0.00000000       0.00000000 </v>
   </varray>
  </structure>
  <varray name="forces" >
   <v>       0.00000000      -0.00000000       0.00000000 </v>
  </varray>
  <varray name="stress" >
   <v>       0.40657460      -0.00000000      -0.00000001 </v>
   <v>      -0.00000000       0.40657460      -0.00000001 </v>
[...]
        <r>  0.0000  0.0267  0.0000  0.0267  0.0000  0.0000  0.0000  0.0000  0.0000 </r>
       </set>
       <set comment="band 7">
        <r>  0.0078  0.0085  0.0151  0.0085  0.0000  0.0000  0.0000  0.0000  0.0000 </r>
       </set>
       <set comment="band 8">
        <r>  0.0002  0.0099  0.0490  0.0099  0.0000  0.0000  0.0000  0.0000  0.0000 </r>
       </set>
      </set>
      <set comment="kpoint 24">
       <set comment="band 1">
        <r>  0.8817  0.0000  0.0000  0.0000  0.0000  0.0000  0.0000  0.0000  0.0000 </r>
       </set>
       <set comment="band 2">
        <r>  0.0004  0.0022  0.3404  0.2757  0.0000  0.0000  0.0000  0.0000  0.0000 </r>
       </set>
       <set comment="band 3">
        <r>  0.0003  0.2563  0.1697  0.2543  0.0000  0.0000  0.0000  0.0000  0.0000 </r>
       </set>
       <set comment="band 4">
        <r>  0.0000  0.4468  0.1442  0.1300  0.0000  0.0000  0.0000  0.0000  0.0000 </r>
       </set>
       <set comment="band 5">
        <r>  0.0329  0.0309  0.0622  0.0027  0.0000  0.0000  0.0000  0.0000  0.0000 </r>
       </set>
       <set comment="band 6">
        <r>  0.0046  0.0016  0.0014  0.0688  0.0000  0.0000  0.0000  0.0000  0.0000 </r>
       </set>
       <set comment="band 7">
        <r>  0.0046  0.0147  0.0534  0.0771  0.0000  0.0000  0.0000  0.0000  0.0000 </r>
       </set>
       <set comment="band 8">
        <r>  0.0012  0.0134  0.0508  0.0001  0.0000  0.0000  0.0000  0.0000  0.0000 </r>
       </set>
      </set>
      <set comment="kpoint 25">
       <set comment="band 1">
        <r>  0.8818  0.0000  0.0000  0.0000  0.0000  0.0000  0.0000  0.0000  0.0000 </r>
       </set>
       <set comment="band 2">
        <r>  0.0004  0.0150  0.1115  0.4915  0.0000  0.0000  0.0000  0.0000  0.0000 </r>
       </set>
       <set comment="band 3">
        <r>  0.0003  0.0684  0.5226  0.0888  0.0000  0.0000  0.0000  0.0000  0.0000 </r>
       </set>
       <set comment="band 4">
        <r>  0.0000  0.6311  0.0373  0.0530  0.0000  0.0000  0.0000  0.0000  0.0000 </r>
       </set>
       <set comment="band 5">
        <r>  0.0320  0.0041  0.0089  0.0807  0.0000  0.0000  0.0000  0.0000  0.0000 </r>
       </set>
       <set comment="band 6">
        <r>  0.0047  0.0298  0.0263  0.0183  0.0000  0.0000  0.0000  0.0000  0.0000 </r>
       </set>
       <set comment="band 7">
        <r>  0.0055  0.0079  0.0777  0.0558  0.0000  0.0000  0.0000  0.0000  0.0000 </r>
       </set>
       <set comment="band 8">
        <r>  0.0009  0.0113  0.0073  0.0482  0.0000  0.0000  0.0000  0.0000  0.0000 </r>
       </set>
      </set>
      <set comment="kpoint 26">
       <set comment="band 1">
        <r>  0.8773  0.0000  0.0000  0.0000  0.0000  0.0000  0.0000  0.0000  0.0000 </r>
       </set>
       <set comment="band 2">
        <r>  0.0022  0.0389  0.0000  0.5931  0.0000  0.0000  0.0000  0.0000  0.0000 </r>
       </set>
       <set comment="band 3">
        <r>  0.0000  0.0000  0.7022  0.0000  0.0000  0.0000  0.0000  0.0000  0.0000 </r>
       </set>
       <set comment="band 4">
        <r>  0.0001  0.6868  0.0000  0.0455  0.0000  0.0000  0.0000  0.0000  0.0000 </r>
       </set>
       <set comment="band 5">
        <r>  0.0592  0.0113  0.0000  0.1197  0.0000  0.0000  0.0000  0.0000  0.0000 </r>
       </set>
       <set comment="band 6">
        <r>  0.0000  0.0000  0.0538  0.0000  0.0000  0.0000  0.0000  0.0000  0.0000 </r>
       </set>
       <set comment="band 7">
        <r>  0.0083  0.0309  0.0000  0.0002  0.0000  0.0000  0.0000  0.0000  0.0000 </r>
       </set>
       <set comment="band 8">
        <r>  0.0003  0.0031  0.0000  0.0663  0.0000  0.0000  0.0000  0.0000  0.0000 </r>
       </set>
      </set>
      <set comment="kpoint 27">
       <set comment="band 1">
        <r>  0.8842  0.0000  0.0000  0.0000  0.0000  0.0000  0.0000  0.0000  0.0000 </r>
       </set>
       <set comment="band 2">
        <r>  0.0000  0.3202  0.0000  0.3202  0.0000  0.0000  0.0000  0.0000  0.0000 </r>
       </set>
       <set comment="band 3">
        <r>  0.0001  0.0680  0.5113  0.0680  0.0000  0.0000  0.0000  0.0000  0.0000 </r>
       </set>
       <set comment="band 4">
        <r>  0.0000  0.2769  0.1485  0.2769  0.0000  0.0000  0.0000  0.0000  0.0000 </r>
       </set>
       <set comment="band 5">
        <r>  0.0033  0.0304  0.0002  0.0304  0.0000  0.0000  0.0000  0.0000  0.0000 </r>
       </set>
       <set comment="band 6">
        <r>  0.0085  0.0115  0.1021  0.0115  0.0000  0.0000  0.0000  0.0000  0.0000 </r>
       </set>
       <set comment="band 7">
        <r>  0.0000  0.0920  0.0000  0.0920  0.0000  0.0000  0.0000  0.0000  0.0000 </r>
       </set>
       <set comment="band 8">
        <r>  0.0320  0.0034  0.0183  0.0034  0.0000  0.0000  0.0000  0.0000  0.0000 </r>
       </set>
      </set>
      <set comment="kpoint 28">
       <set comment="band 1">
        <r>  0.8837  0.0000  0.0000  0.0000  0.0000  0.0000  0.0000  0.0000  0.0000 </r>
       </set>
       <set comment="band 2">
        <r>  0.0004  0.1771  0.0000  0.4438  0.0000  0.0000  0.0000  0.0000  0.0000 </r>
       </set>
       <set comment="band 3">
        <r>  0.0000  0.0000  0.6813  0.0000  0.0000  0.0000  0.0000  0.0000  0.0000 </r>
       </set>
       <set comment="band 4">
        <r>  0.0000  0.5003  0.0000  0.1993  0.0000  0.0000  0.0000  0.0000  0.0000 </r>
       </set>
       <set comment="band 5">
        <r>  0.0138  0.0039  0.0000  0.0423  0.0000  0.0000  0.0000  0.0000  0.0000 </r>
       </set>
       <set comment="band 6">
        <r>  0.0000  0.0000  0.0519  0.0000  0.0000  0.0000  0.0000  0.0000  0.0000 </r>
       </set>
       <set comment="band 7">
        <r>  0.0161  0.1306  0.0000  0.0670  0.0000  0.0000  0.0000  0.0000  0.0000 </r>
       </set>
       <set comment="band 8">
        <r>  0.0114  0.0005  0.0000  0.1242  0.0000  0.0000  0.0000  0.0000  0.0000 </r>
       </set>
      </set>
      <set comment="kpoint 29">
       <set comment="band 1">
        <r>  0.8773  0.0000  0.0000  0.0000  0.0000  0.0000  0.0000  0.0000  0.0000 </r>
       </set>
       <set comment="band 2">
        <r>  0.0022  0.2375  0.1577  0.2375  0.0000  0.0000  0.0000  0.0000  0.0000 </r>
       </set>
       <set comment="band 3">
        <r>  0.0000  0.3509  0.0000  0.3509  0.0000  0.0000  0.0000  0.0000  0.0000 </r>
       </set>
       <set comment="band 4">
        <r>  0.0001  0.0910  0.5501  0.0909  0.0000  0.0000  0.0000  0.0000  0.0000 </r>
       </set>
       <set comment="band 5">
        <r>  0.0590  0.0511  0.0287  0.0511  0.0000  0.0000  0.0000  0.0000  0.0000 </r>
       </set>
       <set comment="band 6">
        <r>  0.0000  0.0262  0.0000  0.0262  0.0000  0.0000  0.0000  0.0000  0.0000 </r>
       </set>
       <set comment="band 7">
        <r>  0.0083  0.0064  0.0169  0.0064  0.0000  0.0000  0.0000  0.0000  0.0000 </r>
       </set>
       <set comment="band 8">
        <r>  0.0004  0.0258  0.0186  0.0258  0.0000  0.0000  0.0000  0.0000  0.0000 </r>
       </set>
      </set>
      <set comment="kpoint 30">
       <set comment="band 1">
        <r>  0.8838  0.0000  0.0000  0.0000  0.0000  0.0000  0.0000  0.0000  0.0000 </r>
       </set>
       <set comment="band 2">
        <r>  0.0004  0.2968  0.0271  0.2968  0.0000  0.0000  0.0000  0.0000  0.0000 </r>
       </set>
       <set comment="band 3">
        <r>  0.0000  0.3402  0.0000  0.3402  0.0000  0.0000  0.0000  0.0000  0.0000 </r>
       </set>
       <set comment="band 4">
        <r>  0.0000  0.0154  0.6700  0.0154  0.0000  0.0000  0.0000  0.0000  0.0000 </r>
       </set>
       <set comment="band 5">
        <r>  0.0138  0.0051  0.0351  0.0051  0.0000  0.0000  0.0000  0.0000  0.0000 </r>
       </set>
       <set comment="band 6">
        <r>  0.0000  0.0249  0.0000  0.0249  0.0000  0.0000  0.0000  0.0000  0.0000 </r>
       </set>
       <set comment="band 7">
        <r>  0.0161  0.0935  0.0051  0.0935  0.0000  0.0000  0.0000  0.0000  0.0000 </r>
       </set>
       <set comment="band 8">
        <r>  0.0112  0.0367  0.0511  0.0367  0.0000  0.0000  0.0000  0.0000  0.0000 </r>
       </set>
      </set>
      <set comment="kpoint 31">
       <set comment="band 1">
        <r>  0.8818  0.0000  0.0000  0.0000  0.0000  0.0000  0.0000  0.0000  0.0000 </r>
       </set>
       <set comment="band 2">
        <r>  0.0004  0.4293  0.1598  0.0292  0.0000  0.0000  0.0000  0.0000  0.0000 </r>
       </set>
       <set comment="band 3">
        <r>  0.0003  0.0488  0.0004  0.6305  0.0000  0.0000  0.0000  0.0000  0.0000 </r>
       </set>
       <set comment="band 4">
        <r>  0.0000  0.1697  0.5333  0.0179  0.0000  0.0000  0.0000  0.0000  0.0000 </r>
       </set>
       <set comment="band 5">
        <r>  0.0318  0.0130  0.0251  0.0555  0.0000  0.0000  0.0000  0.0000  0.0000 </r>
       </set>
       <set comment="band 6">
        <r>  0.0049  0.0089  0.0442  0.0182  0.0000  0.0000  0.0000  0.0000  0.0000 </r>
       </set>
       <set comment="band 7">
        <r>  0.0050  0.1264  0.0113  0.0012  0.0000  0.0000  0.0000  0.0000  0.0000 </r>
       </set>
       <set comment="band 8">
        <r>  0.0007  0.0101  0.0056  0.0532  0.0000  0.0000  0.0000  0.0000  0.0000 </r>
       </set>
      </set>
      <set comment="kpoint 32">
       <set comment="band 1">
        <r>  0.8843  0.0000  0.0000  0.0000  0.0000  0.0000  0.0000  0.0000  0.0000 </r>
       </set>
       <set comment="band 2">
        <r>  0.0000  0.3199  0.0000  0.3199  0.0000  0.0000  0.0000  0.0000  0.0000 </r>
       </set>
       <set comment="band 3">
        <r>  0.0001  0.2593  0.1286  0.2593  0.0000  0.0000  0.0000  0.0000  0.0000 </r>
       </set>
       <set comment="band 4">
        <r>  0.0000  0.0704  0.5624  0.0704  0.0000  0.0000  0.0000  0.0000  0.0000 </r>
       </set>
       <set comment="band 5">
        <r>  0.0033  0.0002  0.0593  0.0002  0.0000  0.0000  0.0000  0.0000  0.0000 </r>
       </set>
       <set comment="band 6">
        <r>  0.0089  0.0488  0.0220  0.0488  0.0000  0.0000  0.0000  0.0000  0.0000 </r>
       </set>
       <set comment="band 7">
        <r>  0.0000  0.0900  0.0000  0.0900  0.0000  0.0000  0.0000  0.0000  0.0000 </r>
       </set>
       <set comment="band 8">
        <r>  0.0311  0.0096  0.0055  0.0096  0.0000  0.0000  0.0000  0.0000  0.0000 </r>
       </set>
      </set>
      <set comment="kpoint 33">
       <set comment="band 1">
        <r>  0.8752  0.0000  0.0000  0.0000  0.0000  0.0000  0.0000  0.0000  0.0000 </r>
       </set>
       <set comment="band 2">
        <r>  0.0030  0.0000  0.6438  0.0000  0.0000  0.0000  0.0000  0.0000  0.0000 </r>
       </set>
       <set comment="band 3">
        <r>  0.0000  0.4147  0.0000  0.3084  0.0000  0.0000  0.0000  0.0000  0.0000 </r>
       </set>
       <set comment="band 4">
        <r>  0.0000  0.3083  0.0000  0.4146  0.0000  0.0000  0.0000  0.0000  0.0000 </r>
       </set>
       <set comment="band 5">
        <r>  0.0610  0.0000  0.1008  0.0000  0.0000  0.0000  0.0000  0.0000  0.0000 </r>
       </set>
       <set comment="band 6">
        <r>  0.0000  0.0000  0.0000  0.0000  0.0000  0.0000  0.0000  0.0000  0.0000 </r>
       </set>
       <set comment="band 7">
        <r>  0.0151  0.0000  0.0840  0.0000  0.0000  0.0000  0.0000  0.0000  0.0000 </r>
       </set>
       <set comment="band 8">
        <r>  0.0000  0.0324  0.0000  0.0450  0.0000  0.0000  0.0000  0.0000  0.0000 </r>
       </set>
      </set>
      <set comment="kpoint 34">
       <set comment="band 1">
        <r>  0.8803  0.0000  0.0000  0.0000  0.0000  0.0000  0.0000  0.0000  0.0000 </r>
       </set>
       <set comment="band 2">
        <r>  0.0014  0.0000  0.5575  0.0640  0.0000  0.0000  0.0000  0.0000  0.0000 </r>
       </set>
       <set comment="band 3">
        <r>  0.0000  0.0000  0.0720  0.6286  0.0000  0.0000  0.0000  0.0000  0.0000 </r>
       </set>
       <set comment="band 4">
        <r>  0.0000  0.7158  0.0000  0.0000  0.0000  0.0000  0.0000  0.0000  0.0000 </r>
       </set>
       <set comment="band 5">
        <r>  0.0329  0.0000  0.0484  0.0099  0.0000  0.0000  0.0000  0.0000  0.0000 </r>
       </set>
       <set comment="band 6">
        <r>  0.0000  0.0000  0.0001  0.0353  0.0000  0.0000  0.0000  0.0000  0.0000 </r>
       </set>
       <set comment="band 7">
        <r>  0.0210  0.0000  0.1544  0.0024  0.0000  0.0000  0.0000  0.0000  0.0000 </r>
       </set>
       <set comment="band 8">
        <r>  0.0000  0.0692  0.0000  0.0000  0.0000  0.0000  0.0000  0.0000  0.0000 </r>
       </set>
      </set>
      <set comment="kpoint 35">
       <set comment="band 1">
        <r>  0.8830  0.0000  0.0000  0.0000  0.0000  0.0000  0.0000  0.0000  0.0000 </r>
       </set>
       <set comment="band 2">
        <r>  0.0001  0.0000  0.4052  0.2159  0.0000  0.0000  0.0000  0.0000  0.0000 </r>
       </set>
       <set comment="band 3">
        <r>  0.0002  0.0000  0.2322  0.4338  0.0000  0.0000  0.0000  0.0000  0.0000 </r>
       </set>
       <set comment="band 4">
        <r>  0.0000  0.7204  0.0000  0.0000  0.0000  0.0000  0.0000  0.0000  0.0000 </r>
       </set>
       <set comment="band 5">
        <r>  0.0186  0.0000  0.0129  0.0053  0.0000  0.0000  0.0000  0.0000  0.0000 </r>
       </set>
       <set comment="band 6">
        <r>  0.0047  0.0000  0.0039  0.1371  0.0000  0.0000  0.0000  0.0000  0.0000 </r>
       </set>
       <set comment="band 7">
        <r>  0.0055  0.0000  0.1844  0.0120  0.0000  0.0000  0.0000  0.0000  0.0000 </r>
       </set>
       <set comment="band 8">
        <r>  0.0000  0.0508  0.0000  0.0000  0.0000  0.0000  0.0000  0.0000  0.0000 </r>
       </set>
      </set>
      <set comment="kpoint 36">
       <set comment="band 1">
        <r>  0.8811  0.0000  0.0000  0.0000  0.0000  0.0000  0.0000  0.0000  0.0000 </r>
       </set>
       <set comment="band 2">
        <r>  0.0008  0.0000  0.0000  0.6260  0.0000  0.0000  0.0000  0.0000  0.0000 </r>
       </set>
       <set comment="band 3">
        <r>  0.0000  0.0000  0.6645  0.0000  0.0000  0.0000  0.0000  0.0000  0.0000 </r>
       </set>
       <set comment="band 4">
        <r>  0.0000  0.7338  0.0000  0.0000  0.0000  0.0000  0.0000  0.0000  0.0000 </r>
       </set>
       <set comment="band 5">
        <r>  0.0446  0.0000  0.0000  0.0739  0.0000  0.0000  0.0000  0.0000  0.0000 </r>
       </set>
       <set comment="band 6">
        <r>  0.0013  0.0000  0.0000  0.1244  0.0000  0.0000  0.0000  0.0000  0.0000 </r>
       </set>
       <set comment="band 7">
        <r>  0.0000  0.0000  0.1532  0.0000  0.0000  0.0000  0.0000  0.0000  0.0000 </r>
       </set>
       <set comment="band 8">
        <r>  0.0000  0.0326  0.0000  0.0000  0.0000  0.0000  0.0000  0.0000  0.0000 </r>
       </set>
      </set>
      <set comment="kpoint 37">
       <set comment="band 1">
        <r>  0.8834  0.0000  0.0000  0.0000  0.0000  0.0000  0.0000  0.0000  0.0000 </r>
       </set>
       <set comment="band 2">
        <r>  0.0004  0.0133  0.5935  0.0133  0.0000  0.0000  0.0000  0.0000  0.0000 </r>
       </set>
       <set comment="band 3">
        <r>  0.0000  0.3412  0.0000  0.3412  0.0000  0.0000  0.0000  0.0000  0.0000 </r>
       </set>
       <set comment="band 4">
        <r>  0.0000  0.3353  0.0303  0.3353  0.0000  0.0000  0.0000  0.0000  0.0000 </r>
       </set>
       <set comment="band 5">
        <r>  0.0149  0.0184  0.0100  0.0184  0.0000  0.0000  0.0000  0.0000  0.0000 </r>
       </set>
       <set comment="band 6">
        <r>  0.0000  0.0258  0.0000  0.0258  0.0000  0.0000  0.0000  0.0000  0.0000 </r>
       </set>
       <set comment="band 7">
        <r>  0.0154  0.0023  0.1962  0.0023  0.0000  0.0000  0.0000  0.0000  0.0000 </r>
       </set>
       <set comment="band 8">
        <r>  0.0122  0.0259  0.0671  0.0259  0.0000  0.0000  0.0000  0.0000  0.0000 </r>
       </set>
      </set>
      <set comment="kpoint 38">
       <set comment="band 1">
        <r>  0.8841  0.0000  0.0000  0.0000  0.0000  0.0000  0.0000  0.0000  0.0000 </r>
       </set>
       <set comment="band 2">
        <r>  0.0000  0.0000  0.6393  0.0000  0.0000  0.0000  0.0000  0.0000  0.0000 </r>
       </set>
       <set comment="band 3">
        <r>  0.0001  0.0565  0.0000  0.5911  0.0000  0.0000  0.0000  0.0000  0.0000 </r>
       </set>
       <set comment="band 4">
        <r>  0.0000  0.6430  0.0000  0.0607  0.0000  0.0000  0.0000  0.0000  0.0000 </r>
       </set>
       <set comment="band 5">
        <r>  0.0038  0.0271  0.0000  0.0349  0.0000  0.0000  0.0000  0.0000  0.0000 </r>
       </set>
       <set comment="band 6">
        <r>  0.0089  0.0139  0.0000  0.1091  0.0000  0.0000  0.0000  0.0000  0.0000 </r>
       </set>
       <set comment="band 7">
        <r>  0.0000  0.0000  0.1850  0.0000  0.0000  0.0000  0.0000  0.0000  0.0000 </r>
       </set>
       <set comment="band 8">
        <r>  0.0315  0.0224  0.0000  0.0023  0.0000  0.0000  0.0000  0.0000  0.0000 </r>
       </set>
      </set>
      <set comment="kpoint 39">
       <set comment="band 1">
        <r>  0.8830  0.0000  0.0000  0.0000  0.0000  0.0000  0.0000  0.0000  0.0000 </r>
       </set>
       <set comment="band 2">
        <r>  0.0005  0.0000  0.6096  0.0000  0.0000  0.0000  0.0000  0.0000  0.0000 </r>
       </set>
       <set comment="band 3">
        <r>  0.0000  0.2212  0.0000  0.4838  0.0000  0.0000  0.0000  0.0000  0.0000 </r>
       </set>
       <set comment="band 4">
        <r>  0.0000  0.4838  0.0000  0.2212  0.0000  0.0000  0.0000  0.0000  0.0000 </r>
       </set>
       <set comment="band 5">
        <r>  0.0219  0.0000  0.0101  0.0000  0.0000  0.0000  0.0000  0.0000  0.0000 </r>
       </set>
       <set comment="band 6">
        <r>  0.0000  0.0000  0.0000  0.0000  0.0000  0.0000  0.0000  0.0000  0.0000 </r>
       </set>
       <set comment="band 7">
        <r>  0.0117  0.0000  0.3381  0.0000  0.0000  0.0000  0.0000  0.0000  0.0000 </r>
       </set>
       <set comment="band 8">
        <r>  0.0000  0.0433  0.0000  0.1157  0.0000  0.0000  0.0000  0.0000  0.0000 </r>
       </set>
      </set>
      <set comment="kpoint 40">
       <set comment="band 1">
        <r>  0.8842  0.0000  0.0000  0.0000  0.0000  0.0000  0.0000  0.0000  0.0000 </r>
       </set>
       <set comment="band 2">
        <r>  0.0000  0.0000  0.6125  0.0000  0.0000  0.0000  0.0000  0.0000  0.0000 </r>
       </set>
       <set comment="band 3">
        <r>  0.0000  0.0000  0.0000  0.6830  0.0000  0.0000  0.0000  0.0000  0.0000 </r>
       </set>
       <set comment="band 4">
        <r>  0.0000  0.7069  0.0000  0.0000  0.0000  0.0000  0.0000  0.0000  0.0000 </r>
       </set>
       <set comment="band 5">
        <r>  0.0161  0.0000  0.0000  0.0121  0.0000  0.0000  0.0000  0.0000  0.0000 </r>
       </set>
       <set comment="band 6">
        <r>  0.0000  0.0000  0.0000  0.0327  0.0000  0.0000  0.0000  0.0000  0.0000 </r>
       </set>
       <set comment="band 7">
        <r>  0.0000  0.0000  0.3336  0.0000  0.0000  0.0000  0.0000  0.0000  0.0000 </r>
       </set>
       <set comment="band 8">
        <r>  0.0000  0.1047  0.0000  0.0000  0.0000  0.0000  0.0000  0.0000  0.0000 </r>
       </set>
      </set>
     </set>
    </set>
   </array>
  </projected>
 </calculation>
 <structure name="finalpos" >
  <crystal>
   <varray name="basis" >
    <v>      -4.61891410       0.00000000       0.00000012 </v>
    <v>       0.00000000      -4.61891410       0.00000012 </v>
    <v>       2.30945789       2.30945789       3.29565321 </v>
   </varray>
   <i name="volume">     70.31067912 </i>
   <varray name="rec_basis" >
    <v>      -0.21650110       0.00000000       0.15171504 </v>
    <v>       0.00000000      -0.21650110       0.15171504 </v>
    <v>       0.00000001       0.00000001       0.30342997 </v>
   </varray>
  </crystal>
  <varray name="positions" >
   <v>      -0.00000000      -0.00000000       0.00000000 </v>
  </varray>
 </structure>
</modeling>
