<?xml version="1.0" encoding="ISO-8859-1"?>
<modeling>
 <generator>
  <i name="program" type="string">vasp </i>
  <i name="version" type="string">5.4.1  </i>
  <i name="subversion" type="string">24Jun15 (build Jul 13 2016 16:36:47) complex                          parallel </i>
  <i name="platform" type="string">IFC91_ompi </i>
  <i name="date" type="string">2019 04 19 </i>
  <i name="time" type="string">09:54:53 </i>
 </generator>
 <incar>
  <i type="string" name="PREC">accurate</i>
  <i type="string" name="ALGO"> Normal</i>
  <i type="int" name="ISPIN">     1</i>
  <i type="int" name="NELM">   200</i>
  <i type="int" name="NELMIN">     4</i>
  <i type="int" name="IBRION">     2</i>
  <i name="EDIFF">      0.00000010</i>
  <i name="EDIFFG">      0.00001000</i>
  <i type="int" name="NSW">     0</i>
  <i type="int" name="ISIF">     3</i>
  <i type="int" name="ISYM">    -1</i>
  <i name="ENCUT">    520.00000000</i>
  <i name="POTIM">      0.50000000</i>
  <i type="int" name="ISMEAR">     0</i>
  <i name="SIGMA">      0.10000000</i>
  <i type="logical" name="LWAVE"> F  </i>
  <i type="logical" name="LCHARG"> F  </i>
  <v type="int" name="KPOINT_BSE">    -1     0     0     0</v>
  <i type="int" name="NELM">   200</i>
 </incar>
 <kpoints>
  <varray name="kpointlist" >
   <v>       0.00000000       0.00000000       0.00000000 </v>
   <v>       0.25000000       0.00000000       0.00000000 </v>
   <v>       0.50000000       0.00000000       0.00000000 </v>
   <v>      -0.25000000       0.00000000       0.00000000 </v>
   <v>       0.00000000       0.25000000       0.00000000 </v>
   <v>       0.25000000       0.25000000       0.00000000 </v>
   <v>       0.50000000       0.25000000       0.00000000 </v>
   <v>      -0.25000000       0.25000000       0.00000000 </v>
   <v>       0.00000000       0.50000000       0.00000000 </v>
   <v>       0.25000000       0.50000000       0.00000000 </v>
   <v>       0.50000000       0.50000000       0.00000000 </v>
   <v>      -0.25000000       0.50000000       0.00000000 </v>
   <v>       0.00000000      -0.25000000       0.00000000 </v>
   <v>       0.25000000      -0.25000000       0.00000000 </v>
   <v>       0.50000000      -0.25000000       0.00000000 </v>
   <v>      -0.25000000      -0.25000000       0.00000000 </v>
   <v>       0.00000000       0.00000000       0.33333333 </v>
   <v>       0.25000000       0.00000000       0.33333333 </v>
   <v>       0.50000000       0.00000000       0.33333333 </v>
   <v>      -0.25000000       0.00000000       0.33333333 </v>
   <v>       0.00000000       0.25000000       0.33333333 </v>
   <v>       0.25000000       0.25000000       0.33333333 </v>
   <v>       0.50000000       0.25000000       0.33333333 </v>
   <v>      -0.25000000       0.25000000       0.33333333 </v>
   <v>       0.00000000       0.50000000       0.33333333 </v>
   <v>       0.25000000       0.50000000       0.33333333 </v>
   <v>       0.50000000       0.50000000       0.33333333 </v>
   <v>      -0.25000000       0.50000000       0.33333333 </v>
   <v>       0.00000000      -0.25000000       0.33333333 </v>
   <v>       0.25000000      -0.25000000       0.33333333 </v>
   <v>       0.50000000      -0.25000000       0.33333333 </v>
   <v>      -0.25000000      -0.25000000       0.33333333 </v>
   <v>       0.00000000       0.00000000      -0.33333333 </v>
   <v>       0.25000000       0.00000000      -0.33333333 </v>
   <v>       0.50000000       0.00000000      -0.33333333 </v>
   <v>      -0.25000000       0.00000000      -0.33333333 </v>
   <v>       0.00000000       0.25000000      -0.33333333 </v>
   <v>       0.25000000       0.25000000      -0.33333333 </v>
   <v>       0.50000000       0.25000000      -0.33333333 </v>
   <v>      -0.25000000       0.25000000      -0.33333333 </v>
   <v>       0.00000000       0.50000000      -0.33333333 </v>
   <v>       0.25000000       0.50000000      -0.33333333 </v>
   <v>       0.50000000       0.50000000      -0.33333333 </v>
   <v>      -0.25000000       0.50000000      -0.33333333 </v>
   <v>       0.00000000      -0.25000000      -0.33333333 </v>
   <v>       0.25000000      -0.25000000      -0.33333333 </v>
   <v>       0.50000000      -0.25000000      -0.33333333 </v>
   <v>      -0.25000000      -0.25000000      -0.33333333 </v>
   <v>       0.00000000       0.00000000       0.00000000 </v>
  </varray>
  <varray name="weights" >
   <v>       0.02083333 </v>
   <v>       0.02083333 </v>
   <v>       0.02083333 </v>
   <v>       0.02083333 </v>
   <v>       0.02083333 </v>
   <v>       0.02083333 </v>
   <v>       0.02083333 </v>
   <v>       0.02083333 </v>
   <v>       0.02083333 </v>
   <v>       0.02083333 </v>
   <v>       0.02083333 </v>
   <v>       0.02083333 </v>
   <v>       0.02083333 </v>
   <v>       0.02083333 </v>
   <v>       0.02083333 </v>
   <v>       0.02083333 </v>
   <v>       0.02083333 </v>
   <v>       0.02083333 </v>
   <v>       0.02083333 </v>
   <v>       0.02083333 </v>
   <v>       0.02083333 </v>
   <v>       0.02083333 </v>
   <v>       0.02083333 </v>
   <v>       0.02083333 </v>
   <v>       0.02083333 </v>
   <v>       0.02083333 </v>
   <v>       0.02083333 </v>
   <v>       0.02083333 </v>
   <v>       0.02083333 </v>
   <v>       0.02083333 </v>
   <v>       0.02083333 </v>
   <v>       0.02083333 </v>
   <v>       0.02083333 </v>
   <v>       0.02083333 </v>
   <v>       0.02083333 </v>
   <v>       0.02083333 </v>
   <v>       0.02083333 </v>
   <v>       0.02083333 </v>
   <v>       0.02083333 </v>
   <v>       0.02083333 </v>
   <v>       0.02083333 </v>
   <v>       0.02083333 </v>
   <v>       0.02083333 </v>
   <v>       0.02083333 </v>
   <v>       0.02083333 </v>
   <v>       0.02083333 </v>
   <v>       0.02083333 </v>
   <v>       0.02083333 </v>
   <v>       0.00000000 </v>
  </varray>
 </kpoints>
 <parameters>
  <separator name="general" >
   <i type="string" name="SYSTEM">unknown system</i>
   <i type="logical" name="LCOMPAT"> F  </i>
  </separator>
  <separator name="electronic" >
   <i type="string" name="PREC">accura</i>
   <i name="ENMAX">    520.00000000</i>
   <i name="ENAUG">    605.39200000</i>
   <i name="EDIFF">      0.00000010</i>
   <i type="int" name="IALGO">    38</i>
   <i type="int" name="IWAVPR">    10</i>
   <i type="int" name="NBANDS">    32</i>
   <i name="NELECT">     48.00000000</i>
   <i type="int" name="TURBO">     0</i>
   <i type="int" name="IRESTART">     0</i>
   <i type="int" name="NREBOOT">     0</i>
   <i type="int" name="NMIN">     0</i>
   <i name="EREF">      0.00000000</i>
   <separator name="electronic smearing" >
    <i type="int" name="ISMEAR">     0</i>
    <i name="SIGMA">      0.10000000</i>
    <i name="KSPACING">      0.50000000</i>
    <i type="logical" name="KGAMMA"> T  </i>
   </separator>
   <separator name="electronic projectors" >
    <i type="logical" name="LREAL"> F  </i>
    <v name="ROPT">      0.00000000      0.00000000</v>
    <i type="int" name="LMAXPAW">  -100</i>
    <i type="int" name="LMAXMIX">     2</i>
    <i type="logical" name="NLSPLINE"> F  </i>
   </separator>
   <separator name="electronic startup" >
    <i type="int" name="ISTART">     0</i>
    <i type="int" name="ICHARG">     2</i>
    <i type="int" name="INIWAV">     1</i>
   </separator>
   <separator name="electronic spin" >
    <i type="int" name="ISPIN">     1</i>
    <i type="logical" name="LNONCOLLINEAR"> F  </i>
    <v name="MAGMOM">      1.00000000      1.00000000      1.00000000      1.00000000      1.00000000      1.00000000      1.00000000      1.00000000      1.00000000</v>
    <i name="NUPDOWN">     -1.00000000</i>
    <i type="logical" name="LSORBIT"> F  </i>
    <v name="SAXIS">      0.00000000      0.00000000      1.00000000</v>
    <i type="logical" name="LSPIRAL"> F  </i>
    <v name="QSPIRAL">      0.00000000      0.00000000      0.00000000</v>
    <i type="logical" name="LZEROZ"> F  </i>
   </separator>
   <separator name="electronic exchange-correlation" >
    <i type="logical" name="LASPH"> F  </i>
    <i type="logical" name="LMETAGGA"> F  </i>
   </separator>
   <separator name="electronic convergence" >
    <i type="int" name="NELM">   200</i>
    <i type="int" name="NELMDL">     0</i>
    <i type="int" name="NELMIN">     4</i>
    <i name="ENINI">    520.00000000</i>
    <separator name="electronic convergence detail" >
     <i type="logical" name="LDIAG"> T  </i>
     <i type="logical" name="LSUBROT"> F  </i>
     <i name="WEIMIN">      0.00000000</i>
     <i name="EBREAK">      0.00000000</i>
     <i name="DEPER">      0.30000000</i>
     <i type="int" name="NRMM">     4</i>
     <i name="TIME">      0.40000000</i>
    </separator>
   </separator>
   <separator name="electronic mixer" >
    <i name="AMIX">      0.40000000</i>
    <i name="BMIX">      1.00000000</i>
    <i name="AMIN">      0.10000000</i>
    <i name="AMIX_MAG">      1.60000000</i>
    <i name="BMIX_MAG">      1.00000000</i>
    <separator name="electronic mixer details" >
     <i type="int" name="IMIX">     4</i>
     <i type="logical" name="MIXFIRST"> F  </i>
     <i type="int" name="MAXMIX">   -45</i>
     <i name="WC">    100.00000000</i>
     <i type="int" name="INIMIX">     1</i>
     <i type="int" name="MIXPRE">     1</i>
     <i type="int" name="MREMOVE">     5</i>
    </separator>
   </separator>
   <separator name="electronic dipolcorrection" >
    <i type="logical" name="LDIPOL"> F  </i>
    <i type="logical" name="LMONO"> F  </i>
    <i type="int" name="IDIPOL">     0</i>
    <i name="EPSILON">      1.00000000</i>
    <v name="DIPOL">   -100.00000000   -100.00000000   -100.00000000</v>
    <i name="EFIELD">      0.00000000</i>
   </separator>
  </separator>
  <separator name="grids" >
   <i type="int" name="NGX">    40</i>
   <i type="int" name="NGY">    40</i>
   <i type="int" name="NGZ">    42</i>
   <i type="int" name="NGXF">    80</i>
   <i type="int" name="NGYF">    80</i>
   <i type="int" name="NGZF">    84</i>
   <i type="logical" name="ADDGRID"> F  </i>
  </separator>
  <separator name="ionic" >
   <i type="int" name="NSW">     0</i>
   <i type="int" name="IBRION">    -1</i>
   <i type="int" name="ISIF">     3</i>
   <i name="PSTRESS">      0.00000000</i>
   <i name="EDIFFG">      0.00001000</i>
   <i type="int" name="NFREE">     1</i>
   <i name="POTIM">      0.50000000</i>
   <i name="SMASS">     -3.00000000</i>
   <i name="SCALEE">      1.00000000</i>
  </separator>
  <separator name="ionic md" >
   <i name="TEBEG">      0.00010000</i>
   <i name="TEEND">      0.00010000</i>
   <i type="int" name="NBLOCK">     1</i>
   <i type="int" name="KBLOCK">     1</i>
   <i type="int" name="NPACO">   256</i>
   <i name="APACO">     16.00000000</i>
  </separator>
  <separator name="symmetry" >
   <i type="int" name="ISYM">    -1</i>
   <i name="SYMPREC">      0.00001000</i>
  </separator>
  <separator name="dos" >
   <i type="logical" name="LORBIT"> F  </i>
   <v name="RWIGS">     -1.00000000     -1.00000000</v>
   <i type="int" name="NEDOS">   301</i>
   <i name="EMIN">     10.00000000</i>
   <i name="EMAX">    -10.00000000</i>
   <i name="EFERMI">      0.00000000</i>
  </separator>
  <separator name="writing" >
   <i type="int" name="NWRITE">     2</i>
   <i type="logical" name="LWAVE"> F  </i>
   <i type="logical" name="LCHARG"> F  </i>
   <i type="logical" name="LPARD"> F  </i>
   <i type="logical" name="LVTOT"> F  </i>
   <i type="logical" name="LVHAR"> F  </i>
   <i type="logical" name="LELF"> F  </i>
   <i type="logical" name="LOPTICS"> F  </i>
   <v name="STM">      0.00000000      0.00000000      0.00000000      0.00000000      0.00000000      0.00000000      0.00000000</v>
  </separator>
  <separator name="performance" >
   <i type="int" name="NPAR">     4</i>
   <i type="int" name="NSIM">     4</i>
   <i type="int" name="NBLK">    -1</i>
   <i type="logical" name="LPLANE"> T  </i>
   <i type="logical" name="LSCALAPACK"> T  </i>
   <i type="logical" name="LSCAAWARE"> F  </i>
   <i type="logical" name="LSCALU"> F  </i>
   <i type="logical" name="LASYNC"> F  </i>
   <i type="logical" name="LORBITALREAL"> F  </i>
  </separator>
  <separator name="miscellaneous" >
   <i type="int" name="IDIOT">     3</i>
   <i type="logical" name="LMUSIC"> F  </i>
   <v name="POMASS">     28.08500000     16.00000000</v>
   <v name="DARWINR">      0.00000000      0.00000000</v>
   <v name="DARWINV">      1.00000000      1.00000000</v>
   <i type="logical" name="LCORR"> T  </i>
  </separator>
  <i type="logical" name="GGA_COMPAT"> T  </i>
  <i type="logical" name="LBERRY"> F  </i>
  <i type="int" name="ICORELEVEL">     0</i>
  <i type="logical" name="LDAU"> F  </i>
  <i type="int" name="I_CONSTRAINED_M">     0</i>
  <separator name="electronic exchange-correlation" >
   <i type="string" name="GGA">--</i>
   <i type="int" name="VOSKOWN">     0</i>
   <i type="logical" name="LHFCALC"> F  </i>
   <i type="string" name="PRECFOCK"></i>
   <i type="logical" name="LSYMGRAD"> F  </i>
   <i type="logical" name="LHFONE"> F  </i>
   <i type="logical" name="LRHFCALC"> F  </i>
   <i type="logical" name="LTHOMAS"> F  </i>
   <i type="logical" name="LMODELHF"> F  </i>
   <i name="ENCUT4O">     -1.00000000</i>
   <i type="int" name="EXXOEP">     0</i>
   <i type="int" name="FOURORBIT">     0</i>
   <i name="AEXX">      0.00000000</i>
   <i name="HFALPHA">      0.00000000</i>
   <i name="MCALPHA">      0.00000000</i>
   <i name="ALDAX">      1.00000000</i>
   <i name="AGGAX">      1.00000000</i>
   <i name="ALDAC">      1.00000000</i>
   <i name="AGGAC">      1.00000000</i>
   <i type="int" name="NKREDX">     1</i>
   <i type="int" name="NKREDY">     1</i>
   <i type="int" name="NKREDZ">     1</i>
   <i type="logical" name="SHIFTRED"> F  </i>
   <i type="logical" name="ODDONLY"> F  </i>
   <i type="logical" name="EVENONLY"> F  </i>
   <i type="int" name="LMAXFOCK">     0</i>
   <i type="int" name="NMAXFOCKAE">     0</i>
   <i type="logical" name="LFOCKAEDFT"> F  </i>
   <i name="HFSCREEN">      0.00000000</i>
   <i name="HFSCREENC">      0.00000000</i>
   <i type="int" name="NBANDSGWLOW">     0</i>
  </separator>
  <separator name="vdW DFT" >
   <i type="logical" name="LUSE_VDW"> F  </i>
   <i name="Zab_VDW">     -0.84910000</i>
   <i name="PARAM1">      0.12340000</i>
   <i name="PARAM2">      1.00000000</i>
   <i name="PARAM3">      0.00000000</i>
  </separator>
  <separator name="model GW" >
   <i type="int" name="MODEL_GW">     0</i>
   <i name="MODEL_EPS0">      8.02562307</i>
   <i name="MODEL_ALPHA">      1.00000000</i>
  </separator>
  <separator name="linear response parameters" >
   <i type="logical" name="LEPSILON"> F  </i>
   <i type="logical" name="LRPA"> F  </i>
   <i type="logical" name="LNABLA"> F  </i>
   <i type="logical" name="LVEL"> F  </i>
   <i type="int" name="KINTER">     0</i>
   <i name="CSHIFT">      0.10000000</i>
   <i name="OMEGAMAX">     -1.00000000</i>
   <i name="DEG_THRESHOLD">      0.00200000</i>
  </separator>
  <separator name="orbital magnetization" >
   <i type="logical" name="NUCIND"> F  </i>
   <v name="MAGPOS">      0.00000000      0.00000000      0.00000000</v>
   <i type="logical" name="LNICSALL"> T  </i>
   <i type="logical" name="ORBITALMAG"> F  </i>
   <i type="logical" name="LMAGBLOCH"> F  </i>
   <i type="logical" name="LCHIMAG"> F  </i>
   <i type="logical" name="LGAUGE"> T  </i>
   <i type="int" name="MAGATOM">     0</i>
   <v name="MAGDIPOL">      0.00000000      0.00000000      0.00000000</v>
   <v name="AVECCONST">      0.00000000      0.00000000      0.00000000</v>
  </separator>
  <separator name="response functions" >
   <i type="logical" name="LADDER"> F  </i>
   <i type="logical" name="LFXC"> F  </i>
   <i type="logical" name="LHARTREE"> T  </i>
   <i type="int" name="IBSE">     0</i>
   <v type="int" name="KPOINT">    -1     0     0     0</v>
   <i type="logical" name="LTCTE"> F  </i>
   <i type="logical" name="LTETE"> F  </i>
   <i type="logical" name="LTRIPLET"> F  </i>
   <i type="logical" name="LFXCEPS"> F  </i>
   <i type="logical" name="LFXHEG"> F  </i>
   <i type="int" name="NATURALO">     0</i>
   <i type="logical" name="L2ORDER"> F  </i>
   <i type="logical" name="LUSEW"> F  </i>
   <i name="ENCUTGW">     -2.00000000</i>
   <i name="ENCUTGWSOFT">     -2.00000000</i>
   <i name="ENCUTLF">     -1.00000000</i>
   <i type="int" name="LMAXMP2">    -1</i>
   <i name="SCISSOR">      0.00000000</i>
   <i type="int" name="NOMEGA">     0</i>
   <i type="int" name="NOMEGAR">     0</i>
   <i type="int" name="NBANDSGW">    -1</i>
   <i type="int" name="NBANDSO">    -1</i>
   <i type="int" name="NBANDSV">    -1</i>
   <i type="int" name="NELM">   200</i>
   <i type="int" name="NELMHF">     1</i>
   <i type="int" name="DIM">     3</i>
   <i type="int" name="ANTIRES">     0</i>
   <i name="OMEGAMAX">    -30.00000000</i>
   <i name="OMEGAMIN">    -30.00000000</i>
   <i name="OMEGATL">   -200.00000000</i>
   <i type="int" name="OMEGAGRID">     0</i>
   <i name="CSHIFT">     -0.10000000</i>
   <i type="logical" name="SELFENERGY"> F  </i>
   <i type="logical" name="LSPECTRAL"> F  </i>
   <i type="logical" name="LSPECTRALGW"> F  </i>
   <i type="logical" name="LSINGLES"> F  </i>
   <i type="logical" name="LFERMIGW"> F  </i>
   <i type="logical" name="ODDONLYGW"> F  </i>
   <i type="logical" name="EVENONLYGW"> F  </i>
   <i type="int" name="NKREDLFX">     1</i>
   <i type="int" name="NKREDLFY">     1</i>
   <i type="int" name="NKREDLFZ">     1</i>
   <i type="int" name="MAXMEM">  1800</i>
   <i type="int" name="TELESCOPE">     0</i>
   <i type="int" name="TAUPAR">     1</i>
   <i type="int" name="OMEGAPAR">    -1</i>
   <i name="LAMBDA">      1.00000000</i>
  </separator>
  <separator name="External order field" >
   <i name="OFIELD_KAPPA">      0.00000000</i>
   <v name="OFIELD_K">      0.00000000      0.00000000      0.00000000</v>
   <i name="OFIELD_Q6_NEAR">      0.00000000</i>
   <i name="OFIELD_Q6_FAR">      0.00000000</i>
   <i name="OFIELD_A">      0.00000000</i>
  </separator>
 </parameters>
 <atominfo>
  <atoms>       9 </atoms>
  <types>       2 </types>
  <array name="atoms" >
   <dimension dim="1">ion</dimension>
   <field type="string">element</field>
   <field type="int">atomtype</field>
   <set>
    <rc><c>Si</c><c>   1</c></rc>
    <rc><c>Si</c><c>   1</c></rc>
    <rc><c>Si</c><c>   1</c></rc>
    <rc><c>O </c><c>   2</c></rc>
    <rc><c>O </c><c>   2</c></rc>
    <rc><c>O </c><c>   2</c></rc>
    <rc><c>O </c><c>   2</c></rc>
    <rc><c>O </c><c>   2</c></rc>
    <rc><c>O </c><c>   2</c></rc>
   </set>
  </array>
  <array name="atomtypes" >
   <dimension dim="1">type</dimension>
   <field type="int">atomspertype</field>
   <field type="string">element</field>
   <field>mass</field>
   <field>valence</field>
   <field type="string">pseudopotential</field>
   <set>
    <rc><c>   3</c><c>Si</c><c>     28.08500000</c><c>      4.00000000</c><c>  PAW_PBE Si 05Jan2001                  </c></rc>
    <rc><c>   6</c><c>O </c><c>     16.00000000</c><c>      6.00000000</c><c>  PAW_PBE O 08Apr2002                   </c></rc>
   </set>
  </array>
 </atominfo>
 <structure name="initialpos" >
  <crystal>
   <varray name="basis" >
    <v>       5.02189789       0.00000000       0.00000000 </v>
    <v>      -2.51094844       4.34909098       0.00000000 </v>
    <v>       0.00000000       0.00000000       5.51192941 </v>
   </varray>
   <i name="volume">    120.38434609 </i>
   <varray name="rec_basis" >
    <v>       0.19912790       0.11496653       0.00000000 </v>
    <v>      -0.00000000       0.22993311       0.00000000 </v>
    <v>       0.00000000       0.00000000       0.18142467 </v>
   </varray>
  </crystal>
  <varray name="positions" >
   <v>       0.00000000       0.47634315       0.66666700 </v>
   <v>       0.52365685       0.52365685       0.00000000 </v>
   <v>       0.47634315       0.00000000       0.33333300 </v>
   <v>       0.15890378       0.74400316       0.46134773 </v>
   <v>       0.25599684       0.41490062       0.79468073 </v>
   <v>       0.58509938       0.84109622       0.12801473 </v>
   <v>       0.74400316       0.15890378       0.53865227 </v>
   <v>       0.41490062       0.25599684       0.20531927 </v>
   <v>       0.84109622       0.58509938       0.87198527 </v>
  </varray>
 </structure>
 <calculation>
  <scstep>
   <time name="dav">    9.53    9.57</time>
   <time name="total">    9.77   10.00</time>
   <energy>
    <i name="alphaZ">     65.47102554 </i>
    <i name="ewald">  -1824.90142598 </i>
    <i name="hartreedc">   -977.59737236 </i>
    <i name="XCdc">    140.94862839 </i>
    <i name="pawpsdc">   2343.66826019 </i>
    <i name="pawaedc">  -2301.68043871 </i>
    <i name="eentropy">     -0.00944341 </i>
    <i name="bandstr">    -54.89180433 </i>
    <i name="atom">   2903.34697324 </i>
    <i name="e_fr_energy">    294.35440257 </i>
    <i name="e_wo_entrp">    294.36384598 </i>
    <i name="e_0_energy">    294.35912427 </i>
   </energy>
  </scstep>
  <scstep>
   <time name="dav">   11.14   11.15</time>
   <time name="total">   11.15   11.28</time>
   <energy>
    <i name="e_fr_energy">    -60.51406975 </i>
    <i name="e_wo_entrp">    -60.51406975 </i>
    <i name="e_0_energy">    -60.51406975 </i>
   </energy>
  </scstep>
  <scstep>
   <time name="dav">   10.80   10.81</time>
   <time name="total">   10.81   10.91</time>
   <energy>
    <i name="e_fr_energy">    -80.34024220 </i>
    <i name="e_wo_entrp">    -80.34024220 </i>
    <i name="e_0_energy">    -80.34024220 </i>
   </energy>
  </scstep>
  <scstep>
   <time name="dav">   10.94   10.95</time>
   <time name="total">   10.95   11.12</time>
   <energy>
    <i name="e_fr_energy">    -80.57481890 </i>
    <i name="e_wo_entrp">    -80.57481890 </i>
    <i name="e_0_energy">    -80.57481890 </i>
   </energy>
  </scstep>
  <scstep>
   <time name="dav">   10.68   10.71</time>
   <time name="total">   10.99   11.02</time>
   <energy>
    <i name="e_fr_energy">    -80.57879153 </i>
    <i name="e_wo_entrp">    -80.57879153 </i>
    <i name="e_0_energy">    -80.57879153 </i>
   </energy>
  </scstep>
  <scstep>
   <time name="dav">   10.40   10.41</time>
   <time name="total">   10.92   11.00</time>
   <energy>
    <i name="e_fr_energy">    -71.09746474 </i>
    <i name="e_wo_entrp">    -71.09746474 </i>
    <i name="e_0_energy">    -71.09746474 </i>
   </energy>
  </scstep>
  <scstep>
   <time name="dav">   10.57   10.58</time>
   <time name="total">   11.09   11.14</time>
   <energy>
    <i name="e_fr_energy">    -71.12121621 </i>
    <i name="e_wo_entrp">    -71.12121621 </i>
    <i name="e_0_energy">    -71.12121621 </i>
   </energy>
  </scstep>
  <scstep>
   <time name="dav">   10.67   10.68</time>
   <time name="total">   11.20   11.21</time>
   <energy>
    <i name="e_fr_energy">    -71.12355159 </i>
    <i name="e_wo_entrp">    -71.12355159 </i>
    <i name="e_0_energy">    -71.12355159 </i>
   </energy>
  </scstep>
  <scstep>
   <time name="dav">   10.38   10.39</time>
   <time name="total">   10.90   10.91</time>
   <energy>
    <i name="e_fr_energy">    -71.13565918 </i>
    <i name="e_wo_entrp">    -71.13565918 </i>
    <i name="e_0_energy">    -71.13565918 </i>
   </energy>
  </scstep>
  <scstep>
   <time name="dav">   10.65   10.66</time>
   <time name="total">   11.17   11.19</time>
   <energy>
    <i name="e_fr_energy">    -71.13739522 </i>
    <i name="e_wo_entrp">    -71.13739522 </i>
    <i name="e_0_energy">    -71.13739522 </i>
   </energy>
  </scstep>
  <scstep>
   <time name="dav">   10.79   10.80</time>
   <time name="total">   11.30   11.32</time>
   <energy>
    <i name="e_fr_energy">    -71.13728232 </i>
    <i name="e_wo_entrp">    -71.13728232 </i>
    <i name="e_0_energy">    -71.13728232 </i>
   </energy>
  </scstep>
  <scstep>
   <time name="dav">   10.73   10.74</time>
   <time name="total">   11.25   11.32</time>
   <energy>
    <i name="e_fr_energy">    -71.13729142 </i>
    <i name="e_wo_entrp">    -71.13729142 </i>
    <i name="e_0_energy">    -71.13729142 </i>
   </energy>
  </scstep>
  <scstep>
   <time name="dav">   10.75   10.76</time>
   <time name="total">   11.27   11.29</time>
   <energy>
    <i name="e_fr_energy">    -71.13729363 </i>
    <i name="e_wo_entrp">    -71.13729363 </i>
    <i name="e_0_energy">    -71.13729363 </i>
   </energy>
  </scstep>
  <scstep>
   <time name="dav">   10.77   10.78</time>
   <time name="total">   11.29   11.30</time>
   <energy>
    <i name="e_fr_energy">    -71.13729425 </i>
    <i name="e_wo_entrp">    -71.13729425 </i>
    <i name="e_0_energy">    -71.13729425 </i>
   </energy>
  </scstep>
  <scstep>
   <time name="dav">    8.63    8.64</time>
   <time name="total">    8.84    8.85</time>
   <energy>
    <i name="alphaZ">     65.47102554 </i>
    <i name="ewald">  -1824.90142598 </i>
    <i name="hartreedc">  -1109.53929882 </i>
    <i name="XCdc">    149.84703853 </i>
    <i name="pawpsdc">   7480.52583769 </i>
    <i name="pawaedc">  -7440.80805538 </i>
    <i name="eentropy">     -0.00000000 </i>
    <i name="bandstr">   -295.07938906 </i>
    <i name="atom">   2903.34697324 </i>
    <i name="e_fr_energy">    -71.13729425 </i>
    <i name="e_wo_entrp">    -71.13729425 </i>
    <i name="e_0_energy">    -71.13729425 </i>
   </energy>
  </scstep>
  <structure>
   <crystal>
    <varray name="basis" >
     <v>       5.02189789       0.00000000       0.00000000 </v>
     <v>      -2.51094844       4.34909098       0.00000000 </v>
     <v>       0.00000000       0.00000000       5.51192941 </v>
    </varray>
    <i name="volume">    120.38434609 </i>
    <varray name="rec_basis" >
     <v>       0.19912790       0.11496653       0.00000000 </v>
     <v>      -0.00000000       0.22993311       0.00000000 </v>
     <v>       0.00000000       0.00000000       0.18142467 </v>
    </varray>
   </crystal>
   <varray name="positions" >
    <v>       0.00000000       0.47634315       0.66666700 </v>
    <v>       0.52365685       0.52365685       0.00000000 </v>
    <v>       0.47634315       0.00000000       0.33333300 </v>
    <v>       0.15890378       0.74400316       0.46134773 </v>
    <v>       0.25599684       0.41490062       0.79468073 </v>
    <v>       0.58509938       0.84109622       0.12801473 </v>
    <v>       0.74400316       0.15890378       0.53865227 </v>
    <v>       0.41490062       0.25599684       0.20531927 </v>
    <v>       0.84109622       0.58509938       0.87198527 </v>
   </varray>
  </structure>
  <varray name="forces" >
   <v>       0.00058723      -0.00103585      -0.00014696 </v>
   <v>       0.00058324       0.00100715      -0.00000268 </v>
   <v>      -0.00118587      -0.00001038       0.00015038 </v>
   <v>       0.00293984       0.00589522       0.00049294 </v>
   <v>      -0.00650305      -0.00041067       0.00055990 </v>
   <v>       0.00369450      -0.00553779       0.00040531 </v>
   <v>       0.00363010       0.00549380      -0.00049739 </v>
   <v>       0.00289968      -0.00583645      -0.00055966 </v>
   <v>      -0.00664567       0.00043498      -0.00040184 </v>
  </varray>
  <varray name="stress" >
   <v>      -0.01086301      -0.00261631      -0.00095585 </v>
   <v>      -0.00261649      -0.01358975       0.00039084 </v>
   <v>      -0.00095575       0.00039078       0.09419541 </v>
  </varray>
  <energy>
   <i name="e_fr_energy">    -71.13729425 </i>
   <i name="e_wo_entrp">    -71.13729425 </i>
   <i name="e_0_energy">     -0.00000000 </i>
  </energy>
  <time name="totalsc">  165.91  167.37</time>
  <eigenvalues>
   <array>
    <dimension dim="1">band</dimension>
    <dimension dim="2">kpoint</dimension>
    <dimension dim="3">spin</dimension>
    <field>eigene</field>
    <field>occ</field>
    <set>
     <set comment="spin 1">
      <set comment="kpoint 1">
       <r>  -18.6183    1.0000 </r>
       <r>  -17.1800    1.0000 </r>
       <r>  -17.1800    1.0000 </r>
       <r>  -16.5847    1.0000 </r>
       <r>  -16.5435    1.0000 </r>
       <r>  -16.5435    1.0000 </r>
       <r>   -7.6494    1.0000 </r>
       <r>   -7.6493    1.0000 </r>
       <r>   -4.8005    1.0000 </r>
       <r>   -4.7080    1.0000 </r>
       <r>   -4.5598    1.0000 </r>
       <r>   -4.5598    1.0000 </r>
       <r>   -2.1523    1.0000 </r>
       <r>   -2.1522    1.0000 </r>
       <r>   -2.0241    1.0000 </r>
       <r>   -1.7652    1.0000 </r>
       <r>   -0.8737    1.0000 </r>
       <r>   -0.8737    1.0000 </r>
       <r>   -0.8709    1.0000 </r>
       <r>   -0.3116    1.0000 </r>
       <r>   -0.3115    1.0000 </r>
       <r>    0.1304    1.0000 </r>
       <r>    0.2980    1.0000 </r>
       <r>    0.2980    1.0000 </r>
       <r>    6.3038    0.0000 </r>
       <r>    9.6984    0.0000 </r>
       <r>    9.6984    0.0000 </r>
       <r>    9.9553    0.0000 </r>
       <r>    9.9553    0.0000 </r>
       <r>   11.0246    0.0000 </r>
       <r>   11.8540    0.0000 </r>
       <r>   12.5455    0.0000 </r>
      </set>
      <set comment="kpoint 2">
       <r>  -18.4539    1.0000 </r>
       <r>  -17.3821    1.0000 </r>
       <r>  -17.1619    1.0000 </r>
       <r>  -16.6041    1.0000 </r>
       <r>  -16.5677    1.0000 </r>
       <r>  -16.5572    1.0000 </r>
       <r>   -7.7199    1.0000 </r>
       <r>   -7.2648    1.0000 </r>
       <r>   -4.8770    1.0000 </r>
       <r>   -4.7915    1.0000 </r>
       <r>   -4.7403    1.0000 </r>
       <r>   -4.2588    1.0000 </r>
       <r>   -2.3583    1.0000 </r>
       <r>   -2.0593    1.0000 </r>
       <r>   -1.9488    1.0000 </r>
       <r>   -1.4814    1.0000 </r>
       <r>   -1.3646    1.0000 </r>
       <r>   -0.9808    1.0000 </r>
       <r>   -0.8866    1.0000 </r>
       <r>   -0.4176    1.0000 </r>
       <r>   -0.3339    1.0000 </r>
       <r>   -0.1100    1.0000 </r>
       <r>    0.3915    1.0000 </r>
       <r>    0.4859    1.0000 </r>
       <r>    7.1525    0.0000 </r>
       <r>    9.5693    0.0000 </r>
       <r>    9.6795    0.0000 </r>
       <r>   10.2089    0.0000 </r>
       <r>   10.3502    0.0000 </r>
       <r>   11.1214    0.0000 </r>
       <r>   11.4869    0.0000 </r>
       <r>   12.1534    0.0000 </r>
      </set>
      <set comment="kpoint 3">
       <r>  -18.1664    1.0000 </r>
       <r>  -17.7178    1.0000 </r>
       <r>  -17.1423    1.0000 </r>
       <r>  -16.6134    1.0000 </r>
       <r>  -16.5865    1.0000 </r>
       <r>  -16.5741    1.0000 </r>
       <r>   -7.7861    1.0000 </r>
       <r>   -6.7554    1.0000 </r>
       <r>   -5.2607    1.0000 </r>
       <r>   -4.8135    1.0000 </r>
       <r>   -4.7405    1.0000 </r>
       <r>   -3.9700    1.0000 </r>
       <r>   -2.3285    1.0000 </r>
       <r>   -2.2041    1.0000 </r>
       <r>   -1.8937    1.0000 </r>
       <r>   -1.5713    1.0000 </r>
       <r>   -1.4059    1.0000 </r>
       <r>   -1.0914    1.0000 </r>
       <r>   -1.0357    1.0000 </r>
       <r>   -0.4466    1.0000 </r>
       <r>   -0.3921    1.0000 </r>
       <r>   -0.1700    1.0000 </r>
       <r>    0.3691    1.0000 </r>
       <r>    0.6163    1.0000 </r>
       <r>    8.4563    0.0000 </r>
       <r>    9.2435    0.0000 </r>
       <r>   10.0624    0.0000 </r>
       <r>   10.1340    0.0000 </r>
       <r>   10.7324    0.0000 </r>
       <r>   10.8366    0.0000 </r>
       <r>   11.6031    0.0000 </r>
       <r>   11.7934    0.0000 </r>
      </set>
      <set comment="kpoint 4">
       <r>  -18.4539    1.0000 </r>
       <r>  -17.3821    1.0000 </r>
       <r>  -17.1619    1.0000 </r>
       <r>  -16.6041    1.0000 </r>
       <r>  -16.5677    1.0000 </r>
       <r>  -16.5572    1.0000 </r>
       <r>   -7.7199    1.0000 </r>
       <r>   -7.2648    1.0000 </r>
       <r>   -4.8770    1.0000 </r>
       <r>   -4.7915    1.0000 </r>
       <r>   -4.7403    1.0000 </r>
       <r>   -4.2588    1.0000 </r>
       <r>   -2.3583    1.0000 </r>
       <r>   -2.0593    1.0000 </r>
       <r>   -1.9488    1.0000 </r>
       <r>   -1.4814    1.0000 </r>
       <r>   -1.3646    1.0000 </r>
       <r>   -0.9808    1.0000 </r>
       <r>   -0.8866    1.0000 </r>
       <r>   -0.4176    1.0000 </r>
       <r>   -0.3339    1.0000 </r>
       <r>   -0.1100    1.0000 </r>
       <r>    0.3915    1.0000 </r>
       <r>    0.4859    1.0000 </r>
       <r>    7.1525    0.0000 </r>
       <r>    9.5693    0.0000 </r>
       <r>    9.6795    0.0000 </r>
       <r>   10.2089    0.0000 </r>
       <r>   10.3502    0.0000 </r>
       <r>   11.1214    0.0000 </r>
       <r>   11.4869    0.0000 </r>
       <r>   12.1534    0.0000 </r>
      </set>
      <set comment="kpoint 5">
       <r>  -18.4539    1.0000 </r>
       <r>  -17.3821    1.0000 </r>
       <r>  -17.1619    1.0000 </r>
       <r>  -16.6041    1.0000 </r>
       <r>  -16.5677    1.0000 </r>
       <r>  -16.5572    1.0000 </r>
       <r>   -7.7199    1.0000 </r>
       <r>   -7.2648    1.0000 </r>
       <r>   -4.8770    1.0000 </r>
       <r>   -4.7915    1.0000 </r>
       <r>   -4.7403    1.0000 </r>
       <r>   -4.2588    1.0000 </r>
       <r>   -2.3583    1.0000 </r>
       <r>   -2.0593    1.0000 </r>
       <r>   -1.9488    1.0000 </r>
       <r>   -1.4814    1.0000 </r>
       <r>   -1.3646    1.0000 </r>
       <r>   -0.9808    1.0000 </r>
       <r>   -0.8866    1.0000 </r>
       <r>   -0.4176    1.0000 </r>
       <r>   -0.3339    1.0000 </r>
       <r>   -0.1100    1.0000 </r>
       <r>    0.3915    1.0000 </r>
       <r>    0.4859    1.0000 </r>
       <r>    7.1525    0.0000 </r>
       <r>    9.5693    0.0000 </r>
       <r>    9.6795    0.0000 </r>
       <r>   10.2089    0.0000 </r>
       <r>   10.3502    0.0000 </r>
       <r>   11.1214    0.0000 </r>
       <r>   11.4869    0.0000 </r>
       <r>   12.1534    0.0000 </r>
      </set>
      <set comment="kpoint 6">
       <r>  -18.1737    1.0000 </r>
       <r>  -17.6960    1.0000 </r>
       <r>  -17.1649    1.0000 </r>
       <r>  -16.6112    1.0000 </r>
       <r>  -16.5856    1.0000 </r>
       <r>  -16.5689    1.0000 </r>
       <r>   -7.8170    1.0000 </r>
       <r>   -6.6263    1.0000 </r>
       <r>   -5.5220    1.0000 </r>
       <r>   -4.7353    1.0000 </r>
       <r>   -4.6649    1.0000 </r>
       <r>   -3.9696    1.0000 </r>
       <r>   -2.3148    1.0000 </r>
       <r>   -2.1451    1.0000 </r>
       <r>   -1.9596    1.0000 </r>
       <r>   -1.4942    1.0000 </r>
       <r>   -1.4169    1.0000 </r>
       <r>   -1.1965    1.0000 </r>
       <r>   -0.8021    1.0000 </r>
       <r>   -0.7423    1.0000 </r>
       <r>   -0.4240    1.0000 </r>
       <r>   -0.0031    1.0000 </r>
       <r>    0.3431    1.0000 </r>
       <r>    0.6076    1.0000 </r>
       <r>    8.3559    0.0000 </r>
       <r>    9.6544    0.0000 </r>
       <r>    9.7128    0.0000 </r>
       <r>   10.4072    0.0000 </r>
       <r>   10.5537    0.0000 </r>
       <r>   10.9193    0.0000 </r>
       <r>   11.2169    0.0000 </r>
       <r>   11.8315    0.0000 </r>
      </set>
      <set comment="kpoint 7">
       <r>  -18.1737    1.0000 </r>
       <r>  -17.6960    1.0000 </r>
       <r>  -17.1649    1.0000 </r>
       <r>  -16.6112    1.0000 </r>
       <r>  -16.5856    1.0000 </r>
       <r>  -16.5689    1.0000 </r>
       <r>   -7.8170    1.0000 </r>
       <r>   -6.6263    1.0000 </r>
       <r>   -5.5220    1.0000 </r>
       <r>   -4.7353    1.0000 </r>
       <r>   -4.6649    1.0000 </r>
       <r>   -3.9696    1.0000 </r>
       <r>   -2.3148    1.0000 </r>
       <r>   -2.1451    1.0000 </r>
       <r>   -1.9596    1.0000 </r>
       <r>   -1.4942    1.0000 </r>
       <r>   -1.4169    1.0000 </r>
       <r>   -1.1965    1.0000 </r>
       <r>   -0.8021    1.0000 </r>
       <r>   -0.7423    1.0000 </r>
       <r>   -0.4240    1.0000 </r>
       <r>   -0.0031    1.0000 </r>
       <r>    0.3431    1.0000 </r>
       <r>    0.6076    1.0000 </r>
       <r>    8.3559    0.0000 </r>
       <r>    9.6544    0.0000 </r>
       <r>    9.7128    0.0000 </r>
       <r>   10.4072    0.0000 </r>
       <r>   10.5537    0.0000 </r>
       <r>   10.9193    0.0000 </r>
       <r>   11.2169    0.0000 </r>
       <r>   11.8315    0.0000 </r>
      </set>
      <set comment="kpoint 8">
       <r>  -18.4539    1.0000 </r>
       <r>  -17.3821    1.0000 </r>
       <r>  -17.1619    1.0000 </r>
       <r>  -16.6041    1.0000 </r>
       <r>  -16.5677    1.0000 </r>
       <r>  -16.5572    1.0000 </r>
       <r>   -7.7199    1.0000 </r>
       <r>   -7.2649    1.0000 </r>
       <r>   -4.8770    1.0000 </r>
       <r>   -4.7915    1.0000 </r>
       <r>   -4.7403    1.0000 </r>
       <r>   -4.2588    1.0000 </r>
       <r>   -2.3583    1.0000 </r>
       <r>   -2.0593    1.0000 </r>
       <r>   -1.9488    1.0000 </r>
       <r>   -1.4814    1.0000 </r>
       <r>   -1.3646    1.0000 </r>
       <r>   -0.9808    1.0000 </r>
       <r>   -0.8866    1.0000 </r>
       <r>   -0.4176    1.0000 </r>
       <r>   -0.3338    1.0000 </r>
       <r>   -0.1100    1.0000 </r>
       <r>    0.3915    1.0000 </r>
       <r>    0.4859    1.0000 </r>
       <r>    7.1525    0.0000 </r>
       <r>    9.5693    0.0000 </r>
       <r>    9.6795    0.0000 </r>
       <r>   10.2089    0.0000 </r>
       <r>   10.3502    0.0000 </r>
       <r>   11.1214    0.0000 </r>
       <r>   11.4869    0.0000 </r>
       <r>   12.1534    0.0000 </r>
      </set>
      <set comment="kpoint 9">
       <r>  -18.1664    1.0000 </r>
       <r>  -17.7178    1.0000 </r>
       <r>  -17.1423    1.0000 </r>
       <r>  -16.6134    1.0000 </r>
       <r>  -16.5865    1.0000 </r>
       <r>  -16.5741    1.0000 </r>
       <r>   -7.7861    1.0000 </r>
       <r>   -6.7554    1.0000 </r>
       <r>   -5.2607    1.0000 </r>
       <r>   -4.8135    1.0000 </r>
       <r>   -4.7405    1.0000 </r>
       <r>   -3.9700    1.0000 </r>
       <r>   -2.3285    1.0000 </r>
       <r>   -2.2041    1.0000 </r>
       <r>   -1.8937    1.0000 </r>
       <r>   -1.5713    1.0000 </r>
       <r>   -1.4059    1.0000 </r>
       <r>   -1.0914    1.0000 </r>
       <r>   -1.0357    1.0000 </r>
       <r>   -0.4466    1.0000 </r>
       <r>   -0.3921    1.0000 </r>
       <r>   -0.1700    1.0000 </r>
       <r>    0.3691    1.0000 </r>
       <r>    0.6163    1.0000 </r>
       <r>    8.4563    0.0000 </r>
       <r>    9.2435    0.0000 </r>
       <r>   10.0624    0.0000 </r>
       <r>   10.1340    0.0000 </r>
       <r>   10.7324    0.0000 </r>
       <r>   10.8366    0.0000 </r>
       <r>   11.6031    0.0000 </r>
       <r>   11.7934    0.0000 </r>
      </set>
      <set comment="kpoint 10">
       <r>  -18.1737    1.0000 </r>
       <r>  -17.6960    1.0000 </r>
       <r>  -17.1649    1.0000 </r>
       <r>  -16.6112    1.0000 </r>
       <r>  -16.5856    1.0000 </r>
       <r>  -16.5689    1.0000 </r>
       <r>   -7.8170    1.0000 </r>
       <r>   -6.6263    1.0000 </r>
       <r>   -5.5220    1.0000 </r>
       <r>   -4.7353    1.0000 </r>
       <r>   -4.6649    1.0000 </r>
       <r>   -3.9696    1.0000 </r>
       <r>   -2.3148    1.0000 </r>
       <r>   -2.1451    1.0000 </r>
       <r>   -1.9596    1.0000 </r>
       <r>   -1.4942    1.0000 </r>
       <r>   -1.4169    1.0000 </r>
       <r>   -1.1965    1.0000 </r>
       <r>   -0.8021    1.0000 </r>
       <r>   -0.7423    1.0000 </r>
       <r>   -0.4240    1.0000 </r>
       <r>   -0.0031    1.0000 </r>
       <r>    0.3431    1.0000 </r>
       <r>    0.6076    1.0000 </r>
       <r>    8.3559    0.0000 </r>
       <r>    9.6544    0.0000 </r>
       <r>    9.7128    0.0000 </r>
       <r>   10.4072    0.0000 </r>
       <r>   10.5537    0.0000 </r>
       <r>   10.9193    0.0000 </r>
       <r>   11.2169    0.0000 </r>
       <r>   11.8315    0.0000 </r>
      </set>
      <set comment="kpoint 11">
       <r>  -18.1664    1.0000 </r>
       <r>  -17.7179    1.0000 </r>
       <r>  -17.1423    1.0000 </r>
       <r>  -16.6135    1.0000 </r>
       <r>  -16.5866    1.0000 </r>
       <r>  -16.5741    1.0000 </r>
       <r>   -7.7861    1.0000 </r>
       <r>   -6.7554    1.0000 </r>
       <r>   -5.2608    1.0000 </r>
       <r>   -4.8135    1.0000 </r>
       <r>   -4.7405    1.0000 </r>
       <r>   -3.9700    1.0000 </r>
       <r>   -2.3285    1.0000 </r>
       <r>   -2.2042    1.0000 </r>
       <r>   -1.8937    1.0000 </r>
       <r>   -1.5713    1.0000 </r>
       <r>   -1.4059    1.0000 </r>
       <r>   -1.0914    1.0000 </r>
       <r>   -1.0357    1.0000 </r>
       <r>   -0.4467    1.0000 </r>
       <r>   -0.3921    1.0000 </r>
       <r>   -0.1700    1.0000 </r>
       <r>    0.3691    1.0000 </r>
       <r>    0.6163    1.0000 </r>
       <r>    8.4563    0.0000 </r>
       <r>    9.2435    0.0000 </r>
       <r>   10.0624    0.0000 </r>
       <r>   10.1339    0.0000 </r>
       <r>   10.7324    0.0000 </r>
       <r>   10.8366    0.0000 </r>
       <r>   11.6031    0.0000 </r>
       <r>   11.7934    0.0000 </r>
      </set>
      <set comment="kpoint 12">
       <r>  -18.1737    1.0000 </r>
       <r>  -17.6960    1.0000 </r>
       <r>  -17.1649    1.0000 </r>
       <r>  -16.6112    1.0000 </r>
       <r>  -16.5856    1.0000 </r>
       <r>  -16.5689    1.0000 </r>
       <r>   -7.8170    1.0000 </r>
       <r>   -6.6263    1.0000 </r>
       <r>   -5.5220    1.0000 </r>
       <r>   -4.7353    1.0000 </r>
       <r>   -4.6649    1.0000 </r>
       <r>   -3.9696    1.0000 </r>
       <r>   -2.3148    1.0000 </r>
       <r>   -2.1451    1.0000 </r>
       <r>   -1.9596    1.0000 </r>
       <r>   -1.4942    1.0000 </r>
       <r>   -1.4169    1.0000 </r>
       <r>   -1.1965    1.0000 </r>
       <r>   -0.8021    1.0000 </r>
       <r>   -0.7423    1.0000 </r>
       <r>   -0.4240    1.0000 </r>
       <r>   -0.0031    1.0000 </r>
       <r>    0.3431    1.0000 </r>
       <r>    0.6076    1.0000 </r>
       <r>    8.3559    0.0000 </r>
       <r>    9.6544    0.0000 </r>
       <r>    9.7128    0.0000 </r>
       <r>   10.4072    0.0000 </r>
       <r>   10.5537    0.0000 </r>
       <r>   10.9193    0.0000 </r>
       <r>   11.2169    0.0000 </r>
       <r>   11.8315    0.0000 </r>
      </set>
      <set comment="kpoint 13">
       <r>  -18.4539    1.0000 </r>
       <r>  -17.3821    1.0000 </r>
       <r>  -17.1619    1.0000 </r>
       <r>  -16.6041    1.0000 </r>
       <r>  -16.5677    1.0000 </r>
       <r>  -16.5572    1.0000 </r>
       <r>   -7.7199    1.0000 </r>
       <r>   -7.2648    1.0000 </r>
       <r>   -4.8770    1.0000 </r>
       <r>   -4.7915    1.0000 </r>
       <r>   -4.7403    1.0000 </r>
       <r>   -4.2588    1.0000 </r>
       <r>   -2.3583    1.0000 </r>
       <r>   -2.0593    1.0000 </r>
       <r>   -1.9488    1.0000 </r>
       <r>   -1.4814    1.0000 </r>
       <r>   -1.3646    1.0000 </r>
       <r>   -0.9808    1.0000 </r>
       <r>   -0.8866    1.0000 </r>
       <r>   -0.4176    1.0000 </r>
       <r>   -0.3339    1.0000 </r>
       <r>   -0.1100    1.0000 </r>
       <r>    0.3915    1.0000 </r>
       <r>    0.4859    1.0000 </r>
       <r>    7.1525    0.0000 </r>
       <r>    9.5693    0.0000 </r>
       <r>    9.6795    0.0000 </r>
       <r>   10.2089    0.0000 </r>
       <r>   10.3502    0.0000 </r>
       <r>   11.1214    0.0000 </r>
       <r>   11.4869    0.0000 </r>
       <r>   12.1534    0.0000 </r>
      </set>
      <set comment="kpoint 14">
       <r>  -18.4539    1.0000 </r>
       <r>  -17.3821    1.0000 </r>
       <r>  -17.1619    1.0000 </r>
       <r>  -16.6041    1.0000 </r>
       <r>  -16.5677    1.0000 </r>
       <r>  -16.5572    1.0000 </r>
       <r>   -7.7199    1.0000 </r>
       <r>   -7.2649    1.0000 </r>
       <r>   -4.8770    1.0000 </r>
       <r>   -4.7915    1.0000 </r>
       <r>   -4.7403    1.0000 </r>
       <r>   -4.2588    1.0000 </r>
       <r>   -2.3583    1.0000 </r>
       <r>   -2.0593    1.0000 </r>
       <r>   -1.9488    1.0000 </r>
       <r>   -1.4814    1.0000 </r>
       <r>   -1.3646    1.0000 </r>
       <r>   -0.9808    1.0000 </r>
       <r>   -0.8866    1.0000 </r>
       <r>   -0.4176    1.0000 </r>
       <r>   -0.3338    1.0000 </r>
       <r>   -0.1100    1.0000 </r>
       <r>    0.3915    1.0000 </r>
       <r>    0.4859    1.0000 </r>
       <r>    7.1525    0.0000 </r>
       <r>    9.5693    0.0000 </r>
       <r>    9.6795    0.0000 </r>
       <r>   10.2089    0.0000 </r>
       <r>   10.3502    0.0000 </r>
       <r>   11.1214    0.0000 </r>
       <r>   11.4869    0.0000 </r>
       <r>   12.1534    0.0000 </r>
      </set>
      <set comment="kpoint 15">
       <r>  -18.1737    1.0000 </r>
       <r>  -17.6960    1.0000 </r>
       <r>  -17.1649    1.0000 </r>
       <r>  -16.6112    1.0000 </r>
       <r>  -16.5856    1.0000 </r>
       <r>  -16.5689    1.0000 </r>
       <r>   -7.8170    1.0000 </r>
       <r>   -6.6263    1.0000 </r>
       <r>   -5.5220    1.0000 </r>
       <r>   -4.7353    1.0000 </r>
       <r>   -4.6649    1.0000 </r>
       <r>   -3.9696    1.0000 </r>
       <r>   -2.3148    1.0000 </r>
       <r>   -2.1451    1.0000 </r>
       <r>   -1.9596    1.0000 </r>
       <r>   -1.4942    1.0000 </r>
       <r>   -1.4169    1.0000 </r>
       <r>   -1.1965    1.0000 </r>
       <r>   -0.8021    1.0000 </r>
       <r>   -0.7423    1.0000 </r>
       <r>   -0.4240    1.0000 </r>
       <r>   -0.0031    1.0000 </r>
       <r>    0.3431    1.0000 </r>
       <r>    0.6076    1.0000 </r>
       <r>    8.3559    0.0000 </r>
       <r>    9.6544    0.0000 </r>
       <r>    9.7128    0.0000 </r>
       <r>   10.4072    0.0000 </r>
       <r>   10.5537    0.0000 </r>
       <r>   10.9193    0.0000 </r>
       <r>   11.2169    0.0000 </r>
       <r>   11.8315    0.0000 </r>
      </set>
      <set comment="kpoint 16">
       <r>  -18.1737    1.0000 </r>
       <r>  -17.6960    1.0000 </r>
       <r>  -17.1649    1.0000 </r>
       <r>  -16.6112    1.0000 </r>
       <r>  -16.5856    1.0000 </r>
       <r>  -16.5689    1.0000 </r>
       <r>   -7.8170    1.0000 </r>
       <r>   -6.6263    1.0000 </r>
       <r>   -5.5220    1.0000 </r>
       <r>   -4.7353    1.0000 </r>
       <r>   -4.6649    1.0000 </r>
       <r>   -3.9696    1.0000 </r>
       <r>   -2.3148    1.0000 </r>
       <r>   -2.1451    1.0000 </r>
       <r>   -1.9596    1.0000 </r>
       <r>   -1.4942    1.0000 </r>
       <r>   -1.4169    1.0000 </r>
       <r>   -1.1965    1.0000 </r>
       <r>   -0.8021    1.0000 </r>
       <r>   -0.7423    1.0000 </r>
       <r>   -0.4240    1.0000 </r>
       <r>   -0.0031    1.0000 </r>
       <r>    0.3431    1.0000 </r>
       <r>    0.6076    1.0000 </r>
       <r>    8.3559    0.0000 </r>
       <r>    9.6544    0.0000 </r>
       <r>    9.7128    0.0000 </r>
       <r>   10.4072    0.0000 </r>
       <r>   10.5537    0.0000 </r>
       <r>   10.9193    0.0000 </r>
       <r>   11.2169    0.0000 </r>
       <r>   11.8315    0.0000 </r>
      </set>
      <set comment="kpoint 17">
       <r>  -18.4192    1.0000 </r>
       <r>  -17.8792    1.0000 </r>
       <r>  -16.6480    1.0000 </r>
       <r>  -16.5774    1.0000 </r>
       <r>  -16.5610    1.0000 </r>
       <r>  -16.5312    1.0000 </r>
       <r>   -8.6155    1.0000 </r>
       <r>   -6.2477    1.0000 </r>
       <r>   -5.1191    1.0000 </r>
       <r>   -4.9187    1.0000 </r>
       <r>   -4.9088    1.0000 </r>
       <r>   -4.0640    1.0000 </r>
       <r>   -2.1790    1.0000 </r>
       <r>   -1.8998    1.0000 </r>
       <r>   -1.8867    1.0000 </r>
       <r>   -1.5022    1.0000 </r>
       <r>   -1.2572    1.0000 </r>
       <r>   -1.0434    1.0000 </r>
       <r>   -1.0145    1.0000 </r>
       <r>   -0.9096    1.0000 </r>
       <r>   -0.4360    1.0000 </r>
       <r>    0.3374    1.0000 </r>
       <r>    0.4413    1.0000 </r>
       <r>    0.5823    1.0000 </r>
       <r>    7.2759    0.0000 </r>
       <r>    9.0903    0.0000 </r>
       <r>    9.4952    0.0000 </r>
       <r>    9.7139    0.0000 </r>
       <r>   10.7531    0.0000 </r>
       <r>   10.8472    0.0000 </r>
       <r>   11.4285    0.0000 </r>
       <r>   12.2471    0.0000 </r>
      </set>
      <set comment="kpoint 18">
       <r>  -18.2894    1.0000 </r>
       <r>  -17.8183    1.0000 </r>
       <r>  -16.8945    1.0000 </r>
       <r>  -16.5913    1.0000 </r>
       <r>  -16.5687    1.0000 </r>
       <r>  -16.5551    1.0000 </r>
       <r>   -8.2229    1.0000 </r>
       <r>   -6.4070    1.0000 </r>
       <r>   -5.4639    1.0000 </r>
       <r>   -4.8113    1.0000 </r>
       <r>   -4.5597    1.0000 </r>
       <r>   -4.1699    1.0000 </r>
       <r>   -2.3667    1.0000 </r>
       <r>   -2.0738    1.0000 </r>
       <r>   -1.7822    1.0000 </r>
       <r>   -1.6628    1.0000 </r>
       <r>   -1.4080    1.0000 </r>
       <r>   -0.8890    1.0000 </r>
       <r>   -0.8025    1.0000 </r>
       <r>   -0.7003    1.0000 </r>
       <r>   -0.2695    1.0000 </r>
       <r>    0.0214    1.0000 </r>
       <r>    0.2605    1.0000 </r>
       <r>    0.5887    1.0000 </r>
       <r>    7.8632    0.0000 </r>
       <r>    9.4255    0.0000 </r>
       <r>    9.7127    0.0000 </r>
       <r>   10.0076    0.0000 </r>
       <r>   10.5980    0.0000 </r>
       <r>   10.7280    0.0000 </r>
       <r>   11.3000    0.0000 </r>
       <r>   11.6865    0.0000 </r>
      </set>
      <set comment="kpoint 19">
       <r>  -18.1277    1.0000 </r>
       <r>  -17.6998    1.0000 </r>
       <r>  -17.2175    1.0000 </r>
       <r>  -16.6221    1.0000 </r>
       <r>  -16.5818    1.0000 </r>
       <r>  -16.5661    1.0000 </r>
       <r>   -7.6753    1.0000 </r>
       <r>   -6.6920    1.0000 </r>
       <r>   -5.6902    1.0000 </r>
       <r>   -4.7298    1.0000 </r>
       <r>   -4.3587    1.0000 </r>
       <r>   -4.2623    1.0000 </r>
       <r>   -2.4313    1.0000 </r>
       <r>   -2.3908    1.0000 </r>
       <r>   -1.7585    1.0000 </r>
       <r>   -1.5219    1.0000 </r>
       <r>   -1.3405    1.0000 </r>
       <r>   -0.9595    1.0000 </r>
       <r>   -0.6962    1.0000 </r>
       <r>   -0.5040    1.0000 </r>
       <r>   -0.3333    1.0000 </r>
       <r>   -0.0356    1.0000 </r>
       <r>    0.1070    1.0000 </r>
       <r>    0.4698    1.0000 </r>
       <r>    8.8449    0.0000 </r>
       <r>    9.4195    0.0000 </r>
       <r>    9.9272    0.0000 </r>
       <r>   10.4082    0.0000 </r>
       <r>   10.7713    0.0000 </r>
       <r>   10.8672    0.0000 </r>
       <r>   11.0425    0.0000 </r>
       <r>   11.3608    0.0000 </r>
      </set>
      <set comment="kpoint 20">
       <r>  -18.2875    1.0000 </r>
       <r>  -17.8238    1.0000 </r>
       <r>  -16.8810    1.0000 </r>
       <r>  -16.5972    1.0000 </r>
       <r>  -16.5774    1.0000 </r>
       <r>  -16.5507    1.0000 </r>
       <r>   -8.2214    1.0000 </r>
       <r>   -6.4079    1.0000 </r>
       <r>   -5.4634    1.0000 </r>
       <r>   -4.8002    1.0000 </r>
       <r>   -4.5526    1.0000 </r>
       <r>   -4.1993    1.0000 </r>
       <r>   -2.3889    1.0000 </r>
       <r>   -2.0780    1.0000 </r>
       <r>   -1.7943    1.0000 </r>
       <r>   -1.5735    1.0000 </r>
       <r>   -1.3500    1.0000 </r>
       <r>   -0.9790    1.0000 </r>
       <r>   -0.8523    1.0000 </r>
       <r>   -0.6902    1.0000 </r>
       <r>   -0.2870    1.0000 </r>
       <r>    0.0733    1.0000 </r>
       <r>    0.3428    1.0000 </r>
       <r>    0.5031    1.0000 </r>
       <r>    7.9104    0.0000 </r>
       <r>    9.2735    0.0000 </r>
       <r>    9.6501    0.0000 </r>
       <r>    9.9660    0.0000 </r>
       <r>   10.6772    0.0000 </r>
       <r>   10.8593    0.0000 </r>
       <r>   11.4748    0.0000 </r>
       <r>   11.7923    0.0000 </r>
      </set>
      <set comment="kpoint 21">
       <r>  -18.2875    1.0000 </r>
       <r>  -17.8238    1.0000 </r>
       <r>  -16.8810    1.0000 </r>
       <r>  -16.5972    1.0000 </r>
       <r>  -16.5774    1.0000 </r>
       <r>  -16.5507    1.0000 </r>
       <r>   -8.2214    1.0000 </r>
       <r>   -6.4079    1.0000 </r>
       <r>   -5.4634    1.0000 </r>
       <r>   -4.8002    1.0000 </r>
       <r>   -4.5526    1.0000 </r>
       <r>   -4.1993    1.0000 </r>
       <r>   -2.3889    1.0000 </r>
       <r>   -2.0780    1.0000 </r>
       <r>   -1.7943    1.0000 </r>
       <r>   -1.5735    1.0000 </r>
       <r>   -1.3500    1.0000 </r>
       <r>   -0.9790    1.0000 </r>
       <r>   -0.8523    1.0000 </r>
       <r>   -0.6902    1.0000 </r>
       <r>   -0.2870    1.0000 </r>
       <r>    0.0733    1.0000 </r>
       <r>    0.3428    1.0000 </r>
       <r>    0.5031    1.0000 </r>
       <r>    7.9104    0.0000 </r>
       <r>    9.2735    0.0000 </r>
       <r>    9.6501    0.0000 </r>
       <r>    9.9660    0.0000 </r>
       <r>   10.6772    0.0000 </r>
       <r>   10.8593    0.0000 </r>
       <r>   11.4748    0.0000 </r>
       <r>   11.7923    0.0000 </r>
      </set>
      <set comment="kpoint 22">
       <r>  -18.1254    1.0000 </r>
       <r>  -17.7110    1.0000 </r>
       <r>  -17.2008    1.0000 </r>
       <r>  -16.6182    1.0000 </r>
       <r>  -16.5938    1.0000 </r>
       <r>  -16.5665    1.0000 </r>
       <r>   -7.6830    1.0000 </r>
       <r>   -6.6086    1.0000 </r>
       <r>   -5.8177    1.0000 </r>
       <r>   -4.6886    1.0000 </r>
       <r>   -4.3735    1.0000 </r>
       <r>   -4.2553    1.0000 </r>
       <r>   -2.4670    1.0000 </r>
       <r>   -2.2300    1.0000 </r>
       <r>   -1.9037    1.0000 </r>
       <r>   -1.4865    1.0000 </r>
       <r>   -1.2804    1.0000 </r>
       <r>   -1.0720    1.0000 </r>
       <r>   -0.6821    1.0000 </r>
       <r>   -0.4748    1.0000 </r>
       <r>   -0.2298    1.0000 </r>
       <r>   -0.1046    1.0000 </r>
       <r>    0.1571    1.0000 </r>
       <r>    0.3947    1.0000 </r>
       <r>    8.7320    0.0000 </r>
       <r>    9.6007    0.0000 </r>
       <r>    9.9909    0.0000 </r>
       <r>   10.4243    0.0000 </r>
       <r>   10.5712    0.0000 </r>
       <r>   10.8602    0.0000 </r>
       <r>   10.9946    0.0000 </r>
       <r>   11.6008    0.0000 </r>
      </set>
      <set comment="kpoint 23">
       <r>  -18.1254    1.0000 </r>
       <r>  -17.7110    1.0000 </r>
       <r>  -17.2008    1.0000 </r>
       <r>  -16.6182    1.0000 </r>
       <r>  -16.5938    1.0000 </r>
       <r>  -16.5665    1.0000 </r>
       <r>   -7.6830    1.0000 </r>
       <r>   -6.6086    1.0000 </r>
       <r>   -5.8177    1.0000 </r>
       <r>   -4.6886    1.0000 </r>
       <r>   -4.3735    1.0000 </r>
       <r>   -4.2553    1.0000 </r>
       <r>   -2.4670    1.0000 </r>
       <r>   -2.2300    1.0000 </r>
       <r>   -1.9037    1.0000 </r>
       <r>   -1.4865    1.0000 </r>
       <r>   -1.2804    1.0000 </r>
       <r>   -1.0720    1.0000 </r>
       <r>   -0.6822    1.0000 </r>
       <r>   -0.4748    1.0000 </r>
       <r>   -0.2298    1.0000 </r>
       <r>   -0.1046    1.0000 </r>
       <r>    0.1571    1.0000 </r>
       <r>    0.3947    1.0000 </r>
       <r>    8.7320    0.0000 </r>
       <r>    9.6007    0.0000 </r>
       <r>    9.9909    0.0000 </r>
       <r>   10.4243    0.0000 </r>
       <r>   10.5712    0.0000 </r>
       <r>   10.8602    0.0000 </r>
       <r>   10.9946    0.0000 </r>
       <r>   11.6008    0.0000 </r>
      </set>
      <set comment="kpoint 24">
       <r>  -18.2894    1.0000 </r>
       <r>  -17.8183    1.0000 </r>
       <r>  -16.8945    1.0000 </r>
       <r>  -16.5913    1.0000 </r>
       <r>  -16.5687    1.0000 </r>
       <r>  -16.5551    1.0000 </r>
       <r>   -8.2229    1.0000 </r>
       <r>   -6.4070    1.0000 </r>
       <r>   -5.4639    1.0000 </r>
       <r>   -4.8113    1.0000 </r>
       <r>   -4.5597    1.0000 </r>
       <r>   -4.1699    1.0000 </r>
       <r>   -2.3667    1.0000 </r>
       <r>   -2.0738    1.0000 </r>
       <r>   -1.7822    1.0000 </r>
       <r>   -1.6628    1.0000 </r>
       <r>   -1.4080    1.0000 </r>
       <r>   -0.8890    1.0000 </r>
       <r>   -0.8025    1.0000 </r>
       <r>   -0.7003    1.0000 </r>
       <r>   -0.2695    1.0000 </r>
       <r>    0.0214    1.0000 </r>
       <r>    0.2605    1.0000 </r>
       <r>    0.5887    1.0000 </r>
       <r>    7.8632    0.0000 </r>
       <r>    9.4255    0.0000 </r>
       <r>    9.7127    0.0000 </r>
       <r>   10.0076    0.0000 </r>
       <r>   10.5980    0.0000 </r>
       <r>   10.7281    0.0000 </r>
       <r>   11.3000    0.0000 </r>
       <r>   11.6865    0.0000 </r>
      </set>
      <set comment="kpoint 25">
       <r>  -18.1277    1.0000 </r>
       <r>  -17.6998    1.0000 </r>
       <r>  -17.2175    1.0000 </r>
       <r>  -16.6221    1.0000 </r>
       <r>  -16.5818    1.0000 </r>
       <r>  -16.5661    1.0000 </r>
       <r>   -7.6753    1.0000 </r>
       <r>   -6.6920    1.0000 </r>
       <r>   -5.6902    1.0000 </r>
       <r>   -4.7298    1.0000 </r>
       <r>   -4.3587    1.0000 </r>
       <r>   -4.2623    1.0000 </r>
       <r>   -2.4313    1.0000 </r>
       <r>   -2.3908    1.0000 </r>
       <r>   -1.7585    1.0000 </r>
       <r>   -1.5219    1.0000 </r>
       <r>   -1.3405    1.0000 </r>
       <r>   -0.9595    1.0000 </r>
       <r>   -0.6962    1.0000 </r>
       <r>   -0.5040    1.0000 </r>
       <r>   -0.3333    1.0000 </r>
       <r>   -0.0356    1.0000 </r>
       <r>    0.1070    1.0000 </r>
       <r>    0.4698    1.0000 </r>
       <r>    8.8449    0.0000 </r>
       <r>    9.4195    0.0000 </r>
       <r>    9.9272    0.0000 </r>
       <r>   10.4082    0.0000 </r>
       <r>   10.7713    0.0000 </r>
       <r>   10.8672    0.0000 </r>
       <r>   11.0425    0.0000 </r>
       <r>   11.3608    0.0000 </r>
      </set>
      <set comment="kpoint 26">
       <r>  -18.1254    1.0000 </r>
       <r>  -17.7110    1.0000 </r>
       <r>  -17.2008    1.0000 </r>
       <r>  -16.6182    1.0000 </r>
       <r>  -16.5938    1.0000 </r>
       <r>  -16.5665    1.0000 </r>
       <r>   -7.6830    1.0000 </r>
       <r>   -6.6086    1.0000 </r>
       <r>   -5.8177    1.0000 </r>
       <r>   -4.6886    1.0000 </r>
       <r>   -4.3735    1.0000 </r>
       <r>   -4.2553    1.0000 </r>
       <r>   -2.4670    1.0000 </r>
       <r>   -2.2300    1.0000 </r>
       <r>   -1.9037    1.0000 </r>
       <r>   -1.4865    1.0000 </r>
       <r>   -1.2804    1.0000 </r>
       <r>   -1.0720    1.0000 </r>
       <r>   -0.6821    1.0000 </r>
       <r>   -0.4748    1.0000 </r>
       <r>   -0.2299    1.0000 </r>
       <r>   -0.1046    1.0000 </r>
       <r>    0.1571    1.0000 </r>
       <r>    0.3947    1.0000 </r>
       <r>    8.7320    0.0000 </r>
       <r>    9.6007    0.0000 </r>
       <r>    9.9909    0.0000 </r>
       <r>   10.4243    0.0000 </r>
       <r>   10.5712    0.0000 </r>
       <r>   10.8602    0.0000 </r>
       <r>   10.9946    0.0000 </r>
       <r>   11.6008    0.0000 </r>
      </set>
      <set comment="kpoint 27">
       <r>  -18.1277    1.0000 </r>
       <r>  -17.6998    1.0000 </r>
       <r>  -17.2175    1.0000 </r>
       <r>  -16.6221    1.0000 </r>
       <r>  -16.5818    1.0000 </r>
       <r>  -16.5661    1.0000 </r>
       <r>   -7.6753    1.0000 </r>
       <r>   -6.6920    1.0000 </r>
       <r>   -5.6902    1.0000 </r>
       <r>   -4.7298    1.0000 </r>
       <r>   -4.3586    1.0000 </r>
       <r>   -4.2623    1.0000 </r>
       <r>   -2.4313    1.0000 </r>
       <r>   -2.3908    1.0000 </r>
       <r>   -1.7585    1.0000 </r>
       <r>   -1.5219    1.0000 </r>
       <r>   -1.3405    1.0000 </r>
       <r>   -0.9595    1.0000 </r>
       <r>   -0.6962    1.0000 </r>
       <r>   -0.5040    1.0000 </r>
       <r>   -0.3333    1.0000 </r>
       <r>   -0.0356    1.0000 </r>
       <r>    0.1070    1.0000 </r>
       <r>    0.4698    1.0000 </r>
       <r>    8.8449    0.0000 </r>
       <r>    9.4195    0.0000 </r>
       <r>    9.9272    0.0000 </r>
       <r>   10.4082    0.0000 </r>
       <r>   10.7713    0.0000 </r>
       <r>   10.8672    0.0000 </r>
       <r>   11.0425    0.0000 </r>
       <r>   11.3608    0.0000 </r>
      </set>
      <set comment="kpoint 28">
       <r>  -18.1254    1.0000 </r>
       <r>  -17.7110    1.0000 </r>
       <r>  -17.2008    1.0000 </r>
       <r>  -16.6182    1.0000 </r>
       <r>  -16.5938    1.0000 </r>
       <r>  -16.5665    1.0000 </r>
       <r>   -7.6830    1.0000 </r>
       <r>   -6.6086    1.0000 </r>
       <r>   -5.8177    1.0000 </r>
       <r>   -4.6886    1.0000 </r>
       <r>   -4.3735    1.0000 </r>
       <r>   -4.2553    1.0000 </r>
       <r>   -2.4670    1.0000 </r>
       <r>   -2.2300    1.0000 </r>
       <r>   -1.9037    1.0000 </r>
       <r>   -1.4865    1.0000 </r>
       <r>   -1.2804    1.0000 </r>
       <r>   -1.0720    1.0000 </r>
       <r>   -0.6822    1.0000 </r>
       <r>   -0.4748    1.0000 </r>
       <r>   -0.2298    1.0000 </r>
       <r>   -0.1046    1.0000 </r>
       <r>    0.1571    1.0000 </r>
       <r>    0.3947    1.0000 </r>
       <r>    8.7320    0.0000 </r>
       <r>    9.6007    0.0000 </r>
       <r>    9.9909    0.0000 </r>
       <r>   10.4243    0.0000 </r>
       <r>   10.5712    0.0000 </r>
       <r>   10.8602    0.0000 </r>
       <r>   10.9946    0.0000 </r>
       <r>   11.6008    0.0000 </r>
      </set>
      <set comment="kpoint 29">
       <r>  -18.2894    1.0000 </r>
       <r>  -17.8183    1.0000 </r>
       <r>  -16.8945    1.0000 </r>
       <r>  -16.5913    1.0000 </r>
       <r>  -16.5687    1.0000 </r>
       <r>  -16.5551    1.0000 </r>
       <r>   -8.2229    1.0000 </r>
       <r>   -6.4070    1.0000 </r>
       <r>   -5.4639    1.0000 </r>
       <r>   -4.8113    1.0000 </r>
       <r>   -4.5597    1.0000 </r>
       <r>   -4.1699    1.0000 </r>
       <r>   -2.3667    1.0000 </r>
       <r>   -2.0738    1.0000 </r>
       <r>   -1.7822    1.0000 </r>
       <r>   -1.6628    1.0000 </r>
       <r>   -1.4080    1.0000 </r>
       <r>   -0.8890    1.0000 </r>
       <r>   -0.8025    1.0000 </r>
       <r>   -0.7003    1.0000 </r>
       <r>   -0.2695    1.0000 </r>
       <r>    0.0214    1.0000 </r>
       <r>    0.2605    1.0000 </r>
       <r>    0.5887    1.0000 </r>
       <r>    7.8632    0.0000 </r>
       <r>    9.4255    0.0000 </r>
       <r>    9.7127    0.0000 </r>
       <r>   10.0076    0.0000 </r>
       <r>   10.5980    0.0000 </r>
       <r>   10.7280    0.0000 </r>
       <r>   11.3000    0.0000 </r>
       <r>   11.6865    0.0000 </r>
      </set>
      <set comment="kpoint 30">
       <r>  -18.2874    1.0000 </r>
       <r>  -17.8238    1.0000 </r>
       <r>  -16.8811    1.0000 </r>
       <r>  -16.5972    1.0000 </r>
       <r>  -16.5774    1.0000 </r>
       <r>  -16.5507    1.0000 </r>
       <r>   -8.2214    1.0000 </r>
       <r>   -6.4080    1.0000 </r>
       <r>   -5.4634    1.0000 </r>
       <r>   -4.8002    1.0000 </r>
       <r>   -4.5526    1.0000 </r>
       <r>   -4.1993    1.0000 </r>
       <r>   -2.3889    1.0000 </r>
       <r>   -2.0780    1.0000 </r>
       <r>   -1.7943    1.0000 </r>
       <r>   -1.5735    1.0000 </r>
       <r>   -1.3500    1.0000 </r>
       <r>   -0.9790    1.0000 </r>
       <r>   -0.8523    1.0000 </r>
       <r>   -0.6902    1.0000 </r>
       <r>   -0.2870    1.0000 </r>
       <r>    0.0733    1.0000 </r>
       <r>    0.3428    1.0000 </r>
       <r>    0.5031    1.0000 </r>
       <r>    7.9104    0.0000 </r>
       <r>    9.2735    0.0000 </r>
       <r>    9.6502    0.0000 </r>
       <r>    9.9660    0.0000 </r>
       <r>   10.6772    0.0000 </r>
       <r>   10.8593    0.0000 </r>
       <r>   11.4748    0.0000 </r>
       <r>   11.7923    0.0000 </r>
      </set>
      <set comment="kpoint 31">
       <r>  -18.1254    1.0000 </r>
       <r>  -17.7110    1.0000 </r>
       <r>  -17.2008    1.0000 </r>
       <r>  -16.6182    1.0000 </r>
       <r>  -16.5938    1.0000 </r>
       <r>  -16.5665    1.0000 </r>
       <r>   -7.6830    1.0000 </r>
       <r>   -6.6086    1.0000 </r>
       <r>   -5.8177    1.0000 </r>
       <r>   -4.6886    1.0000 </r>
       <r>   -4.3735    1.0000 </r>
       <r>   -4.2553    1.0000 </r>
       <r>   -2.4670    1.0000 </r>
       <r>   -2.2300    1.0000 </r>
       <r>   -1.9037    1.0000 </r>
       <r>   -1.4865    1.0000 </r>
       <r>   -1.2804    1.0000 </r>
       <r>   -1.0720    1.0000 </r>
       <r>   -0.6821    1.0000 </r>
       <r>   -0.4748    1.0000 </r>
       <r>   -0.2299    1.0000 </r>
       <r>   -0.1046    1.0000 </r>
       <r>    0.1571    1.0000 </r>
       <r>    0.3947    1.0000 </r>
       <r>    8.7320    0.0000 </r>
       <r>    9.6007    0.0000 </r>
       <r>    9.9909    0.0000 </r>
       <r>   10.4243    0.0000 </r>
       <r>   10.5712    0.0000 </r>
       <r>   10.8602    0.0000 </r>
       <r>   10.9946    0.0000 </r>
       <r>   11.6008    0.0000 </r>
      </set>
      <set comment="kpoint 32">
       <r>  -18.1254    1.0000 </r>
       <r>  -17.7110    1.0000 </r>
       <r>  -17.2008    1.0000 </r>
       <r>  -16.6182    1.0000 </r>
       <r>  -16.5938    1.0000 </r>
       <r>  -16.5665    1.0000 </r>
       <r>   -7.6830    1.0000 </r>
       <r>   -6.6086    1.0000 </r>
       <r>   -5.8177    1.0000 </r>
       <r>   -4.6886    1.0000 </r>
       <r>   -4.3735    1.0000 </r>
       <r>   -4.2553    1.0000 </r>
       <r>   -2.4670    1.0000 </r>
       <r>   -2.2300    1.0000 </r>
       <r>   -1.9037    1.0000 </r>
       <r>   -1.4865    1.0000 </r>
       <r>   -1.2804    1.0000 </r>
       <r>   -1.0720    1.0000 </r>
       <r>   -0.6821    1.0000 </r>
       <r>   -0.4748    1.0000 </r>
       <r>   -0.2298    1.0000 </r>
       <r>   -0.1046    1.0000 </r>
       <r>    0.1571    1.0000 </r>
       <r>    0.3947    1.0000 </r>
       <r>    8.7320    0.0000 </r>
       <r>    9.6007    0.0000 </r>
       <r>    9.9909    0.0000 </r>
       <r>   10.4243    0.0000 </r>
       <r>   10.5712    0.0000 </r>
       <r>   10.8602    0.0000 </r>
       <r>   10.9946    0.0000 </r>
       <r>   11.6008    0.0000 </r>
      </set>
      <set comment="kpoint 33">
       <r>  -18.4192    1.0000 </r>
       <r>  -17.8792    1.0000 </r>
       <r>  -16.6480    1.0000 </r>
       <r>  -16.5774    1.0000 </r>
       <r>  -16.5610    1.0000 </r>
       <r>  -16.5312    1.0000 </r>
       <r>   -8.6155    1.0000 </r>
       <r>   -6.2477    1.0000 </r>
       <r>   -5.1191    1.0000 </r>
       <r>   -4.9187    1.0000 </r>
       <r>   -4.9088    1.0000 </r>
       <r>   -4.0640    1.0000 </r>
       <r>   -2.1790    1.0000 </r>
       <r>   -1.8998    1.0000 </r>
       <r>   -1.8867    1.0000 </r>
       <r>   -1.5022    1.0000 </r>
       <r>   -1.2572    1.0000 </r>
       <r>   -1.0434    1.0000 </r>
       <r>   -1.0145    1.0000 </r>
       <r>   -0.9096    1.0000 </r>
       <r>   -0.4360    1.0000 </r>
       <r>    0.3374    1.0000 </r>
       <r>    0.4413    1.0000 </r>
       <r>    0.5823    1.0000 </r>
       <r>    7.2759    0.0000 </r>
       <r>    9.0903    0.0000 </r>
       <r>    9.4952    0.0000 </r>
       <r>    9.7139    0.0000 </r>
       <r>   10.7531    0.0000 </r>
       <r>   10.8472    0.0000 </r>
       <r>   11.4285    0.0000 </r>
       <r>   12.2473    0.0000 </r>
      </set>
      <set comment="kpoint 34">
       <r>  -18.2875    1.0000 </r>
       <r>  -17.8238    1.0000 </r>
       <r>  -16.8810    1.0000 </r>
       <r>  -16.5972    1.0000 </r>
       <r>  -16.5774    1.0000 </r>
       <r>  -16.5507    1.0000 </r>
       <r>   -8.2214    1.0000 </r>
       <r>   -6.4079    1.0000 </r>
       <r>   -5.4634    1.0000 </r>
       <r>   -4.8002    1.0000 </r>
       <r>   -4.5526    1.0000 </r>
       <r>   -4.1993    1.0000 </r>
       <r>   -2.3889    1.0000 </r>
       <r>   -2.0780    1.0000 </r>
       <r>   -1.7943    1.0000 </r>
       <r>   -1.5735    1.0000 </r>
       <r>   -1.3500    1.0000 </r>
       <r>   -0.9790    1.0000 </r>
       <r>   -0.8523    1.0000 </r>
       <r>   -0.6902    1.0000 </r>
       <r>   -0.2870    1.0000 </r>
       <r>    0.0733    1.0000 </r>
       <r>    0.3428    1.0000 </r>
       <r>    0.5031    1.0000 </r>
       <r>    7.9104    0.0000 </r>
       <r>    9.2735    0.0000 </r>
       <r>    9.6501    0.0000 </r>
       <r>    9.9660    0.0000 </r>
       <r>   10.6772    0.0000 </r>
       <r>   10.8593    0.0000 </r>
       <r>   11.4748    0.0000 </r>
       <r>   11.7923    0.0000 </r>
      </set>
      <set comment="kpoint 35">
       <r>  -18.1277    1.0000 </r>
       <r>  -17.6998    1.0000 </r>
       <r>  -17.2175    1.0000 </r>
       <r>  -16.6221    1.0000 </r>
       <r>  -16.5818    1.0000 </r>
       <r>  -16.5661    1.0000 </r>
       <r>   -7.6753    1.0000 </r>
       <r>   -6.6920    1.0000 </r>
       <r>   -5.6902    1.0000 </r>
       <r>   -4.7298    1.0000 </r>
       <r>   -4.3587    1.0000 </r>
       <r>   -4.2623    1.0000 </r>
       <r>   -2.4313    1.0000 </r>
       <r>   -2.3908    1.0000 </r>
       <r>   -1.7585    1.0000 </r>
       <r>   -1.5219    1.0000 </r>
       <r>   -1.3405    1.0000 </r>
       <r>   -0.9595    1.0000 </r>
       <r>   -0.6962    1.0000 </r>
       <r>   -0.5040    1.0000 </r>
       <r>   -0.3333    1.0000 </r>
       <r>   -0.0356    1.0000 </r>
       <r>    0.1070    1.0000 </r>
       <r>    0.4698    1.0000 </r>
       <r>    8.8449    0.0000 </r>
       <r>    9.4195    0.0000 </r>
       <r>    9.9272    0.0000 </r>
       <r>   10.4082    0.0000 </r>
       <r>   10.7713    0.0000 </r>
       <r>   10.8672    0.0000 </r>
       <r>   11.0425    0.0000 </r>
       <r>   11.3608    0.0000 </r>
      </set>
      <set comment="kpoint 36">
       <r>  -18.2894    1.0000 </r>
       <r>  -17.8183    1.0000 </r>
       <r>  -16.8945    1.0000 </r>
       <r>  -16.5913    1.0000 </r>
       <r>  -16.5687    1.0000 </r>
       <r>  -16.5551    1.0000 </r>
       <r>   -8.2229    1.0000 </r>
       <r>   -6.4070    1.0000 </r>
       <r>   -5.4639    1.0000 </r>
       <r>   -4.8113    1.0000 </r>
       <r>   -4.5597    1.0000 </r>
       <r>   -4.1699    1.0000 </r>
       <r>   -2.3667    1.0000 </r>
       <r>   -2.0738    1.0000 </r>
       <r>   -1.7822    1.0000 </r>
       <r>   -1.6628    1.0000 </r>
       <r>   -1.4080    1.0000 </r>
       <r>   -0.8890    1.0000 </r>
       <r>   -0.8025    1.0000 </r>
       <r>   -0.7003    1.0000 </r>
       <r>   -0.2695    1.0000 </r>
       <r>    0.0214    1.0000 </r>
       <r>    0.2605    1.0000 </r>
       <r>    0.5887    1.0000 </r>
       <r>    7.8632    0.0000 </r>
       <r>    9.4255    0.0000 </r>
       <r>    9.7127    0.0000 </r>
       <r>   10.0076    0.0000 </r>
       <r>   10.5980    0.0000 </r>
       <r>   10.7280    0.0000 </r>
       <r>   11.3000    0.0000 </r>
       <r>   11.6865    0.0000 </r>
      </set>
      <set comment="kpoint 37">
       <r>  -18.2894    1.0000 </r>
       <r>  -17.8183    1.0000 </r>
       <r>  -16.8945    1.0000 </r>
       <r>  -16.5913    1.0000 </r>
       <r>  -16.5687    1.0000 </r>
       <r>  -16.5551    1.0000 </r>
       <r>   -8.2229    1.0000 </r>
       <r>   -6.4070    1.0000 </r>
       <r>   -5.4639    1.0000 </r>
       <r>   -4.8113    1.0000 </r>
       <r>   -4.5597    1.0000 </r>
       <r>   -4.1699    1.0000 </r>
       <r>   -2.3667    1.0000 </r>
       <r>   -2.0738    1.0000 </r>
       <r>   -1.7822    1.0000 </r>
       <r>   -1.6628    1.0000 </r>
       <r>   -1.4080    1.0000 </r>
       <r>   -0.8890    1.0000 </r>
       <r>   -0.8025    1.0000 </r>
       <r>   -0.7003    1.0000 </r>
       <r>   -0.2695    1.0000 </r>
       <r>    0.0214    1.0000 </r>
       <r>    0.2605    1.0000 </r>
       <r>    0.5887    1.0000 </r>
       <r>    7.8632    0.0000 </r>
       <r>    9.4255    0.0000 </r>
       <r>    9.7127    0.0000 </r>
       <r>   10.0076    0.0000 </r>
       <r>   10.5980    0.0000 </r>
       <r>   10.7280    0.0000 </r>
       <r>   11.3000    0.0000 </r>
       <r>   11.6865    0.0000 </r>
      </set>
      <set comment="kpoint 38">
       <r>  -18.1254    1.0000 </r>
       <r>  -17.7110    1.0000 </r>
       <r>  -17.2008    1.0000 </r>
       <r>  -16.6182    1.0000 </r>
       <r>  -16.5938    1.0000 </r>
       <r>  -16.5665    1.0000 </r>
       <r>   -7.6830    1.0000 </r>
       <r>   -6.6086    1.0000 </r>
       <r>   -5.8177    1.0000 </r>
       <r>   -4.6886    1.0000 </r>
       <r>   -4.3735    1.0000 </r>
       <r>   -4.2553    1.0000 </r>
       <r>   -2.4670    1.0000 </r>
       <r>   -2.2300    1.0000 </r>
       <r>   -1.9037    1.0000 </r>
       <r>   -1.4865    1.0000 </r>
       <r>   -1.2804    1.0000 </r>
       <r>   -1.0720    1.0000 </r>
       <r>   -0.6821    1.0000 </r>
       <r>   -0.4748    1.0000 </r>
       <r>   -0.2298    1.0000 </r>
       <r>   -0.1046    1.0000 </r>
       <r>    0.1571    1.0000 </r>
       <r>    0.3947    1.0000 </r>
       <r>    8.7320    0.0000 </r>
       <r>    9.6007    0.0000 </r>
       <r>    9.9909    0.0000 </r>
       <r>   10.4243    0.0000 </r>
       <r>   10.5712    0.0000 </r>
       <r>   10.8602    0.0000 </r>
       <r>   10.9946    0.0000 </r>
       <r>   11.6008    0.0000 </r>
      </set>
      <set comment="kpoint 39">
       <r>  -18.1254    1.0000 </r>
       <r>  -17.7110    1.0000 </r>
       <r>  -17.2008    1.0000 </r>
       <r>  -16.6182    1.0000 </r>
       <r>  -16.5938    1.0000 </r>
       <r>  -16.5665    1.0000 </r>
       <r>   -7.6830    1.0000 </r>
       <r>   -6.6086    1.0000 </r>
       <r>   -5.8177    1.0000 </r>
       <r>   -4.6886    1.0000 </r>
       <r>   -4.3735    1.0000 </r>
       <r>   -4.2553    1.0000 </r>
       <r>   -2.4670    1.0000 </r>
       <r>   -2.2300    1.0000 </r>
       <r>   -1.9037    1.0000 </r>
       <r>   -1.4865    1.0000 </r>
       <r>   -1.2804    1.0000 </r>
       <r>   -1.0720    1.0000 </r>
       <r>   -0.6821    1.0000 </r>
       <r>   -0.4748    1.0000 </r>
       <r>   -0.2299    1.0000 </r>
       <r>   -0.1046    1.0000 </r>
       <r>    0.1571    1.0000 </r>
       <r>    0.3947    1.0000 </r>
       <r>    8.7320    0.0000 </r>
       <r>    9.6007    0.0000 </r>
       <r>    9.9909    0.0000 </r>
       <r>   10.4243    0.0000 </r>
       <r>   10.5712    0.0000 </r>
       <r>   10.8602    0.0000 </r>
       <r>   10.9946    0.0000 </r>
       <r>   11.6008    0.0000 </r>
      </set>
      <set comment="kpoint 40">
       <r>  -18.2874    1.0000 </r>
       <r>  -17.8238    1.0000 </r>
       <r>  -16.8811    1.0000 </r>
       <r>  -16.5972    1.0000 </r>
       <r>  -16.5774    1.0000 </r>
       <r>  -16.5507    1.0000 </r>
       <r>   -8.2214    1.0000 </r>
       <r>   -6.4080    1.0000 </r>
       <r>   -5.4634    1.0000 </r>
       <r>   -4.8002    1.0000 </r>
       <r>   -4.5526    1.0000 </r>
       <r>   -4.1993    1.0000 </r>
       <r>   -2.3889    1.0000 </r>
       <r>   -2.0780    1.0000 </r>
       <r>   -1.7943    1.0000 </r>
       <r>   -1.5735    1.0000 </r>
       <r>   -1.3500    1.0000 </r>
       <r>   -0.9790    1.0000 </r>
       <r>   -0.8523    1.0000 </r>
       <r>   -0.6902    1.0000 </r>
       <r>   -0.2870    1.0000 </r>
       <r>    0.0733    1.0000 </r>
       <r>    0.3428    1.0000 </r>
       <r>    0.5031    1.0000 </r>
       <r>    7.9104    0.0000 </r>
       <r>    9.2735    0.0000 </r>
       <r>    9.6502    0.0000 </r>
       <r>    9.9660    0.0000 </r>
       <r>   10.6772    0.0000 </r>
       <r>   10.8593    0.0000 </r>
       <r>   11.4748    0.0000 </r>
       <r>   11.7923    0.0000 </r>
      </set>
      <set comment="kpoint 41">
       <r>  -18.1277    1.0000 </r>
       <r>  -17.6998    1.0000 </r>
       <r>  -17.2175    1.0000 </r>
       <r>  -16.6221    1.0000 </r>
       <r>  -16.5818    1.0000 </r>
       <r>  -16.5661    1.0000 </r>
       <r>   -7.6753    1.0000 </r>
       <r>   -6.6920    1.0000 </r>
       <r>   -5.6902    1.0000 </r>
       <r>   -4.7298    1.0000 </r>
       <r>   -4.3587    1.0000 </r>
       <r>   -4.2623    1.0000 </r>
       <r>   -2.4313    1.0000 </r>
       <r>   -2.3908    1.0000 </r>
       <r>   -1.7585    1.0000 </r>
       <r>   -1.5219    1.0000 </r>
       <r>   -1.3405    1.0000 </r>
       <r>   -0.9595    1.0000 </r>
       <r>   -0.6962    1.0000 </r>
       <r>   -0.5040    1.0000 </r>
       <r>   -0.3333    1.0000 </r>
       <r>   -0.0356    1.0000 </r>
       <r>    0.1070    1.0000 </r>
       <r>    0.4698    1.0000 </r>
       <r>    8.8449    0.0000 </r>
       <r>    9.4195    0.0000 </r>
       <r>    9.9272    0.0000 </r>
       <r>   10.4082    0.0000 </r>
       <r>   10.7713    0.0000 </r>
       <r>   10.8672    0.0000 </r>
       <r>   11.0425    0.0000 </r>
       <r>   11.3608    0.0000 </r>
      </set>
      <set comment="kpoint 42">
       <r>  -18.1254    1.0000 </r>
       <r>  -17.7110    1.0000 </r>
       <r>  -17.2008    1.0000 </r>
       <r>  -16.6182    1.0000 </r>
       <r>  -16.5938    1.0000 </r>
       <r>  -16.5665    1.0000 </r>
       <r>   -7.6830    1.0000 </r>
       <r>   -6.6086    1.0000 </r>
       <r>   -5.8177    1.0000 </r>
       <r>   -4.6886    1.0000 </r>
       <r>   -4.3735    1.0000 </r>
       <r>   -4.2553    1.0000 </r>
       <r>   -2.4670    1.0000 </r>
       <r>   -2.2300    1.0000 </r>
       <r>   -1.9037    1.0000 </r>
       <r>   -1.4865    1.0000 </r>
       <r>   -1.2804    1.0000 </r>
       <r>   -1.0720    1.0000 </r>
       <r>   -0.6822    1.0000 </r>
       <r>   -0.4748    1.0000 </r>
       <r>   -0.2298    1.0000 </r>
       <r>   -0.1046    1.0000 </r>
       <r>    0.1571    1.0000 </r>
       <r>    0.3947    1.0000 </r>
       <r>    8.7320    0.0000 </r>
       <r>    9.6007    0.0000 </r>
       <r>    9.9909    0.0000 </r>
       <r>   10.4243    0.0000 </r>
       <r>   10.5712    0.0000 </r>
       <r>   10.8602    0.0000 </r>
       <r>   10.9946    0.0000 </r>
       <r>   11.6008    0.0000 </r>
      </set>
      <set comment="kpoint 43">
       <r>  -18.1277    1.0000 </r>
       <r>  -17.6998    1.0000 </r>
       <r>  -17.2175    1.0000 </r>
       <r>  -16.6221    1.0000 </r>
       <r>  -16.5818    1.0000 </r>
       <r>  -16.5661    1.0000 </r>
       <r>   -7.6753    1.0000 </r>
       <r>   -6.6920    1.0000 </r>
       <r>   -5.6902    1.0000 </r>
       <r>   -4.7298    1.0000 </r>
       <r>   -4.3586    1.0000 </r>
       <r>   -4.2623    1.0000 </r>
       <r>   -2.4313    1.0000 </r>
       <r>   -2.3908    1.0000 </r>
       <r>   -1.7585    1.0000 </r>
       <r>   -1.5219    1.0000 </r>
       <r>   -1.3405    1.0000 </r>
       <r>   -0.9595    1.0000 </r>
       <r>   -0.6962    1.0000 </r>
       <r>   -0.5040    1.0000 </r>
       <r>   -0.3333    1.0000 </r>
       <r>   -0.0356    1.0000 </r>
       <r>    0.1070    1.0000 </r>
       <r>    0.4698    1.0000 </r>
       <r>    8.8449    0.0000 </r>
       <r>    9.4195    0.0000 </r>
       <r>    9.9272    0.0000 </r>
       <r>   10.4082    0.0000 </r>
       <r>   10.7713    0.0000 </r>
       <r>   10.8672    0.0000 </r>
       <r>   11.0425    0.0000 </r>
       <r>   11.3608    0.0000 </r>
      </set>
      <set comment="kpoint 44">
       <r>  -18.1254    1.0000 </r>
       <r>  -17.7110    1.0000 </r>
       <r>  -17.2008    1.0000 </r>
       <r>  -16.6182    1.0000 </r>
       <r>  -16.5938    1.0000 </r>
       <r>  -16.5665    1.0000 </r>
       <r>   -7.6830    1.0000 </r>
       <r>   -6.6086    1.0000 </r>
       <r>   -5.8177    1.0000 </r>
       <r>   -4.6886    1.0000 </r>
       <r>   -4.3735    1.0000 </r>
       <r>   -4.2553    1.0000 </r>
       <r>   -2.4670    1.0000 </r>
       <r>   -2.2300    1.0000 </r>
       <r>   -1.9037    1.0000 </r>
       <r>   -1.4865    1.0000 </r>
       <r>   -1.2804    1.0000 </r>
       <r>   -1.0720    1.0000 </r>
       <r>   -0.6821    1.0000 </r>
       <r>   -0.4748    1.0000 </r>
[...]
       <r>  -17.2008    1.0000 </r>
       <r>  -16.6182    1.0000 </r>
       <r>  -16.5938    1.0000 </r>
       <r>  -16.5665    1.0000 </r>
       <r>   -7.6830    1.0000 </r>
       <r>   -6.6086    1.0000 </r>
       <r>   -5.8177    1.0000 </r>
       <r>   -4.6886    1.0000 </r>
       <r>   -4.3735    1.0000 </r>
       <r>   -4.2553    1.0000 </r>
       <r>   -2.4670    1.0000 </r>
       <r>   -2.2300    1.0000 </r>
       <r>   -1.9037    1.0000 </r>
       <r>   -1.4865    1.0000 </r>
       <r>   -1.2804    1.0000 </r>
       <r>   -1.0720    1.0000 </r>
       <r>   -0.6822    1.0000 </r>
       <r>   -0.4748    1.0000 </r>
       <r>   -0.2298    1.0000 </r>
       <r>   -0.1046    1.0000 </r>
       <r>    0.1571    1.0000 </r>
       <r>    0.3947    1.0000 </r>
       <r>    8.7320    0.0000 </r>
       <r>    9.6007    0.0000 </r>
       <r>    9.9909    0.0000 </r>
       <r>   10.4243    0.0000 </r>
       <r>   10.5712    0.0000 </r>
       <r>   10.8602    0.0000 </r>
       <r>   10.9946    0.0000 </r>
       <r>   11.6008    0.0000 </r>
      </set>
      <set comment="kpoint 48">
       <r>  -18.1254    1.0000 </r>
       <r>  -17.7110    1.0000 </r>
       <r>  -17.2008    1.0000 </r>
       <r>  -16.6182    1.0000 </r>
       <r>  -16.5938    1.0000 </r>
       <r>  -16.5665    1.0000 </r>
       <r>   -7.6830    1.0000 </r>
       <r>   -6.6086    1.0000 </r>
       <r>   -5.8177    1.0000 </r>
       <r>   -4.6886    1.0000 </r>
       <r>   -4.3735    1.0000 </r>
       <r>   -4.2553    1.0000 </r>
       <r>   -2.4670    1.0000 </r>
       <r>   -2.2300    1.0000 </r>
       <r>   -1.9037    1.0000 </r>
       <r>   -1.4865    1.0000 </r>
       <r>   -1.2804    1.0000 </r>
       <r>   -1.0720    1.0000 </r>
       <r>   -0.6821    1.0000 </r>
       <r>   -0.4748    1.0000 </r>
       <r>   -0.2298    1.0000 </r>
       <r>   -0.1046    1.0000 </r>
       <r>    0.1571    1.0000 </r>
       <r>    0.3947    1.0000 </r>
       <r>    8.7320    0.0000 </r>
       <r>    9.6007    0.0000 </r>
       <r>    9.9909    0.0000 </r>
       <r>   10.4243    0.0000 </r>
       <r>   10.5712    0.0000 </r>
       <r>   10.8602    0.0000 </r>
       <r>   10.9946    0.0000 </r>
       <r>   11.6008    0.0000 </r>
      </set>
      <set comment="kpoint 49">
       <r>  -18.6183    1.0000 </r>
       <r>  -17.1800    1.0000 </r>
       <r>  -17.1800    1.0000 </r>
       <r>  -16.5847    1.0000 </r>
       <r>  -16.5435    1.0000 </r>
       <r>  -16.5435    1.0000 </r>
       <r>   -7.6494    1.0000 </r>
       <r>   -7.6493    1.0000 </r>
       <r>   -4.8005    1.0000 </r>
       <r>   -4.7080    1.0000 </r>
       <r>   -4.5598    1.0000 </r>
       <r>   -4.5598    1.0000 </r>
       <r>   -2.1523    1.0000 </r>
       <r>   -2.1522    1.0000 </r>
       <r>   -2.0241    1.0000 </r>
       <r>   -1.7652    1.0000 </r>
       <r>   -0.8737    1.0000 </r>
       <r>   -0.8737    1.0000 </r>
       <r>   -0.8709    1.0000 </r>
       <r>   -0.3116    1.0000 </r>
       <r>   -0.3115    1.0000 </r>
       <r>    0.1304    1.0000 </r>
       <r>    0.2980    1.0000 </r>
       <r>    0.2980    1.0000 </r>
       <r>    6.3038    0.0000 </r>
       <r>    9.6984    0.0000 </r>
       <r>    9.6984    0.0000 </r>
       <r>    9.9553    0.0000 </r>
       <r>    9.9553    0.0000 </r>
       <r>   11.0246    0.0000 </r>
       <r>   11.8540    0.0000 </r>
       <r>   12.5455    0.0000 </r>
      </set>
     </set>
    </set>
   </array>
  </eigenvalues>
  <separator name="orbital magnetization" >
   <v name="MAGDIPOLOUT">      0.00000000      0.00000000      0.00000000</v>
  </separator>
  <dos>
   <i name="efermi">      1.08434313 </i>
   <total>
    <array>
     <dimension dim="1">gridpoints</dimension>
     <dimension dim="2">spin</dimension>
     <field>energy</field>
     <field>total</field>
     <field>integrated</field>
     <set>
      <set comment="spin 1">
       <r>   -20.1765     0.0000     0.0000 </r>
       <r>   -20.0622     0.0000     0.0000 </r>
       <r>   -19.9480     0.0000     0.0000 </r>
       <r>   -19.8337     0.0000     0.0000 </r>
       <r>   -19.7194     0.0000     0.0000 </r>
       <r>   -19.6052     0.0000     0.0000 </r>
       <r>   -19.4909     0.0000     0.0000 </r>
       <r>   -19.3766     0.0000     0.0000 </r>
       <r>   -19.2624     0.0000     0.0000 </r>
       <r>   -19.1481     0.0000     0.0000 </r>
       <r>   -19.0338     0.0000     0.0000 </r>
       <r>   -18.9196     0.0000     0.0000 </r>
       <r>   -18.8053     0.0015     0.0002 </r>
       <r>   -18.6910     0.0548     0.0064 </r>
       <r>   -18.5768     0.3063     0.0414 </r>
       <r>   -18.4625     1.2123     0.1800 </r>
       <r>   -18.3482     2.3404     0.4474 </r>
       <r>   -18.2340     3.8075     0.8825 </r>
       <r>   -18.1197     5.9367     1.5608 </r>
       <r>   -18.0054     3.5713     1.9689 </r>
       <r>   -17.8912     1.3341     2.1214 </r>
       <r>   -17.7769     4.3914     2.6231 </r>
       <r>   -17.6626     6.7709     3.3968 </r>
       <r>   -17.5484     2.6149     3.6956 </r>
       <r>   -17.4341     0.6215     3.7666 </r>
       <r>   -17.3198     1.7108     3.9621 </r>
       <r>   -17.2056     4.9340     4.5259 </r>
       <r>   -17.0913     6.4491     5.2628 </r>
       <r>   -16.9770     1.7684     5.4649 </r>
       <r>   -16.8628     2.3723     5.7360 </r>
       <r>   -16.7485     2.1947     5.9868 </r>
       <r>   -16.6342    12.5863     7.4250 </r>
       <r>   -16.5200    29.5660    10.8034 </r>
       <r>   -16.4057    10.0333    11.9499 </r>
       <r>   -16.2914     0.4366    11.9998 </r>
       <r>   -16.1772     0.0021    12.0000 </r>
       <r>   -16.0629     0.0000    12.0000 </r>
       <r>   -15.9486     0.0000    12.0000 </r>
       <r>   -15.8344     0.0000    12.0000 </r>
       <r>   -15.7201     0.0000    12.0000 </r>
       <r>   -15.6058     0.0000    12.0000 </r>
       <r>   -15.4916     0.0000    12.0000 </r>
       <r>   -15.3773     0.0000    12.0000 </r>
       <r>   -15.2630     0.0000    12.0000 </r>
       <r>   -15.1488     0.0000    12.0000 </r>
       <r>   -15.0345     0.0000    12.0000 </r>
       <r>   -14.9202     0.0000    12.0000 </r>
       <r>   -14.8059     0.0000    12.0000 </r>
       <r>   -14.6917     0.0000    12.0000 </r>
       <r>   -14.5774     0.0000    12.0000 </r>
       <r>   -14.4631     0.0000    12.0000 </r>
       <r>   -14.3489     0.0000    12.0000 </r>
       <r>   -14.2346     0.0000    12.0000 </r>
       <r>   -14.1203     0.0000    12.0000 </r>
       <r>   -14.0061     0.0000    12.0000 </r>
       <r>   -13.8918     0.0000    12.0000 </r>
       <r>   -13.7775     0.0000    12.0000 </r>
       <r>   -13.6633     0.0000    12.0000 </r>
       <r>   -13.5490     0.0000    12.0000 </r>
       <r>   -13.4347     0.0000    12.0000 </r>
       <r>   -13.3205     0.0000    12.0000 </r>
       <r>   -13.2062     0.0000    12.0000 </r>
       <r>   -13.0919     0.0000    12.0000 </r>
       <r>   -12.9777     0.0000    12.0000 </r>
       <r>   -12.8634     0.0000    12.0000 </r>
       <r>   -12.7491     0.0000    12.0000 </r>
       <r>   -12.6349     0.0000    12.0000 </r>
       <r>   -12.5206     0.0000    12.0000 </r>
       <r>   -12.4063     0.0000    12.0000 </r>
       <r>   -12.2921     0.0000    12.0000 </r>
       <r>   -12.1778     0.0000    12.0000 </r>
       <r>   -12.0635     0.0000    12.0000 </r>
       <r>   -11.9493     0.0000    12.0000 </r>
       <r>   -11.8350     0.0000    12.0000 </r>
       <r>   -11.7207     0.0000    12.0000 </r>
       <r>   -11.6065     0.0000    12.0000 </r>
       <r>   -11.4922     0.0000    12.0000 </r>
       <r>   -11.3779     0.0000    12.0000 </r>
       <r>   -11.2637     0.0000    12.0000 </r>
       <r>   -11.1494     0.0000    12.0000 </r>
       <r>   -11.0351     0.0000    12.0000 </r>
       <r>   -10.9209     0.0000    12.0000 </r>
       <r>   -10.8066     0.0000    12.0000 </r>
       <r>   -10.6923     0.0000    12.0000 </r>
       <r>   -10.5781     0.0000    12.0000 </r>
       <r>   -10.4638     0.0000    12.0000 </r>
       <r>   -10.3495     0.0000    12.0000 </r>
       <r>   -10.2353     0.0000    12.0000 </r>
       <r>   -10.1210     0.0000    12.0000 </r>
       <r>   -10.0067     0.0000    12.0000 </r>
       <r>    -9.8925     0.0000    12.0000 </r>
       <r>    -9.7782     0.0000    12.0000 </r>
       <r>    -9.6639     0.0000    12.0000 </r>
       <r>    -9.5497     0.0000    12.0000 </r>
       <r>    -9.4354     0.0000    12.0000 </r>
       <r>    -9.3211     0.0000    12.0000 </r>
       <r>    -9.2069     0.0000    12.0000 </r>
       <r>    -9.0926     0.0000    12.0000 </r>
       <r>    -8.9783     0.0000    12.0000 </r>
       <r>    -8.8641     0.0002    12.0000 </r>
       <r>    -8.7498     0.0208    12.0024 </r>
       <r>    -8.6355     0.2622    12.0324 </r>
       <r>    -8.5212     0.3795    12.0757 </r>
       <r>    -8.4070     0.0850    12.0854 </r>
       <r>    -8.2927     0.6781    12.1629 </r>
       <r>    -8.1784     2.5053    12.4492 </r>
       <r>    -8.0642     1.1187    12.5770 </r>
       <r>    -7.9499     0.1336    12.5923 </r>
       <r>    -7.8356     1.2594    12.7362 </r>
       <r>    -7.7214     4.5889    13.2606 </r>
       <r>    -7.6071     5.5180    13.8911 </r>
       <r>    -7.4928     1.2813    14.0375 </r>
       <r>    -7.3786     0.1542    14.0551 </r>
       <r>    -7.2643     0.9829    14.1674 </r>
       <r>    -7.1500     0.9729    14.2786 </r>
       <r>    -7.0358     0.1130    14.2915 </r>
       <r>    -6.9215     0.0129    14.2930 </r>
       <r>    -6.8072     0.3771    14.3361 </r>
       <r>    -6.6930     2.4681    14.6181 </r>
       <r>    -6.5787     4.8763    15.1753 </r>
       <r>    -6.4644     2.9166    15.5086 </r>
       <r>    -6.3502     2.7105    15.8183 </r>
       <r>    -6.2359     1.2406    15.9601 </r>
       <r>    -6.1216     0.3223    15.9969 </r>
       <r>    -6.0074     0.0430    16.0018 </r>
       <r>    -5.8931     0.6155    16.0721 </r>
       <r>    -5.7788     2.7006    16.3807 </r>
       <r>    -5.6646     2.4388    16.6594 </r>
       <r>    -5.5503     1.9761    16.8852 </r>
       <r>    -5.4360     3.6184    17.2987 </r>
       <r>    -5.3218     1.8726    17.5126 </r>
       <r>    -5.2075     0.8128    17.6055 </r>
       <r>    -5.0932     0.6404    17.6787 </r>
       <r>    -4.9790     0.7222    17.7612 </r>
       <r>    -4.8647     3.7278    18.1872 </r>
       <r>    -4.7504     9.9318    19.3221 </r>
       <r>    -4.6362    10.3040    20.4995 </r>
       <r>    -4.5219     5.3442    21.1101 </r>
       <r>    -4.4076     3.5647    21.5175 </r>
       <r>    -4.2934     6.6220    22.2742 </r>
       <r>    -4.1791     7.8938    23.1762 </r>
       <r>    -4.0648     3.6122    23.5889 </r>
       <r>    -3.9506     2.2648    23.8477 </r>
       <r>    -3.8363     1.2352    23.9889 </r>
       <r>    -3.7220     0.0968    23.9999 </r>
       <r>    -3.6078     0.0008    24.0000 </r>
       <r>    -3.4935     0.0000    24.0000 </r>
       <r>    -3.3792     0.0000    24.0000 </r>
       <r>    -3.2650     0.0000    24.0000 </r>
       <r>    -3.1507     0.0000    24.0000 </r>
       <r>    -3.0364     0.0000    24.0000 </r>
       <r>    -2.9222     0.0000    24.0000 </r>
       <r>    -2.8079     0.0000    24.0000 </r>
       <r>    -2.6936     0.0032    24.0004 </r>
       <r>    -2.5794     0.3031    24.0350 </r>
       <r>    -2.4651     3.6407    24.4510 </r>
       <r>    -2.3508     9.0011    25.4795 </r>
       <r>    -2.2365     7.9067    26.3830 </r>
       <r>    -2.1223     6.8206    27.1624 </r>
       <r>    -2.0080     6.9077    27.9517 </r>
       <r>    -1.8937     7.5961    28.8197 </r>
       <r>    -1.7795     6.9344    29.6121 </r>
       <r>    -1.6652     4.8263    30.1636 </r>
       <r>    -1.5509     5.7139    30.8165 </r>
       <r>    -1.4367    10.6022    32.0279 </r>
       <r>    -1.3224    10.3004    33.2049 </r>
       <r>    -1.2081     6.7312    33.9741 </r>
       <r>    -1.0939     4.8546    34.5288 </r>
       <r>    -0.9796     7.9050    35.4321 </r>
       <r>    -0.8653     9.1872    36.4819 </r>
       <r>    -0.7511     9.2101    37.5343 </r>
       <r>    -0.6368     8.8229    38.5425 </r>
       <r>    -0.5225     5.0236    39.1165 </r>
       <r>    -0.4083     8.1996    40.0534 </r>
       <r>    -0.2940     9.0930    41.0925 </r>
       <r>    -0.1797     7.9763    42.0039 </r>
       <r>    -0.0655     7.1140    42.8168 </r>
       <r>     0.0488     7.0241    43.6194 </r>
       <r>     0.1631     6.4785    44.3597 </r>
       <r>     0.2773     5.4134    44.9783 </r>
       <r>     0.3916     8.6134    45.9625 </r>
       <r>     0.5059     9.0640    46.9982 </r>
       <r>     0.6201     6.1522    47.7012 </r>
       <r>     0.7344     2.4263    47.9785 </r>
       <r>     0.8487     0.1867    47.9998 </r>
       <r>     0.9629     0.0016    48.0000 </r>
       <r>     1.0772     0.0000    48.0000 </r>
       <r>     1.1915     0.0000    48.0000 </r>
       <r>     1.3057     0.0000    48.0000 </r>
       <r>     1.4200     0.0000    48.0000 </r>
       <r>     1.5343     0.0000    48.0000 </r>
       <r>     1.6485     0.0000    48.0000 </r>
       <r>     1.7628     0.0000    48.0000 </r>
       <r>     1.8771     0.0000    48.0000 </r>
       <r>     1.9913     0.0000    48.0000 </r>
       <r>     2.1056     0.0000    48.0000 </r>
       <r>     2.2199     0.0000    48.0000 </r>
       <r>     2.3341     0.0000    48.0000 </r>
       <r>     2.4484     0.0000    48.0000 </r>
       <r>     2.5627     0.0000    48.0000 </r>
       <r>     2.6769     0.0000    48.0000 </r>
       <r>     2.7912     0.0000    48.0000 </r>
       <r>     2.9055     0.0000    48.0000 </r>
       <r>     3.0197     0.0000    48.0000 </r>
       <r>     3.1340     0.0000    48.0000 </r>
       <r>     3.2483     0.0000    48.0000 </r>
       <r>     3.3625     0.0000    48.0000 </r>
       <r>     3.4768     0.0000    48.0000 </r>
       <r>     3.5911     0.0000    48.0000 </r>
       <r>     3.7053     0.0000    48.0000 </r>
       <r>     3.8196     0.0000    48.0000 </r>
       <r>     3.9339     0.0000    48.0000 </r>
       <r>     4.0482     0.0000    48.0000 </r>
       <r>     4.1624     0.0000    48.0000 </r>
       <r>     4.2767     0.0000    48.0000 </r>
       <r>     4.3910     0.0000    48.0000 </r>
       <r>     4.5052     0.0000    48.0000 </r>
       <r>     4.6195     0.0000    48.0000 </r>
       <r>     4.7338     0.0000    48.0000 </r>
       <r>     4.8480     0.0000    48.0000 </r>
       <r>     4.9623     0.0000    48.0000 </r>
       <r>     5.0766     0.0000    48.0000 </r>
       <r>     5.1908     0.0000    48.0000 </r>
       <r>     5.3051     0.0000    48.0000 </r>
       <r>     5.4194     0.0000    48.0000 </r>
       <r>     5.5336     0.0000    48.0000 </r>
       <r>     5.6479     0.0000    48.0000 </r>
       <r>     5.7622     0.0000    48.0000 </r>
       <r>     5.8764     0.0000    48.0000 </r>
       <r>     5.9907     0.0000    48.0000 </r>
       <r>     6.1050     0.0009    48.0001 </r>
       <r>     6.2192     0.0414    48.0048 </r>
       <r>     6.3335     0.1995    48.0276 </r>
       <r>     6.4478     0.1153    48.0408 </r>
       <r>     6.5620     0.0076    48.0417 </r>
       <r>     6.6763     0.0000    48.0417 </r>
       <r>     6.7906     0.0000    48.0417 </r>
       <r>     6.9048     0.0005    48.0417 </r>
       <r>     7.0191     0.0645    48.0491 </r>
       <r>     7.1334     0.8121    48.1419 </r>
       <r>     7.2476     1.3670    48.2981 </r>
       <r>     7.3619     0.5880    48.3653 </r>
       <r>     7.4762     0.0833    48.3748 </r>
       <r>     7.5904     0.0018    48.3750 </r>
       <r>     7.7047     0.0312    48.3786 </r>
       <r>     7.8190     0.7650    48.4660 </r>
       <r>     7.9332     2.4108    48.7415 </r>
       <r>     8.0475     1.1012    48.8673 </r>
       <r>     8.1618     0.0736    48.8757 </r>
       <r>     8.2760     0.2827    48.9080 </r>
       <r>     8.3903     1.4053    49.0686 </r>
       <r>     8.5046     1.2810    49.2150 </r>
       <r>     8.6188     0.5361    49.2762 </r>
       <r>     8.7331     2.1113    49.5175 </r>
       <r>     8.8474     2.9354    49.8529 </r>
       <r>     8.9616     1.2021    49.9903 </r>
       <r>     9.0759     0.4055    50.0366 </r>
       <r>     9.1902     0.8614    50.1350 </r>
       <r>     9.3044     2.1032    50.3754 </r>
       <r>     9.4187     2.9320    50.7104 </r>
       <r>     9.5330     4.1049    51.1794 </r>
       <r>     9.6472     7.7753    52.0679 </r>
       <r>     9.7615     8.0247    52.9849 </r>
       <r>     9.8758     3.0135    53.3292 </r>
       <r>     9.9900     5.8468    53.9973 </r>
       <r>    10.1043     5.5708    54.6339 </r>
       <r>    10.2186     2.5395    54.9241 </r>
       <r>    10.3328     2.8879    55.2541 </r>
       <r>    10.4471     6.3517    55.9799 </r>
       <r>    10.5614     6.4886    56.7213 </r>
       <r>    10.6757     6.4513    57.4585 </r>
       <r>    10.7899     6.9323    58.2506 </r>
       <r>    10.9042     9.1494    59.2961 </r>
       <r>    11.0185     7.2059    60.1195 </r>
       <r>    11.1327     4.4825    60.6317 </r>
       <r>    11.2470     3.0218    60.9770 </r>
       <r>    11.3613     3.3487    61.3596 </r>
       <r>    11.4755     3.9109    61.8065 </r>
       <r>    11.5898     4.7180    62.3456 </r>
       <r>    11.7041     4.5095    62.8609 </r>
       <r>    11.8183     3.9288    63.3098 </r>
       <r>    11.9326     2.4653    63.5915 </r>
       <r>    12.0469     0.4347    63.6412 </r>
       <r>    12.1611     1.1292    63.7702 </r>
       <r>    12.2754     1.3021    63.9190 </r>
       <r>    12.3897     0.3320    63.9570 </r>
       <r>    12.5039     0.1133    63.9699 </r>
       <r>    12.6182     0.2078    63.9937 </r>
       <r>    12.7325     0.0539    63.9998 </r>
       <r>    12.8467     0.0015    64.0000 </r>
       <r>    12.9610     0.0000    64.0000 </r>
       <r>    13.0753     0.0000    64.0000 </r>
       <r>    13.1895     0.0000    64.0000 </r>
       <r>    13.3038     0.0000    64.0000 </r>
       <r>    13.4181     0.0000    64.0000 </r>
       <r>    13.5323     0.0000    64.0000 </r>
       <r>    13.6466     0.0000    64.0000 </r>
       <r>    13.7609     0.0000    64.0000 </r>
       <r>    13.8751     0.0000    64.0000 </r>
       <r>    13.9894     0.0000    64.0000 </r>
       <r>    14.1037     0.0000    64.0000 </r>
      </set>
     </set>
    </array>
   </total>
  </dos>
 </calculation>
 <structure name="finalpos" >
  <crystal>
   <varray name="basis" >
    <v>       5.02189789       0.00000000       0.00000000 </v>
    <v>      -2.51094844       4.34909098       0.00000000 </v>
    <v>       0.00000000       0.00000000       5.51192941 </v>
   </varray>
   <i name="volume">    120.38434609 </i>
   <varray name="rec_basis" >
    <v>       0.19912790       0.11496653       0.00000000 </v>
    <v>      -0.00000000       0.22993311       0.00000000 </v>
    <v>       0.00000000       0.00000000       0.18142467 </v>
   </varray>
  </crystal>
  <varray name="positions" >
   <v>       0.00000000       0.47634315       0.66666700 </v>
   <v>       0.52365685       0.52365685       0.00000000 </v>
   <v>       0.47634315       0.00000000       0.33333300 </v>
   <v>       0.15890378       0.74400316       0.46134773 </v>
   <v>       0.25599684       0.41490062       0.79468073 </v>
   <v>       0.58509938       0.84109622       0.12801473 </v>
   <v>       0.74400316       0.15890378       0.53865227 </v>
   <v>       0.41490062       0.25599684       0.20531927 </v>
   <v>       0.84109622       0.58509938       0.87198527 </v>
  </varray>
 </structure>
</modeling>
