<?xml version="1.0" encoding="ISO-8859-1"?>
<modeling>
 <generator>
  <i name="program" type="string">vasp </i>
  <i name="version" type="string">6.1.1  </i>
  <i name="subversion" type="string">19Jun20 (build Sep 15 2020 22:57:04) complex                          parallel </i>
  <i name="platform" type="string">VASP6.1.1-r2SCAN-MP </i>
  <i name="date" type="string">2020 11 16 </i>
  <i name="time" type="string">13:47:40 </i>
 </generator>
 <incar>
  <i type="string" name="PREC"> Accurate</i>
  <i type="string" name="ALGO"> All</i>
  <i type="int" name="ISPIN">     2</i>
  <i type="int" name="NELM">   200</i>
  <i type="int" name="IBRION">     2</i>
  <i name="EDIFF">      0.00001000</i>
  <i name="EDIFFG">     -0.05000000</i>
  <i type="int" name="NSW">     0</i>
  <i type="int" name="ISIF">     3</i>
  <i name="ENCUT">    680.00000000</i>
  <i name="ENAUG">   1360.00000000</i>
  <v name="MAGMOM">      0.00000000      0.00000000</v>
  <i type="string" name="LREAL"> Auto</i>
  <i type="int" name="ISMEAR">     2</i>
  <i name="SIGMA">      0.20000000</i>
  <i name="KSPACING">      0.22000000</i>
  <i type="logical" name="LWAVE"> F  </i>
  <i type="logical" name="LCHARG"> T  </i>
  <i type="logical" name="LVTOT"> T  </i>
  <i type="logical" name="LELF"> T  </i>
  <i type="logical" name="LASPH"> T  </i>
  <i type="logical" name="LAECHG"> T  </i>
  <i type="string" name="ALGO"> All</i>
  <i type="int" name="NELM">   200</i>
  <i name="EDIFF">      0.00001000</i>
  <i type="string" name="METAGGA"> --</i>
  <i type="logical" name="LASPH"> T  </i>
  <i type="logical" name="LMIXTAU"> T  </i>
  <i type="int" name="ISPIN">     2</i>
 </incar>
 <structure name="primitive_cell" >
  <crystal>
   <varray name="basis" >
    <v>       0.00000000       2.04171400       2.04171400 </v>
    <v>       2.04171400       0.00000000       2.04171400 </v>
    <v>       2.04171400       2.04171400       0.00000000 </v>
   </varray>
   <i name="volume">     17.02216186 </i>
   <varray name="rec_basis" >
    <v>      -0.24489228       0.24489228       0.24489228 </v>
    <v>       0.24489228      -0.24489228       0.24489228 </v>
    <v>       0.24489228       0.24489228      -0.24489228 </v>
   </varray>
  </crystal>
  <varray name="positions" >
   <v>       0.00000000       0.00000000       0.00000000 </v>
   <v>       0.50000000       0.50000000       0.50000000 </v>
  </varray>
 </structure>
 <varray name="primitive_index" >
  <v type="int" >        1 </v>
  <v type="int" >        2 </v>
 </varray>
 <kpoints>
  <generation param="Gamma">
   <v type="int" name="divisions">      13       13       13 </v>
   <v name="usershift">      0.00000000       0.00000000       0.00000000 </v>
   <v name="genvec1">      0.07692308      -0.00000000       0.00000000 </v>
   <v name="genvec2">     -0.00000000       0.07692308      -0.00000000 </v>
   <v name="genvec3">      0.00000000       0.00000000       0.07692308 </v>
   <v name="shift">      0.00000000       0.00000000       0.00000000 </v>
  </generation>
  <varray name="kpointlist" >
   <v>       0.00000000       0.00000000       0.00000000 </v>
   <v>       0.07692308      -0.00000000       0.00000000 </v>
   <v>       0.15384615      -0.00000000       0.00000000 </v>
   <v>       0.23076923      -0.00000000       0.00000000 </v>
   <v>       0.30769231      -0.00000000       0.00000000 </v>
   <v>       0.38461538       0.00000000      -0.00000000 </v>
   <v>       0.46153846       0.00000000      -0.00000000 </v>
   <v>       0.07692308       0.07692308       0.00000000 </v>
   <v>       0.15384615       0.07692308       0.00000000 </v>
   <v>       0.23076923       0.07692308       0.00000000 </v>
   <v>       0.30769231       0.07692308       0.00000000 </v>
   <v>       0.38461538       0.07692308       0.00000000 </v>
   <v>       0.46153846       0.07692308       0.00000000 </v>
   <v>      -0.46153846       0.07692308       0.00000000 </v>
   <v>      -0.38461538       0.07692308      -0.00000000 </v>
   <v>      -0.30769231       0.07692308       0.00000000 </v>
   <v>      -0.23076923       0.07692308       0.00000000 </v>
   <v>      -0.15384615       0.07692308      -0.00000000 </v>
   <v>      -0.07692308       0.07692308      -0.00000000 </v>
   <v>       0.15384615       0.15384615      -0.00000000 </v>
   <v>       0.23076923       0.15384615       0.00000000 </v>
   <v>       0.30769231       0.15384615       0.00000000 </v>
   <v>       0.38461538       0.15384615       0.00000000 </v>
   <v>       0.46153846       0.15384615       0.00000000 </v>
   <v>      -0.46153846       0.15384615      -0.00000000 </v>
   <v>      -0.38461538       0.15384615      -0.00000000 </v>
   <v>      -0.30769231       0.15384615       0.00000000 </v>
   <v>      -0.23076923       0.15384615      -0.00000000 </v>
   <v>      -0.15384615       0.15384615      -0.00000000 </v>
   <v>       0.23076923       0.23076923       0.00000000 </v>
   <v>       0.30769231       0.23076923       0.00000000 </v>
   <v>       0.38461538       0.23076923       0.00000000 </v>
   <v>       0.46153846       0.23076923       0.00000000 </v>
   <v>      -0.46153846       0.23076923      -0.00000000 </v>
   <v>      -0.38461538       0.23076923      -0.00000000 </v>
   <v>      -0.30769231       0.23076923       0.00000000 </v>
   <v>      -0.23076923       0.23076923      -0.00000000 </v>
   <v>       0.30769231       0.30769231      -0.00000000 </v>
   <v>       0.38461538       0.30769231       0.00000000 </v>
   <v>       0.46153846       0.30769231       0.00000000 </v>
   <v>      -0.46153846       0.30769231      -0.00000000 </v>
   <v>      -0.38461538       0.30769231      -0.00000000 </v>
   <v>      -0.30769231       0.30769231      -0.00000000 </v>
   <v>       0.38461538       0.38461538       0.00000000 </v>
   <v>       0.46153846       0.38461538       0.00000000 </v>
   <v>      -0.46153846       0.38461538       0.00000000 </v>
   <v>      -0.38461538       0.38461538       0.00000000 </v>
   <v>       0.46153846       0.46153846      -0.00000000 </v>
   <v>      -0.46153846       0.46153846       0.00000000 </v>
   <v>       0.23076923       0.15384615       0.07692308 </v>
   <v>       0.30769231       0.15384615       0.07692308 </v>
   <v>       0.38461538       0.15384615       0.07692308 </v>
   <v>       0.46153846       0.15384615       0.07692308 </v>
   <v>      -0.46153846       0.15384615       0.07692308 </v>
   <v>       0.30769231       0.23076923       0.07692308 </v>
   <v>       0.38461538       0.23076923       0.07692308 </v>
   <v>       0.46153846       0.23076923       0.07692308 </v>
   <v>      -0.46153846       0.23076923       0.07692308 </v>
   <v>      -0.38461538       0.23076923       0.07692308 </v>
   <v>      -0.30769231       0.23076923       0.07692308 </v>
   <v>      -0.23076923       0.23076923       0.07692308 </v>
   <v>      -0.15384615       0.23076923       0.07692308 </v>
   <v>       0.38461538       0.30769231       0.07692308 </v>
   <v>       0.46153846       0.30769231       0.07692308 </v>
   <v>      -0.46153846       0.30769231       0.07692308 </v>
   <v>      -0.38461538       0.30769231       0.07692308 </v>
   <v>      -0.30769231       0.30769231       0.07692308 </v>
   <v>      -0.23076923       0.30769231       0.07692308 </v>
   <v>       0.46153846       0.38461538       0.07692308 </v>
   <v>      -0.46153846       0.38461538       0.07692308 </v>
   <v>      -0.38461538       0.38461538       0.07692308 </v>
   <v>      -0.30769231       0.38461538       0.07692308 </v>
   <v>      -0.46153846       0.46153846       0.07692308 </v>
   <v>      -0.38461538       0.46153846       0.07692308 </v>
   <v>       0.46153846       0.30769231       0.15384615 </v>
   <v>      -0.46153846       0.30769231       0.15384615 </v>
   <v>      -0.38461538       0.30769231       0.15384615 </v>
   <v>      -0.46153846       0.38461538       0.15384615 </v>
   <v>      -0.38461538       0.38461538       0.15384615 </v>
   <v>      -0.30769231       0.38461538       0.15384615 </v>
   <v>      -0.23076923       0.38461538       0.15384615 </v>
   <v>      -0.38461538       0.46153846       0.15384615 </v>
   <v>      -0.30769231       0.46153846       0.15384615 </v>
   <v>      -0.30769231       0.46153846       0.23076923 </v>
  </varray>
  <varray name="weights" >
   <v>       0.00045517 </v>
   <v>       0.00364133 </v>
   <v>       0.00364133 </v>
   <v>       0.00364133 </v>
   <v>       0.00364133 </v>
   <v>       0.00364133 </v>
   <v>       0.00364133 </v>
   <v>       0.00273100 </v>
   <v>       0.01092399 </v>
   <v>       0.01092399 </v>
   <v>       0.01092399 </v>
   <v>       0.01092399 </v>
   <v>       0.01092399 </v>
   <v>       0.01092399 </v>
   <v>       0.01092399 </v>
   <v>       0.01092399 </v>
   <v>       0.01092399 </v>
   <v>       0.01092399 </v>
   <v>       0.00546199 </v>
   <v>       0.00273100 </v>
   <v>       0.01092399 </v>
   <v>       0.01092399 </v>
   <v>       0.01092399 </v>
   <v>       0.01092399 </v>
   <v>       0.01092399 </v>
   <v>       0.01092399 </v>
   <v>       0.01092399 </v>
   <v>       0.01092399 </v>
   <v>       0.00546199 </v>
   <v>       0.00273100 </v>
   <v>       0.01092399 </v>
   <v>       0.01092399 </v>
   <v>       0.01092399 </v>
   <v>       0.01092399 </v>
   <v>       0.01092399 </v>
   <v>       0.01092399 </v>
   <v>       0.00546199 </v>
   <v>       0.00273100 </v>
   <v>       0.01092399 </v>
   <v>       0.01092399 </v>
   <v>       0.01092399 </v>
   <v>       0.01092399 </v>
   <v>       0.00546199 </v>
   <v>       0.00273100 </v>
   <v>       0.01092399 </v>
   <v>       0.01092399 </v>
   <v>       0.00546199 </v>
   <v>       0.00273100 </v>
   <v>       0.00546199 </v>
   <v>       0.01092399 </v>
   <v>       0.02184797 </v>
   <v>       0.02184797 </v>
   <v>       0.02184797 </v>
   <v>       0.02184797 </v>
   <v>       0.01092399 </v>
   <v>       0.02184797 </v>
   <v>       0.02184797 </v>
   <v>       0.02184797 </v>
   <v>       0.02184797 </v>
   <v>       0.02184797 </v>
   <v>       0.02184797 </v>
   <v>       0.01092399 </v>
   <v>       0.01092399 </v>
   <v>       0.02184797 </v>
   <v>       0.02184797 </v>
   <v>       0.02184797 </v>
   <v>       0.02184797 </v>
   <v>       0.01092399 </v>
   <v>       0.01092399 </v>
   <v>       0.02184797 </v>
   <v>       0.02184797 </v>
   <v>       0.01092399 </v>
   <v>       0.01092399 </v>
   <v>       0.01092399 </v>
   <v>       0.01092399 </v>
   <v>       0.02184797 </v>
   <v>       0.02184797 </v>
   <v>       0.01092399 </v>
   <v>       0.02184797 </v>
   <v>       0.02184797 </v>
   <v>       0.01092399 </v>
   <v>       0.01092399 </v>
   <v>       0.01092399 </v>
   <v>       0.01092399 </v>
  </varray>
 </kpoints>
 <parameters>
  <separator name="general" >
   <i type="string" name="SYSTEM">unknown system</i>
   <i type="logical" name="LCOMPAT"> F  </i>
  </separator>
  <separator name="electronic" >
   <i type="string" name="PREC">accura</i>
   <i name="ENMAX">    680.00000000</i>
   <i name="ENAUG">   1360.00000000</i>
   <i name="EDIFF">      0.00001000</i>
   <i type="int" name="IALGO">    58</i>
   <i type="int" name="IWAVPR">    10</i>
   <i type="int" name="NBANDS">    64</i>
   <i type="int" name="NBANDSLOW">    -1</i>
   <i type="int" name="NBANDSHIGH">    -1</i>
   <i name="NELECT">     10.00000000</i>
   <i type="int" name="TURBO">     0</i>
   <i type="int" name="IRESTART">     0</i>
   <i type="int" name="NREBOOT">     0</i>
   <i type="int" name="NMIN">     0</i>
   <i name="EREF">      0.00000000</i>
   <separator name="electronic smearing" >
    <i type="int" name="ISMEAR">     2</i>
    <i name="SIGMA">      0.20000000</i>
    <i name="KSPACING">      0.22000000</i>
    <i type="logical" name="KGAMMA"> T  </i>
    <i type="logical" name="KBLOWUP"> T  </i>
   </separator>
   <separator name="electronic projectors" >
    <i type="logical" name="LREAL"> T  </i>
    <v name="ROPT">     -0.00025000     -0.00025000</v>
    <i type="int" name="LMAXPAW">  -100</i>
    <i type="int" name="LMAXMIX">     2</i>
    <i type="logical" name="NLSPLINE"> F  </i>
   </separator>
   <separator name="electronic startup" >
    <i type="int" name="ISTART">     0</i>
    <i type="int" name="ICHARG">     2</i>
    <i type="int" name="INIWAV">     1</i>
   </separator>
   <separator name="electronic spin" >
    <i type="int" name="ISPIN">     2</i>
    <i type="logical" name="LNONCOLLINEAR"> F  </i>
    <v name="MAGMOM">      0.00000000      0.00000000</v>
    <i name="NUPDOWN">     -1.00000000</i>
    <i type="logical" name="LSORBIT"> F  </i>
    <v name="SAXIS">      0.00000000      0.00000000      1.00000000</v>
    <i type="logical" name="LSPIRAL"> F  </i>
    <v name="QSPIRAL">      0.00000000      0.00000000      0.00000000</v>
    <i type="logical" name="LZEROZ"> F  </i>
   </separator>
   <separator name="electronic exchange-correlation" >
    <i type="logical" name="LASPH"> T  </i>
    <i type="logical" name="LMETAGGA"> F  </i>
   </separator>
   <separator name="electronic convergence" >
    <i type="int" name="NELM">   200</i>
    <i type="int" name="NELMDL">     0</i>
    <i type="int" name="NELMIN">     2</i>
    <i name="ENINI">    680.00000000</i>
    <separator name="electronic convergence detail" >
     <i type="logical" name="LDIAG"> T  </i>
     <i type="logical" name="LSUBROT"> F  </i>
     <i name="WEIMIN">      0.00000000</i>
     <i name="EBREAK">      0.00000004</i>
     <i name="DEPER">      0.30000000</i>
     <i type="int" name="NRMM">     4</i>
     <i name="TIME">      0.40000000</i>
    </separator>
   </separator>
   <separator name="electronic mixer" >
    <i name="AMIX">      0.40000000</i>
    <i name="BMIX">      1.00000000</i>
    <i name="AMIN">      0.10000000</i>
    <i name="AMIX_MAG">      1.60000000</i>
    <i name="BMIX_MAG">      1.00000000</i>
    <separator name="electronic mixer details" >
     <i type="int" name="IMIX">     4</i>
     <i type="logical" name="MIXFIRST"> F  </i>
     <i type="int" name="MAXMIX">   -45</i>
     <i name="WC">    100.00000000</i>
     <i type="int" name="INIMIX">     1</i>
     <i type="int" name="MIXPRE">     1</i>
     <i type="int" name="MREMOVE">     5</i>
    </separator>
   </separator>
   <separator name="electronic dipolcorrection" >
    <i type="logical" name="LDIPOL"> F  </i>
    <i type="logical" name="LMONO"> F  </i>
    <i type="int" name="IDIPOL">     0</i>
    <i name="EPSILON">      1.00000000</i>
    <v name="DIPOL">   -100.00000000   -100.00000000   -100.00000000</v>
    <i name="EFIELD">      0.00000000</i>
   </separator>
  </separator>
  <separator name="grids" >
   <i type="int" name="NGX">    28</i>
   <i type="int" name="NGY">    28</i>
   <i type="int" name="NGZ">    28</i>
   <i type="int" name="NGXF">    56</i>
   <i type="int" name="NGYF">    56</i>
   <i type="int" name="NGZF">    56</i>
   <i type="logical" name="ADDGRID"> F  </i>
  </separator>
  <separator name="ionic" >
   <i type="int" name="NSW">     0</i>
   <i type="int" name="IBRION">    -1</i>
   <i type="int" name="MDALGO">     0</i>
   <i type="int" name="ISIF">     3</i>
   <i name="PSTRESS">      0.00000000</i>
   <i name="EDIFFG">     -0.05000000</i>
   <i type="int" name="NFREE">     1</i>
   <i name="POTIM">      0.50000000</i>
   <i name="SMASS">     -3.00000000</i>
   <i name="SCALEE">      1.00000000</i>
  </separator>
  <separator name="ionic md" >
   <i name="TEBEG">      0.00010000</i>
   <i name="TEEND">      0.00010000</i>
   <i type="int" name="NBLOCK">     1</i>
   <i type="int" name="KBLOCK">     1</i>
   <i type="int" name="NPACO">   256</i>
   <i name="APACO">     16.00000000</i>
  </separator>
  <separator name="symmetry" >
   <i type="int" name="ISYM">     2</i>
   <i name="SYMPREC">      0.00001000</i>
  </separator>
  <separator name="dos" >
   <i type="int" name="LORBIT">    11</i>
   <v name="RWIGS">     -1.00000000     -1.00000000</v>
   <i type="int" name="NEDOS">   301</i>
   <i name="EMIN">     10.00000000</i>
   <i name="EMAX">    -10.00000000</i>
   <i name="EFERMI">      0.00000000</i>
  </separator>
  <separator name="writing" >
   <i type="int" name="NWRITE">     2</i>
   <i type="logical" name="LWAVE"> F  </i>
   <i type="logical" name="LDOWNSAMPLE"> F  </i>
   <i type="logical" name="LCHARG"> T  </i>
   <i type="logical" name="LPARD"> F  </i>
   <i type="logical" name="LVTOT"> T  </i>
   <i type="logical" name="LVHAR"> F  </i>
   <i type="logical" name="LELF"> T  </i>
   <i type="logical" name="LOPTICS"> F  </i>
   <v name="STM">      0.00000000      0.00000000      0.00000000      0.00000000      0.00000000      0.00000000      0.00000000</v>
  </separator>
  <separator name="performance" >
   <i type="int" name="NPAR">    64</i>
   <i type="int" name="NSIM">     4</i>
   <i type="int" name="NBLK">    -1</i>
   <i type="logical" name="LPLANE"> T  </i>
   <i type="logical" name="LSCALAPACK"> T  </i>
   <i type="logical" name="LSCAAWARE"> T  </i>
   <i type="logical" name="LSCALU"> F  </i>
   <i type="logical" name="LASYNC"> F  </i>
   <i type="logical" name="LORBITALREAL"> F  </i>
  </separator>
  <separator name="miscellaneous" >
   <i type="int" name="IDIOT">     3</i>
   <i type="int" name="PHON_NSTRUCT">    -1</i>
   <i type="logical" name="LMUSIC"> F  </i>
   <v name="POMASS">      7.01000000     18.99800000</v>
   <v name="DARWINR">      0.00000000      0.00000000</v>
   <v name="DARWINV">      1.00000000      1.00000000</v>
   <i type="logical" name="LCORR"> T  </i>
  </separator>
  <i type="logical" name="GGA_COMPAT"> T  </i>
  <i type="logical" name="LBERRY"> F  </i>
  <i type="int" name="ICORELEVEL">     0</i>
  <i type="logical" name="LDAU"> F  </i>
  <i type="int" name="I_CONSTRAINED_M">     0</i>
  <separator name="electronic exchange-correlation" >
   <i type="string" name="GGA">RANDOMFUNCTIONAL</i>
   <i type="int" name="VOSKOWN">     0</i>
   <i type="logical" name="LHFCALC"> F  </i>
   <i type="string" name="PRECFOCK"></i>
   <i type="logical" name="LSYMGRAD"> F  </i>
   <i type="logical" name="LHFONE"> F  </i>
   <i type="logical" name="LRHFCALC"> F  </i>
   <i type="logical" name="LTHOMAS"> F  </i>
   <i type="logical" name="LMODELHF"> F  </i>
   <i type="logical" name="LFOCKACE"> F  </i>
   <i name="ENCUT4O">     -1.00000000</i>
   <i type="int" name="EXXOEP">     0</i>
   <i type="int" name="FOURORBIT">     0</i>
   <i name="AEXX">      0.00000000</i>
   <i name="HFALPHA">      0.00000000</i>
   <i name="MCALPHA">      0.00000000</i>
   <i name="ALDAX">      1.00000000</i>
   <i name="AGGAX">      1.00000000</i>
   <i name="ALDAC">      1.00000000</i>
   <i name="AGGAC">      1.00000000</i>
   <i type="int" name="NKREDX">     1</i>
   <i type="int" name="NKREDY">     1</i>
   <i type="int" name="NKREDZ">     1</i>
   <i type="logical" name="SHIFTRED"> F  </i>
   <i type="logical" name="ODDONLY"> F  </i>
   <i type="logical" name="EVENONLY"> F  </i>
   <i type="int" name="LMAXFOCK">     0</i>
   <i type="int" name="NMAXFOCKAE">     0</i>
   <i type="logical" name="LFOCKAEDFT"> F  </i>
   <i name="HFSCREEN">      0.00000000</i>
   <i name="HFSCREENC">      0.00000000</i>
   <i type="int" name="NBANDSGWLOW">     0</i>
  </separator>
  <separator name="vdW DFT" >
   <i type="logical" name="LUSE_VDW"> F  </i>
   <i name="Zab_VDW">     -0.84910000</i>
   <i name="PARAM1">      0.12340000</i>
   <i name="PARAM2">      1.00000000</i>
   <i name="PARAM3">      0.00000000</i>
  </separator>
  <separator name="model GW" >
   <i type="int" name="MODEL_GW">     0</i>
   <i name="MODEL_EPS0">      5.10664856</i>
   <i name="MODEL_ALPHA">      1.00000000</i>
  </separator>
  <separator name="linear response parameters" >
   <i type="logical" name="LEPSILON"> F  </i>
   <i type="logical" name="LRPA"> F  </i>
   <i type="logical" name="LNABLA"> F  </i>
   <i type="logical" name="LVEL"> F  </i>
   <i type="int" name="KINTER">     0</i>
   <i name="CSHIFT">      0.10000000</i>
   <i name="OMEGAMAX">     -1.00000000</i>
   <i name="DEG_THRESHOLD">      0.00200000</i>
   <i name="RTIME">     -0.10000000</i>
   <i name="WPLASMAI">      0.00000000</i>
   <v name="DFIELD">      0.00000000      0.00000000      0.00000000</v>
   <v name="WPLASMA">      0.00000000      0.00000000      0.00000000      0.00000000      0.00000000      0.00000000      0.00000000      0.00000000      0.00000000</v>
  </separator>
  <separator name="orbital magnetization" >
   <i type="logical" name="NUCIND"> F  </i>
   <v name="MAGPOS">      0.00000000      0.00000000      0.00000000</v>
   <i type="logical" name="LNICSALL"> T  </i>
   <i type="logical" name="ORBITALMAG"> F  </i>
   <i type="logical" name="LMAGBLOCH"> F  </i>
   <i type="logical" name="LCHIMAG"> F  </i>
   <i type="logical" name="LGAUGE"> T  </i>
   <i type="int" name="MAGATOM">     0</i>
   <v name="MAGDIPOL">      0.00000000      0.00000000      0.00000000</v>
   <v name="AVECCONST">      0.00000000      0.00000000      0.00000000</v>
  </separator>
  <separator name="response functions" >
   <i type="logical" name="LFINITE_TEMPERATURE"> F  </i>
   <i type="logical" name="LADDER"> F  </i>
   <i type="logical" name="LRPAFORCE"> F  </i>
   <i type="logical" name="LFXC"> F  </i>
   <i type="logical" name="LHARTREE"> T  </i>
   <i type="int" name="IBSE">     0</i>
   <v type="int" name="KPOINT">    -1     0     0     0</v>
   <i type="logical" name="LTCTC"> F  </i>
   <i type="logical" name="LTCTE"> F  </i>
   <i type="logical" name="LTETE"> F  </i>
   <i type="logical" name="LTRIPLET"> F  </i>
   <i type="logical" name="LFXCEPS"> F  </i>
   <i type="logical" name="LFXHEG"> F  </i>
   <i type="int" name="NATURALO">     2</i>
   <i type="logical" name="LHOLEGF"> F  </i>
   <i type="logical" name="L2ORDER"> F  </i>
   <i type="logical" name="LDMP1"> F  </i>
   <i type="logical" name="LMP2LT"> F  </i>
   <i type="logical" name="LSMP2LT"> F  </i>
   <i type="logical" name="LGWLF"> F  </i>
   <i name="ENCUTGW">     -2.00000000</i>
   <i name="ENCUTGWSOFT">     -2.00000000</i>
   <i name="ENCUTLF">     -1.00000000</i>
   <i type="logical" name="LESF_SPLINES"> F  </i>
   <i type="int" name="LMAXMP2">    -1</i>
   <i name="SCISSOR">      0.00000000</i>
   <i type="int" name="NOMEGA">     0</i>
   <i type="int" name="NOMEGAR">     0</i>
   <i type="int" name="NBANDSGW">    -1</i>
   <i type="int" name="NBANDSO">    -1</i>
   <i type="int" name="NBANDSV">    -1</i>
   <i type="int" name="NELM">   200</i>
   <i type="int" name="NELMHF">     1</i>
   <i type="int" name="DIM">     3</i>
   <i type="int" name="IESPILON">     4</i>
   <i type="int" name="ANTIRES">     0</i>
   <i name="OMEGAMAX">    -30.00000000</i>
   <i name="OMEGAMIN">    -30.00000000</i>
   <i name="OMEGATL">   -200.00000000</i>
   <i type="int" name="OMEGAGRID">     0</i>
   <i name="CSHIFT">     -0.10000000</i>
   <i type="logical" name="LSELFENERGY"> F  </i>
   <i type="logical" name="LSPECTRAL"> F  </i>
   <i type="logical" name="LSPECTRALGW"> F  </i>
   <i type="logical" name="LSINGLES"> F  </i>
   <i type="logical" name="LFERMIGW"> F  </i>
   <i type="logical" name="ODDONLYGW"> F  </i>
   <i type="logical" name="EVENONLYGW"> F  </i>
   <i type="int" name="NKREDLFX">     1</i>
   <i type="int" name="NKREDLFY">     1</i>
   <i type="int" name="NKREDLFZ">     1</i>
   <i type="int" name="MAXMEM">  2800</i>
   <i type="int" name="TELESCOPE">     0</i>
   <i type="int" name="NTAUPAR">    -1</i>
   <i type="int" name="NOMEGAPAR">    -1</i>
   <i name="LAMBDA">      1.00000000</i>
  </separator>
  <separator name="External order field" >
   <i name="OFIELD_KAPPA">      0.00000000</i>
   <v name="OFIELD_K">      0.00000000      0.00000000      0.00000000</v>
   <i name="OFIELD_Q6_NEAR">      0.00000000</i>
   <i name="OFIELD_Q6_FAR">      0.00000000</i>
   <i name="OFIELD_A">      0.00000000</i>
  </separator>
 </parameters>
 <atominfo>
  <atoms>       2 </atoms>
  <types>       2 </types>
  <array name="atoms" >
   <dimension dim="1">ion</dimension>
   <field type="string">element</field>
   <field type="int">atomtype</field>
   <set>
    <rc><c>Li</c><c>   1</c></rc>
    <rc><c>F </c><c>   2</c></rc>
   </set>
  </array>
  <array name="atomtypes" >
   <dimension dim="1">type</dimension>
   <field type="int">atomspertype</field>
   <field type="string">element</field>
   <field>mass</field>
   <field>valence</field>
   <field type="string">pseudopotential</field>
   <set>
    <rc><c>   1</c><c>Li</c><c>      7.01000000</c><c>      3.00000000</c><c>  PAW_PBE Li_sv 10Sep2004               </c></rc>
    <rc><c>   1</c><c>F </c><c>     18.99800000</c><c>      7.00000000</c><c>  PAW_PBE F 08Apr2002                   </c></rc>
   </set>
  </array>
 </atominfo>
 <structure name="initialpos" >
  <crystal>
   <varray name="basis" >
    <v>       0.00000000       2.04171400       2.04171400 </v>
    <v>       2.04171400       0.00000000       2.04171400 </v>
    <v>       2.04171400       2.04171400       0.00000000 </v>
   </varray>
   <i name="volume">     17.02216186 </i>
   <varray name="rec_basis" >
    <v>      -0.24489228       0.24489228       0.24489228 </v>
    <v>       0.24489228      -0.24489228       0.24489228 </v>
    <v>       0.24489228       0.24489228      -0.24489228 </v>
   </varray>
  </crystal>
  <varray name="positions" >
   <v>       0.00000000       0.00000000       0.00000000 </v>
   <v>       0.50000000       0.50000000       0.50000000 </v>
  </varray>
 </structure>
 <calculation>
  <scstep>
   <time name="total">   30.99   31.27</time>
   <energy>
    <i name="alphaZ">     19.24755120 </i>
    <i name="ewald">   -549.57268052 </i>
    <i name="hartreedc">   -217.48188625 </i>
    <i name="XCdc">     58.17704486 </i>
    <i name="pawpsdc">    610.11214258 </i>
    <i name="pawaedc">   -630.20601223 </i>
    <i name="eentropy">     -0.00000000 </i>
    <i name="bandstr">   -163.00253012 </i>
    <i name="atom">    862.41152047 </i>
    <i name="e_fr_energy">    -10.31485000 </i>
    <i name="e_wo_entrp">    -10.31485000 </i>
    <i name="e_0_energy">    -10.31485000 </i>
   </energy>
  </scstep>
  <scstep>
   <time name="total">   34.21   34.22</time>
   <energy>
    <i name="e_fr_energy">    -15.28235686 </i>
    <i name="e_wo_entrp">    -15.28612570 </i>
    <i name="e_0_energy">    -15.28329907 </i>
   </energy>
  </scstep>
  <scstep>
   <time name="total">   27.60   27.60</time>
   <energy>
    <i name="e_fr_energy">    -15.28461865 </i>
    <i name="e_wo_entrp">    -15.28461865 </i>
    <i name="e_0_energy">    -15.28461865 </i>
   </energy>
  </scstep>
  <scstep>
   <time name="total">   48.90   48.90</time>
   <energy>
    <i name="e_fr_energy">    -15.28461869 </i>
    <i name="e_wo_entrp">    -15.28461869 </i>
    <i name="e_0_energy">    -15.28461869 </i>
   </energy>
  </scstep>
  <scstep>
   <time name="total">   27.90   27.90</time>
   <energy>
    <i name="e_fr_energy">    -15.28461869 </i>
    <i name="e_wo_entrp">    -15.28461869 </i>
    <i name="e_0_energy">    -15.28461869 </i>
   </energy>
  </scstep>
  <scstep>
   <time name="total">   25.72   26.00</time>
   <energy>
    <i name="e_fr_energy">    -11.77976988 </i>
    <i name="e_wo_entrp">    -11.77976988 </i>
    <i name="e_0_energy">    -11.77976988 </i>
   </energy>
  </scstep>
  <scstep>
   <time name="total">   25.49   25.49</time>
   <energy>
    <i name="e_fr_energy">    -12.27518398 </i>
    <i name="e_wo_entrp">    -12.27805489 </i>
    <i name="e_0_energy">    -12.27590171 </i>
   </energy>
  </scstep>
  <scstep>
   <time name="total">   20.77   20.77</time>
   <energy>
    <i name="e_fr_energy">    -12.29136617 </i>
    <i name="e_wo_entrp">    -12.29136617 </i>
    <i name="e_0_energy">    -12.29136617 </i>
   </energy>
  </scstep>
  <scstep>
   <time name="total">   25.49   25.49</time>
   <energy>
    <i name="e_fr_energy">    -12.29453032 </i>
    <i name="e_wo_entrp">    -12.29453032 </i>
    <i name="e_0_energy">    -12.29453032 </i>
   </energy>
  </scstep>
  <scstep>
   <time name="total">   25.49   25.49</time>
   <energy>
    <i name="e_fr_energy">    -12.29632159 </i>
    <i name="e_wo_entrp">    -12.29632159 </i>
    <i name="e_0_energy">    -12.29632159 </i>
   </energy>
  </scstep>
  <scstep>
   <time name="total">   25.51   25.51</time>
   <energy>
    <i name="e_fr_energy">    -12.29637149 </i>
    <i name="e_wo_entrp">    -12.29637149 </i>
    <i name="e_0_energy">    -12.29637149 </i>
   </energy>
  </scstep>
  <scstep>
   <time name="total">   25.49   25.49</time>
   <energy>
    <i name="e_fr_energy">    -12.29639116 </i>
    <i name="e_wo_entrp">    -12.29639116 </i>
    <i name="e_0_energy">    -12.29639116 </i>
   </energy>
  </scstep>
  <scstep>
   <time name="total">   25.49   25.50</time>
   <energy>
    <i name="e_fr_energy">    -12.29640769 </i>
    <i name="e_wo_entrp">    -12.29640769 </i>
    <i name="e_0_energy">    -12.29640769 </i>
   </energy>
  </scstep>
  <scstep>
   <time name="total">   25.49   25.49</time>
   <energy>
    <i name="e_fr_energy">    -12.29642171 </i>
    <i name="e_wo_entrp">    -12.29642171 </i>
    <i name="e_0_energy">    -12.29642171 </i>
   </energy>
  </scstep>
  <scstep>
   <time name="total">   25.51   25.51</time>
   <energy>
    <i name="e_fr_energy">    -12.29643370 </i>
    <i name="e_wo_entrp">    -12.29643370 </i>
    <i name="e_0_energy">    -12.29643370 </i>
   </energy>
  </scstep>
  <scstep>
   <time name="total">   25.50   25.50</time>
   <energy>
    <i name="e_fr_energy">    -12.29644403 </i>
    <i name="e_wo_entrp">    -12.29644403 </i>
    <i name="e_0_energy">    -12.29644403 </i>
   </energy>
  </scstep>
  <scstep>
   <time name="total">   30.79   30.79</time>
   <energy>
    <i name="alphaZ">     19.24755120 </i>
    <i name="ewald">   -549.57268052 </i>
    <i name="hartreedc">   -232.65348966 </i>
    <i name="XCdc">     60.05206417 </i>
    <i name="pawpsdc">    708.53973106 </i>
    <i name="pawaedc">   -728.99955381 </i>
    <i name="eentropy">     -0.00000000 </i>
    <i name="bandstr">   -151.32159588 </i>
    <i name="atom">    862.41152047 </i>
    <i name="e_fr_energy">    -12.29645297 </i>
    <i name="e_wo_entrp">    -12.29645297 </i>
    <i name="e_0_energy">    -12.29645297 </i>
   </energy>
  </scstep>
  <structure>
   <crystal>
    <varray name="basis" >
     <v>       0.00000000       2.04171400       2.04171400 </v>
     <v>       2.04171400       0.00000000       2.04171400 </v>
     <v>       2.04171400       2.04171400       0.00000000 </v>
    </varray>
    <i name="volume">     17.02216186 </i>
    <varray name="rec_basis" >
     <v>      -0.24489228       0.24489228       0.24489228 </v>
     <v>       0.24489228      -0.24489228       0.24489228 </v>
     <v>       0.24489228       0.24489228      -0.24489228 </v>
    </varray>
   </crystal>
   <varray name="positions" >
    <v>       0.00000000       0.00000000       0.00000000 </v>
    <v>       0.50000000       0.50000000       0.50000000 </v>
   </varray>
  </structure>
  <varray name="forces" >
   <v>      -0.00000000       0.00000000       0.00000000 </v>
   <v>       0.00000000      -0.00000000      -0.00000000 </v>
  </varray>
  <varray name="stress" >
   <v>     -58.01875409       0.00000000      -0.00000000 </v>
   <v>       0.00000000     -58.01875409       0.00000000 </v>
   <v>       0.00000000       0.00000000     -58.01875409 </v>
  </varray>
  <energy>
   <i name="e_fr_energy">    -12.29645297 </i>
   <i name="e_wo_entrp">    -12.29645297 </i>
   <i name="e_0_energy">    -12.29645297 </i>
  </energy>
  <time name="totalsc">  508.68  509.66</time>
  <eigenvalues>
   <array>
    <dimension dim="1">band</dimension>
    <dimension dim="2">kpoint</dimension>
    <dimension dim="3">spin</dimension>
    <field>eigene</field>
    <field>occ</field>
    <set>
     <set comment="spin 1">
      <set comment="kpoint 1">
       <r>  -44.0607    1.0000 </r>
       <r>  -22.9918    1.0000 </r>
       <r>   -1.9197    1.0000 </r>
       <r>   -1.9197    1.0000 </r>
       <r>   -1.9197    1.0000 </r>
       <r>    7.8538    0.0000 </r>
       <r>   23.0508    0.0000 </r>
       <r>   23.0508    0.0000 </r>
       <r>   23.0509    0.0000 </r>
       <r>   23.3952    0.0000 </r>
       <r>   23.3955    0.0000 </r>
       <r>   23.3955    0.0000 </r>
       <r>   25.9022    0.0000 </r>
       <r>   30.2284    0.0000 </r>
       <r>   30.2284    0.0000 </r>
       <r>   43.7721    0.0000 </r>
       <r>   43.7721    0.0000 </r>
       <r>   43.7725    0.0000 </r>
       <r>   46.7321    0.0000 </r>
       <r>   63.2009    0.0000 </r>
       <r>   63.2014    0.0000 </r>
       <r>   63.2014    0.0000 </r>
       <r>   65.1563    0.0000 </r>
       <r>   67.3112    0.0000 </r>
       <r>   67.3112    0.0000 </r>
       <r>   68.2106    0.0000 </r>
       <r>   68.2112    0.0000 </r>
       <r>   68.2112    0.0000 </r>
       <r>   72.2006    0.0000 </r>
       <r>   72.2006    0.0000 </r>
       <r>   72.2007    0.0000 </r>
       <r>   83.0027    0.0000 </r>
       <r>   83.0031    0.0000 </r>
       <r>   88.9672    0.0000 </r>
       <r>   88.9678    0.0000 </r>
       <r>   88.9678    0.0000 </r>
       <r>   93.9677    0.0000 </r>
       <r>   93.9677    0.0000 </r>
       <r>   93.9679    0.0000 </r>
       <r>   95.2298    0.0000 </r>
       <r>   95.2305    0.0000 </r>
       <r>   95.2305    0.0000 </r>
       <r>   96.2092    0.0000 </r>
       <r>   96.8781    0.0000 </r>
       <r>   96.8786    0.0000 </r>
       <r>   96.8786    0.0000 </r>
       <r>   97.9573    0.0000 </r>
       <r>   98.4441    0.0000 </r>
       <r>   98.4445    0.0000 </r>
       <r>   98.4445    0.0000 </r>
       <r>   99.0402    0.0000 </r>
       <r>   99.0402    0.0000 </r>
       <r>  101.0067    0.0000 </r>
       <r>  101.0067    0.0000 </r>
       <r>  101.0073    0.0000 </r>
       <r>  101.5517    0.0000 </r>
       <r>  101.5517    0.0000 </r>
       <r>  101.5518    0.0000 </r>
       <r>  102.4644    0.0000 </r>
       <r>  120.5703    0.0000 </r>
       <r>  124.1560    0.0000 </r>
       <r>  124.1560    0.0000 </r>
       <r>  124.1579    0.0000 </r>
       <r>  133.9366    0.0000 </r>
      </set>
      <set comment="kpoint 2">
       <r>  -44.0580    1.0000 </r>
       <r>  -22.9710    1.0000 </r>
       <r>   -2.0821    1.0000 </r>
       <r>   -1.9330    1.0000 </r>
       <r>   -1.9330    1.0000 </r>
       <r>    8.0280    0.0000 </r>
       <r>   20.8954    0.0000 </r>
       <r>   22.2055    0.0000 </r>
       <r>   22.2056    0.0000 </r>
       <r>   24.0587    0.0000 </r>
       <r>   24.0587    0.0000 </r>
       <r>   24.3722    0.0000 </r>
       <r>   27.7447    0.0000 </r>
       <r>   30.8062    0.0000 </r>
       <r>   30.8062    0.0000 </r>
       <r>   42.9305    0.0000 </r>
       <r>   43.8613    0.0000 </r>
       <r>   43.8616    0.0000 </r>
       <r>   47.0542    0.0000 </r>
       <r>   61.0892    0.0000 </r>
       <r>   61.0894    0.0000 </r>
       <r>   62.9665    0.0000 </r>
       <r>   65.3240    0.0000 </r>
       <r>   65.8354    0.0000 </r>
       <r>   65.8357    0.0000 </r>
       <r>   68.3756    0.0000 </r>
       <r>   71.1418    0.0000 </r>
       <r>   71.1421    0.0000 </r>
       <r>   72.7071    0.0000 </r>
       <r>   72.9521    0.0000 </r>
       <r>   72.9522    0.0000 </r>
       <r>   82.7251    0.0000 </r>
       <r>   82.7255    0.0000 </r>
       <r>   87.0026    0.0000 </r>
       <r>   87.4785    0.0000 </r>
       <r>   87.4789    0.0000 </r>
       <r>   90.9789    0.0000 </r>
       <r>   90.9793    0.0000 </r>
       <r>   91.8630    0.0000 </r>
       <r>   93.6187    0.0000 </r>
       <r>   94.4141    0.0000 </r>
       <r>   94.5545    0.0000 </r>
       <r>   94.5546    0.0000 </r>
       <r>   95.4705    0.0000 </r>
       <r>   97.3391    0.0000 </r>
       <r>   97.3396    0.0000 </r>
       <r>   97.9653    0.0000 </r>
       <r>   98.7524    0.0000 </r>
       <r>   98.7527    0.0000 </r>
       <r>   99.9902    0.0000 </r>
       <r>   99.9904    0.0000 </r>
       <r>  100.5749    0.0000 </r>
       <r>  101.8954    0.0000 </r>
       <r>  102.6181    0.0000 </r>
       <r>  104.0725    0.0000 </r>
       <r>  104.0729    0.0000 </r>
       <r>  104.4159    0.0000 </r>
       <r>  104.4161    0.0000 </r>
       <r>  108.8337    0.0000 </r>
       <r>  120.4573    0.0000 </r>
       <r>  122.8276    0.0000 </r>
       <r>  122.8291    0.0000 </r>
       <r>  124.2813    0.0000 </r>
       <r>  134.3015    0.0000 </r>
      </set>
      <set comment="kpoint 3">
       <r>  -44.0504    1.0000 </r>
       <r>  -22.9129    1.0000 </r>
       <r>   -2.5094    1.0000 </r>
       <r>   -1.9703    1.0000 </r>
       <r>   -1.9703    1.0000 </r>
       <r>    8.4718    0.0000 </r>
       <r>   18.7433    0.0000 </r>
       <r>   21.0606    0.0000 </r>
       <r>   21.0608    0.0000 </r>
       <r>   24.9230    0.0000 </r>
       <r>   24.9231    0.0000 </r>
       <r>   25.0206    0.0000 </r>
       <r>   31.2042    0.0000 </r>
       <r>   32.2061    0.0000 </r>
       <r>   32.2061    0.0000 </r>
       <r>   41.1192    0.0000 </r>
       <r>   44.1267    0.0000 </r>
       <r>   44.1270    0.0000 </r>
       <r>   47.5003    0.0000 </r>
       <r>   57.2447    0.0000 </r>
       <r>   57.2448    0.0000 </r>
       <r>   62.3295    0.0000 </r>
       <r>   65.6636    0.0000 </r>
       <r>   65.9977    0.0000 </r>
       <r>   65.9979    0.0000 </r>
       <r>   68.8684    0.0000 </r>
       <r>   70.3688    0.0000 </r>
       <r>   70.3689    0.0000 </r>
       <r>   73.9422    0.0000 </r>
       <r>   77.4249    0.0000 </r>
       <r>   77.4249    0.0000 </r>
       <r>   81.4077    0.0000 </r>
       <r>   81.4077    0.0000 </r>
       <r>   83.7104    0.0000 </r>
       <r>   84.5609    0.0000 </r>
       <r>   84.5610    0.0000 </r>
       <r>   87.1044    0.0000 </r>
       <r>   88.1182    0.0000 </r>
       <r>   88.3416    0.0000 </r>
       <r>   88.3419    0.0000 </r>
       <r>   92.8319    0.0000 </r>
       <r>   93.0682    0.0000 </r>
       <r>   93.0683    0.0000 </r>
       <r>   96.0218    0.0000 </r>
       <r>   96.9036    0.0000 </r>
       <r>   96.9039    0.0000 </r>
       <r>   98.7185    0.0000 </r>
       <r>  100.2959    0.0000 </r>
       <r>  100.2961    0.0000 </r>
       <r>  104.0865    0.0000 </r>
       <r>  104.1211    0.0000 </r>
       <r>  104.1211    0.0000 </r>
       <r>  105.3057    0.0000 </r>
       <r>  107.2986    0.0000 </r>
       <r>  107.2990    0.0000 </r>
       <r>  107.4358    0.0000 </r>
       <r>  111.2235    0.0000 </r>
       <r>  111.2237    0.0000 </r>
       <r>  115.0611    0.0000 </r>
       <r>  119.7697    0.0000 </r>
       <r>  119.9160    0.0000 </r>
       <r>  119.9172    0.0000 </r>
       <r>  125.8880    0.0000 </r>
       <r>  134.1140    0.0000 </r>
      </set>
      <set comment="kpoint 4">
       <r>  -44.0398    1.0000 </r>
       <r>  -22.8293    1.0000 </r>
       <r>   -3.0650    1.0000 </r>
       <r>   -2.0217    1.0000 </r>
       <r>   -2.0217    1.0000 </r>
       <r>    8.9935    0.0000 </r>
       <r>   17.1242    0.0000 </r>
       <r>   19.9582    0.0000 </r>
       <r>   19.9584    0.0000 </r>
       <r>   25.8795    0.0000 </r>
       <r>   26.0154    0.0000 </r>
       <r>   26.0155    0.0000 </r>
       <r>   33.8479    0.0000 </r>
       <r>   33.8479    0.0000 </r>
       <r>   34.9325    0.0000 </r>
       <r>   39.2540    0.0000 </r>
       <r>   44.5258    0.0000 </r>
       <r>   44.5258    0.0000 </r>
       <r>   47.7569    0.0000 </r>
       <r>   53.7994    0.0000 </r>
       <r>   53.7994    0.0000 </r>
       <r>   61.5552    0.0000 </r>
       <r>   65.6423    0.0000 </r>
       <r>   66.6653    0.0000 </r>
       <r>   66.6655    0.0000 </r>
       <r>   68.6383    0.0000 </r>
       <r>   68.6384    0.0000 </r>
       <r>   69.6893    0.0000 </r>
       <r>   74.9192    0.0000 </r>
       <r>   77.1324    0.0000 </r>
       <r>   77.1324    0.0000 </r>
       <r>   79.2603    0.0000 </r>
       <r>   81.2765    0.0000 </r>
       <r>   81.2765    0.0000 </r>
       <r>   83.4562    0.0000 </r>
       <r>   83.6503    0.0000 </r>
       <r>   83.6505    0.0000 </r>
       <r>   84.6773    0.0000 </r>
       <r>   88.2403    0.0000 </r>
       <r>   88.2403    0.0000 </r>
       <r>   91.9732    0.0000 </r>
       <r>   92.4446    0.0000 </r>
       <r>   92.4447    0.0000 </r>
       <r>   95.1840    0.0000 </r>
       <r>   95.8598    0.0000 </r>
       <r>   95.8600    0.0000 </r>
       <r>  101.3653    0.0000 </r>
       <r>  103.8891    0.0000 </r>
       <r>  103.8892    0.0000 </r>
       <r>  105.6023    0.0000 </r>
       <r>  108.7764    0.0000 </r>
       <r>  108.7764    0.0000 </r>
       <r>  110.3900    0.0000 </r>
       <r>  110.6626    0.0000 </r>
       <r>  110.6631    0.0000 </r>
       <r>  113.3497    0.0000 </r>
       <r>  116.8935    0.0000 </r>
       <r>  116.8946    0.0000 </r>
       <r>  118.3374    0.0000 </r>
       <r>  118.6895    0.0000 </r>
       <r>  118.6897    0.0000 </r>
       <r>  118.9550    0.0000 </r>
       <r>  130.4578    0.0000 </r>
       <r>  131.7884    0.0000 </r>
      </set>
      <set comment="kpoint 5">
       <r>  -44.0286    1.0000 </r>
       <r>  -22.7379    1.0000 </r>
       <r>   -3.6095    1.0000 </r>
       <r>   -2.0750    1.0000 </r>
       <r>   -2.0750    1.0000 </r>
       <r>    9.3894    0.0000 </r>
       <r>   16.1282    0.0000 </r>
       <r>   19.0481    0.0000 </r>
       <r>   19.0483    0.0000 </r>
       <r>   26.9468    0.0000 </r>
       <r>   27.3169    0.0000 </r>
       <r>   27.3171    0.0000 </r>
       <r>   35.2210    0.0000 </r>
       <r>   35.2210    0.0000 </r>
       <r>   35.8037    0.0000 </r>
       <r>   40.6288    0.0000 </r>
       <r>   44.7944    0.0000 </r>
       <r>   44.7945    0.0000 </r>
       <r>   47.8200    0.0000 </r>
       <r>   51.5618    0.0000 </r>
       <r>   51.5619    0.0000 </r>
       <r>   60.7667    0.0000 </r>
       <r>   64.7670    0.0000 </r>
       <r>   65.9783    0.0000 </r>
       <r>   65.9784    0.0000 </r>
       <r>   67.8506    0.0000 </r>
       <r>   67.8509    0.0000 </r>
       <r>   70.8372    0.0000 </r>
       <r>   73.2143    0.0000 </r>
       <r>   74.4101    0.0000 </r>
       <r>   74.4102    0.0000 </r>
       <r>   75.3970    0.0000 </r>
       <r>   78.4550    0.0000 </r>
       <r>   78.4551    0.0000 </r>
       <r>   81.5606    0.0000 </r>
       <r>   84.0622    0.0000 </r>
       <r>   85.5913    0.0000 </r>
       <r>   85.5915    0.0000 </r>
       <r>   91.4404    0.0000 </r>
       <r>   91.4405    0.0000 </r>
       <r>   91.5151    0.0000 </r>
       <r>   92.0451    0.0000 </r>
       <r>   92.0452    0.0000 </r>
       <r>   94.5543    0.0000 </r>
       <r>   96.5302    0.0000 </r>
       <r>   96.5306    0.0000 </r>
       <r>  104.1421    0.0000 </r>
       <r>  106.6169    0.0000 </r>
       <r>  107.1410    0.0000 </r>
       <r>  107.1411    0.0000 </r>
       <r>  112.3288    0.0000 </r>
       <r>  112.3296    0.0000 </r>
       <r>  114.0252    0.0000 </r>
       <r>  114.0254    0.0000 </r>
       <r>  115.7781    0.0000 </r>
       <r>  115.8080    0.0000 </r>
       <r>  116.5591    0.0000 </r>
       <r>  116.5598    0.0000 </r>
       <r>  120.0652    0.0000 </r>
       <r>  121.4734    0.0000 </r>
       <r>  126.6013    0.0000 </r>
       <r>  126.6020    0.0000 </r>
       <r>  126.8439    0.0000 </r>
       <r>  126.8449    0.0000 </r>
      </set>
      <set comment="kpoint 6">
       <r>  -44.0193    1.0000 </r>
       <r>  -22.6601    1.0000 </r>
       <r>   -4.0341    1.0000 </r>
       <r>   -2.1181    1.0000 </r>
       <r>   -2.1181    1.0000 </r>
       <r>    9.5638    0.0000 </r>
       <r>   15.6929    0.0000 </r>
       <r>   18.4092    0.0000 </r>
       <r>   18.4095    0.0000 </r>
       <r>   28.1252    0.0000 </r>
       <r>   28.6481    0.0000 </r>
       <r>   28.6483    0.0000 </r>
       <r>   34.0879    0.0000 </r>
       <r>   35.9442    0.0000 </r>
       <r>   35.9443    0.0000 </r>
       <r>   44.4545    0.0000 </r>
       <r>   44.4548    0.0000 </r>
       <r>   45.0739    0.0000 </r>
       <r>   47.7854    0.0000 </r>
       <r>   51.2991    0.0000 </r>
       <r>   51.2993    0.0000 </r>
       <r>   59.2048    0.0000 </r>
       <r>   63.0578    0.0000 </r>
       <r>   63.0578    0.0000 </r>
       <r>   63.3612    0.0000 </r>
       <r>   69.0927    0.0000 </r>
       <r>   69.0931    0.0000 </r>
       <r>   69.3698    0.0000 </r>
       <r>   72.3080    0.0000 </r>
       <r>   72.6352    0.0000 </r>
       <r>   72.6354    0.0000 </r>
       <r>   74.6190    0.0000 </r>
       <r>   75.9392    0.0000 </r>
       <r>   75.9392    0.0000 </r>
       <r>   78.7762    0.0000 </r>
       <r>   85.6505    0.0000 </r>
       <r>   85.6507    0.0000 </r>
       <r>   86.0981    0.0000 </r>
       <r>   91.2176    0.0000 </r>
       <r>   91.5061    0.0000 </r>
       <r>   91.5062    0.0000 </r>
       <r>   94.4281    0.0000 </r>
       <r>   95.5268    0.0000 </r>
       <r>   95.5272    0.0000 </r>
       <r>   99.9936    0.0000 </r>
       <r>   99.9938    0.0000 </r>
       <r>  105.7305    0.0000 </r>
       <r>  107.1870    0.0000 </r>
       <r>  107.1879    0.0000 </r>
       <r>  107.4612    0.0000 </r>
       <r>  114.3498    0.0000 </r>
       <r>  114.3502    0.0000 </r>
       <r>  115.2663    0.0000 </r>
       <r>  119.1019    0.0000 </r>
       <r>  119.1044    0.0000 </r>
       <r>  119.8314    0.0000 </r>
       <r>  119.8374    0.0000 </r>
       <r>  120.5493    0.0000 </r>
       <r>  121.1284    0.0000 </r>
       <r>  121.1310    0.0000 </r>
       <r>  121.5546    0.0000 </r>
       <r>  126.4557    0.0000 </r>
       <r>  129.3366    0.0000 </r>
       <r>  129.9138    0.0000 </r>
      </set>
      <set comment="kpoint 7">
       <r>  -44.0141    1.0000 </r>
       <r>  -22.6152    1.0000 </r>
       <r>   -4.2654    1.0000 </r>
       <r>   -2.1423    1.0000 </r>
       <r>   -2.1423    1.0000 </r>
       <r>    9.5931    0.0000 </r>
       <r>   15.5844    0.0000 </r>
       <r>   18.0808    0.0000 </r>
       <r>   18.0811    0.0000 </r>
       <r>   29.1519    0.0000 </r>
       <r>   29.5965    0.0000 </r>
       <r>   29.5967    0.0000 </r>
       <r>   32.6786    0.0000 </r>
       <r>   36.0498    0.0000 </r>
       <r>   36.0500    0.0000 </r>
       <r>   43.9459    0.0000 </r>
       <r>   43.9463    0.0000 </r>
       <r>   47.5450    0.0000 </r>
       <r>   49.9240    0.0000 </r>
       <r>   52.2468    0.0000 </r>
       <r>   52.2470    0.0000 </r>
       <r>   55.6899    0.0000 </r>
       <r>   60.6832    0.0000 </r>
       <r>   60.6832    0.0000 </r>
       <r>   62.8692    0.0000 </r>
       <r>   67.3551    0.0000 </r>
       <r>   70.3657    0.0000 </r>
       <r>   70.3663    0.0000 </r>
       <r>   71.8506    0.0000 </r>
       <r>   71.8507    0.0000 </r>
       <r>   74.0198    0.0000 </r>
       <r>   74.0201    0.0000 </r>
       <r>   74.0676    0.0000 </r>
       <r>   74.2973    0.0000 </r>
       <r>   76.3595    0.0000 </r>
       <r>   85.5475    0.0000 </r>
       <r>   85.5477    0.0000 </r>
       <r>   87.6358    0.0000 </r>
       <r>   90.9695    0.0000 </r>
       <r>   91.1664    0.0000 </r>
       <r>   91.1665    0.0000 </r>
       <r>   94.7140    0.0000 </r>
       <r>   97.6769    0.0000 </r>
       <r>   97.6773    0.0000 </r>
       <r>  105.0512    0.0000 </r>
       <r>  105.0519    0.0000 </r>
       <r>  105.1939    0.0000 </r>
       <r>  106.4731    0.0000 </r>
       <r>  106.4733    0.0000 </r>
       <r>  108.9398    0.0000 </r>
       <r>  113.1105    0.0000 </r>
       <r>  113.1106    0.0000 </r>
       <r>  114.8474    0.0000 </r>
       <r>  118.3429    0.0000 </r>
       <r>  118.3430    0.0000 </r>
       <r>  121.1746    0.0000 </r>
       <r>  124.3936    0.0000 </r>
       <r>  124.3939    0.0000 </r>
       <r>  124.5538    0.0000 </r>
       <r>  124.5542    0.0000 </r>
       <r>  125.9381    0.0000 </r>
       <r>  125.9383    0.0000 </r>
       <r>  126.9224    0.0000 </r>
       <r>  127.6264    0.0000 </r>
      </set>
      <set comment="kpoint 8">
       <r>  -44.0571    1.0000 </r>
       <r>  -22.9638    1.0000 </r>
       <r>   -2.0649    1.0000 </r>
       <r>   -1.9757    1.0000 </r>
       <r>   -1.9757    1.0000 </r>
       <r>    8.0934    0.0000 </r>
       <r>   21.5285    0.0000 </r>
       <r>   21.6031    0.0000 </r>
       <r>   21.6031    0.0000 </r>
       <r>   22.4200    0.0000 </r>
       <r>   25.3798    0.0000 </r>
       <r>   25.3798    0.0000 </r>
       <r>   27.8581    0.0000 </r>
       <r>   30.4370    0.0000 </r>
       <r>   31.4012    0.0000 </r>
       <r>   43.1799    0.0000 </r>
       <r>   43.6245    0.0000 </r>
       <r>   43.6248    0.0000 </r>
       <r>   47.1797    0.0000 </r>
       <r>   61.0507    0.0000 </r>
       <r>   61.0508    0.0000 </r>
       <r>   62.3355    0.0000 </r>
       <r>   63.3895    0.0000 </r>
       <r>   65.3655    0.0000 </r>
       <r>   66.9792    0.0000 </r>
       <r>   70.0808    0.0000 </r>
       <r>   70.0810    0.0000 </r>
       <r>   71.8536    0.0000 </r>
       <r>   72.9916    0.0000 </r>
       <r>   72.9917    0.0000 </r>
       <r>   73.5872    0.0000 </r>
       <r>   82.6247    0.0000 </r>
       <r>   82.9243    0.0000 </r>
       <r>   85.4956    0.0000 </r>
       <r>   85.4959    0.0000 </r>
       <r>   87.5117    0.0000 </r>
       <r>   90.8544    0.0000 </r>
       <r>   92.5690    0.0000 </r>
       <r>   92.5694    0.0000 </r>
       <r>   93.4791    0.0000 </r>
       <r>   93.4793    0.0000 </r>
       <r>   95.1367    0.0000 </r>
       <r>   95.8567    0.0000 </r>
       <r>   96.0855    0.0000 </r>
       <r>   96.1851    0.0000 </r>
       <r>   96.1854    0.0000 </r>
       <r>   96.2035    0.0000 </r>
       <r>   96.6728    0.0000 </r>
       <r>   98.1304    0.0000 </r>
       <r>  100.1595    0.0000 </r>
       <r>  100.1595    0.0000 </r>
       <r>  101.2190    0.0000 </r>
       <r>  102.8009    0.0000 </r>
       <r>  103.2742    0.0000 </r>
       <r>  103.2742    0.0000 </r>
       <r>  106.8256    0.0000 </r>
       <r>  106.8258    0.0000 </r>
       <r>  107.0475    0.0000 </r>
       <r>  107.7873    0.0000 </r>
       <r>  119.2272    0.0000 </r>
       <r>  122.5361    0.0000 </r>
       <r>  124.0602    0.0000 </r>
       <r>  124.0615    0.0000 </r>
       <r>  134.0927    0.0000 </r>
      </set>
      <set comment="kpoint 9">
       <r>  -44.0512    1.0000 </r>
       <r>  -22.9174    1.0000 </r>
       <r>   -2.3911    1.0000 </r>
       <r>   -2.0385    1.0000 </r>
       <r>   -1.9959    1.0000 </r>
       <r>    8.4687    0.0000 </r>
       <r>   19.3116    0.0000 </r>
       <r>   20.8726    0.0000 </r>
       <r>   21.2805    0.0000 </r>
       <r>   22.4348    0.0000 </r>
       <r>   26.2180    0.0000 </r>
       <r>   26.3945    0.0000 </r>
       <r>   30.4653    0.0000 </r>
       <r>   31.2683    0.0000 </r>
       <r>   32.5697    0.0000 </r>
       <r>   41.7936    0.0000 </r>
       <r>   43.5364    0.0000 </r>
       <r>   44.0884    0.0000 </r>
       <r>   47.5877    0.0000 </r>
       <r>   57.4257    0.0000 </r>
       <r>   58.6433    0.0000 </r>
       <r>   62.0972    0.0000 </r>
       <r>   63.0413    0.0000 </r>
       <r>   65.6393    0.0000 </r>
       <r>   66.1615    0.0000 </r>
       <r>   70.4008    0.0000 </r>
       <r>   70.5741    0.0000 </r>
       <r>   72.7406    0.0000 </r>
       <r>   73.1099    0.0000 </r>
       <r>   75.4898    0.0000 </r>
       <r>   77.9602    0.0000 </r>
       <r>   81.1785    0.0000 </r>
       <r>   81.4030    0.0000 </r>
       <r>   83.2317    0.0000 </r>
       <r>   83.5262    0.0000 </r>
       <r>   85.0982    0.0000 </r>
       <r>   87.7518    0.0000 </r>
       <r>   89.1541    0.0000 </r>
       <r>   89.2078    0.0000 </r>
       <r>   91.2701    0.0000 </r>
       <r>   91.6632    0.0000 </r>
       <r>   93.9607    0.0000 </r>
       <r>   94.1217    0.0000 </r>
       <r>   95.1821    0.0000 </r>
       <r>   96.9269    0.0000 </r>
       <r>   97.2031    0.0000 </r>
       <r>   97.9359    0.0000 </r>
       <r>   99.0880    0.0000 </r>
       <r>   99.3461    0.0000 </r>
       <r>  100.0391    0.0000 </r>
       <r>  102.9976    0.0000 </r>
       <r>  104.5160    0.0000 </r>
       <r>  106.8327    0.0000 </r>
       <r>  107.2510    0.0000 </r>
       <r>  107.3350    0.0000 </r>
       <r>  107.9598    0.0000 </r>
       <r>  110.0223    0.0000 </r>
       <r>  112.5282    0.0000 </r>
       <r>  113.9527    0.0000 </r>
       <r>  116.3601    0.0000 </r>
       <r>  122.0252    0.0000 </r>
       <r>  122.8066    0.0000 </r>
       <r>  124.9434    0.0000 </r>
       <r>  134.0192    0.0000 </r>
      </set>
      <set comment="kpoint 10">
       <r>  -44.0417    1.0000 </r>
       <r>  -22.8410    1.0000 </r>
       <r>   -2.9028    1.0000 </r>
       <r>   -2.1064    1.0000 </r>
       <r>   -2.0368    1.0000 </r>
       <r>    8.9999    0.0000 </r>
       <r>   17.5067    0.0000 </r>
       <r>   20.0571    0.0000 </r>
       <r>   20.1689    0.0000 </r>
       <r>   23.4371    0.0000 </r>
       <r>   27.0086    0.0000 </r>
       <r>   27.2585    0.0000 </r>
       <r>   32.9702    0.0000 </r>
       <r>   33.7419    0.0000 </r>
       <r>   34.1684    0.0000 </r>
       <r>   39.9099    0.0000 </r>
       <r>   43.4850    0.0000 </r>
       <r>   44.9802    0.0000 </r>
       <r>   47.9465    0.0000 </r>
       <r>   53.8390    0.0000 </r>
       <r>   55.4034    0.0000 </r>
       <r>   62.0940    0.0000 </r>
       <r>   62.6966    0.0000 </r>
       <r>   65.5290    0.0000 </r>
       <r>   66.1259    0.0000 </r>
       <r>   69.5371    0.0000 </r>
       <r>   69.8652    0.0000 </r>
       <r>   73.3062    0.0000 </r>
       <r>   74.0482    0.0000 </r>
       <r>   76.6137    0.0000 </r>
       <r>   77.4718    0.0000 </r>
       <r>   80.5136    0.0000 </r>
       <r>   80.7123    0.0000 </r>
       <r>   82.1043    0.0000 </r>
       <r>   82.7235    0.0000 </r>
       <r>   83.1490    0.0000 </r>
       <r>   84.3832    0.0000 </r>
       <r>   85.8992    0.0000 </r>
       <r>   87.2053    0.0000 </r>
       <r>   88.6981    0.0000 </r>
       <r>   90.4031    0.0000 </r>
       <r>   92.6168    0.0000 </r>
       <r>   93.7242    0.0000 </r>
       <r>   95.6718    0.0000 </r>
       <r>   96.2090    0.0000 </r>
       <r>   97.8402    0.0000 </r>
       <r>  100.8501    0.0000 </r>
       <r>  101.8217    0.0000 </r>
       <r>  102.8620    0.0000 </r>
       <r>  103.8976    0.0000 </r>
       <r>  104.0297    0.0000 </r>
       <r>  108.4418    0.0000 </r>
       <r>  109.9945    0.0000 </r>
       <r>  111.4096    0.0000 </r>
       <r>  112.0458    0.0000 </r>
       <r>  113.2496    0.0000 </r>
       <r>  113.8294    0.0000 </r>
       <r>  114.4708    0.0000 </r>
       <r>  118.2873    0.0000 </r>
       <r>  119.4651    0.0000 </r>
       <r>  120.4527    0.0000 </r>
       <r>  120.9617    0.0000 </r>
       <r>  128.7751    0.0000 </r>
       <r>  132.4853    0.0000 </r>
      </set>
      <set comment="kpoint 11">
       <r>  -44.0307    1.0000 </r>
       <r>  -22.7507    1.0000 </r>
       <r>   -3.4454    1.0000 </r>
       <r>   -2.1633    1.0000 </r>
       <r>   -2.1050    1.0000 </r>
       <r>    9.4813    0.0000 </r>
       <r>   16.2839    0.0000 </r>
       <r>   19.2223    0.0000 </r>
       <r>   19.2683    0.0000 </r>
       <r>   24.6816    0.0000 </r>
       <r>   28.0231    0.0000 </r>
       <r>   28.2495    0.0000 </r>
       <r>   34.6526    0.0000 </r>
       <r>   34.8142    0.0000 </r>
       <r>   36.6876    0.0000 </r>
       <r>   39.6689    0.0000 </r>
       <r>   43.2878    0.0000 </r>
       <r>   45.9106    0.0000 </r>
       <r>   48.3308    0.0000 </r>
       <r>   51.4192    0.0000 </r>
       <r>   52.4976    0.0000 </r>
       <r>   61.0586    0.0000 </r>
       <r>   63.4470    0.0000 </r>
       <r>   64.3571    0.0000 </r>
       <r>   66.0869    0.0000 </r>
       <r>   68.4135    0.0000 </r>
       <r>   68.5552    0.0000 </r>
       <r>   72.4545    0.0000 </r>
       <r>   73.7705    0.0000 </r>
       <r>   74.1247    0.0000 </r>
       <r>   75.7518    0.0000 </r>
       <r>   76.5798    0.0000 </r>
       <r>   78.3428    0.0000 </r>
       <r>   79.8739    0.0000 </r>
       <r>   82.2747    0.0000 </r>
       <r>   84.6477    0.0000 </r>
       <r>   84.7499    0.0000 </r>
       <r>   86.3255    0.0000 </r>
       <r>   87.2357    0.0000 </r>
       <r>   89.8508    0.0000 </r>
       <r>   90.1688    0.0000 </r>
       <r>   93.3397    0.0000 </r>
       <r>   93.3839    0.0000 </r>
       <r>   95.0168    0.0000 </r>
       <r>   96.9116    0.0000 </r>
       <r>   99.6169    0.0000 </r>
       <r>  101.6136    0.0000 </r>
       <r>  105.6452    0.0000 </r>
       <r>  105.8885    0.0000 </r>
       <r>  107.2260    0.0000 </r>
       <r>  108.4633    0.0000 </r>
       <r>  109.4717    0.0000 </r>
       <r>  111.1720    0.0000 </r>
       <r>  113.9275    0.0000 </r>
       <r>  114.8555    0.0000 </r>
       <r>  117.0680    0.0000 </r>
       <r>  118.1953    0.0000 </r>
       <r>  119.4313    0.0000 </r>
       <r>  119.7261    0.0000 </r>
       <r>  121.9069    0.0000 </r>
       <r>  122.2344    0.0000 </r>
       <r>  126.9419    0.0000 </r>
       <r>  127.9524    0.0000 </r>
       <r>  128.7782    0.0000 </r>
      </set>
      <set comment="kpoint 12">
       <r>  -44.0208    1.0000 </r>
       <r>  -22.6668    1.0000 </r>
       <r>   -3.9029    1.0000 </r>
       <r>   -2.1967    1.0000 </r>
       <r>   -2.1842    1.0000 </r>
       <r>    9.7589    0.0000 </r>
       <r>   15.6487    0.0000 </r>
       <r>   18.5466    0.0000 </r>
       <r>   18.6272    0.0000 </r>
       <r>   26.0763    0.0000 </r>
       <r>   29.1203    0.0000 </r>
       <r>   29.2845    0.0000 </r>
       <r>   34.4092    0.0000 </r>
       <r>   36.0773    0.0000 </r>
       <r>   36.2571    0.0000 </r>
       <r>   42.9666    0.0000 </r>
       <r>   43.6901    0.0000 </r>
       <r>   45.8311    0.0000 </r>
       <r>   48.7055    0.0000 </r>
       <r>   50.7210    0.0000 </r>
       <r>   51.3876    0.0000 </r>
       <r>   59.8072    0.0000 </r>
       <r>   61.9818    0.0000 </r>
       <r>   63.7146    0.0000 </r>
       <r>   64.5200    0.0000 </r>
       <r>   67.0147    0.0000 </r>
       <r>   68.0610    0.0000 </r>
       <r>   70.4063    0.0000 </r>
       <r>   71.1123    0.0000 </r>
       <r>   72.8921    0.0000 </r>
       <r>   74.6554    0.0000 </r>
       <r>   75.1401    0.0000 </r>
       <r>   76.4455    0.0000 </r>
       <r>   78.0129    0.0000 </r>
       <r>   82.4272    0.0000 </r>
       <r>   82.9868    0.0000 </r>
       <r>   85.2714    0.0000 </r>
       <r>   85.8945    0.0000 </r>
       <r>   89.1448    0.0000 </r>
       <r>   91.1515    0.0000 </r>
       <r>   91.2702    0.0000 </r>
       <r>   94.8876    0.0000 </r>
       <r>   95.4180    0.0000 </r>
       <r>   97.7865    0.0000 </r>
       <r>   98.6017    0.0000 </r>
       <r>   99.9557    0.0000 </r>
       <r>  104.1023    0.0000 </r>
       <r>  106.0060    0.0000 </r>
       <r>  107.8215    0.0000 </r>
       <r>  108.4342    0.0000 </r>
       <r>  111.8591    0.0000 </r>
       <r>  112.4921    0.0000 </r>
       <r>  113.2991    0.0000 </r>
       <r>  115.4585    0.0000 </r>
       <r>  116.2548    0.0000 </r>
       <r>  120.3980    0.0000 </r>
       <r>  121.3041    0.0000 </r>
       <r>  122.1525    0.0000 </r>
       <r>  122.5020    0.0000 </r>
       <r>  124.2146    0.0000 </r>
       <r>  124.4996    0.0000 </r>
       <r>  125.3797    0.0000 </r>
       <r>  129.0010    0.0000 </r>
       <r>  129.3805    0.0000 </r>
      </set>
      <set comment="kpoint 13">
       <r>  -44.0143    1.0000 </r>
       <r>  -22.6100    1.0000 </r>
       <r>   -4.1929    1.0000 </r>
       <r>   -2.2559    1.0000 </r>
       <r>   -2.1998    1.0000 </r>
       <r>    9.8405    0.0000 </r>
       <r>   15.4314    0.0000 </r>
       <r>   18.1762    0.0000 </r>
       <r>   18.2202    0.0000 </r>
       <r>   27.4893    0.0000 </r>
       <r>   29.7948    0.0000 </r>
       <r>   29.9680    0.0000 </r>
       <r>   33.5979    0.0000 </r>
       <r>   36.2123    0.0000 </r>
       <r>   36.2932    0.0000 </r>
       <r>   43.2059    0.0000 </r>
       <r>   44.4556    0.0000 </r>
       <r>   47.9996    0.0000 </r>
       <r>   49.0113    0.0000 </r>
       <r>   51.5264    0.0000 </r>
       <r>   52.4357    0.0000 </r>
       <r>   57.0975    0.0000 </r>
       <r>   59.8268    0.0000 </r>
       <r>   61.9230    0.0000 </r>
       <r>   62.4875    0.0000 </r>
       <r>   67.2624    0.0000 </r>
       <r>   67.9236    0.0000 </r>
       <r>   69.2788    0.0000 </r>
       <r>   69.6221    0.0000 </r>
       <r>   71.5515    0.0000 </r>
       <r>   73.7696    0.0000 </r>
       <r>   74.2665    0.0000 </r>
       <r>   76.9490    0.0000 </r>
       <r>   77.0569    0.0000 </r>
       <r>   80.9028    0.0000 </r>
       <r>   82.4095    0.0000 </r>
       <r>   84.7621    0.0000 </r>
       <r>   87.0332    0.0000 </r>
       <r>   89.5618    0.0000 </r>
       <r>   91.6153    0.0000 </r>
       <r>   91.8310    0.0000 </r>
       <r>   96.8082    0.0000 </r>
       <r>   96.8213    0.0000 </r>
       <r>   99.5318    0.0000 </r>
       <r>  101.3715    0.0000 </r>
       <r>  104.8540    0.0000 </r>
       <r>  105.1347    0.0000 </r>
       <r>  105.5149    0.0000 </r>
       <r>  106.8679    0.0000 </r>
       <r>  109.3886    0.0000 </r>
       <r>  114.3773    0.0000 </r>
       <r>  114.5772    0.0000 </r>
       <r>  115.1246    0.0000 </r>
       <r>  117.0486    0.0000 </r>
       <r>  117.9746    0.0000 </r>
       <r>  118.4541    0.0000 </r>
       <r>  120.2109    0.0000 </r>
       <r>  122.6866    0.0000 </r>
       <r>  123.9533    0.0000 </r>
       <r>  124.1032    0.0000 </r>
       <r>  126.2292    0.0000 </r>
       <r>  126.8807    0.0000 </r>
       <r>  129.0595    0.0000 </r>
       <r>  129.1586    0.0000 </r>
      </set>
      <set comment="kpoint 14">
       <r>  -44.0125    1.0000 </r>
       <r>  -22.5948    1.0000 </r>
       <r>   -4.2664    1.0000 </r>
       <r>   -2.3034    1.0000 </r>
       <r>   -2.1721    1.0000 </r>
       <r>    9.8447    0.0000 </r>
       <r>   15.3897    0.0000 </r>
       <r>   18.1007    0.0000 </r>
       <r>   18.1066    0.0000 </r>
       <r>   28.6707    0.0000 </r>
       <r>   29.3906    0.0000 </r>
       <r>   29.7370    0.0000 </r>
       <r>   33.6186    0.0000 </r>
       <r>   36.0954    0.0000 </r>
       <r>   36.3578    0.0000 </r>
       <r>   43.1578    0.0000 </r>
       <r>   44.2502    0.0000 </r>
       <r>   48.2528    0.0000 </r>
       <r>   51.2835    0.0000 </r>
       <r>   52.3543    0.0000 </r>
       <r>   52.5423    0.0000 </r>
       <r>   54.7595    0.0000 </r>
       <r>   60.0140    0.0000 </r>
       <r>   60.1820    0.0000 </r>
       <r>   61.9985    0.0000 </r>
       <r>   67.8243    0.0000 </r>
       <r>   67.8852    0.0000 </r>
       <r>   68.6359    0.0000 </r>
       <r>   69.7174    0.0000 </r>
       <r>   71.0419    0.0000 </r>
       <r>   73.1813    0.0000 </r>
       <r>   73.9916    0.0000 </r>
       <r>   76.7869    0.0000 </r>
       <r>   77.7541    0.0000 </r>
       <r>   80.0119    0.0000 </r>
       <r>   82.6090    0.0000 </r>
       <r>   84.4719    0.0000 </r>
       <r>   87.0000    0.0000 </r>
       <r>   89.9383    0.0000 </r>
       <r>   91.7494    0.0000 </r>
       <r>   91.9008    0.0000 </r>
       <r>   96.4530    0.0000 </r>
       <r>   98.3158    0.0000 </r>
       <r>   99.6179    0.0000 </r>
       <r>  103.6373    0.0000 </r>
       <r>  103.9330    0.0000 </r>
       <r>  105.0222    0.0000 </r>
       <r>  108.0052    0.0000 </r>
       <r>  108.7281    0.0000 </r>
       <r>  109.9052    0.0000 </r>
       <r>  112.1119    0.0000 </r>
       <r>  112.2332    0.0000 </r>
       <r>  115.2239    0.0000 </r>
       <r>  118.1070    0.0000 </r>
       <r>  118.8086    0.0000 </r>
       <r>  119.2366    0.0000 </r>
       <r>  121.9957    0.0000 </r>
       <r>  122.5957    0.0000 </r>
       <r>  123.1907    0.0000 </r>
       <r>  123.9638    0.0000 </r>
       <r>  126.0342    0.0000 </r>
       <r>  126.8120    0.0000 </r>
       <r>  127.5369    0.0000 </r>
       <r>  127.9896    0.0000 </r>
      </set>
      <set comment="kpoint 15">
       <r>  -44.0160    1.0000 </r>
       <r>  -22.6255    1.0000 </r>
       <r>   -4.1120    1.0000 </r>
       <r>   -2.3160    1.0000 </r>
       <r>   -2.1199    1.0000 </r>
       <r>    9.8184    0.0000 </r>
       <r>   15.4441    0.0000 </r>
       <r>   18.2978    0.0000 </r>
       <r>   18.3112    0.0000 </r>
       <r>   28.1804    0.0000 </r>
       <r>   28.5725    0.0000 </r>
       <r>   29.3764    0.0000 </r>
       <r>   34.1442    0.0000 </r>
       <r>   35.9814    0.0000 </r>
       <r>   36.6248    0.0000 </r>
       <r>   42.6186    0.0000 </r>
       <r>   45.7459    0.0000 </r>
       <r>   46.8387    0.0000 </r>
       <r>   48.3592    0.0000 </r>
       <r>   50.9291    0.0000 </r>
       <r>   52.0907    0.0000 </r>
       <r>   58.2301    0.0000 </r>
       <r>   60.9693    0.0000 </r>
       <r>   61.8408    0.0000 </r>
       <r>   63.4759    0.0000 </r>
       <r>   66.5356    0.0000 </r>
       <r>   68.2408    0.0000 </r>
       <r>   70.2471    0.0000 </r>
       <r>   70.3319    0.0000 </r>
       <r>   71.0310    0.0000 </r>
       <r>   73.5603    0.0000 </r>
       <r>   74.5342    0.0000 </r>
       <r>   76.7150    0.0000 </r>
       <r>   77.4876    0.0000 </r>
       <r>   81.6489    0.0000 </r>
       <r>   83.1388    0.0000 </r>
       <r>   84.4660    0.0000 </r>
       <r>   86.2360    0.0000 </r>
       <r>   89.3221    0.0000 </r>
       <r>   91.1148    0.0000 </r>
       <r>   92.0938    0.0000 </r>
       <r>   95.9076    0.0000 </r>
       <r>   97.0219    0.0000 </r>
       <r>   99.0270    0.0000 </r>
       <r>  101.3816    0.0000 </r>
       <r>  102.4042    0.0000 </r>
       <r>  105.5563    0.0000 </r>
       <r>  106.2287    0.0000 </r>
       <r>  106.5075    0.0000 </r>
       <r>  108.6891    0.0000 </r>
       <r>  113.3716    0.0000 </r>
       <r>  113.9854    0.0000 </r>
       <r>  116.2056    0.0000 </r>
       <r>  117.6075    0.0000 </r>
       <r>  117.7365    0.0000 </r>
       <r>  119.2796    0.0000 </r>
       <r>  119.7862    0.0000 </r>
       <r>  120.6571    0.0000 </r>
       <r>  122.2126    0.0000 </r>
       <r>  124.1452    0.0000 </r>
       <r>  125.4599    0.0000 </r>
       <r>  127.6061    0.0000 </r>
       <r>  128.3743    0.0000 </r>
       <r>  129.9232    0.0000 </r>
      </set>
      <set comment="kpoint 16">
       <r>  -44.0238    1.0000 </r>
       <r>  -22.6939    1.0000 </r>
       <r>   -3.7560    1.0000 </r>
       <r>   -2.2899    1.0000 </r>
       <r>   -2.0546    1.0000 </r>
       <r>    9.6752    0.0000 </r>
       <r>   15.7527    0.0000 </r>
       <r>   18.7584    0.0000 </r>
       <r>   18.8219    0.0000 </r>
       <r>   27.0078    0.0000 </r>
       <r>   27.0423    0.0000 </r>
       <r>   29.0008    0.0000 </r>
       <r>   34.9920    0.0000 </r>
       <r>   35.5982    0.0000 </r>
       <r>   36.4479    0.0000 </r>
       <r>   41.9933    0.0000 </r>
       <r>   43.2219    0.0000 </r>
       <r>   46.7361    0.0000 </r>
       <r>   48.1134    0.0000 </r>
       <r>   50.3549    0.0000 </r>
       <r>   51.7270    0.0000 </r>
       <r>   60.2913    0.0000 </r>
       <r>   63.1341    0.0000 </r>
       <r>   63.7411    0.0000 </r>
       <r>   65.7850    0.0000 </r>
       <r>   65.8617    0.0000 </r>
       <r>   69.2590    0.0000 </r>
       <r>   70.8772    0.0000 </r>
       <r>   72.3563    0.0000 </r>
       <r>   73.4946    0.0000 </r>
       <r>   74.1637    0.0000 </r>
       <r>   75.3080    0.0000 </r>
       <r>   76.3631    0.0000 </r>
       <r>   78.9732    0.0000 </r>
       <r>   83.5941    0.0000 </r>
       <r>   83.9842    0.0000 </r>
       <r>   84.7092    0.0000 </r>
       <r>   85.0428    0.0000 </r>
       <r>   88.7188    0.0000 </r>
       <r>   90.0037    0.0000 </r>
       <r>   90.6939    0.0000 </r>
       <r>   93.5313    0.0000 </r>
       <r>   95.9223    0.0000 </r>
       <r>   96.7327    0.0000 </r>
       <r>   98.6342    0.0000 </r>
       <r>   99.7277    0.0000 </r>
       <r>  103.8080    0.0000 </r>
       <r>  106.6019    0.0000 </r>
       <r>  106.8632    0.0000 </r>
       <r>  108.5199    0.0000 </r>
       <r>  109.4612    0.0000 </r>
       <r>  112.9160    0.0000 </r>
       <r>  113.7781    0.0000 </r>
       <r>  115.3350    0.0000 </r>
       <r>  115.3796    0.0000 </r>
       <r>  116.8744    0.0000 </r>
       <r>  117.3778    0.0000 </r>
       <r>  122.0011    0.0000 </r>
       <r>  122.4660    0.0000 </r>
       <r>  123.7105    0.0000 </r>
       <r>  125.6766    0.0000 </r>
       <r>  126.1089    0.0000 </r>
       <r>  128.5790    0.0000 </r>
       <r>  129.9101    0.0000 </r>
      </set>
      <set comment="kpoint 17">
       <r>  -44.0344    1.0000 </r>
       <r>  -22.7824    1.0000 </r>
       <r>   -3.2610    1.0000 </r>
       <r>   -2.2290    1.0000 </r>
       <r>   -1.9905    1.0000 </r>
       <r>    9.3159    0.0000 </r>
       <r>   16.5497    0.0000 </r>
       <r>   19.3878    0.0000 </r>
       <r>   19.6657    0.0000 </r>
       <r>   25.5612    0.0000 </r>
       <r>   25.9344    0.0000 </r>
       <r>   28.1223    0.0000 </r>
       <r>   34.2427    0.0000 </r>
       <r>   34.7095    0.0000 </r>
       <r>   36.3329    0.0000 </r>
       <r>   38.9951    0.0000 </r>
       <r>   43.4019    0.0000 </r>
       <r>   46.1013    0.0000 </r>
       <r>   47.9398    0.0000 </r>
       <r>   51.6124    0.0000 </r>
       <r>   53.7334    0.0000 </r>
       <r>   61.3167    0.0000 </r>
       <r>   63.6132    0.0000 </r>
       <r>   65.1540    0.0000 </r>
       <r>   66.0064    0.0000 </r>
       <r>   67.0556    0.0000 </r>
       <r>   70.6176    0.0000 </r>
       <r>   73.3428    0.0000 </r>
       <r>   73.5002    0.0000 </r>
       <r>   75.4677    0.0000 </r>
       <r>   76.2756    0.0000 </r>
       <r>   77.9125    0.0000 </r>
       <r>   77.9871    0.0000 </r>
       <r>   80.8732    0.0000 </r>
       <r>   82.4572    0.0000 </r>
       <r>   83.6338    0.0000 </r>
       <r>   86.0315    0.0000 </r>
       <r>   86.5064    0.0000 </r>
       <r>   87.4110    0.0000 </r>
       <r>   88.1239    0.0000 </r>
       <r>   88.7946    0.0000 </r>
       <r>   91.9765    0.0000 </r>
       <r>   92.7176    0.0000 </r>
       <r>   96.4647    0.0000 </r>
       <r>   98.6188    0.0000 </r>
       <r>   99.2429    0.0000 </r>
       <r>  100.8201    0.0000 </r>
       <r>  103.4007    0.0000 </r>
       <r>  105.3039    0.0000 </r>
       <r>  106.9944    0.0000 </r>
       <r>  108.1071    0.0000 </r>
       <r>  110.0630    0.0000 </r>
       <r>  110.4141    0.0000 </r>
       <r>  113.0644    0.0000 </r>
       <r>  113.5922    0.0000 </r>
       <r>  114.7010    0.0000 </r>
       <r>  115.7514    0.0000 </r>
       <r>  116.4900    0.0000 </r>
       <r>  118.8787    0.0000 </r>
       <r>  121.5699    0.0000 </r>
       <r>  123.4615    0.0000 </r>
       <r>  123.4930    0.0000 </r>
       <r>  128.5665    0.0000 </r>
       <r>  131.2063    0.0000 </r>
      </set>
      <set comment="kpoint 18">
       <r>  -44.0452    1.0000 </r>
       <r>  -22.8700    1.0000 </r>
       <r>   -2.7260    1.0000 </r>
       <r>   -2.1424    1.0000 </r>
       <r>   -1.9420    1.0000 </r>
       <r>    8.7951    0.0000 </r>
       <r>   17.9167    0.0000 </r>
       <r>   20.1102    0.0000 </r>
       <r>   20.7920    0.0000 </r>
       <r>   24.3199    0.0000 </r>
       <r>   25.0880    0.0000 </r>
       <r>   27.1496    0.0000 </r>
       <r>   32.5848    0.0000 </r>
       <r>   32.9876    0.0000 </r>
       <r>   33.4016    0.0000 </r>
       <r>   40.2943    0.0000 </r>
       <r>   43.4253    0.0000 </r>
       <r>   45.0817    0.0000 </r>
       <r>   47.7144    0.0000 </r>
       <r>   54.4236    0.0000 </r>
       <r>   56.9827    0.0000 </r>
       <r>   62.1987    0.0000 </r>
       <r>   63.3065    0.0000 </r>
       <r>   65.3282    0.0000 </r>
       <r>   65.7781    0.0000 </r>
       <r>   68.9250    0.0000 </r>
       <r>   71.4805    0.0000 </r>
       <r>   72.8093    0.0000 </r>
       <r>   74.0550    0.0000 </r>
       <r>   77.0681    0.0000 </r>
       <r>   78.9971    0.0000 </r>
       <r>   80.2414    0.0000 </r>
       <r>   80.9560    0.0000 </r>
       <r>   81.3253    0.0000 </r>
       <r>   81.9633    0.0000 </r>
       <r>   84.1517    0.0000 </r>
       <r>   85.3337    0.0000 </r>
       <r>   87.9210    0.0000 </r>
       <r>   88.4542    0.0000 </r>
       <r>   88.6942    0.0000 </r>
       <r>   89.6824    0.0000 </r>
       <r>   91.0573    0.0000 </r>
       <r>   92.8115    0.0000 </r>
       <r>   95.6920    0.0000 </r>
       <r>   98.8860    0.0000 </r>
       <r>   98.9728    0.0000 </r>
       <r>   99.4382    0.0000 </r>
       <r>  100.1938    0.0000 </r>
       <r>  102.9327    0.0000 </r>
       <r>  104.0047    0.0000 </r>
       <r>  104.8241    0.0000 </r>
       <r>  106.0422    0.0000 </r>
       <r>  106.1243    0.0000 </r>
       <r>  108.2377    0.0000 </r>
       <r>  111.1731    0.0000 </r>
       <r>  111.5916    0.0000 </r>
       <r>  114.1117    0.0000 </r>
       <r>  116.0085    0.0000 </r>
       <r>  116.2486    0.0000 </r>
       <r>  117.3036    0.0000 </r>
       <r>  117.9729    0.0000 </r>
       <r>  123.0310    0.0000 </r>
       <r>  127.1443    0.0000 </r>
       <r>  132.2291    0.0000 </r>
      </set>
      <set comment="kpoint 19">
       <r>  -44.0537    1.0000 </r>
       <r>  -22.9375    1.0000 </r>
       <r>   -2.2892    1.0000 </r>
       <r>   -2.0360    1.0000 </r>
       <r>   -1.9210    1.0000 </r>
       <r>    8.2998    0.0000 </r>
       <r>   19.6631    0.0000 </r>
       <r>   20.9105    0.0000 </r>
       <r>   22.0278    0.0000 </r>
       <r>   23.4847    0.0000 </r>
       <r>   24.5142    0.0000 </r>
       <r>   26.0162    0.0000 </r>
       <r>   29.6782    0.0000 </r>
       <r>   31.2357    0.0000 </r>
       <r>   31.9657    0.0000 </r>
       <r>   42.0228    0.0000 </r>
       <r>   43.5065    0.0000 </r>
       <r>   44.3246    0.0000 </r>
       <r>   47.3770    0.0000 </r>
       <r>   57.9722    0.0000 </r>
       <r>   59.9830    0.0000 </r>
       <r>   62.8345    0.0000 </r>
       <r>   63.9557    0.0000 </r>
       <r>   65.1516    0.0000 </r>
       <r>   65.5506    0.0000 </r>
       <r>   70.1742    0.0000 </r>
       <r>   71.8057    0.0000 </r>
       <r>   72.2540    0.0000 </r>
       <r>   72.9034    0.0000 </r>
       <r>   73.0669    0.0000 </r>
       <r>   76.9504    0.0000 </r>
       <r>   82.0671    0.0000 </r>
       <r>   82.3055    0.0000 </r>
       <r>   84.1850    0.0000 </r>
       <r>   84.5935    0.0000 </r>
       <r>   85.3946    0.0000 </r>
       <r>   89.5954    0.0000 </r>
       <r>   90.0441    0.0000 </r>
       <r>   90.6811    0.0000 </r>
       <r>   91.2335    0.0000 </r>
       <r>   92.0204    0.0000 </r>
       <r>   92.1812    0.0000 </r>
       <r>   94.0320    0.0000 </r>
       <r>   94.5610    0.0000 </r>
       <r>   95.5484    0.0000 </r>
       <r>   98.9203    0.0000 </r>
       <r>   99.5010    0.0000 </r>
       <r>   99.5743    0.0000 </r>
       <r>  101.6220    0.0000 </r>
       <r>  101.6451    0.0000 </r>
       <r>  101.9449    0.0000 </r>
       <r>  102.4415    0.0000 </r>
       <r>  102.7143    0.0000 </r>
       <r>  102.9148    0.0000 </r>
       <r>  105.8911    0.0000 </r>
       <r>  107.9815    0.0000 </r>
       <r>  108.9575    0.0000 </r>
       <r>  109.4765    0.0000 </r>
       <r>  112.7306    0.0000 </r>
       <r>  119.3996    0.0000 </r>
       <r>  119.7903    0.0000 </r>
       <r>  124.0220    0.0000 </r>
       <r>  124.1269    0.0000 </r>
       <r>  133.9468    0.0000 </r>
      </set>
      <set comment="kpoint 20">
       <r>  -44.0472    1.0000 </r>
       <r>  -22.8826    1.0000 </r>
       <r>   -2.4804    1.0000 </r>
       <r>   -2.1299    1.0000 </r>
       <r>   -2.1299    1.0000 </r>
       <r>    8.7858    0.0000 </r>
       <r>   19.5159    0.0000 </r>
       <r>   20.4996    0.0000 </r>
       <r>   20.4997    0.0000 </r>
       <r>   20.7042    0.0000 </r>
       <r>   28.0604    0.0000 </r>
       <r>   28.0605    0.0000 </r>
       <r>   31.0594    0.0000 </r>
       <r>   31.1715    0.0000 </r>
       <r>   33.2491    0.0000 </r>
       <r>   42.4189    0.0000 </r>
       <r>   43.1753    0.0000 </r>
       <r>   43.1756    0.0000 </r>
       <r>   48.0102    0.0000 </r>
       <r>   57.3766    0.0000 </r>
       <r>   58.0244    0.0000 </r>
       <r>   58.0244    0.0000 </r>
       <r>   63.9449    0.0000 </r>
       <r>   65.4404    0.0000 </r>
       <r>   65.9323    0.0000 </r>
       <r>   70.6658    0.0000 </r>
       <r>   70.6659    0.0000 </r>
       <r>   72.0961    0.0000 </r>
       <r>   76.1732    0.0000 </r>
       <r>   76.1734    0.0000 </r>
       <r>   79.3514    0.0000 </r>
       <r>   80.0179    0.0000 </r>
       <r>   80.0181    0.0000 </r>
       <r>   81.5428    0.0000 </r>
       <r>   82.1719    0.0000 </r>
       <r>   82.8623    0.0000 </r>
       <r>   87.5428    0.0000 </r>
       <r>   90.9037    0.0000 </r>
       <r>   90.9039    0.0000 </r>
       <r>   91.8735    0.0000 </r>
       <r>   91.8737    0.0000 </r>
       <r>   91.9293    0.0000 </r>
       <r>   93.0446    0.0000 </r>
       <r>   93.9016    0.0000 </r>
       <r>   94.1142    0.0000 </r>
       <r>   94.1145    0.0000 </r>
       <r>   98.3658    0.0000 </r>
       <r>  100.3802    0.0000 </r>
       <r>  100.8699    0.0000 </r>
       <r>  103.3810    0.0000 </r>
       <r>  103.3810    0.0000 </r>
       <r>  104.6224    0.0000 </r>
       <r>  105.1182    0.0000 </r>
       <r>  110.6411    0.0000 </r>
       <r>  110.6411    0.0000 </r>
       <r>  112.7655    0.0000 </r>
       <r>  113.5016    0.0000 </r>
       <r>  113.5018    0.0000 </r>
       <r>  114.0601    0.0000 </r>
       <r>  116.0474    0.0000 </r>
       <r>  123.8047    0.0000 </r>
       <r>  123.8059    0.0000 </r>
       <r>  124.3454    0.0000 </r>
       <r>  133.1128    0.0000 </r>
      </set>
      <set comment="kpoint 21">
       <r>  -44.0394    1.0000 </r>
       <r>  -22.8153    1.0000 </r>
       <r>   -2.8719    1.0000 </r>
       <r>   -2.2232    1.0000 </r>
       <r>   -2.2017    1.0000 </r>
       <r>    9.3157    0.0000 </r>
       <r>   17.8832    0.0000 </r>
       <r>   19.8177    0.0000 </r>
       <r>   20.0079    0.0000 </r>
       <r>   21.1254    0.0000 </r>
       <r>   29.1038    0.0000 </r>
       <r>   29.1146    0.0000 </r>
       <r>   32.2738    0.0000 </r>
       <r>   33.7889    0.0000 </r>
       <r>   34.0168    0.0000 </r>
       <r>   40.9797    0.0000 </r>
       <r>   42.8614    0.0000 </r>
       <r>   44.0832    0.0000 </r>
       <r>   48.5900    0.0000 </r>
       <r>   53.8208    0.0000 </r>
       <r>   56.0603    0.0000 </r>
       <r>   58.2936    0.0000 </r>
       <r>   63.4224    0.0000 </r>
       <r>   64.5032    0.0000 </r>
       <r>   66.1121    0.0000 </r>
       <r>   70.0868    0.0000 </r>
       <r>   70.7442    0.0000 </r>
       <r>   72.5818    0.0000 </r>
[...]
        <r>  0.0556  0.0055  0.0000  0.0726  0.0000  0.0000  0.0000  0.0000  0.0000 </r>
       </set>
       <set comment="band 44">
        <r>  0.0006  0.2352  0.0000  0.0025  0.0000  0.0000  0.0000  0.0000  0.0000 </r>
        <r>  0.0233  0.0093  0.0000  0.0200  0.0000  0.0000  0.0000  0.0000  0.0000 </r>
       </set>
       <set comment="band 45">
        <r>  0.0000  0.0000  0.0099  0.0000  0.0000  0.0000  0.0000  0.0000  0.0000 </r>
        <r>  0.0000  0.0000  0.0392  0.0000  0.0000  0.0000  0.0000  0.0000  0.0000 </r>
       </set>
       <set comment="band 46">
        <r>  0.0000  0.0000  0.0518  0.0000  0.0000  0.0000  0.0000  0.0000  0.0000 </r>
        <r>  0.0000  0.0000  0.0509  0.0000  0.0000  0.0000  0.0000  0.0000  0.0000 </r>
       </set>
       <set comment="band 47">
        <r>  0.0545  0.0439  0.0000  0.0033  0.0000  0.0000  0.0000  0.0000  0.0000 </r>
        <r>  0.0015  0.0003  0.0000  0.0179  0.0000  0.0000  0.0000  0.0000  0.0000 </r>
       </set>
       <set comment="band 48">
        <r>  0.0491  0.0201  0.0000  0.1364  0.0000  0.0000  0.0000  0.0000  0.0000 </r>
        <r>  0.0322  0.0014  0.0000  0.0215  0.0000  0.0000  0.0000  0.0000  0.0000 </r>
       </set>
       <set comment="band 49">
        <r>  0.0000  0.3063  0.0000  0.0608  0.0000  0.0000  0.0000  0.0000  0.0000 </r>
        <r>  0.0107  0.0398  0.0000  0.0042  0.0000  0.0000  0.0000  0.0000  0.0000 </r>
       </set>
       <set comment="band 50">
        <r>  0.0000  0.0000  0.0010  0.0000  0.0000  0.0000  0.0000  0.0000  0.0000 </r>
        <r>  0.0000  0.0000  0.0380  0.0000  0.0000  0.0000  0.0000  0.0000  0.0000 </r>
       </set>
       <set comment="band 51">
        <r>  0.0033  0.3022  0.0000  0.0055  0.0000  0.0000  0.0000  0.0000  0.0000 </r>
        <r>  0.0000  0.0179  0.0000  0.0047  0.0000  0.0000  0.0000  0.0000  0.0000 </r>
       </set>
       <set comment="band 52">
        <r>  0.0000  0.0000  0.2709  0.0000  0.0000  0.0000  0.0000  0.0000  0.0000 </r>
        <r>  0.0000  0.0000  0.0000  0.0000  0.0000  0.0000  0.0000  0.0000  0.0000 </r>
       </set>
       <set comment="band 53">
        <r>  0.0067  0.0042  0.0000  0.2182  0.0000  0.0000  0.0000  0.0000  0.0000 </r>
        <r>  0.1622  0.0069  0.0000  0.0172  0.0000  0.0000  0.0000  0.0000  0.0000 </r>
       </set>
       <set comment="band 54">
        <r>  0.0196  0.1083  0.0000  0.2225  0.0000  0.0000  0.0000  0.0000  0.0000 </r>
        <r>  0.0202  0.0345  0.0000  0.0267  0.0000  0.0000  0.0000  0.0000  0.0000 </r>
       </set>
       <set comment="band 55">
        <r>  0.0000  0.0000  0.4267  0.0000  0.0000  0.0000  0.0000  0.0000  0.0000 </r>
        <r>  0.0000  0.0000  0.0023  0.0000  0.0000  0.0000  0.0000  0.0000  0.0000 </r>
       </set>
       <set comment="band 56">
        <r>  0.0000  0.0000  0.1041  0.0000  0.0000  0.0000  0.0000  0.0000  0.0000 </r>
        <r>  0.0000  0.0000  0.0773  0.0000  0.0000  0.0000  0.0000  0.0000  0.0000 </r>
       </set>
       <set comment="band 57">
        <r>  0.0165  0.1392  0.0000  0.0381  0.0000  0.0000  0.0000  0.0000  0.0000 </r>
        <r>  0.0977  0.0323  0.0000  0.0079  0.0000  0.0000  0.0000  0.0000  0.0000 </r>
       </set>
       <set comment="band 58">
        <r>  0.0230  0.0613  0.0000  0.0000  0.0000  0.0000  0.0000  0.0000  0.0000 </r>
        <r>  0.0018  0.0675  0.0000  0.0376  0.0000  0.0000  0.0000  0.0000  0.0000 </r>
       </set>
       <set comment="band 59">
        <r>  0.0000  0.0000  0.0588  0.0000  0.0000  0.0000  0.0000  0.0000  0.0000 </r>
        <r>  0.0000  0.0000  0.0001  0.0000  0.0000  0.0000  0.0000  0.0000  0.0000 </r>
       </set>
       <set comment="band 60">
        <r>  0.0431  0.0320  0.0000  0.1752  0.0000  0.0000  0.0000  0.0000  0.0000 </r>
        <r>  0.0330  0.0001  0.0000  0.0358  0.0000  0.0000  0.0000  0.0000  0.0000 </r>
       </set>
       <set comment="band 61">
        <r>  0.0000  0.0000  0.1465  0.0000  0.0000  0.0000  0.0000  0.0000  0.0000 </r>
        <r>  0.0000  0.0000  0.0033  0.0000  0.0000  0.0000  0.0000  0.0000  0.0000 </r>
       </set>
       <set comment="band 62">
        <r>  0.0124  0.1454  0.0000  0.1392  0.0000  0.0000  0.0000  0.0000  0.0000 </r>
        <r>  0.0194  0.0019  0.0000  0.0486  0.0000  0.0000  0.0000  0.0000  0.0000 </r>
       </set>
       <set comment="band 63">
        <r>  0.0000  0.0000  0.0648  0.0000  0.0000  0.0000  0.0000  0.0000  0.0000 </r>
        <r>  0.0000  0.0000  0.0654  0.0000  0.0000  0.0000  0.0000  0.0000  0.0000 </r>
       </set>
       <set comment="band 64">
        <r>  0.0033  0.1559  0.0000  0.5579  0.0000  0.0000  0.0000  0.0000  0.0000 </r>
        <r>  0.0020  0.0931  0.0000  0.0237  0.0000  0.0000  0.0000  0.0000  0.0000 </r>
       </set>
      </set>
      <set comment="kpoint 84">
       <set comment="band 1">
        <r>  0.9902  0.0000  0.0000  0.0000  0.0000  0.0000  0.0000  0.0000  0.0000 </r>
        <r>  0.0000  0.0001  0.0000  0.0000  0.0000  0.0000  0.0000  0.0000  0.0000 </r>
       </set>
       <set comment="band 2">
        <r>  0.0000  0.0001  0.0000  0.0000  0.0000  0.0000  0.0000  0.0000  0.0000 </r>
        <r>  0.8746  0.0000  0.0000  0.0000  0.0000  0.0000  0.0000  0.0000  0.0000 </r>
       </set>
       <set comment="band 3">
        <r>  0.0012  0.0000  0.0053  0.0000  0.0000  0.0000  0.0000  0.0000  0.0000 </r>
        <r>  0.0002  0.0116  0.6524  0.0000  0.0000  0.0000  0.0000  0.0000  0.0000 </r>
       </set>
       <set comment="band 4">
        <r>  0.0000  0.0000  0.0000  0.0053  0.0000  0.0000  0.0000  0.0000  0.0000 </r>
        <r>  0.0000  0.0000  0.0000  0.6813  0.0000  0.0000  0.0000  0.0000  0.0000 </r>
       </set>
       <set comment="band 5">
        <r>  0.0091  0.0001  0.0001  0.0000  0.0000  0.0000  0.0000  0.0000  0.0000 </r>
        <r>  0.0000  0.7582  0.0132  0.0000  0.0000  0.0000  0.0000  0.0000  0.0000 </r>
       </set>
       <set comment="band 6">
        <r>  0.0014  0.0069  0.0497  0.0000  0.0000  0.0000  0.0000  0.0000  0.0000 </r>
        <r>  0.0094  0.0009  0.2281  0.0000  0.0000  0.0000  0.0000  0.0000  0.0000 </r>
       </set>
       <set comment="band 7">
        <r>  0.0000  0.0000  0.0000  0.0517  0.0000  0.0000  0.0000  0.0000  0.0000 </r>
        <r>  0.0000  0.0000  0.0000  0.2195  0.0000  0.0000  0.0000  0.0000  0.0000 </r>
       </set>
       <set comment="band 8">
        <r>  0.0047  0.1316  0.0066  0.0000  0.0000  0.0000  0.0000  0.0000  0.0000 </r>
        <r>  0.0533  0.0000  0.0193  0.0000  0.0000  0.0000  0.0000  0.0000  0.0000 </r>
       </set>
       <set comment="band 9">
        <r>  0.2928  0.0034  0.0019  0.0000  0.0000  0.0000  0.0000  0.0000  0.0000 </r>
        <r>  0.0002  0.1055  0.0006  0.0000  0.0000  0.0000  0.0000  0.0000  0.0000 </r>
       </set>
       <set comment="band 10">
        <r>  0.0000  0.0000  0.0000  0.1190  0.0000  0.0000  0.0000  0.0000  0.0000 </r>
        <r>  0.0000  0.0000  0.0000  0.0331  0.0000  0.0000  0.0000  0.0000  0.0000 </r>
       </set>
       <set comment="band 11">
        <r>  0.0022  0.0004  0.1110  0.0000  0.0000  0.0000  0.0000  0.0000  0.0000 </r>
        <r>  0.0060  0.0004  0.0185  0.0000  0.0000  0.0000  0.0000  0.0000  0.0000 </r>
       </set>
       <set comment="band 12">
        <r>  0.0021  0.0803  0.0031  0.0000  0.0000  0.0000  0.0000  0.0000  0.0000 </r>
        <r>  0.1076  0.0005  0.0084  0.0000  0.0000  0.0000  0.0000  0.0000  0.0000 </r>
       </set>
       <set comment="band 13">
        <r>  0.0403  0.0005  0.0078  0.0000  0.0000  0.0000  0.0000  0.0000  0.0000 </r>
        <r>  0.0000  0.1520  0.0007  0.0000  0.0000  0.0000  0.0000  0.0000  0.0000 </r>
       </set>
       <set comment="band 14">
        <r>  0.0000  0.0000  0.0000  0.1533  0.0000  0.0000  0.0000  0.0000  0.0000 </r>
        <r>  0.0000  0.0000  0.0000  0.0023  0.0000  0.0000  0.0000  0.0000  0.0000 </r>
       </set>
       <set comment="band 15">
        <r>  0.0224  0.0002  0.2725  0.0000  0.0000  0.0000  0.0000  0.0000  0.0000 </r>
        <r>  0.0003  0.0008  0.0109  0.0000  0.0000  0.0000  0.0000  0.0000  0.0000 </r>
       </set>
       <set comment="band 16">
        <r>  0.0000  0.0000  0.0000  0.0437  0.0000  0.0000  0.0000  0.0000  0.0000 </r>
        <r>  0.0000  0.0000  0.0000  0.0110  0.0000  0.0000  0.0000  0.0000  0.0000 </r>
       </set>
       <set comment="band 17">
        <r>  0.0000  0.0000  0.0000  0.1125  0.0000  0.0000  0.0000  0.0000  0.0000 </r>
        <r>  0.0000  0.0000  0.0000  0.0127  0.0000  0.0000  0.0000  0.0000  0.0000 </r>
       </set>
       <set comment="band 18">
        <r>  0.1685  0.0252  0.0240  0.0000  0.0000  0.0000  0.0000  0.0000  0.0000 </r>
        <r>  0.0009  0.0000  0.0116  0.0000  0.0000  0.0000  0.0000  0.0000  0.0000 </r>
       </set>
       <set comment="band 19">
        <r>  0.0774  0.0129  0.0126  0.0000  0.0000  0.0000  0.0000  0.0000  0.0000 </r>
        <r>  0.0227  0.0042  0.0396  0.0000  0.0000  0.0000  0.0000  0.0000  0.0000 </r>
       </set>
       <set comment="band 20">
        <r>  0.0000  0.0000  0.0000  0.0005  0.0000  0.0000  0.0000  0.0000  0.0000 </r>
        <r>  0.0000  0.0000  0.0000  0.0758  0.0000  0.0000  0.0000  0.0000  0.0000 </r>
       </set>
       <set comment="band 21">
        <r>  0.0314  0.3160  0.0012  0.0000  0.0000  0.0000  0.0000  0.0000  0.0000 </r>
        <r>  0.0468  0.0009  0.0046  0.0000  0.0000  0.0000  0.0000  0.0000  0.0000 </r>
       </set>
       <set comment="band 22">
        <r>  0.0086  0.3630  0.0159  0.0000  0.0000  0.0000  0.0000  0.0000  0.0000 </r>
        <r>  0.0384  0.0001  0.0141  0.0000  0.0000  0.0000  0.0000  0.0000  0.0000 </r>
       </set>
       <set comment="band 23">
        <r>  0.0000  0.0000  0.0000  0.1591  0.0000  0.0000  0.0000  0.0000  0.0000 </r>
        <r>  0.0000  0.0000  0.0000  0.0072  0.0000  0.0000  0.0000  0.0000  0.0000 </r>
       </set>
       <set comment="band 24">
        <r>  0.0134  0.0273  0.4021  0.0000  0.0000  0.0000  0.0000  0.0000  0.0000 </r>
        <r>  0.0035  0.0009  0.0357  0.0000  0.0000  0.0000  0.0000  0.0000  0.0000 </r>
       </set>
       <set comment="band 25">
        <r>  0.0002  0.0302  0.0158  0.0000  0.0000  0.0000  0.0000  0.0000  0.0000 </r>
        <r>  0.0000  0.0010  0.0198  0.0000  0.0000  0.0000  0.0000  0.0000  0.0000 </r>
       </set>
       <set comment="band 26">
        <r>  0.0000  0.0000  0.0000  0.2022  0.0000  0.0000  0.0000  0.0000  0.0000 </r>
        <r>  0.0000  0.0000  0.0000  0.0354  0.0000  0.0000  0.0000  0.0000  0.0000 </r>
       </set>
       <set comment="band 27">
        <r>  0.0000  0.0000  0.0000  0.0053  0.0000  0.0000  0.0000  0.0000  0.0000 </r>
        <r>  0.0000  0.0000  0.0000  0.0005  0.0000  0.0000  0.0000  0.0000  0.0000 </r>
       </set>
       <set comment="band 28">
        <r>  0.0000  0.0000  0.0000  0.0691  0.0000  0.0000  0.0000  0.0000  0.0000 </r>
        <r>  0.0000  0.0000  0.0000  0.0018  0.0000  0.0000  0.0000  0.0000  0.0000 </r>
       </set>
       <set comment="band 29">
        <r>  0.1115  0.0027  0.0733  0.0000  0.0000  0.0000  0.0000  0.0000  0.0000 </r>
        <r>  0.0060  0.0006  0.0213  0.0000  0.0000  0.0000  0.0000  0.0000  0.0000 </r>
       </set>
       <set comment="band 30">
        <r>  0.0000  0.0000  0.0000  0.1050  0.0000  0.0000  0.0000  0.0000  0.0000 </r>
        <r>  0.0000  0.0000  0.0000  0.1081  0.0000  0.0000  0.0000  0.0000  0.0000 </r>
       </set>
       <set comment="band 31">
        <r>  0.1389  0.0022  0.0353  0.0000  0.0000  0.0000  0.0000  0.0000  0.0000 </r>
        <r>  0.0098  0.0004  0.0632  0.0000  0.0000  0.0000  0.0000  0.0000  0.0000 </r>
       </set>
       <set comment="band 32">
        <r>  0.0000  0.0192  0.0015  0.0000  0.0000  0.0000  0.0000  0.0000  0.0000 </r>
        <r>  0.0739  0.0187  0.0339  0.0000  0.0000  0.0000  0.0000  0.0000  0.0000 </r>
       </set>
       <set comment="band 33">
        <r>  0.0015  0.0002  0.0040  0.0000  0.0000  0.0000  0.0000  0.0000  0.0000 </r>
        <r>  0.0007  0.2410  0.0032  0.0000  0.0000  0.0000  0.0000  0.0000  0.0000 </r>
       </set>
       <set comment="band 34">
        <r>  0.2526  0.0115  0.0061  0.0000  0.0000  0.0000  0.0000  0.0000  0.0000 </r>
        <r>  0.0131  0.0031  0.0421  0.0000  0.0000  0.0000  0.0000  0.0000  0.0000 </r>
       </set>
       <set comment="band 35">
        <r>  0.0000  0.0000  0.0000  0.2689  0.0000  0.0000  0.0000  0.0000  0.0000 </r>
        <r>  0.0000  0.0000  0.0000  0.0763  0.0000  0.0000  0.0000  0.0000  0.0000 </r>
       </set>
       <set comment="band 36">
        <r>  0.0761  0.0001  0.1986  0.0000  0.0000  0.0000  0.0000  0.0000  0.0000 </r>
        <r>  0.0220  0.0133  0.0550  0.0000  0.0000  0.0000  0.0000  0.0000  0.0000 </r>
       </set>
       <set comment="band 37">
        <r>  0.0000  0.3740  0.0382  0.0000  0.0000  0.0000  0.0000  0.0000  0.0000 </r>
        <r>  0.1016  0.0064  0.0126  0.0000  0.0000  0.0000  0.0000  0.0000  0.0000 </r>
       </set>
       <set comment="band 38">
        <r>  0.0000  0.0000  0.0000  0.3668  0.0000  0.0000  0.0000  0.0000  0.0000 </r>
        <r>  0.0000  0.0000  0.0000  0.0311  0.0000  0.0000  0.0000  0.0000  0.0000 </r>
       </set>
       <set comment="band 39">
        <r>  0.0040  0.0353  0.1301  0.0000  0.0000  0.0000  0.0000  0.0000  0.0000 </r>
        <r>  0.1027  0.0003  0.0106  0.0000  0.0000  0.0000  0.0000  0.0000  0.0000 </r>
       </set>
       <set comment="band 40">
        <r>  0.0048  0.0022  0.1407  0.0000  0.0000  0.0000  0.0000  0.0000  0.0000 </r>
        <r>  0.0057  0.0040  0.0205  0.0000  0.0000  0.0000  0.0000  0.0000  0.0000 </r>
       </set>
       <set comment="band 41">
        <r>  0.0000  0.0000  0.0000  0.0003  0.0000  0.0000  0.0000  0.0000  0.0000 </r>
        <r>  0.0000  0.0000  0.0000  0.0241  0.0000  0.0000  0.0000  0.0000  0.0000 </r>
       </set>
       <set comment="band 42">
        <r>  0.0000  0.0000  0.0000  0.0230  0.0000  0.0000  0.0000  0.0000  0.0000 </r>
        <r>  0.0000  0.0000  0.0000  0.0017  0.0000  0.0000  0.0000  0.0000  0.0000 </r>
       </set>
       <set comment="band 43">
        <r>  0.0388  0.0960  0.0717  0.0000  0.0000  0.0000  0.0000  0.0000  0.0000 </r>
        <r>  0.0010  0.0145  0.0002  0.0000  0.0000  0.0000  0.0000  0.0000  0.0000 </r>
       </set>
       <set comment="band 44">
        <r>  0.0048  0.1360  0.0368  0.0000  0.0000  0.0000  0.0000  0.0000  0.0000 </r>
        <r>  0.0002  0.0260  0.0300  0.0000  0.0000  0.0000  0.0000  0.0000  0.0000 </r>
       </set>
       <set comment="band 45">
        <r>  0.0000  0.0000  0.0000  0.0089  0.0000  0.0000  0.0000  0.0000  0.0000 </r>
        <r>  0.0000  0.0000  0.0000  0.0719  0.0000  0.0000  0.0000  0.0000  0.0000 </r>
       </set>
       <set comment="band 46">
        <r>  0.0007  0.0001  0.0314  0.0000  0.0000  0.0000  0.0000  0.0000  0.0000 </r>
        <r>  0.0541  0.0061  0.0716  0.0000  0.0000  0.0000  0.0000  0.0000  0.0000 </r>
       </set>
       <set comment="band 47">
        <r>  0.0000  0.0000  0.0000  0.0901  0.0000  0.0000  0.0000  0.0000  0.0000 </r>
        <r>  0.0000  0.0000  0.0000  0.0402  0.0000  0.0000  0.0000  0.0000  0.0000 </r>
       </set>
       <set comment="band 48">
        <r>  0.0709  0.1504  0.1287  0.0000  0.0000  0.0000  0.0000  0.0000  0.0000 </r>
        <r>  0.0016  0.0130  0.0018  0.0000  0.0000  0.0000  0.0000  0.0000  0.0000 </r>
       </set>
       <set comment="band 49">
        <r>  0.0023  0.8726  0.0521  0.0000  0.0000  0.0000  0.0000  0.0000  0.0000 </r>
        <r>  0.0090  0.0192  0.0146  0.0000  0.0000  0.0000  0.0000  0.0000  0.0000 </r>
       </set>
       <set comment="band 50">
        <r>  0.0000  0.0000  0.0000  0.0713  0.0000  0.0000  0.0000  0.0000  0.0000 </r>
        <r>  0.0000  0.0000  0.0000  0.0417  0.0000  0.0000  0.0000  0.0000  0.0000 </r>
       </set>
       <set comment="band 51">
        <r>  0.0000  0.0000  0.0000  0.1627  0.0000  0.0000  0.0000  0.0000  0.0000 </r>
        <r>  0.0000  0.0000  0.0000  0.0112  0.0000  0.0000  0.0000  0.0000  0.0000 </r>
       </set>
       <set comment="band 52">
        <r>  0.0006  0.0389  0.0035  0.0000  0.0000  0.0000  0.0000  0.0000  0.0000 </r>
        <r>  0.2223  0.0022  0.0388  0.0000  0.0000  0.0000  0.0000  0.0000  0.0000 </r>
       </set>
       <set comment="band 53">
        <r>  0.0000  0.0000  0.0000  0.0189  0.0000  0.0000  0.0000  0.0000  0.0000 </r>
        <r>  0.0000  0.0000  0.0000  0.0003  0.0000  0.0000  0.0000  0.0000  0.0000 </r>
       </set>
       <set comment="band 54">
        <r>  0.0359  0.0170  0.4580  0.0000  0.0000  0.0000  0.0000  0.0000  0.0000 </r>
        <r>  0.0044  0.0086  0.0000  0.0000  0.0000  0.0000  0.0000  0.0000  0.0000 </r>
       </set>
       <set comment="band 55">
        <r>  0.0000  0.0000  0.0000  0.3682  0.0000  0.0000  0.0000  0.0000  0.0000 </r>
        <r>  0.0000  0.0000  0.0000  0.0012  0.0000  0.0000  0.0000  0.0000  0.0000 </r>
       </set>
       <set comment="band 56">
        <r>  0.0007  0.0024  0.0057  0.0000  0.0000  0.0000  0.0000  0.0000  0.0000 </r>
        <r>  0.0040  0.0049  0.0065  0.0000  0.0000  0.0000  0.0000  0.0000  0.0000 </r>
       </set>
       <set comment="band 57">
        <r>  0.0012  0.0002  0.0547  0.0000  0.0000  0.0000  0.0000  0.0000  0.0000 </r>
        <r>  0.0360  0.0884  0.0072  0.0000  0.0000  0.0000  0.0000  0.0000  0.0000 </r>
       </set>
       <set comment="band 58">
        <r>  0.0644  0.0192  0.0363  0.0000  0.0000  0.0000  0.0000  0.0000  0.0000 </r>
        <r>  0.0134  0.0031  0.0333  0.0000  0.0000  0.0000  0.0000  0.0000  0.0000 </r>
       </set>
       <set comment="band 59">
        <r>  0.0000  0.0000  0.0000  0.1675  0.0000  0.0000  0.0000  0.0000  0.0000 </r>
        <r>  0.0000  0.0000  0.0000  0.1255  0.0000  0.0000  0.0000  0.0000  0.0000 </r>
       </set>
       <set comment="band 60">
        <r>  0.0221  0.0334  0.3156  0.0000  0.0000  0.0000  0.0000  0.0000  0.0000 </r>
        <r>  0.0243  0.0486  0.0666  0.0000  0.0000  0.0000  0.0000  0.0000  0.0000 </r>
       </set>
       <set comment="band 61">
        <r>  0.0000  0.0000  0.0000  0.2318  0.0000  0.0000  0.0000  0.0000  0.0000 </r>
        <r>  0.0000  0.0000  0.0000  0.0029  0.0000  0.0000  0.0000  0.0000  0.0000 </r>
       </set>
       <set comment="band 62">
        <r>  0.0091  0.2324  0.0191  0.0000  0.0000  0.0000  0.0000  0.0000  0.0000 </r>
        <r>  0.0050  0.0538  0.0018  0.0000  0.0000  0.0000  0.0000  0.0000  0.0000 </r>
       </set>
       <set comment="band 63">
        <r>  0.0000  0.0000  0.0000  0.0051  0.0000  0.0000  0.0000  0.0000  0.0000 </r>
        <r>  0.0000  0.0000  0.0000  0.0267  0.0000  0.0000  0.0000  0.0000  0.0000 </r>
       </set>
       <set comment="band 64">
        <r>  0.0083  0.0020  0.1050  0.0000  0.0000  0.0000  0.0000  0.0000  0.0000 </r>
        <r>  0.0012  0.0062  0.0015  0.0000  0.0000  0.0000  0.0000  0.0000  0.0000 </r>
       </set>
      </set>
     </set>
    </set>
   </array>
  </projected>
 </calculation>
 <structure name="finalpos" >
  <crystal>
   <varray name="basis" >
    <v>       0.00000000       2.04171400       2.04171400 </v>
    <v>       2.04171400       0.00000000       2.04171400 </v>
    <v>       2.04171400       2.04171400       0.00000000 </v>
   </varray>
   <i name="volume">     17.02216186 </i>
   <varray name="rec_basis" >
    <v>      -0.24489228       0.24489228       0.24489228 </v>
    <v>       0.24489228      -0.24489228       0.24489228 </v>
    <v>       0.24489228       0.24489228      -0.24489228 </v>
   </varray>
  </crystal>
  <varray name="positions" >
   <v>       0.00000000       0.00000000       0.00000000 </v>
   <v>       0.50000000       0.50000000       0.50000000 </v>
  </varray>
 </structure>
</modeling>
