<?xml version="1.0" encoding="ISO-8859-1"?>
<modeling>
 <generator>
  <i name="program" type="string">vasp </i>
  <i name="version" type="string">5.2.2  </i>
  <i name="subversion" type="string">15Apr09 complex  parallel </i>
  <i name="platform" type="string">unknown </i>
  <i name="date" type="string">2014 08 14 </i>
  <i name="time" type="string">11:11:51 </i>
 </generator>
 <incar>
  <i type="int" name="ISTART">     1</i>
  <i type="string" name="PREC">accurate</i>
  <i type="string" name="ALGO"> Normal</i>
  <i type="int" name="ISPIN">     1</i>
  <i type="int" name="ICHARG">    11</i>
  <i type="int" name="NELM">   100</i>
  <i type="int" name="IBRION">    -1</i>
  <i name="EDIFF">      0.00000200</i>
  <i type="int" name="NSW">     0</i>
  <i type="int" name="ISIF">     3</i>
  <i type="int" name="ISYM">     0</i>
  <i name="ENCUT">    520.00000000</i>
  <i type="int" name="NBANDS">    12</i>
  <i type="string" name="LREAL"> Auto</i>
  <i type="int" name="ISMEAR">     0</i>
  <i name="SIGMA">      0.00100000</i>
  <i type="logical" name="LWAVE"> F  </i>
  <i type="logical" name="LCHARG"> F  </i>
  <i type="logical" name="LORBIT"> F  </i>
  <i type="logical" name="LAECHG"> T  </i>
  <i type="int" name="NELM">   100</i>
  <i type="logical" name="LPEAD"> F  </i>
  <i type="logical" name="LCALCPOL"> F  </i>
  <i type="logical" name="LCALCEPS"> F  </i>
  <v name="EFIELD_PEAD">      0.00000000      0.00000000      0.00000000</v>
  <i type="logical" name="LEFG"> F  </i>
 </incar>
 <kpoints>
  <varray name="kpointlist" >
   <v>       0.00000000       0.00000000       0.00000000 </v>
   <v>       0.05263158       0.00000000       0.00000000 </v>
   <v>       0.10526316       0.00000000       0.00000000 </v>
   <v>       0.15789474       0.00000000       0.00000000 </v>
   <v>       0.21052632       0.00000000       0.00000000 </v>
   <v>       0.26315789       0.00000000       0.00000000 </v>
   <v>       0.31578947       0.00000000       0.00000000 </v>
   <v>       0.36842105       0.00000000       0.00000000 </v>
   <v>       0.42105263       0.00000000       0.00000000 </v>
   <v>       0.47368421       0.00000000       0.00000000 </v>
   <v>       0.05263158       0.05263158       0.00000000 </v>
   <v>       0.10526316       0.05263158       0.00000000 </v>
   <v>       0.15789474       0.05263158       0.00000000 </v>
   <v>       0.21052632       0.05263158       0.00000000 </v>
   <v>       0.26315789       0.05263158       0.00000000 </v>
   <v>       0.31578947       0.05263158       0.00000000 </v>
   <v>       0.36842105       0.05263158       0.00000000 </v>
   <v>       0.42105263       0.05263158       0.00000000 </v>
   <v>       0.47368421       0.05263158       0.00000000 </v>
   <v>      -0.47368421       0.05263158       0.00000000 </v>
   <v>      -0.42105263       0.05263158       0.00000000 </v>
   <v>      -0.36842105       0.05263158       0.00000000 </v>
   <v>      -0.31578947       0.05263158       0.00000000 </v>
   <v>      -0.26315789       0.05263158       0.00000000 </v>
   <v>      -0.21052632       0.05263158       0.00000000 </v>
   <v>      -0.15789474       0.05263158       0.00000000 </v>
   <v>      -0.10526316       0.05263158       0.00000000 </v>
   <v>      -0.05263158       0.05263158       0.00000000 </v>
   <v>       0.10526316       0.10526316       0.00000000 </v>
   <v>       0.15789474       0.10526316       0.00000000 </v>
   <v>       0.21052632       0.10526316       0.00000000 </v>
   <v>       0.26315789       0.10526316       0.00000000 </v>
   <v>       0.31578947       0.10526316       0.00000000 </v>
   <v>       0.36842105       0.10526316       0.00000000 </v>
   <v>       0.42105263       0.10526316       0.00000000 </v>
   <v>       0.47368421       0.10526316       0.00000000 </v>
   <v>      -0.47368421       0.10526316       0.00000000 </v>
   <v>      -0.42105263       0.10526316       0.00000000 </v>
   <v>      -0.36842105       0.10526316       0.00000000 </v>
   <v>      -0.31578947       0.10526316       0.00000000 </v>
   <v>      -0.26315789       0.10526316       0.00000000 </v>
   <v>      -0.21052632       0.10526316       0.00000000 </v>
   <v>      -0.15789474       0.10526316       0.00000000 </v>
   <v>      -0.10526316       0.10526316       0.00000000 </v>
   <v>       0.15789474       0.15789474       0.00000000 </v>
   <v>       0.21052632       0.15789474       0.00000000 </v>
   <v>       0.26315789       0.15789474       0.00000000 </v>
   <v>       0.31578947       0.15789474       0.00000000 </v>
   <v>       0.36842105       0.15789474       0.00000000 </v>
   <v>       0.42105263       0.15789474       0.00000000 </v>
   <v>       0.47368421       0.15789474       0.00000000 </v>
   <v>      -0.47368421       0.15789474       0.00000000 </v>
   <v>      -0.42105263       0.15789474       0.00000000 </v>
   <v>      -0.36842105       0.15789474       0.00000000 </v>
   <v>      -0.31578947       0.15789474       0.00000000 </v>
   <v>      -0.26315789       0.15789474       0.00000000 </v>
   <v>      -0.21052632       0.15789474       0.00000000 </v>
   <v>      -0.15789474       0.15789474       0.00000000 </v>
   <v>       0.21052632       0.21052632       0.00000000 </v>
   <v>       0.26315789       0.21052632       0.00000000 </v>
   <v>       0.31578947       0.21052632       0.00000000 </v>
   <v>       0.36842105       0.21052632       0.00000000 </v>
   <v>       0.42105263       0.21052632       0.00000000 </v>
   <v>       0.47368421       0.21052632       0.00000000 </v>
   <v>      -0.47368421       0.21052632       0.00000000 </v>
   <v>      -0.42105263       0.21052632       0.00000000 </v>
   <v>      -0.36842105       0.21052632       0.00000000 </v>
   <v>      -0.31578947       0.21052632       0.00000000 </v>
   <v>      -0.26315789       0.21052632       0.00000000 </v>
   <v>      -0.21052632       0.21052632       0.00000000 </v>
   <v>       0.26315789       0.26315789       0.00000000 </v>
   <v>       0.31578947       0.26315789       0.00000000 </v>
   <v>       0.36842105       0.26315789       0.00000000 </v>
   <v>       0.42105263       0.26315789       0.00000000 </v>
   <v>       0.47368421       0.26315789       0.00000000 </v>
   <v>      -0.47368421       0.26315789       0.00000000 </v>
   <v>      -0.42105263       0.26315789       0.00000000 </v>
   <v>      -0.36842105       0.26315789       0.00000000 </v>
   <v>      -0.31578947       0.26315789       0.00000000 </v>
   <v>      -0.26315789       0.26315789       0.00000000 </v>
   <v>       0.31578947       0.31578947       0.00000000 </v>
   <v>       0.36842105       0.31578947       0.00000000 </v>
   <v>       0.42105263       0.31578947       0.00000000 </v>
   <v>       0.47368421       0.31578947       0.00000000 </v>
   <v>      -0.47368421       0.31578947       0.00000000 </v>
   <v>      -0.42105263       0.31578947       0.00000000 </v>
   <v>      -0.36842105       0.31578947       0.00000000 </v>
   <v>      -0.31578947       0.31578947       0.00000000 </v>
   <v>       0.36842105       0.36842105       0.00000000 </v>
   <v>       0.42105263       0.36842105       0.00000000 </v>
   <v>       0.47368421       0.36842105       0.00000000 </v>
   <v>      -0.47368421       0.36842105       0.00000000 </v>
   <v>      -0.42105263       0.36842105       0.00000000 </v>
   <v>      -0.36842105       0.36842105       0.00000000 </v>
   <v>       0.42105263       0.42105263       0.00000000 </v>
   <v>       0.47368421       0.42105263       0.00000000 </v>
   <v>      -0.47368421       0.42105263       0.00000000 </v>
   <v>      -0.42105263       0.42105263       0.00000000 </v>
   <v>       0.47368421       0.47368421       0.00000000 </v>
   <v>      -0.47368421       0.47368421       0.00000000 </v>
   <v>       0.15789474       0.10526316       0.05263158 </v>
   <v>       0.21052632       0.10526316       0.05263158 </v>
   <v>       0.26315789       0.10526316       0.05263158 </v>
   <v>       0.31578947       0.10526316       0.05263158 </v>
   <v>       0.36842105       0.10526316       0.05263158 </v>
   <v>       0.42105263       0.10526316       0.05263158 </v>
   <v>       0.47368421       0.10526316       0.05263158 </v>
   <v>      -0.47368421       0.10526316       0.05263158 </v>
   <v>       0.21052632       0.15789474       0.05263158 </v>
   <v>       0.26315789       0.15789474       0.05263158 </v>
   <v>       0.31578947       0.15789474       0.05263158 </v>
   <v>       0.36842105       0.15789474       0.05263158 </v>
   <v>       0.42105263       0.15789474       0.05263158 </v>
   <v>       0.47368421       0.15789474       0.05263158 </v>
   <v>      -0.47368421       0.15789474       0.05263158 </v>
   <v>      -0.42105263       0.15789474       0.05263158 </v>
   <v>      -0.36842105       0.15789474       0.05263158 </v>
   <v>      -0.31578947       0.15789474       0.05263158 </v>
   <v>      -0.26315789       0.15789474       0.05263158 </v>
   <v>      -0.21052632       0.15789474       0.05263158 </v>
   <v>      -0.15789474       0.15789474       0.05263158 </v>
   <v>      -0.10526316       0.15789474       0.05263158 </v>
   <v>       0.26315789       0.21052632       0.05263158 </v>
   <v>       0.31578947       0.21052632       0.05263158 </v>
   <v>       0.36842105       0.21052632       0.05263158 </v>
   <v>       0.42105263       0.21052632       0.05263158 </v>
   <v>       0.47368421       0.21052632       0.05263158 </v>
   <v>      -0.47368421       0.21052632       0.05263158 </v>
   <v>      -0.42105263       0.21052632       0.05263158 </v>
   <v>      -0.36842105       0.21052632       0.05263158 </v>
   <v>      -0.31578947       0.21052632       0.05263158 </v>
   <v>      -0.26315789       0.21052632       0.05263158 </v>
   <v>      -0.21052632       0.21052632       0.05263158 </v>
   <v>      -0.15789474       0.21052632       0.05263158 </v>
   <v>       0.31578947       0.26315789       0.05263158 </v>
   <v>       0.36842105       0.26315789       0.05263158 </v>
   <v>       0.42105263       0.26315789       0.05263158 </v>
   <v>       0.47368421       0.26315789       0.05263158 </v>
   <v>      -0.47368421       0.26315789       0.05263158 </v>
   <v>      -0.42105263       0.26315789       0.05263158 </v>
   <v>      -0.36842105       0.26315789       0.05263158 </v>
   <v>      -0.31578947       0.26315789       0.05263158 </v>
   <v>      -0.26315789       0.26315789       0.05263158 </v>
   <v>      -0.21052632       0.26315789       0.05263158 </v>
   <v>       0.36842105       0.31578947       0.05263158 </v>
   <v>       0.42105263       0.31578947       0.05263158 </v>
   <v>       0.47368421       0.31578947       0.05263158 </v>
   <v>      -0.47368421       0.31578947       0.05263158 </v>
   <v>      -0.42105263       0.31578947       0.05263158 </v>
   <v>      -0.36842105       0.31578947       0.05263158 </v>
   <v>      -0.31578947       0.31578947       0.05263158 </v>
   <v>      -0.26315789       0.31578947       0.05263158 </v>
   <v>       0.42105263       0.36842105       0.05263158 </v>
   <v>       0.47368421       0.36842105       0.05263158 </v>
   <v>      -0.47368421       0.36842105       0.05263158 </v>
   <v>      -0.42105263       0.36842105       0.05263158 </v>
   <v>      -0.36842105       0.36842105       0.05263158 </v>
   <v>      -0.31578947       0.36842105       0.05263158 </v>
   <v>       0.47368421       0.42105263       0.05263158 </v>
   <v>      -0.47368421       0.42105263       0.05263158 </v>
   <v>      -0.42105263       0.42105263       0.05263158 </v>
   <v>      -0.36842105       0.42105263       0.05263158 </v>
   <v>      -0.47368421       0.47368421       0.05263158 </v>
   <v>      -0.42105263       0.47368421       0.05263158 </v>
   <v>       0.31578947       0.21052632       0.10526316 </v>
   <v>       0.36842105       0.21052632       0.10526316 </v>
   <v>       0.42105263       0.21052632       0.10526316 </v>
   <v>       0.47368421       0.21052632       0.10526316 </v>
   <v>      -0.47368421       0.21052632       0.10526316 </v>
   <v>      -0.42105263       0.21052632       0.10526316 </v>
   <v>       0.36842105       0.26315789       0.10526316 </v>
   <v>       0.42105263       0.26315789       0.10526316 </v>
   <v>       0.47368421       0.26315789       0.10526316 </v>
   <v>      -0.47368421       0.26315789       0.10526316 </v>
   <v>      -0.42105263       0.26315789       0.10526316 </v>
   <v>      -0.36842105       0.26315789       0.10526316 </v>
   <v>      -0.31578947       0.26315789       0.10526316 </v>
   <v>      -0.26315789       0.26315789       0.10526316 </v>
   <v>      -0.21052632       0.26315789       0.10526316 </v>
   <v>      -0.15789474       0.26315789       0.10526316 </v>
   <v>       0.42105263       0.31578947       0.10526316 </v>
   <v>       0.47368421       0.31578947       0.10526316 </v>
   <v>      -0.47368421       0.31578947       0.10526316 </v>
   <v>      -0.42105263       0.31578947       0.10526316 </v>
   <v>      -0.36842105       0.31578947       0.10526316 </v>
   <v>      -0.31578947       0.31578947       0.10526316 </v>
   <v>      -0.26315789       0.31578947       0.10526316 </v>
   <v>      -0.21052632       0.31578947       0.10526316 </v>
   <v>       0.47368421       0.36842105       0.10526316 </v>
   <v>      -0.47368421       0.36842105       0.10526316 </v>
   <v>      -0.42105263       0.36842105       0.10526316 </v>
   <v>      -0.36842105       0.36842105       0.10526316 </v>
   <v>      -0.31578947       0.36842105       0.10526316 </v>
   <v>      -0.26315789       0.36842105       0.10526316 </v>
   <v>      -0.47368421       0.42105263       0.10526316 </v>
   <v>      -0.42105263       0.42105263       0.10526316 </v>
   <v>      -0.36842105       0.42105263       0.10526316 </v>
   <v>      -0.31578947       0.42105263       0.10526316 </v>
   <v>      -0.42105263       0.47368421       0.10526316 </v>
   <v>      -0.36842105       0.47368421       0.10526316 </v>
   <v>       0.47368421       0.31578947       0.15789474 </v>
   <v>      -0.47368421       0.31578947       0.15789474 </v>
   <v>      -0.42105263       0.31578947       0.15789474 </v>
   <v>      -0.36842105       0.31578947       0.15789474 </v>
   <v>      -0.47368421       0.36842105       0.15789474 </v>
   <v>      -0.42105263       0.36842105       0.15789474 </v>
   <v>      -0.36842105       0.36842105       0.15789474 </v>
   <v>      -0.31578947       0.36842105       0.15789474 </v>
   <v>      -0.26315789       0.36842105       0.15789474 </v>
   <v>      -0.21052632       0.36842105       0.15789474 </v>
   <v>      -0.42105263       0.42105263       0.15789474 </v>
   <v>      -0.36842105       0.42105263       0.15789474 </v>
   <v>      -0.31578947       0.42105263       0.15789474 </v>
   <v>      -0.26315789       0.42105263       0.15789474 </v>
   <v>      -0.36842105       0.47368421       0.15789474 </v>
   <v>      -0.31578947       0.47368421       0.15789474 </v>
   <v>      -0.36842105       0.42105263       0.21052632 </v>
   <v>      -0.31578947       0.42105263       0.21052632 </v>
   <v>      -0.31578947       0.47368421       0.21052632 </v>
   <v>      -0.26315789       0.47368421       0.21052632 </v>
  </varray>
  <varray name="weights" >
   <v>       0.00014579 </v>
   <v>       0.00116635 </v>
   <v>       0.00116635 </v>
   <v>       0.00116635 </v>
   <v>       0.00116635 </v>
   <v>       0.00116635 </v>
   <v>       0.00116635 </v>
   <v>       0.00116635 </v>
   <v>       0.00116635 </v>
   <v>       0.00116635 </v>
   <v>       0.00087476 </v>
   <v>       0.00349905 </v>
   <v>       0.00349905 </v>
   <v>       0.00349905 </v>
   <v>       0.00349905 </v>
   <v>       0.00349905 </v>
   <v>       0.00349905 </v>
   <v>       0.00349905 </v>
   <v>       0.00349905 </v>
   <v>       0.00349905 </v>
   <v>       0.00349905 </v>
   <v>       0.00349905 </v>
   <v>       0.00349905 </v>
   <v>       0.00349905 </v>
   <v>       0.00349905 </v>
   <v>       0.00349905 </v>
   <v>       0.00349905 </v>
   <v>       0.00174953 </v>
   <v>       0.00087476 </v>
   <v>       0.00349905 </v>
   <v>       0.00349905 </v>
   <v>       0.00349905 </v>
   <v>       0.00349905 </v>
   <v>       0.00349905 </v>
   <v>       0.00349905 </v>
   <v>       0.00349905 </v>
   <v>       0.00349905 </v>
   <v>       0.00349905 </v>
   <v>       0.00349905 </v>
   <v>       0.00349905 </v>
   <v>       0.00349905 </v>
   <v>       0.00349905 </v>
   <v>       0.00349905 </v>
   <v>       0.00174953 </v>
   <v>       0.00087476 </v>
   <v>       0.00349905 </v>
   <v>       0.00349905 </v>
   <v>       0.00349905 </v>
   <v>       0.00349905 </v>
   <v>       0.00349905 </v>
   <v>       0.00349905 </v>
   <v>       0.00349905 </v>
   <v>       0.00349905 </v>
   <v>       0.00349905 </v>
   <v>       0.00349905 </v>
   <v>       0.00349905 </v>
   <v>       0.00349905 </v>
   <v>       0.00174953 </v>
   <v>       0.00087476 </v>
   <v>       0.00349905 </v>
   <v>       0.00349905 </v>
   <v>       0.00349905 </v>
   <v>       0.00349905 </v>
   <v>       0.00349905 </v>
   <v>       0.00349905 </v>
   <v>       0.00349905 </v>
   <v>       0.00349905 </v>
   <v>       0.00349905 </v>
   <v>       0.00349905 </v>
   <v>       0.00174953 </v>
   <v>       0.00087476 </v>
   <v>       0.00349905 </v>
   <v>       0.00349905 </v>
   <v>       0.00349905 </v>
   <v>       0.00349905 </v>
   <v>       0.00349905 </v>
   <v>       0.00349905 </v>
   <v>       0.00349905 </v>
   <v>       0.00349905 </v>
   <v>       0.00174953 </v>
   <v>       0.00087476 </v>
   <v>       0.00349905 </v>
   <v>       0.00349905 </v>
   <v>       0.00349905 </v>
   <v>       0.00349905 </v>
   <v>       0.00349905 </v>
   <v>       0.00349905 </v>
   <v>       0.00174953 </v>
   <v>       0.00087476 </v>
   <v>       0.00349905 </v>
   <v>       0.00349905 </v>
   <v>       0.00349905 </v>
   <v>       0.00349905 </v>
   <v>       0.00174953 </v>
   <v>       0.00087476 </v>
   <v>       0.00349905 </v>
   <v>       0.00349905 </v>
   <v>       0.00174953 </v>
   <v>       0.00087476 </v>
   <v>       0.00174953 </v>
   <v>       0.00349905 </v>
   <v>       0.00699810 </v>
   <v>       0.00699810 </v>
   <v>       0.00699810 </v>
   <v>       0.00699810 </v>
   <v>       0.00699810 </v>
   <v>       0.00699810 </v>
   <v>       0.00699810 </v>
   <v>       0.00349905 </v>
   <v>       0.00699810 </v>
   <v>       0.00699810 </v>
   <v>       0.00699810 </v>
   <v>       0.00699810 </v>
   <v>       0.00699810 </v>
   <v>       0.00699810 </v>
   <v>       0.00699810 </v>
   <v>       0.00699810 </v>
   <v>       0.00699810 </v>
   <v>       0.00699810 </v>
   <v>       0.00699810 </v>
   <v>       0.00699810 </v>
   <v>       0.00349905 </v>
   <v>       0.00349905 </v>
   <v>       0.00699810 </v>
   <v>       0.00699810 </v>
   <v>       0.00699810 </v>
   <v>       0.00699810 </v>
   <v>       0.00699810 </v>
   <v>       0.00699810 </v>
   <v>       0.00699810 </v>
   <v>       0.00699810 </v>
   <v>       0.00699810 </v>
   <v>       0.00699810 </v>
   <v>       0.00349905 </v>
   <v>       0.00349905 </v>
   <v>       0.00699810 </v>
   <v>       0.00699810 </v>
   <v>       0.00699810 </v>
   <v>       0.00699810 </v>
   <v>       0.00699810 </v>
   <v>       0.00699810 </v>
   <v>       0.00699810 </v>
   <v>       0.00699810 </v>
   <v>       0.00349905 </v>
   <v>       0.00349905 </v>
   <v>       0.00699810 </v>
   <v>       0.00699810 </v>
   <v>       0.00699810 </v>
   <v>       0.00699810 </v>
   <v>       0.00699810 </v>
   <v>       0.00699810 </v>
   <v>       0.00349905 </v>
   <v>       0.00349905 </v>
   <v>       0.00699810 </v>
   <v>       0.00699810 </v>
   <v>       0.00699810 </v>
   <v>       0.00699810 </v>
   <v>       0.00349905 </v>
   <v>       0.00349905 </v>
   <v>       0.00699810 </v>
   <v>       0.00699810 </v>
   <v>       0.00349905 </v>
   <v>       0.00349905 </v>
   <v>       0.00349905 </v>
   <v>       0.00349905 </v>
   <v>       0.00699810 </v>
   <v>       0.00699810 </v>
   <v>       0.00699810 </v>
   <v>       0.00699810 </v>
   <v>       0.00699810 </v>
   <v>       0.00349905 </v>
   <v>       0.00699810 </v>
   <v>       0.00699810 </v>
   <v>       0.00699810 </v>
   <v>       0.00699810 </v>
   <v>       0.00699810 </v>
   <v>       0.00699810 </v>
   <v>       0.00699810 </v>
   <v>       0.00699810 </v>
   <v>       0.00349905 </v>
   <v>       0.00349905 </v>
   <v>       0.00699810 </v>
   <v>       0.00699810 </v>
   <v>       0.00699810 </v>
   <v>       0.00699810 </v>
   <v>       0.00699810 </v>
   <v>       0.00699810 </v>
   <v>       0.00349905 </v>
   <v>       0.00349905 </v>
   <v>       0.00699810 </v>
   <v>       0.00699810 </v>
   <v>       0.00699810 </v>
   <v>       0.00699810 </v>
   <v>       0.00349905 </v>
   <v>       0.00349905 </v>
   <v>       0.00699810 </v>
   <v>       0.00699810 </v>
   <v>       0.00349905 </v>
   <v>       0.00349905 </v>
   <v>       0.00349905 </v>
   <v>       0.00349905 </v>
   <v>       0.00699810 </v>
   <v>       0.00699810 </v>
   <v>       0.00699810 </v>
   <v>       0.00349905 </v>
   <v>       0.00699810 </v>
   <v>       0.00699810 </v>
   <v>       0.00699810 </v>
   <v>       0.00699810 </v>
   <v>       0.00349905 </v>
   <v>       0.00349905 </v>
   <v>       0.00699810 </v>
   <v>       0.00699810 </v>
   <v>       0.00349905 </v>
   <v>       0.00349905 </v>
   <v>       0.00349905 </v>
   <v>       0.00349905 </v>
   <v>       0.00699810 </v>
   <v>       0.00349905 </v>
   <v>       0.00349905 </v>
  </varray>
 </kpoints>
 <parameters>
  <separator name="general" >
   <i type="string" name="SYSTEM">unknown system</i>
   <i type="logical" name="LCOMPAT"> F  </i>
  </separator>
  <separator name="electronic" >
   <i type="string" name="PREC">accura</i>
   <i name="ENMAX">    520.00000000</i>
   <i name="ENAUG">    322.06900000</i>
   <i name="EDIFF">      0.00000200</i>
   <i type="int" name="IALGO">    38</i>
   <i type="int" name="IWAVPR">    10</i>
   <i type="int" name="NBANDS">    12</i>
   <i name="NELECT">      8.00000000</i>
   <separator name="electronic smearing" >
    <i type="int" name="ISMEAR">     0</i>
    <i name="SIGMA">      0.00100000</i>
   </separator>
   <separator name="electronic projectors" >
    <i type="logical" name="LREAL"> T  </i>
    <v name="ROPT">     -0.00025000</v>
    <i type="int" name="LMAXPAW">  -100</i>
    <i type="int" name="LMAXMIX">     2</i>
   </separator>
   <separator name="electronic startup" >
    <i type="int" name="ISTART">     0</i>
    <i type="int" name="ICHARG">    11</i>
    <i type="int" name="INIWAV">     1</i>
   </separator>
   <separator name="electronic spin" >
    <i type="int" name="ISPIN">     1</i>
    <i type="logical" name="LNONCOLLINEAR"> F  </i>
    <v name="MAGMOM">      1.00000000      1.00000000</v>
    <i name="NUPDOWN">     -1.00000000</i>
    <i type="logical" name="LSORBIT"> F  </i>
    <v name="SAXIS">      0.00000000      0.00000000      1.00000000</v>
    <i type="logical" name="LSPIRAL"> F  </i>
    <v name="QSPIRAL">      0.00000000      0.00000000      0.00000000</v>
    <i type="logical" name="LZEROZ"> F  </i>
   </separator>
   <separator name="electronic exchange-correlation" >
    <i type="logical" name="LASPH"> F  </i>
    <i type="logical" name="LMETAGGA"> F  </i>
   </separator>
   <separator name="electronic convergence" >
    <i type="int" name="NELM">   100</i>
    <i type="int" name="NELMDL">     0</i>
    <i type="int" name="NELMIN">     2</i>
    <i name="ENINI">    520.00000000</i>
    <separator name="electronic convergence detail" >
     <i type="logical" name="LDIAG"> T  </i>
     <i name="WEIMIN">      0.00000000</i>
     <i name="EBREAK">      0.00000004</i>
     <i name="DEPER">      0.30000000</i>
     <i type="int" name="NRMM">     4</i>
     <i name="TIME">      0.40000000</i>
    </separator>
   </separator>
   <separator name="electronic mixer" >
    <i name="AMIX">      0.40000000</i>
    <i name="BMIX">      1.00000000</i>
    <i name="AMIN">      0.10000000</i>
    <i name="AMIX_MAG">      1.60000000</i>
    <i name="BMIX_MAG">      1.00000000</i>
    <separator name="electronic mixer details" >
     <i type="int" name="IMIX">     4</i>
     <i type="int" name="MAXMIX">   -45</i>
     <i name="WC">    100.00000000</i>
     <i type="int" name="INIMIX">     1</i>
     <i type="int" name="MIXPRE">     1</i>
     <i type="int" name="MREMOVE">     5</i>
    </separator>
   </separator>
   <separator name="electronic dipolcorrection" >
    <i type="logical" name="LDIPOL"> F  </i>
    <i type="logical" name="LMONO"> F  </i>
    <i type="int" name="IDIPOL">     0</i>
    <i name="EPSILON">      1.00000000</i>
    <v name="DIPOL">   -100.00000000   -100.00000000   -100.00000000</v>
    <i name="EFIELD">      0.00000000</i>
   </separator>
  </separator>
  <separator name="grids" >
   <i type="int" name="NGX">    30</i>
   <i type="int" name="NGY">    30</i>
   <i type="int" name="NGZ">    30</i>
   <i type="int" name="NGXF">    60</i>
   <i type="int" name="NGYF">    60</i>
   <i type="int" name="NGZF">    60</i>
   <i type="logical" name="ADDGRID"> F  </i>
  </separator>
  <separator name="ionic" >
   <i type="int" name="NSW">     0</i>
   <i type="int" name="IBRION">    -1</i>
   <i type="int" name="ISIF">     3</i>
   <i name="PSTRESS">      0.00000000</i>
   <i name="EDIFFG">      0.00002000</i>
   <i type="int" name="NFREE">     0</i>
   <i name="POTIM">      0.50000000</i>
   <i name="SMASS">     -3.00000000</i>
  </separator>
  <separator name="ionic md" >
   <i name="TEBEG">      0.00010000</i>
   <i name="TEEND">      0.00010000</i>
   <i type="int" name="NBLOCK">     1</i>
   <i type="int" name="KBLOCK">     1</i>
   <i type="int" name="NPACO">   256</i>
   <i name="APACO">     16.00000000</i>
  </separator>
  <separator name="symmetry" >
   <i type="int" name="ISYM">     0</i>
   <i name="SYMPREC">      0.00001000</i>
  </separator>
  <separator name="dos" >
   <i type="logical" name="LORBIT"> F  </i>
   <v name="RWIGS">     -1.00000000</v>
   <i type="int" name="NEDOS">   301</i>
   <i name="EMIN">     10.00000000</i>
   <i name="EMAX">    -10.00000000</i>
   <i name="EFERMI">      0.00000000</i>
  </separator>
  <separator name="writing" >
   <i type="int" name="NWRITE">     2</i>
   <i type="logical" name="LWAVE"> F  </i>
   <i type="logical" name="LCHARG"> F  </i>
   <i type="logical" name="LPARD"> F  </i>
   <i type="logical" name="LVTOT"> F  </i>
   <i type="logical" name="LELF"> F  </i>
   <i type="logical" name="LOPTICS"> F  </i>
   <v name="STM">      0.00000000      0.00000000      0.00000000      0.00000000      0.00000000</v>
  </separator>
  <separator name="performance" >
   <i type="int" name="NPAR">     2</i>
   <i type="int" name="NSIM">     4</i>
   <i type="int" name="NBLK">    32</i>
   <i type="logical" name="LPLANE"> T  </i>
   <i type="logical" name="LSCALAPACK"> F  </i>
   <i type="logical" name="LSCAAWARE"> F  </i>
   <i type="logical" name="LSCALU"> F  </i>
   <i type="logical" name="LASYNC"> F  </i>
  </separator>
  <separator name="miscellaneous" >
   <i type="int" name="IDIOT">     3</i>
   <i type="logical" name="LMUSIC"> F  </i>
   <v name="POMASS">     28.08500000</v>
   <i type="logical" name="LCORR"> T  </i>
  </separator>
  <i type="logical" name="LREAL_COMPAT"> F  </i>
  <i type="logical" name="GGA_COMPAT"> T  </i>
  <i type="logical" name="LBERRY"> F  </i>
  <i type="int" name="ICORELEVEL">     0</i>
  <i type="logical" name="LDAU"> F  </i>
  <i type="int" name="I_CONSTRAINED_M">     0</i>
  <separator name="electronic exchange-correlation" >
   <i type="string" name="GGA">--</i>
   <i type="int" name="VOSKOWN">     0</i>
   <i type="logical" name="LHFCALC"> F  </i>
   <i type="logical" name="LHFONE"> F  </i>
   <i type="logical" name="LRHFCALC"> F  </i>
   <i type="logical" name="LTHOMAS"> F  </i>
   <i type="logical" name="LMODELHF"> F  </i>
   <i name="ENCUTFOCK">      0.00000000</i>
   <i name="ENCUT4O">     -1.00000000</i>
   <i type="int" name="EXXOEP">     0</i>
   <i type="int" name="FOURORBIT">     0</i>
   <i name="AEXX">      0.00000000</i>
   <i name="HFALPHA">      0.00000000</i>
   <i name="ALDAX">      1.00000000</i>
   <i name="AGGAX">      1.00000000</i>
   <i name="ALDAC">      1.00000000</i>
   <i name="AGGAC">      1.00000000</i>
   <i type="int" name="NKREDX">     1</i>
   <i type="int" name="NKREDY">     1</i>
   <i type="int" name="NKREDZ">     1</i>
   <i type="logical" name="SHIFTRED"> F  </i>
   <i type="logical" name="ODDONLY"> F  </i>
   <i type="logical" name="EVENONLY"> F  </i>
   <i type="int" name="LMAXFOCK">     0</i>
   <i type="int" name="NMAXFOCKAE">     0</i>
   <i name="HFSCREEN">      0.00000000</i>
   <i name="HFSCREENC">      0.00000000</i>
  </separator>
  <separator name="model GW" >
   <i type="int" name="MODEL_GW">     0</i>
   <i name="MODEL_EPS0">     12.26923352</i>
   <i name="MODEL_ALPHA">      1.00000000</i>
  </separator>
  <separator name="linear response parameters" >
   <i type="logical" name="LEPSILON"> F  </i>
   <i type="logical" name="LRPA"> F  </i>
   <i type="logical" name="LNABLA"> F  </i>
   <i type="logical" name="LVEL"> F  </i>
   <i type="int" name="KINTER">     0</i>
   <i name="CSHIFT">      0.10000000</i>
   <i name="OMEGAMAX">     -1.00000000</i>
  </separator>
  <separator name="orbital magnetization" >
   <i type="logical" name="ORBITALMAG"> F  </i>
   <i type="logical" name="LMAGBLOCH"> F  </i>
   <i type="logical" name="LCHIMAG"> F  </i>
   <i type="logical" name="LGAUGE"> T  </i>
   <i type="int" name="MAGATOM">     0</i>
   <v name="MAGDIPOL">      0.00000000      0.00000000      0.00000000</v>
   <v name="AVECCONST">      0.00000000      0.00000000      0.00000000</v>
  </separator>
  <separator name="response functions" >
   <i type="logical" name="LRPA"> T  </i>
   <i type="logical" name="LTCTE"> F  </i>
   <i type="logical" name="LTETE"> F  </i>
   <i type="logical" name="L2ORDER"> F  </i>
   <i type="logical" name="LGWLF"> F  </i>
   <i name="ENCUTGW">    346.66666667</i>
   <i name="ENCUTGWSOFT">     -2.00000000</i>
   <i name="ENCUTLF">     -1.00000000</i>
   <i type="int" name="LMAXMP2">    -1</i>
   <i name="SCISSOR">      0.00000000</i>
   <i type="int" name="NOMEGA">     0</i>
   <i type="int" name="NOMEGAR">     0</i>
   <i type="int" name="NBANDSGW">    -1</i>
   <i type="int" name="NBANDSLF">    -1</i>
   <i type="int" name="NELM">   100</i>
   <i type="int" name="DIM">     3</i>
   <i type="int" name="ANTIRES">     0</i>
   <i type="logical" name="LUSEW"> F  </i>
   <i name="OMEGAMAX">    -30.00000000</i>
   <i name="OMEGATL">   -200.00000000</i>
   <i type="int" name="OMEGAGRID">     0</i>
   <i name="CSHIFT">     -0.10000000</i>
   <i type="logical" name="SELFENERGY"> F  </i>
   <i type="logical" name="LSPECTRAL"> F  </i>
   <i type="logical" name="ODDONLYGW"> F  </i>
   <i type="logical" name="EVENONLYGW"> F  </i>
   <i type="int" name="NKREDLFX">     1</i>
   <i type="int" name="NKREDLFY">     1</i>
   <i type="int" name="NKREDLFZ">     1</i>
   <i type="int" name="MAXMEM">  1024</i>
   <i type="int" name="TELESCOPE">     0</i>
  </separator>
 </parameters>
 <atominfo>
  <atoms>       2 </atoms>
  <types>       1 </types>
  <array name="atoms" >
   <dimension dim="1">ion</dimension>
   <field type="string">element</field>
   <field type="int">atomtype</field>
   <set>
    <rc><c>Si</c><c>   1</c></rc>
    <rc><c>Si</c><c>   1</c></rc>
   </set>
  </array>
  <array name="atomtypes" >
   <dimension dim="1">type</dimension>
   <field type="int">atomspertype</field>
   <field type="string">element</field>
   <field>mass</field>
   <field>valence</field>
   <field type="string">pseudopotential</field>
   <set>
    <rc><c>   2</c><c>Si</c><c>     28.08500000</c><c>      4.00000000</c><c> PAW_PBE Si 05Jan2001                   </c></rc>
   </set>
  </array>
 </atominfo>
 <structure name="initialpos" >
  <crystal>
   <varray name="basis" >
    <v>       0.00000000       2.73456800       2.73456800 </v>
    <v>       2.73456800       0.00000000       2.73456800 </v>
    <v>       2.73456800       2.73456800       0.00000000 </v>
   </varray>
   <i name="volume">     40.89744507 </i>
   <varray name="rec_basis" >
    <v>      -0.18284424       0.18284424       0.18284424 </v>
    <v>       0.18284424      -0.18284424       0.18284424 </v>
    <v>       0.18284424       0.18284424      -0.18284424 </v>
   </varray>
  </crystal>
  <varray name="positions" >
   <v>       0.37500000       0.37500000       0.37500000 </v>
   <v>       0.62500000       0.62500000       0.62500000 </v>
  </varray>
 </structure>
 <calculation>
  <scstep>
   <time name="dav">    4.40    4.50</time>
   <time name="total">    4.69    4.81</time>
   <energy>
    <i name="alphaZ">      3.29243828 </i>
    <i name="ewald">   -226.92797187 </i>
    <i name="hartreedc">    -15.17295601 </i>
    <i name="XCdc">    -18.06174858 </i>
    <i name="pawpsdc">     73.60749920 </i>
    <i name="pawaedc">    -38.62612653 </i>
    <i name="eentropy">     -0.00000267 </i>
    <i name="bandstr">     23.45415941 </i>
    <i name="atom">    206.13270273 </i>
    <i name="e_fr_energy">      7.69799397 </i>
    <i name="e_wo_entrp">      7.69799664 </i>
    <i name="e_0_energy">      7.69799530 </i>
   </energy>
  </scstep>
  <scstep>
   <time name="dav">    5.30    5.31</time>
   <time name="total">    5.33    5.34</time>
   <energy>
    <i name="e_fr_energy">    -10.28817592 </i>
    <i name="e_wo_entrp">    -10.28817592 </i>
    <i name="e_0_energy">    -10.28817592 </i>
   </energy>
  </scstep>
  <scstep>
   <time name="dav">    5.31    5.31</time>
   <time name="total">    5.31    5.31</time>
   <energy>
    <i name="e_fr_energy">    -10.84665413 </i>
    <i name="e_wo_entrp">    -10.84665413 </i>
    <i name="e_0_energy">    -10.84665413 </i>
   </energy>
  </scstep>
  <scstep>
   <time name="dav">    4.92    4.92</time>
   <time name="total">    4.92    4.92</time>
   <energy>
    <i name="e_fr_energy">    -10.85069385 </i>
    <i name="e_wo_entrp">    -10.85069385 </i>
    <i name="e_0_energy">    -10.85069385 </i>
   </energy>
  </scstep>
  <scstep>
   <time name="dav">    5.32    5.32</time>
   <time name="total">    5.32    5.32</time>
   <energy>
    <i name="e_fr_energy">    -10.85073370 </i>
    <i name="e_wo_entrp">    -10.85073370 </i>
    <i name="e_0_energy">    -10.85073370 </i>
   </energy>
  </scstep>
  <scstep>
   <time name="dav">    5.13    5.13</time>
   <time name="total">    5.14    5.14</time>
   <energy>
    <i name="alphaZ">      3.29243828 </i>
    <i name="ewald">   -226.92797187 </i>
    <i name="hartreedc">    -15.17295601 </i>
    <i name="XCdc">    -18.06174858 </i>
    <i name="pawpsdc">     73.60749920 </i>
    <i name="pawaedc">    -38.62612653 </i>
    <i name="eentropy">      0.00000000 </i>
    <i name="bandstr">      4.90542859 </i>
    <i name="atom">    206.13270273 </i>
    <i name="e_fr_energy">    -10.85073419 </i>
    <i name="e_wo_entrp">    -10.85073419 </i>
    <i name="e_0_energy">    -10.85073419 </i>
   </energy>
  </scstep>
  <structure>
   <crystal>
    <varray name="basis" >
     <v>       0.00000000       2.73456800       2.73456800 </v>
     <v>       2.73456800       0.00000000       2.73456800 </v>
     <v>       2.73456800       2.73456800       0.00000000 </v>
    </varray>
    <i name="volume">     40.89744507 </i>
    <varray name="rec_basis" >
     <v>      -0.18284424       0.18284424       0.18284424 </v>
     <v>       0.18284424      -0.18284424       0.18284424 </v>
     <v>       0.18284424       0.18284424      -0.18284424 </v>
    </varray>
   </crystal>
   <varray name="positions" >
    <v>       0.37500000       0.37500000       0.37500000 </v>
    <v>       0.62500000       0.62500000       0.62500000 </v>
   </varray>
  </structure>
  <varray name="forces" >
   <v>      -0.44672905      -0.05943900       0.29169369 </v>
   <v>       0.44672905       0.05943900      -0.29169369 </v>
  </varray>
  <varray name="stress" >
   <v>      62.18040156      86.98517729      37.33804878 </v>
   <v>      86.98517446     -65.42063985      12.50923004 </v>
   <v>      37.33804545      12.50922965       7.63030930 </v>
  </varray>
  <energy>
   <i name="e_fr_energy">    -10.85073419 </i>
   <i name="e_wo_entrp">    -10.85073419 </i>
   <i name="e_0_energy">      0.00000000 </i>
  </energy>
  <time name="totalsc">   35.52   35.68</time>
  <eigenvalues>
   <array>
    <dimension dim="1">band</dimension>
    <dimension dim="2">kpoint</dimension>
    <dimension dim="3">spin</dimension>
    <field>eigene</field>
    <field>occ</field>
    <set>
     <set comment="spin 1">
      <set comment="kpoint 1">
       <r>   -6.1999    1.0000 </r>
       <r>    5.6135    1.0000 </r>
       <r>    5.6135    1.0000 </r>
       <r>    5.6135    1.0000 </r>
       <r>    8.1705    0.0000 </r>
       <r>    8.1705    0.0000 </r>
       <r>    8.1705    0.0000 </r>
       <r>    8.7448    0.0000 </r>
       <r>   13.3228    0.0000 </r>
       <r>   13.3228    0.0000 </r>
       <r>   13.4899    0.0000 </r>
       <r>   16.7953    0.0000 </r>
      </set>
      <set comment="kpoint 2">
       <r>   -6.1642    1.0000 </r>
       <r>    5.2203    1.0000 </r>
       <r>    5.5540    1.0000 </r>
       <r>    5.5540    1.0000 </r>
       <r>    8.2149    0.0000 </r>
       <r>    8.2578    0.0000 </r>
       <r>    8.2578    0.0000 </r>
       <r>    9.0322    0.0000 </r>
       <r>   13.2038    0.0000 </r>
       <r>   13.2038    0.0000 </r>
       <r>   13.6468    0.0000 </r>
       <r>   16.6529    0.0000 </r>
      </set>
      <set comment="kpoint 3">
       <r>   -6.0575    1.0000 </r>
       <r>    4.3788    1.0000 </r>
       <r>    5.4018    1.0000 </r>
       <r>    5.4018    1.0000 </r>
       <r>    8.1205    0.0000 </r>
       <r>    8.4827    0.0000 </r>
       <r>    8.4827    0.0000 </r>
       <r>    9.8036    0.0000 </r>
       <r>   12.9462    0.0000 </r>
       <r>   12.9462    0.0000 </r>
       <r>   14.0701    0.0000 </r>
       <r>   16.3452    0.0000 </r>
      </set>
      <set comment="kpoint 4">
       <r>   -5.8812    1.0000 </r>
       <r>    3.4141    1.0000 </r>
       <r>    5.2066    1.0000 </r>
       <r>    5.2066    1.0000 </r>
       <r>    7.9332    0.0000 </r>
       <r>    8.7609    0.0000 </r>
       <r>    8.7609    0.0000 </r>
       <r>   10.7319    0.0000 </r>
       <r>   12.7225    0.0000 </r>
       <r>   12.7225    0.0000 </r>
       <r>   14.5580    0.0000 </r>
       <r>   16.1745    0.0000 </r>
      </set>
      <set comment="kpoint 5">
       <r>   -5.6382    1.0000 </r>
       <r>    2.4385    1.0000 </r>
       <r>    5.0072    1.0000 </r>
       <r>    5.0072    1.0000 </r>
       <r>    7.7235    0.0000 </r>
       <r>    8.9979    0.0000 </r>
       <r>    8.9979    0.0000 </r>
       <r>   11.6778    0.0000 </r>
       <r>   12.6711    0.0000 </r>
       <r>   12.6711    0.0000 </r>
       <r>   14.6733    0.0000 </r>
       <r>   16.6163    0.0000 </r>
      </set>
      <set comment="kpoint 6">
       <r>   -5.3336    1.0000 </r>
       <r>    1.4973    1.0000 </r>
       <r>    4.8258    1.0000 </r>
       <r>    4.8258    1.0000 </r>
       <r>    7.5247    0.0000 </r>
       <r>    9.1229    0.0000 </r>
       <r>    9.1229    0.0000 </r>
       <r>   12.5797    0.0000 </r>
       <r>   12.8793    0.0000 </r>
       <r>   12.8793    0.0000 </r>
       <r>   14.4958    0.0000 </r>
       <r>   17.5944    0.0000 </r>
      </set>
      <set comment="kpoint 7">
       <r>   -4.9773    1.0000 </r>
       <r>    0.6188    1.0000 </r>
       <r>    4.6741    1.0000 </r>
       <r>    4.6741    1.0000 </r>
       <r>    7.3542    0.0000 </r>
       <r>    9.1317    0.0000 </r>
       <r>    9.1317    0.0000 </r>
       <r>   13.2783    0.0000 </r>
       <r>   13.3571    0.0000 </r>
       <r>   13.3571    0.0000 </r>
       <r>   14.4760    0.0000 </r>
       <r>   18.7088    0.0000 </r>
      </set>
      <set comment="kpoint 8">
       <r>   -4.5897    1.0000 </r>
       <r>   -0.1668    1.0000 </r>
       <r>    4.5579    1.0000 </r>
       <r>    4.5579    1.0000 </r>
       <r>    7.2213    0.0000 </r>
       <r>    9.0755    0.0000 </r>
       <r>    9.0755    0.0000 </r>
       <r>   13.4549    0.0000 </r>
       <r>   14.0533    0.0000 </r>
       <r>   14.0533    0.0000 </r>
       <r>   15.0247    0.0000 </r>
       <r>   19.3764    0.0000 </r>
      </set>
      <set comment="kpoint 9">
       <r>   -4.2165    1.0000 </r>
       <r>   -0.8078    1.0000 </r>
       <r>    4.4796    1.0000 </r>
       <r>    4.4796    1.0000 </r>
       <r>    7.1308    0.0000 </r>
       <r>    9.0096    0.0000 </r>
       <r>    9.0096    0.0000 </r>
       <r>   13.3846    0.0000 </r>
       <r>   14.9055    0.0000 </r>
       <r>   14.9055    0.0000 </r>
       <r>   15.8727    0.0000 </r>
       <r>   18.2195    0.0000 </r>
      </set>
      <set comment="kpoint 10">
       <r>   -3.9595    1.0000 </r>
       <r>   -1.1994    1.0000 </r>
       <r>    4.4403    1.0000 </r>
       <r>    4.4403    1.0000 </r>
       <r>    7.0852    0.0000 </r>
       <r>    8.9688    0.0000 </r>
       <r>    8.9688    0.0000 </r>
       <r>   13.3237    0.0000 </r>
       <r>   15.8276    0.0000 </r>
       <r>   15.8276    0.0000 </r>
       <r>   16.6414    0.0000 </r>
       <r>   17.1337    0.0000 </r>
      </set>
      <set comment="kpoint 11">
       <r>   -6.1523    1.0000 </r>
       <r>    5.2964    1.0000 </r>
       <r>    5.4262    1.0000 </r>
       <r>    5.4262    1.0000 </r>
       <r>    8.0564    0.0000 </r>
       <r>    8.4166    0.0000 </r>
       <r>    8.4166    0.0000 </r>
       <r>    9.0510    0.0000 </r>
       <r>   12.9694    0.0000 </r>
       <r>   13.3757    0.0000 </r>
       <r>   13.6987    0.0000 </r>
       <r>   16.8790    0.0000 </r>
      </set>
      <set comment="kpoint 12">
       <r>   -6.0692    1.0000 </r>
       <r>    4.6263    1.0000 </r>
       <r>    5.2300    1.0000 </r>
       <r>    5.3630    1.0000 </r>
       <r>    8.0474    0.0000 </r>
       <r>    8.4929    0.0000 </r>
       <r>    8.6929    0.0000 </r>
       <r>    9.6171    0.0000 </r>
       <r>   12.6364    0.0000 </r>
       <r>   13.3225    0.0000 </r>
       <r>   14.0364    0.0000 </r>
       <r>   16.6491    0.0000 </r>
      </set>
      <set comment="kpoint 13">
       <r>   -5.9159    1.0000 </r>
       <r>    3.7132    1.0000 </r>
       <r>    5.0135    1.0000 </r>
       <r>    5.2252    1.0000 </r>
       <r>    8.1057    0.0000 </r>
       <r>    8.4857    0.0000 </r>
       <r>    9.0085    0.0000 </r>
       <r>   10.4345    0.0000 </r>
       <r>   12.3842    0.0000 </r>
       <r>   13.1725    0.0000 </r>
       <r>   14.5436    0.0000 </r>
       <r>   16.3653    0.0000 </r>
      </set>
      <set comment="kpoint 14">
       <r>   -5.6949    1.0000 </r>
       <r>    2.7519    1.0000 </r>
       <r>    4.8088    1.0000 </r>
       <r>    5.0298    1.0000 </r>
       <r>    7.9992    0.0000 </r>
       <r>    8.6569    0.0000 </r>
       <r>    9.2774    0.0000 </r>
       <r>   11.1522    0.0000 </r>
       <r>   12.4363    0.0000 </r>
       <r>   13.1113    0.0000 </r>
       <r>   14.8609    0.0000 </r>
       <r>   16.4983    0.0000 </r>
      </set>
      <set comment="kpoint 15">
       <r>   -5.4101    1.0000 </r>
       <r>    1.8063    1.0000 </r>
       <r>    4.6336    1.0000 </r>
       <r>    4.8208    1.0000 </r>
       <r>    7.8234    0.0000 </r>
       <r>    8.8416    0.0000 </r>
       <r>    9.4256    0.0000 </r>
       <r>   11.6182    0.0000 </r>
       <r>   12.9729    0.0000 </r>
       <r>   13.2711    0.0000 </r>
       <r>   14.7495    0.0000 </r>
       <r>   17.2931    0.0000 </r>
      </set>
      <set comment="kpoint 16">
       <r>   -5.0696    1.0000 </r>
       <r>    0.9106    1.0000 </r>
       <r>    4.4971    1.0000 </r>
       <r>    4.6236    1.0000 </r>
       <r>    7.6541    0.0000 </r>
       <r>    8.9256    0.0000 </r>
       <r>    9.4361    0.0000 </r>
       <r>   12.0784    0.0000 </r>
       <r>   13.6952    0.0000 </r>
       <r>   13.7063    0.0000 </r>
       <r>   14.6003    0.0000 </r>
       <r>   18.3585    0.0000 </r>
      </set>
      <set comment="kpoint 17">
       <r>   -4.6891    1.0000 </r>
       <r>    0.0942    1.0000 </r>
       <r>    4.4036    1.0000 </r>
       <r>    4.4516    1.0000 </r>
       <r>    7.5134    0.0000 </r>
       <r>    8.9258    0.0000 </r>
       <r>    9.3550    0.0000 </r>
       <r>   12.6671    0.0000 </r>
       <r>   14.0260    0.0000 </r>
       <r>   14.3471    0.0000 </r>
       <r>   15.0148    0.0000 </r>
       <r>   19.1646    0.0000 </r>
      </set>
      <set comment="kpoint 18">
       <r>   -4.3032    1.0000 </r>
       <r>   -0.6008    1.0000 </r>
       <r>    4.3121    1.0000 </r>
       <r>    4.3546    1.0000 </r>
       <r>    7.4106    0.0000 </r>
       <r>    8.9010    0.0000 </r>
       <r>    9.2430    0.0000 </r>
       <r>   13.2223    0.0000 </r>
       <r>   14.1608    0.0000 </r>
       <r>   15.1627    0.0000 </r>
       <r>   15.8848    0.0000 </r>
       <r>   18.0675    0.0000 </r>
      </set>
      <set comment="kpoint 19">
       <r>   -3.9913    1.0000 </r>
       <r>   -1.0905    1.0000 </r>
       <r>    4.2096    1.0000 </r>
       <r>    4.3497    1.0000 </r>
       <r>    7.3500    0.0000 </r>
       <r>    8.8951    0.0000 </r>
       <r>    9.1428    0.0000 </r>
       <r>   13.4189    0.0000 </r>
       <r>   14.7600    0.0000 </r>
       <r>   16.0206    0.0000 </r>
       <r>   16.7213    0.0000 </r>
       <r>   17.0067    0.0000 </r>
      </set>
      <set comment="kpoint 20">
       <r>   -3.8942    1.0000 </r>
       <r>   -1.2321    1.0000 </r>
       <r>    4.1471    1.0000 </r>
       <r>    4.3873    1.0000 </r>
       <r>    7.3336    0.0000 </r>
       <r>    8.9293    0.0000 </r>
       <r>    9.0769    0.0000 </r>
       <r>   13.4475    0.0000 </r>
       <r>   15.4762    0.0000 </r>
       <r>   15.6671    0.0000 </r>
       <r>   16.6577    0.0000 </r>
       <r>   17.3181    0.0000 </r>
      </set>
      <set comment="kpoint 21">
       <r>   -4.0794    1.0000 </r>
       <r>   -0.9576    1.0000 </r>
       <r>    4.1271    1.0000 </r>
       <r>    4.4654    1.0000 </r>
       <r>    7.3619    0.0000 </r>
       <r>    9.0070    0.0000 </r>
       <r>    9.0516    0.0000 </r>
       <r>   13.4601    0.0000 </r>
       <r>   14.6948    0.0000 </r>
       <r>   15.2028    0.0000 </r>
       <r>   16.7632    0.0000 </r>
       <r>   17.1368    0.0000 </r>
      </set>
      <set comment="kpoint 22">
       <r>   -4.4292    1.0000 </r>
       <r>   -0.3857    1.0000 </r>
       <r>    4.1516    1.0000 </r>
       <r>    4.5808    1.0000 </r>
       <r>    7.4343    0.0000 </r>
       <r>    9.0581    0.0000 </r>
       <r>    9.1171    0.0000 </r>
       <r>   13.3729    0.0000 </r>
       <r>   13.8065    0.0000 </r>
       <r>   14.5954    0.0000 </r>
       <r>   15.8329    0.0000 </r>
       <r>   18.1610    0.0000 </r>
      </set>
      <set comment="kpoint 23">
       <r>   -4.8192    1.0000 </r>
       <r>    0.3563    1.0000 </r>
       <r>    4.2220    1.0000 </r>
       <r>    4.7300    1.0000 </r>
       <r>    7.5490    0.0000 </r>
       <r>    9.0691    0.0000 </r>
       <r>    9.2297    0.0000 </r>
       <r>   12.9631    0.0000 </r>
       <r>   13.0679    0.0000 </r>
       <r>   14.3845    0.0000 </r>
       <r>   14.9395    0.0000 </r>
       <r>   18.8237    0.0000 </r>
      </set>
      <set comment="kpoint 24">
       <r>   -5.1889    1.0000 </r>
       <r>    1.2024    1.0000 </r>
       <r>    4.3384    1.0000 </r>
       <r>    4.9071    1.0000 </r>
       <r>    7.7019    0.0000 </r>
       <r>    9.0360    0.0000 </r>
       <r>    9.2903    0.0000 </r>
       <r>   12.3642    0.0000 </r>
       <r>   12.5392    0.0000 </r>
       <r>   14.0048    0.0000 </r>
       <r>   14.6367    0.0000 </r>
       <r>   17.9717    0.0000 </r>
      </set>
      <set comment="kpoint 25">
       <r>   -5.5120    1.0000 </r>
       <r>    2.1167    1.0000 </r>
       <r>    4.4999    1.0000 </r>
       <r>    5.1029    1.0000 </r>
       <r>    7.8850    0.0000 </r>
       <r>    8.9077    0.0000 </r>
       <r>    9.2273    0.0000 </r>
       <r>   11.7398    0.0000 </r>
       <r>   12.2793    0.0000 </r>
       <r>   13.3949    0.0000 </r>
       <r>   14.8321    0.0000 </r>
       <r>   16.9640    0.0000 </r>
      </set>
      <set comment="kpoint 26">
       <r>   -5.7761    1.0000 </r>
       <r>    3.0679    1.0000 </r>
       <r>    4.7031    1.0000 </r>
       <r>    5.3008    1.0000 </r>
       <r>    8.0829    0.0000 </r>
       <r>    8.6836    0.0000 </r>
       <r>    9.0059    0.0000 </r>
       <r>   11.0332    0.0000 </r>
       <r>   12.2964    0.0000 </r>
       <r>   13.1017    0.0000 </r>
       <r>   14.8162    0.0000 </r>
       <r>   16.3754    0.0000 </r>
      </set>
      <set comment="kpoint 27">
       <r>   -5.9748    1.0000 </r>
       <r>    4.0078    1.0000 </r>
       <r>    4.9441    1.0000 </r>
       <r>    5.4711    1.0000 </r>
       <r>    8.2654    0.0000 </r>
       <r>    8.4367    0.0000 </r>
       <r>    8.6794    0.0000 </r>
       <r>   10.2307    0.0000 </r>
       <r>   12.5269    0.0000 </r>
       <r>   13.1119    0.0000 </r>
       <r>   14.3688    0.0000 </r>
       <r>   16.4421    0.0000 </r>
      </set>
      <set comment="kpoint 28">
       <r>   -6.1048    1.0000 </r>
       <r>    4.8090    1.0000 </r>
       <r>    5.2383    1.0000 </r>
       <r>    5.5694    1.0000 </r>
       <r>    8.2686    0.0000 </r>
       <r>    8.3442    0.0000 </r>
       <r>    8.3812    0.0000 </r>
       <r>    9.4694    0.0000 </r>
       <r>   12.8708    0.0000 </r>
       <r>   13.2216    0.0000 </r>
       <r>   13.8944    0.0000 </r>
       <r>   16.6788    0.0000 </r>
      </set>
      <set comment="kpoint 29">
       <r>   -6.0097    1.0000 </r>
       <r>    4.5764    1.0000 </r>
       <r>    5.0056    1.0000 </r>
       <r>    5.0056    1.0000 </r>
       <r>    7.7644    0.0000 </r>
       <r>    9.0119    0.0000 </r>
       <r>    9.0119    0.0000 </r>
       <r>    9.6571    0.0000 </r>
       <r>   12.2873    0.0000 </r>
       <r>   13.5343    0.0000 </r>
       <r>   14.2723    0.0000 </r>
       <r>   17.1271    0.0000 </r>
      </set>
      <set comment="kpoint 30">
       <r>   -5.8797    1.0000 </r>
       <r>    3.8913    1.0000 </r>
       <r>    4.7730    1.0000 </r>
       <r>    4.8731    1.0000 </r>
       <r>    7.7137    0.0000 </r>
       <r>    9.0934    0.0000 </r>
       <r>    9.3692    0.0000 </r>
       <r>   10.1502    0.0000 </r>
       <r>   12.1124    0.0000 </r>
       <r>   13.5597    0.0000 </r>
       <r>   14.7272    0.0000 </r>
       <r>   16.9213    0.0000 </r>
      </set>
      <set comment="kpoint 31">
       <r>   -5.6811    1.0000 </r>
       <r>    3.0093    1.0000 </r>
       <r>    4.5602    1.0000 </r>
       <r>    4.7045    1.0000 </r>
       <r>    7.8327    0.0000 </r>
       <r>    9.0100    0.0000 </r>
       <r>    9.6860    0.0000 </r>
       <r>   10.5165    0.0000 </r>
       <r>   12.4052    0.0000 </r>
       <r>   13.5489    0.0000 </r>
       <r>   15.2080    0.0000 </r>
       <r>   16.7612    0.0000 </r>
      </set>
      <set comment="kpoint 32">
       <r>   -5.4173    1.0000 </r>
       <r>    2.0967    1.0000 </r>
       <r>    4.3832    1.0000 </r>
       <r>    4.4799    1.0000 </r>
       <r>    7.9433    0.0000 </r>
       <r>    8.9845    0.0000 </r>
       <r>    9.8832    0.0000 </r>
       <r>   10.6558    0.0000 </r>
       <r>   13.1409    0.0000 </r>
       <r>   13.6838    0.0000 </r>
       <r>   15.3023    0.0000 </r>
       <r>   17.2031    0.0000 </r>
      </set>
      <set comment="kpoint 33">
       <r>   -5.0945    1.0000 </r>
       <r>    1.2082    1.0000 </r>
       <r>    4.2427    1.0000 </r>
       <r>    4.2505    1.0000 </r>
       <r>    7.9390    0.0000 </r>
       <r>    9.0087    0.0000 </r>
       <r>    9.9245    0.0000 </r>
       <r>   10.9155    0.0000 </r>
       <r>   14.0222    0.0000 </r>
       <r>   14.0605    0.0000 </r>
       <r>   15.1090    0.0000 </r>
       <r>   18.1170    0.0000 </r>
      </set>
      <set comment="kpoint 34">
       <r>   -4.7249    1.0000 </r>
       <r>    0.3791    1.0000 </r>
       <r>    4.0195    1.0000 </r>
       <r>    4.1663    1.0000 </r>
       <r>    7.8667    0.0000 </r>
       <r>    8.9994    0.0000 </r>
       <r>    9.8447    0.0000 </r>
       <r>   11.4286    0.0000 </r>
       <r>   14.6270    0.0000 </r>
       <r>   14.6706    0.0000 </r>
       <r>   15.2127    0.0000 </r>
       <r>   18.9242    0.0000 </r>
      </set>
      <set comment="kpoint 35">
       <r>   -4.3347    1.0000 </r>
       <r>   -0.3521    1.0000 </r>
       <r>    3.8249    1.0000 </r>
       <r>    4.1321    1.0000 </r>
       <r>    7.7914    0.0000 </r>
       <r>    8.9643    0.0000 </r>
       <r>    9.7084    0.0000 </r>
       <r>   12.1340    0.0000 </r>
       <r>   14.5354    0.0000 </r>
       <r>   15.4531    0.0000 </r>
       <r>   16.0813    0.0000 </r>
       <r>   17.9572    0.0000 </r>
      </set>
      <set comment="kpoint 36">
       <r>   -3.9843    1.0000 </r>
       <r>   -0.9179    1.0000 </r>
       <r>    3.6673    1.0000 </r>
       <r>    4.1473    1.0000 </r>
       <r>    7.7441    0.0000 </r>
       <r>    8.9446    0.0000 </r>
       <r>    9.5663    0.0000 </r>
       <r>   12.9173    0.0000 </r>
       <r>   14.4509    0.0000 </r>
       <r>   16.2228    0.0000 </r>
       <r>   16.9222    0.0000 </r>
       <r>   16.9521    0.0000 </r>
      </set>
      <set comment="kpoint 37">
       <r>   -3.7990    1.0000 </r>
       <r>   -1.1893    1.0000 </r>
       <r>    3.5524    1.0000 </r>
       <r>    4.2102    1.0000 </r>
       <r>    7.7366    0.0000 </r>
       <r>    8.9649    0.0000 </r>
       <r>    9.4477    0.0000 </r>
       <r>   13.5613    0.0000 </r>
       <r>   14.5423    0.0000 </r>
       <r>   15.5518    0.0000 </r>
       <r>   16.6666    0.0000 </r>
       <r>   17.5427    0.0000 </r>
      </set>
      <set comment="kpoint 38">
       <r>   -3.8980    1.0000 </r>
       <r>   -1.0459    1.0000 </r>
       <r>    3.4847    1.0000 </r>
       <r>    4.3176    1.0000 </r>
       <r>    7.7716    0.0000 </r>
       <r>    9.0333    0.0000 </r>
       <r>    9.3641    0.0000 </r>
       <r>   13.7112    0.0000 </r>
       <r>   14.5386    0.0000 </r>
       <r>   14.7734    0.0000 </r>
       <r>   16.4213    0.0000 </r>
       <r>   18.1889    0.0000 </r>
      </set>
      <set comment="kpoint 39">
       <r>   -4.2116    1.0000 </r>
       <r>   -0.5581    1.0000 </r>
       <r>    3.4680    1.0000 </r>
       <r>    4.4648    1.0000 </r>
       <r>    7.8477    0.0000 </r>
       <r>    9.1447    0.0000 </r>
       <r>    9.3121    0.0000 </r>
       <r>   13.3605    0.0000 </r>
       <r>   13.6172    0.0000 </r>
       <r>   14.7920    0.0000 </r>
       <r>   17.0365    0.0000 </r>
       <r>   17.2249    0.0000 </r>
      </set>
      <set comment="kpoint 40">
       <r>   -4.5979    1.0000 </r>
       <r>    0.1286    1.0000 </r>
       <r>    3.5058    1.0000 </r>
       <r>    4.6455    1.0000 </r>
       <r>    7.9612    0.0000 </r>
       <r>    9.2697    0.0000 </r>
       <r>    9.2762    0.0000 </r>
       <r>   12.7235    0.0000 </r>
       <r>   12.8416    0.0000 </r>
       <r>   14.8983    0.0000 </r>
       <r>   16.2274    0.0000 </r>
       <r>   17.9492    0.0000 </r>
      </set>
      <set comment="kpoint 41">
       <r>   -4.9780    1.0000 </r>
       <r>    0.9279    1.0000 </r>
       <r>    3.6022    1.0000 </r>
       <r>    4.8504    1.0000 </r>
       <r>    8.1065    0.0000 </r>
       <r>    9.1933    0.0000 </r>
       <r>    9.3740    0.0000 </r>
       <r>   12.0684    0.0000 </r>
       <r>   12.2720    0.0000 </r>
       <r>   15.1022    0.0000 </r>
       <r>   15.2906    0.0000 </r>
       <r>   18.1187    0.0000 </r>
      </set>
      <set comment="kpoint 42">
       <r>   -5.3178    1.0000 </r>
       <r>    1.7900    1.0000 </r>
       <r>    3.7637    1.0000 </r>
       <r>    5.0651    1.0000 </r>
       <r>    8.2743    0.0000 </r>
       <r>    9.0342    0.0000 </r>
       <r>    9.3405    0.0000 </r>
       <r>   11.5467    0.0000 </r>
       <r>   11.9722    0.0000 </r>
       <r>   14.4035    0.0000 </r>
       <r>   15.3405    0.0000 </r>
       <r>   17.3152    0.0000 </r>
      </set>
      <set comment="kpoint 43">
       <r>   -5.6018    1.0000 </r>
       <r>    2.6637    1.0000 </r>
       <r>    4.0080    1.0000 </r>
       <r>    5.2662    1.0000 </r>
       <r>    8.4445    0.0000 </r>
       <r>    8.7965    0.0000 </r>
       <r>    9.0968    0.0000 </r>
       <r>   11.1748    0.0000 </r>
       <r>   11.9569    0.0000 </r>
       <r>   13.6928    0.0000 </r>
       <r>   15.3197    0.0000 </r>
       <r>   16.7380    0.0000 </r>
      </set>
      <set comment="kpoint 44">
       <r>   -5.8222    1.0000 </r>
       <r>    3.4490    1.0000 </r>
       <r>    4.3880    1.0000 </r>
       <r>    5.4169    1.0000 </r>
       <r>    8.5380    0.0000 </r>
       <r>    8.5624    0.0000 </r>
       <r>    8.7509    0.0000 </r>
       <r>   10.7651    0.0000 </r>
       <r>   12.1691    0.0000 </r>
       <r>   13.2725    0.0000 </r>
       <r>   14.8656    0.0000 </r>
       <r>   16.6521    0.0000 </r>
      </set>
      <set comment="kpoint 45">
       <r>   -5.7730    1.0000 </r>
       <r>    3.7098    1.0000 </r>
       <r>    4.5278    1.0000 </r>
       <r>    4.5278    1.0000 </r>
       <r>    7.3921    0.0000 </r>
       <r>    9.7774    0.0000 </r>
       <r>    9.7774    0.0000 </r>
       <r>    9.8749    0.0000 </r>
       <r>   12.0618    0.0000 </r>
       <r>   13.7985    0.0000 </r>
       <r>   15.1062    0.0000 </r>
       <r>   17.5342    0.0000 </r>
      </set>
      <set comment="kpoint 46">
       <r>   -5.5971    1.0000 </r>
       <r>    3.0806    1.0000 </r>
       <r>    4.3053    1.0000 </r>
       <r>    4.3281    1.0000 </r>
       <r>    7.3379    0.0000 </r>
       <r>    9.6000    0.0000 </r>
       <r>   10.1597    0.0000 </r>
       <r>   10.1622    0.0000 </r>
       <r>   12.4575    0.0000 </r>
       <r>   13.9146    0.0000 </r>
       <r>   15.6142    0.0000 </r>
       <r>   17.4001    0.0000 </r>
      </set>
      <set comment="kpoint 47">
       <r>   -5.3548    1.0000 </r>
       <r>    2.2841    1.0000 </r>
       <r>    4.0908    1.0000 </r>
       <r>    4.1210    1.0000 </r>
       <r>    7.4761    0.0000 </r>
       <r>    9.4784    0.0000 </r>
       <r>   10.1773    0.0000 </r>
       <r>   10.4323    0.0000 </r>
       <r>   13.2577    0.0000 </r>
       <r>   14.0707    0.0000 </r>
       <r>   15.9685    0.0000 </r>
       <r>   17.4404    0.0000 </r>
      </set>
      <set comment="kpoint 48">
       <r>   -5.0511    1.0000 </r>
       <r>    1.4530    1.0000 </r>
       <r>    3.8135    1.0000 </r>
       <r>    3.9839    1.0000 </r>
       <r>    7.6243    0.0000 </r>
       <r>    9.5747    0.0000 </r>
       <r>   10.1001    0.0000 </r>
       <r>   10.5358    0.0000 </r>
       <r>   14.2155    0.0000 </r>
       <r>   14.4186    0.0000 </r>
       <r>   15.8859    0.0000 </r>
       <r>   18.0799    0.0000 </r>
      </set>
      <set comment="kpoint 49">
       <r>   -4.6954    1.0000 </r>
       <r>    0.6452    1.0000 </r>
       <r>    3.5363    1.0000 </r>
       <r>    3.8984    1.0000 </r>
       <r>    7.6783    0.0000 </r>
       <r>    9.7080    0.0000 </r>
       <r>   10.2739    0.0000 </r>
       <r>   10.4855    0.0000 </r>
       <r>   14.9963    0.0000 </r>
       <r>   15.1666    0.0000 </r>
       <r>   15.6838    0.0000 </r>
       <r>   18.8996    0.0000 </r>
      </set>
      <set comment="kpoint 50">
       <r>   -4.3076    1.0000 </r>
       <r>   -0.0953    1.0000 </r>
       <r>    3.2842    1.0000 </r>
       <r>    3.8665    1.0000 </r>
       <r>    7.6759    0.0000 </r>
       <r>    9.6451    0.0000 </r>
       <r>   10.3475    0.0000 </r>
       <r>   10.8996    0.0000 </r>
       <r>   15.2873    0.0000 </r>
       <r>   15.7547    0.0000 </r>
       <r>   16.3050    0.0000 </r>
       <r>   17.8860    0.0000 </r>
      </set>
      <set comment="kpoint 51">
       <r>   -3.9328    1.0000 </r>
       <r>   -0.7098    1.0000 </r>
       <r>    3.0710    1.0000 </r>
       <r>    3.8880    1.0000 </r>
       <r>    7.6796    0.0000 </r>
       <r>    9.5641    0.0000 </r>
       <r>   10.1826    0.0000 </r>
       <r>   11.7272    0.0000 </r>
       <r>   15.0284    0.0000 </r>
       <r>   16.4000    0.0000 </r>
       <r>   16.9869    0.0000 </r>
       <r>   17.1852    0.0000 </r>
      </set>
      <set comment="kpoint 52">
       <r>   -3.6743    1.0000 </r>
       <r>   -1.0880    1.0000 </r>
       <r>    2.9050    1.0000 </r>
       <r>    3.9615    1.0000 </r>
       <r>    7.7211    0.0000 </r>
       <r>    9.5151    0.0000 </r>
       <r>   10.0276    0.0000 </r>
       <r>   12.6521    0.0000 </r>
       <r>   14.6736    0.0000 </r>
       <r>   15.4883    0.0000 </r>
       <r>   16.9378    0.0000 </r>
       <r>   17.7860    0.0000 </r>
      </set>
      <set comment="kpoint 53">
       <r>   -3.6787    1.0000 </r>
       <r>   -1.0803    1.0000 </r>
       <r>    2.7928    1.0000 </r>
       <r>    4.0838    1.0000 </r>
       <r>    7.8105    0.0000 </r>
       <r>    9.5093    0.0000 </r>
       <r>    9.8993    0.0000 </r>
       <r>   13.5982    0.0000 </r>
       <r>   14.1255    0.0000 </r>
       <r>   14.4417    0.0000 </r>
       <r>   16.5994    0.0000 </r>
       <r>   18.8795    0.0000 </r>
      </set>
      <set comment="kpoint 54">
       <r>   -3.9424    1.0000 </r>
       <r>   -0.6911    1.0000 </r>
       <r>    2.7402    1.0000 </r>
       <r>    4.2497    1.0000 </r>
       <r>    7.9457    0.0000 </r>
       <r>    9.5471    0.0000 </r>
       <r>    9.7971    0.0000 </r>
       <r>   13.3562    0.0000 </r>
       <r>   13.4920    0.0000 </r>
       <r>   14.5104    0.0000 </r>
       <r>   16.6872    0.0000 </r>
       <r>   18.6990    0.0000 </r>
      </set>
      <set comment="kpoint 55">
       <r>   -4.3181    1.0000 </r>
       <r>   -0.0736    1.0000 </r>
       <r>    2.7544    1.0000 </r>
       <r>    4.4517    1.0000 </r>
       <r>    8.1171    0.0000 </r>
       <r>    9.6162    0.0000 </r>
       <r>    9.7007    0.0000 </r>
       <r>   12.5604    0.0000 </r>
       <r>   12.6890    0.0000 </r>
       <r>   15.1945    0.0000 </r>
       <r>   17.1780    0.0000 </r>
       <r>   17.6488    0.0000 </r>
      </set>
      <set comment="kpoint 56">
       <r>   -4.7049    1.0000 </r>
       <r>    0.6572    1.0000 </r>
       <r>    2.8479    1.0000 </r>
       <r>    4.6782    1.0000 </r>
       <r>    8.3081    0.0000 </r>
       <r>    9.5648    0.0000 </r>
       <r>    9.6713    0.0000 </r>
       <r>   11.8389    0.0000 </r>
       <r>   12.0977    0.0000 </r>
       <r>   15.6529    0.0000 </r>
       <r>   16.5957    0.0000 </r>
       <r>   17.7281    0.0000 </r>
      </set>
      <set comment="kpoint 57">
       <r>   -5.0590    1.0000 </r>
       <r>    1.4224    1.0000 </r>
       <r>    3.0478    1.0000 </r>
       <r>    4.9108    1.0000 </r>
       <r>    8.4920    0.0000 </r>
       <r>    9.3409    0.0000 </r>
       <r>    9.5970    0.0000 </r>
       <r>   11.3458    0.0000 </r>
       <r>   11.7872    0.0000 </r>
       <r>   15.5209    0.0000 </r>
       <r>   15.9804    0.0000 </r>
       <r>   17.4091    0.0000 </r>
      </set>
      <set comment="kpoint 58">
       <r>   -5.3611    1.0000 </r>
       <r>    2.1247    1.0000 </r>
       <r>    3.4161    1.0000 </r>
       <r>    5.1209    1.0000 </r>
       <r>    8.6029    0.0000 </r>
       <r>    9.0505    0.0000 </r>
       <r>    9.3149    0.0000 </r>
       <r>   11.1856    0.0000 </r>
       <r>   11.7627    0.0000 </r>
       <r>   14.5471    0.0000 </r>
       <r>   15.8608    0.0000 </r>
       <r>   16.9602    0.0000 </r>
      </set>
      <set comment="kpoint 59">
       <r>   -5.4438    1.0000 </r>
       <r>    2.7935    1.0000 </r>
       <r>    4.0722    1.0000 </r>
       <r>    4.0722    1.0000 </r>
       <r>    7.0177    0.0000 </r>
       <r>    9.3228    0.0000 </r>
       <r>   10.6294    0.0000 </r>
       <r>   10.6294    0.0000 </r>
       <r>   12.7284    0.0000 </r>
       <r>   14.1680    0.0000 </r>
       <r>   16.1057    0.0000 </r>
       <r>   18.0773    0.0000 </r>
      </set>
      <set comment="kpoint 60">
       <r>   -5.2233    1.0000 </r>
       <r>    2.2208    1.0000 </r>
       <r>    3.8320    1.0000 </r>
       <r>    3.8777    1.0000 </r>
       <r>    6.9842    0.0000 </r>
       <r>    9.0174    0.0000 </r>
       <r>   10.8828    0.0000 </r>
       <r>   11.0091    0.0000 </r>
       <r>   13.3957    0.0000 </r>
       <r>   14.3852    0.0000 </r>
       <r>   16.6024    0.0000 </r>
       <r>   18.0492    0.0000 </r>
      </set>
      <set comment="kpoint 61">
       <r>   -4.9396    1.0000 </r>
       <r>    1.5287    1.0000 </r>
       <r>    3.5166    1.0000 </r>
       <r>    3.7312    1.0000 </r>
       <r>    7.1406    0.0000 </r>
       <r>    8.9251    0.0000 </r>
       <r>   10.8689    0.0000 </r>
       <r>   11.2141    0.0000 </r>
       <r>   14.3385    0.0000 </r>
       <r>   14.7268    0.0000 </r>
       <r>   16.7544    0.0000 </r>
       <r>   18.3194    0.0000 </r>
      </set>
      <set comment="kpoint 62">
       <r>   -4.6001    1.0000 </r>
       <r>    0.8037    1.0000 </r>
       <r>    3.1710    1.0000 </r>
       <r>    3.6377    1.0000 </r>
       <r>    7.2845    0.0000 </r>
       <r>    9.1608    0.0000 </r>
       <r>   10.7570    0.0000 </r>
       <r>   11.2276    0.0000 </r>
       <r>   15.2848    0.0000 </r>
       <r>   15.3720    0.0000 </r>
       <r>   16.5349    0.0000 </r>
       <r>   18.8263    0.0000 </r>
      </set>
      <set comment="kpoint 63">
       <r>   -4.2197    1.0000 </r>
       <r>    0.1010    1.0000 </r>
       <r>    2.8437    1.0000 </r>
       <r>    3.5999    1.0000 </r>
       <r>    7.3410    0.0000 </r>
       <r>    9.7238    0.0000 </r>
       <r>   10.6278    0.0000 </r>
       <r>   11.1121    0.0000 </r>
       <r>   16.0342    0.0000 </r>
       <r>   16.0991    0.0000 </r>
       <r>   16.5168    0.0000 </r>
       <r>   17.8535    0.0000 </r>
      </set>
      <set comment="kpoint 64">
       <r>   -3.8320    1.0000 </r>
       <r>   -0.5221    1.0000 </r>
       <r>    2.5602    1.0000 </r>
       <r>    3.6181    1.0000 </r>
       <r>    7.3737    0.0000 </r>
       <r>   10.4304    0.0000 </r>
       <r>   10.5892    0.0000 </r>
       <r>   10.9418    0.0000 </r>
       <r>   15.6880    0.0000 </r>
       <r>   16.5344    0.0000 </r>
       <r>   17.0993    0.0000 </r>
       <r>   17.4855    0.0000 </r>
      </set>
      <set comment="kpoint 65">
       <r>   -3.5176    1.0000 </r>
       <r>   -0.9712    1.0000 </r>
       <r>    2.3334    1.0000 </r>
       <r>    3.6912    1.0000 </r>
       <r>    7.4370    0.0000 </r>
       <r>   10.4039    0.0000 </r>
       <r>   10.7645    0.0000 </r>
       <r>   11.4481    0.0000 </r>
       <r>   15.0561    0.0000 </r>
       <r>   15.4791    0.0000 </r>
       <r>   17.5487    0.0000 </r>
       <r>   18.0260    0.0000 </r>
      </set>
      <set comment="kpoint 66">
       <r>   -3.4279    1.0000 </r>
       <r>   -1.0887    1.0000 </r>
       <r>    2.1719    1.0000 </r>
       <r>    3.8165    1.0000 </r>
       <r>    7.5518    0.0000 </r>
       <r>   10.3504    0.0000 </r>
       <r>   10.6023    0.0000 </r>
       <r>   12.4553    0.0000 </r>
       <r>   14.2467    0.0000 </r>
       <r>   14.4068    0.0000 </r>
       <r>   17.3320    0.0000 </r>
       <r>   19.1223    0.0000 </r>
      </set>
      <set comment="kpoint 67">
       <r>   -3.6293    1.0000 </r>
       <r>   -0.8092    1.0000 </r>
       <r>    2.0851    1.0000 </r>
       <r>    3.9891    1.0000 </r>
       <r>    7.7207    0.0000 </r>
       <r>   10.3303    0.0000 </r>
       <r>   10.4560    0.0000 </r>
       <r>   13.2887    0.0000 </r>
       <r>   13.4370    0.0000 </r>
       <r>   13.5806    0.0000 </r>
       <r>   17.3297    0.0000 </r>
       <r>   20.2830    0.0000 </r>
      </set>
      <set comment="kpoint 68">
       <r>   -3.9869    1.0000 </r>
       <r>   -0.2791    1.0000 </r>
       <r>    2.0877    1.0000 </r>
       <r>    4.2013    1.0000 </r>
       <r>    7.9352    0.0000 </r>
       <r>   10.2995    0.0000 </r>
       <r>   10.3323    0.0000 </r>
       <r>   12.4572    0.0000 </r>
       <r>   12.6243    0.0000 </r>
       <r>   14.5932    0.0000 </r>
       <r>   17.4936    0.0000 </r>
       <r>   19.0700    0.0000 </r>
      </set>
      <set comment="kpoint 69">
       <r>   -4.3762    1.0000 </r>
       <r>    0.3460    1.0000 </r>
       <r>    2.2099    1.0000 </r>
       <r>    4.4407    1.0000 </r>
       <r>    8.1747    0.0000 </r>
       <r>   10.0724    0.0000 </r>
       <r>   10.2954    0.0000 </r>
       <r>   11.7113    0.0000 </r>
       <r>   12.0504    0.0000 </r>
       <r>   15.5446    0.0000 </r>
       <r>   17.6422    0.0000 </r>
       <r>   18.0065    0.0000 </r>
      </set>
      <set comment="kpoint 70">
       <r>   -4.7415    1.0000 </r>
       <r>    0.9447    1.0000 </r>
       <r>    2.5112    1.0000 </r>
       <r>    4.6877    1.0000 </r>
       <r>    8.3958    0.0000 </r>
       <r>    9.7300    0.0000 </r>
       <r>   10.0414    0.0000 </r>
       <r>   11.3207    0.0000 </r>
       <r>   11.7839    0.0000 </r>
       <r>   16.1506    0.0000 </r>
       <r>   16.6919    0.0000 </r>
       <r>   17.5968    0.0000 </r>
      </set>
      <set comment="kpoint 71">
       <r>   -5.0244    1.0000 </r>
       <r>    1.8617    1.0000 </r>
       <r>    3.6714    1.0000 </r>
       <r>    3.6714    1.0000 </r>
       <r>    6.6896    0.0000 </r>
       <r>    8.5588    0.0000 </r>
       <r>   11.5318    0.0000 </r>
       <r>   11.5318    0.0000 </r>
       <r>   13.7484    0.0000 </r>
       <r>   14.6424    0.0000 </r>
       <r>   17.1855    0.0000 </r>
       <r>   18.6756    0.0000 </r>
      </set>
      <set comment="kpoint 72">
       <r>   -4.7611    1.0000 </r>
       <r>    1.3335    1.0000 </r>
       <r>    3.4165    1.0000 </r>
       <r>    3.5127    1.0000 </r>
       <r>    6.6900    0.0000 </r>
       <r>    8.2832    0.0000 </r>
       <r>   11.7926    0.0000 </r>
       <r>   11.8931    0.0000 </r>
       <r>   14.4841    0.0000 </r>
       <r>   14.9682    0.0000 </r>
       <r>   17.5693    0.0000 </r>
       <r>   18.8074    0.0000 </r>
      </set>
      <set comment="kpoint 73">
       <r>   -4.4392    1.0000 </r>
       <r>    0.7373    1.0000 </r>
       <r>    3.0402    1.0000 </r>
       <r>    3.4075    1.0000 </r>
       <r>    6.8607    0.0000 </r>
       <r>    8.2836    0.0000 </r>
       <r>   11.7898    0.0000 </r>
       <r>   12.0230    0.0000 </r>
       <r>   15.4718    0.0000 </r>
       <r>   15.4994    0.0000 </r>
       <r>   17.4169    0.0000 </r>
       <r>   18.7872    0.0000 </r>
      </set>
      <set comment="kpoint 74">
       <r>   -4.0700    1.0000 </r>
       <r>    0.1266    1.0000 </r>
       <r>    2.6301    1.0000 </r>
       <r>    3.3588    1.0000 </r>
       <r>    6.9858    0.0000 </r>
       <r>    8.6602    0.0000 </r>
       <r>   11.6915    0.0000 </r>
       <r>   11.9639    0.0000 </r>
       <r>   16.2480    0.0000 </r>
       <r>   16.5111    0.0000 </r>
       <r>   16.9668    0.0000 </r>
       <r>   17.8614    0.0000 </r>
      </set>
      <set comment="kpoint 75">
       <r>   -3.6781    1.0000 </r>
       <r>   -0.4511    1.0000 </r>
       <r>    2.2532    1.0000 </r>
       <r>    3.3677    1.0000 </r>
       <r>    7.0460    0.0000 </r>
       <r>    9.3461    0.0000 </r>
       <r>   11.5751    0.0000 </r>
       <r>   11.8075    0.0000 </r>
       <r>   16.1947    0.0000 </r>
       <r>   16.6491    0.0000 </r>
       <r>   17.2248    0.0000 </r>
       <r>   17.6723    0.0000 </r>
      </set>
      <set comment="kpoint 76">
       <r>   -3.3247    1.0000 </r>
       <r>   -0.9197    1.0000 </r>
       <r>    1.9431    1.0000 </r>
       <r>    3.4336    1.0000 </r>
       <r>    7.1182    0.0000 </r>
       <r>   10.2065    0.0000 </r>
       <r>   11.4811    0.0000 </r>
       <r>   11.6197    0.0000 </r>
       <r>   15.3257    0.0000 </r>
       <r>   15.5235    0.0000 </r>
       <r>   18.2261    0.0000 </r>
       <r>   18.4898    0.0000 </r>
      </set>
      <set comment="kpoint 77">
       <r>   -3.1505    1.0000 </r>
       <r>   -1.1312    1.0000 </r>
       <r>    1.7177    1.0000 </r>
       <r>    3.5540    1.0000 </r>
       <r>    7.2397    0.0000 </r>
       <r>   11.0611    0.0000 </r>
       <r>   11.4302    0.0000 </r>
       <r>   11.5325    0.0000 </r>
       <r>   14.3598    0.0000 </r>
       <r>   14.4357    0.0000 </r>
       <r>   18.3806    0.0000 </r>
       <r>   19.3341    0.0000 </r>
      </set>
      <set comment="kpoint 78">
       <r>   -3.2836    1.0000 </r>
       <r>   -0.9608    1.0000 </r>
       <r>    1.5937    1.0000 </r>
       <r>    3.7248    1.0000 </r>
       <r>    7.4193    0.0000 </r>
       <r>   11.2342    0.0000 </r>
       <r>   11.2362    0.0000 </r>
       <r>   12.3555    0.0000 </r>
       <r>   13.3945    0.0000 </r>
       <r>   13.4619    0.0000 </r>
       <r>   18.3835    0.0000 </r>
       <r>   20.4881    0.0000 </r>
      </set>
      <set comment="kpoint 79">
       <r>   -3.6179    1.0000 </r>
       <r>   -0.5369    1.0000 </r>
       <r>    1.5996    1.0000 </r>
       <r>    3.9387    1.0000 </r>
       <r>    7.6514    0.0000 </r>
       <r>   10.9885    0.0000 </r>
       <r>   11.1890    0.0000 </r>
       <r>   12.4185    0.0000 </r>
       <r>   12.6809    0.0000 </r>
       <r>   13.5186    0.0000 </r>
       <r>   18.4730    0.0000 </r>
       <r>   19.9666    0.0000 </r>
      </set>
      <set comment="kpoint 80">
       <r>   -4.0047    1.0000 </r>
       <r>   -0.0589    1.0000 </r>
       <r>    1.7869    1.0000 </r>
       <r>    4.1838    1.0000 </r>
       <r>    7.9176    0.0000 </r>
       <r>   10.5955    0.0000 </r>
       <r>   10.9342    0.0000 </r>
       <r>   11.8100    0.0000 </r>
       <r>   12.2072    0.0000 </r>
       <r>   14.6177    0.0000 </r>
       <r>   18.3778    0.0000 </r>
       <r>   19.2104    0.0000 </r>
      </set>
      <set comment="kpoint 81">
       <r>   -4.5179    1.0000 </r>
       <r>    0.9312    1.0000 </r>
       <r>    3.3405    1.0000 </r>
       <r>    3.3405    1.0000 </r>
       <r>    6.4366    0.0000 </r>
       <r>    7.8477    0.0000 </r>
       <r>   12.4677    0.0000 </r>
       <r>   12.4677    0.0000 </r>
       <r>   14.8529    0.0000 </r>
       <r>   15.2212    0.0000 </r>
       <r>   18.2289    0.0000 </r>
       <r>   19.0181    0.0000 </r>
      </set>
      <set comment="kpoint 82">
       <r>   -4.2143    1.0000 </r>
       <r>    0.4382    1.0000 </r>
       <r>    3.0905    1.0000 </r>
       <r>    3.2214    1.0000 </r>
       <r>    6.4778    0.0000 </r>
       <r>    7.6413    0.0000 </r>
       <r>   12.7432    0.0000 </r>
       <r>   12.8020    0.0000 </r>
       <r>   15.5994    0.0000 </r>
       <r>   15.6584    0.0000 </r>
       <r>   18.1834    0.0000 </r>
       <r>   18.7801    0.0000 </r>
      </set>
      <set comment="kpoint 83">
       <r>   -3.8588    1.0000 </r>
       <r>   -0.0803    1.0000 </r>
       <r>    2.6827    1.0000 </r>
       <r>    3.1592    1.0000 </r>
       <r>    6.6526    0.0000 </r>
       <r>    7.7667    0.0000 </r>
       <r>   12.7544    0.0000 </r>
       <r>   12.8615    0.0000 </r>
       <r>   16.3689    0.0000 </r>
       <r>   16.5764    0.0000 </r>
       <r>   17.5077    0.0000 </r>
       <r>   17.9062    0.0000 </r>
      </set>
      <set comment="kpoint 84">
       <r>   -3.4693    1.0000 </r>
       <r>   -0.5863    1.0000 </r>
       <r>    2.2343    1.0000 </r>
       <r>    3.1553    1.0000 </r>
       <r>    6.7556    0.0000 </r>
       <r>    8.2984    0.0000 </r>
       <r>   12.6667    0.0000 </r>
       <r>   12.7494    0.0000 </r>
       <r>   16.5174    0.0000 </r>
       <r>   16.7667    0.0000 </r>
       <r>   17.3013    0.0000 </r>
       <r>   17.7382    0.0000 </r>
      </set>
      <set comment="kpoint 85">
       <r>   -3.0912    1.0000 </r>
       <r>   -1.0296    1.0000 </r>
       <r>    1.8310    1.0000 </r>
       <r>    3.2096    1.0000 </r>
       <r>    6.8342    0.0000 </r>
       <r>    9.0974    0.0000 </r>
       <r>   12.5572    0.0000 </r>
       <r>   12.5641    0.0000 </r>
       <r>   15.5137    0.0000 </r>
       <r>   15.6183    0.0000 </r>
       <r>   18.3491    0.0000 </r>
       <r>   18.8008    0.0000 </r>
      </set>
      <set comment="kpoint 86">
       <r>   -2.8494    1.0000 </r>
       <r>   -1.2885    1.0000 </r>
       <r>    1.5230    1.0000 </r>
       <r>    3.3203    1.0000 </r>
       <r>    6.9545    0.0000 </r>
       <r>   10.0429    0.0000 </r>
       <r>   12.3472    0.0000 </r>
       <r>   12.4598    0.0000 </r>
       <r>   14.4591    0.0000 </r>
       <r>   14.5328    0.0000 </r>
       <r>   19.4873    0.0000 </r>
       <r>   19.6090    0.0000 </r>
      </set>
      <set comment="kpoint 87">
       <r>   -2.9249    1.0000 </r>
       <r>   -1.1977    1.0000 </r>
       <r>    1.3491    1.0000 </r>
       <r>    3.4838    1.0000 </r>
       <r>    7.1343    0.0000 </r>
       <r>   11.0604    0.0000 </r>
       <r>   12.0762    0.0000 </r>
       <r>   12.3958    0.0000 </r>
       <r>   13.4268    0.0000 </r>
       <r>   13.5965    0.0000 </r>
       <r>   19.5997    0.0000 </r>
       <r>   20.6025    0.0000 </r>
      </set>
      <set comment="kpoint 88">
       <r>   -3.2391    1.0000 </r>
       <r>   -0.8721    1.0000 </r>
       <r>    1.3565    1.0000 </r>
       <r>    3.6936    1.0000 </r>
       <r>    7.3717    0.0000 </r>
       <r>   11.6373    0.0000 </r>
       <r>   11.7930    0.0000 </r>
       <r>   12.5471    0.0000 </r>
       <r>   12.5998    0.0000 </r>
       <r>   12.9569    0.0000 </r>
       <r>   19.4734    0.0000 </r>
       <r>   20.0412    0.0000 </r>
      </set>
      <set comment="kpoint 89">
       <r>   -3.9285    1.0000 </r>
       <r>    0.0146    1.0000 </r>
       <r>    3.0875    1.0000 </r>
       <r>    3.0875    1.0000 </r>
       <r>    6.2771    0.0000 </r>
       <r>    7.2547    0.0000 </r>
       <r>   13.4285    0.0000 </r>
       <r>   13.4285    0.0000 </r>
       <r>   15.9036    0.0000 </r>
       <r>   15.9580    0.0000 </r>
       <r>   18.5958    0.0000 </r>
       <r>   18.5977    0.0000 </r>
      </set>
      <set comment="kpoint 90">
       <r>   -3.5879    1.0000 </r>
       <r>   -0.4474    1.0000 </r>
       <r>    2.8565    1.0000 </r>
       <r>    3.0101    1.0000 </r>
       <r>    6.3615    0.0000 </r>
       <r>    7.1309    0.0000 </r>
       <r>   13.7169    0.0000 </r>
       <r>   13.7315    0.0000 </r>
       <r>   16.4493    0.0000 </r>
       <r>   16.6756    0.0000 </r>
       <r>   17.8322    0.0000 </r>
       <r>   17.9253    0.0000 </r>
      </set>
      <set comment="kpoint 91">
[...]
        <r>  0.0078  0.0066  0.0519  0.0637  0.0000  0.0000  0.0000  0.0000  0.0000 </r>
       </set>
      </set>
      <set comment="kpoint 214">
       <set comment="band 1">
        <r>  0.2107  0.0018  0.0130  0.0166  0.0000  0.0000  0.0000  0.0000  0.0000 </r>
        <r>  0.2107  0.0018  0.0130  0.0166  0.0000  0.0000  0.0000  0.0000  0.0000 </r>
       </set>
       <set comment="band 2">
        <r>  0.1898  0.0025  0.0321  0.0186  0.0000  0.0000  0.0000  0.0000  0.0000 </r>
        <r>  0.1898  0.0025  0.0321  0.0186  0.0000  0.0000  0.0000  0.0000  0.0000 </r>
       </set>
       <set comment="band 3">
        <r>  0.0021  0.0578  0.0569  0.0390  0.0000  0.0000  0.0000  0.0000  0.0000 </r>
        <r>  0.0021  0.0578  0.0569  0.0390  0.0000  0.0000  0.0000  0.0000  0.0000 </r>
       </set>
       <set comment="band 4">
        <r>  0.0024  0.0805  0.0257  0.0649  0.0000  0.0000  0.0000  0.0000  0.0000 </r>
        <r>  0.0024  0.0805  0.0257  0.0649  0.0000  0.0000  0.0000  0.0000  0.0000 </r>
       </set>
       <set comment="band 5">
        <r>  0.0317  0.0436  0.0252  0.0119  0.0000  0.0000  0.0000  0.0000  0.0000 </r>
        <r>  0.0317  0.0436  0.0252  0.0119  0.0000  0.0000  0.0000  0.0000  0.0000 </r>
       </set>
       <set comment="band 6">
        <r>  0.0102  0.0699  0.0157  0.0117  0.0000  0.0000  0.0000  0.0000  0.0000 </r>
        <r>  0.0102  0.0699  0.0157  0.0117  0.0000  0.0000  0.0000  0.0000  0.0000 </r>
       </set>
       <set comment="band 7">
        <r>  0.0427  0.0347  0.0309  0.0250  0.0000  0.0000  0.0000  0.0000  0.0000 </r>
        <r>  0.0427  0.0347  0.0309  0.0250  0.0000  0.0000  0.0000  0.0000  0.0000 </r>
       </set>
       <set comment="band 8">
        <r>  0.0380  0.0158  0.0367  0.0590  0.0000  0.0000  0.0000  0.0000  0.0000 </r>
        <r>  0.0380  0.0158  0.0367  0.0590  0.0000  0.0000  0.0000  0.0000  0.0000 </r>
       </set>
       <set comment="band 9">
        <r>  0.0059  0.0402  0.0721  0.0292  0.0000  0.0000  0.0000  0.0000  0.0000 </r>
        <r>  0.0059  0.0402  0.0721  0.0292  0.0000  0.0000  0.0000  0.0000  0.0000 </r>
       </set>
       <set comment="band 10">
        <r>  0.0213  0.0158  0.0017  0.0765  0.0000  0.0000  0.0000  0.0000  0.0000 </r>
        <r>  0.0213  0.0158  0.0017  0.0765  0.0000  0.0000  0.0000  0.0000  0.0000 </r>
       </set>
       <set comment="band 11">
        <r>  0.0095  0.0211  0.1008  0.0006  0.0000  0.0000  0.0000  0.0000  0.0000 </r>
        <r>  0.0094  0.0211  0.1008  0.0006  0.0000  0.0000  0.0000  0.0000  0.0000 </r>
       </set>
       <set comment="band 12">
        <r>  0.0043  0.0012  0.0259  0.0893  0.0000  0.0000  0.0000  0.0000  0.0000 </r>
        <r>  0.0068  0.0018  0.0322  0.0826  0.0000  0.0000  0.0000  0.0000  0.0000 </r>
       </set>
      </set>
      <set comment="kpoint 215">
       <set comment="band 1">
        <r>  0.2020  0.0003  0.0318  0.0061  0.0000  0.0000  0.0000  0.0000  0.0000 </r>
        <r>  0.2020  0.0003  0.0318  0.0061  0.0000  0.0000  0.0000  0.0000  0.0000 </r>
       </set>
       <set comment="band 2">
        <r>  0.1983  0.0000  0.0364  0.0097  0.0000  0.0000  0.0000  0.0000  0.0000 </r>
        <r>  0.1983  0.0000  0.0364  0.0097  0.0000  0.0000  0.0000  0.0000  0.0000 </r>
       </set>
       <set comment="band 3">
        <r>  0.0033  0.0706  0.0220  0.0710  0.0000  0.0000  0.0000  0.0000  0.0000 </r>
        <r>  0.0033  0.0706  0.0220  0.0710  0.0000  0.0000  0.0000  0.0000  0.0000 </r>
       </set>
       <set comment="band 4">
        <r>  0.0008  0.0775  0.0257  0.0642  0.0000  0.0000  0.0000  0.0000  0.0000 </r>
        <r>  0.0008  0.0775  0.0257  0.0642  0.0000  0.0000  0.0000  0.0000  0.0000 </r>
       </set>
       <set comment="band 5">
        <r>  0.0349  0.0331  0.0253  0.0196  0.0000  0.0000  0.0000  0.0000  0.0000 </r>
        <r>  0.0349  0.0331  0.0253  0.0196  0.0000  0.0000  0.0000  0.0000  0.0000 </r>
       </set>
       <set comment="band 6">
        <r>  0.0350  0.0333  0.0216  0.0165  0.0000  0.0000  0.0000  0.0000  0.0000 </r>
        <r>  0.0350  0.0333  0.0216  0.0165  0.0000  0.0000  0.0000  0.0000  0.0000 </r>
       </set>
       <set comment="band 7">
        <r>  0.0292  0.0509  0.0296  0.0333  0.0000  0.0000  0.0000  0.0000  0.0000 </r>
        <r>  0.0292  0.0509  0.0296  0.0333  0.0000  0.0000  0.0000  0.0000  0.0000 </r>
       </set>
       <set comment="band 8">
        <r>  0.0232  0.0535  0.0333  0.0326  0.0000  0.0000  0.0000  0.0000  0.0000 </r>
        <r>  0.0232  0.0535  0.0333  0.0326  0.0000  0.0000  0.0000  0.0000  0.0000 </r>
       </set>
       <set comment="band 9">
        <r>  0.0000  0.0354  0.0225  0.0734  0.0000  0.0000  0.0000  0.0000  0.0000 </r>
        <r>  0.0000  0.0354  0.0225  0.0734  0.0000  0.0000  0.0000  0.0000  0.0000 </r>
       </set>
       <set comment="band 10">
        <r>  0.0030  0.0339  0.0422  0.0495  0.0000  0.0000  0.0000  0.0000  0.0000 </r>
        <r>  0.0030  0.0339  0.0422  0.0495  0.0000  0.0000  0.0000  0.0000  0.0000 </r>
       </set>
       <set comment="band 11">
        <r>  0.0268  0.0016  0.0508  0.0401  0.0000  0.0000  0.0000  0.0000  0.0000 </r>
        <r>  0.0268  0.0016  0.0509  0.0401  0.0000  0.0000  0.0000  0.0000  0.0000 </r>
       </set>
       <set comment="band 12">
        <r>  0.0193  0.0002  0.0895  0.0158  0.0000  0.0000  0.0000  0.0000  0.0000 </r>
        <r>  0.0191  0.0002  0.0902  0.0155  0.0000  0.0000  0.0000  0.0000  0.0000 </r>
       </set>
      </set>
      <set comment="kpoint 216">
       <set comment="band 1">
        <r>  0.2061  0.0001  0.0273  0.0108  0.0000  0.0000  0.0000  0.0000  0.0000 </r>
        <r>  0.2061  0.0001  0.0273  0.0108  0.0000  0.0000  0.0000  0.0000  0.0000 </r>
       </set>
       <set comment="band 2">
        <r>  0.1976  0.0004  0.0337  0.0108  0.0000  0.0000  0.0000  0.0000  0.0000 </r>
        <r>  0.1976  0.0004  0.0337  0.0108  0.0000  0.0000  0.0000  0.0000  0.0000 </r>
       </set>
       <set comment="band 3">
        <r>  0.0004  0.0674  0.0350  0.0569  0.0000  0.0000  0.0000  0.0000  0.0000 </r>
        <r>  0.0004  0.0674  0.0350  0.0569  0.0000  0.0000  0.0000  0.0000  0.0000 </r>
       </set>
       <set comment="band 4">
        <r>  0.0020  0.0757  0.0240  0.0670  0.0000  0.0000  0.0000  0.0000  0.0000 </r>
        <r>  0.0020  0.0757  0.0240  0.0670  0.0000  0.0000  0.0000  0.0000  0.0000 </r>
       </set>
       <set comment="band 5">
        <r>  0.0343  0.0364  0.0238  0.0160  0.0000  0.0000  0.0000  0.0000  0.0000 </r>
        <r>  0.0343  0.0364  0.0238  0.0160  0.0000  0.0000  0.0000  0.0000  0.0000 </r>
       </set>
       <set comment="band 6">
        <r>  0.0269  0.0447  0.0175  0.0213  0.0000  0.0000  0.0000  0.0000  0.0000 </r>
        <r>  0.0269  0.0447  0.0175  0.0213  0.0000  0.0000  0.0000  0.0000  0.0000 </r>
       </set>
       <set comment="band 7">
        <r>  0.0298  0.0422  0.0362  0.0361  0.0000  0.0000  0.0000  0.0000  0.0000 </r>
        <r>  0.0298  0.0422  0.0362  0.0361  0.0000  0.0000  0.0000  0.0000  0.0000 </r>
       </set>
       <set comment="band 8">
        <r>  0.0318  0.0464  0.0317  0.0287  0.0000  0.0000  0.0000  0.0000  0.0000 </r>
        <r>  0.0318  0.0464  0.0317  0.0287  0.0000  0.0000  0.0000  0.0000  0.0000 </r>
       </set>
       <set comment="band 9">
        <r>  0.0026  0.0366  0.0510  0.0483  0.0000  0.0000  0.0000  0.0000  0.0000 </r>
        <r>  0.0026  0.0366  0.0510  0.0483  0.0000  0.0000  0.0000  0.0000  0.0000 </r>
       </set>
       <set comment="band 10">
        <r>  0.0027  0.0327  0.0076  0.0807  0.0000  0.0000  0.0000  0.0000  0.0000 </r>
        <r>  0.0027  0.0327  0.0076  0.0807  0.0000  0.0000  0.0000  0.0000  0.0000 </r>
       </set>
       <set comment="band 11">
        <r>  0.0238  0.0039  0.0968  0.0065  0.0000  0.0000  0.0000  0.0000  0.0000 </r>
        <r>  0.0238  0.0039  0.0968  0.0065  0.0000  0.0000  0.0000  0.0000  0.0000 </r>
       </set>
       <set comment="band 12">
        <r>  0.0208  0.0016  0.0496  0.0511  0.0000  0.0000  0.0000  0.0000  0.0000 </r>
        <r>  0.0208  0.0016  0.0496  0.0511  0.0000  0.0000  0.0000  0.0000  0.0000 </r>
       </set>
      </set>
      <set comment="kpoint 217">
       <set comment="band 1">
        <r>  0.2076  0.0015  0.0222  0.0075  0.0000  0.0000  0.0000  0.0000  0.0000 </r>
        <r>  0.2076  0.0015  0.0222  0.0075  0.0000  0.0000  0.0000  0.0000  0.0000 </r>
       </set>
       <set comment="band 2">
        <r>  0.1913  0.0019  0.0286  0.0238  0.0000  0.0000  0.0000  0.0000  0.0000 </r>
        <r>  0.1913  0.0019  0.0286  0.0238  0.0000  0.0000  0.0000  0.0000  0.0000 </r>
       </set>
       <set comment="band 3">
        <r>  0.0048  0.0593  0.0293  0.0669  0.0000  0.0000  0.0000  0.0000  0.0000 </r>
        <r>  0.0048  0.0593  0.0293  0.0669  0.0000  0.0000  0.0000  0.0000  0.0000 </r>
       </set>
       <set comment="band 4">
        <r>  0.0010  0.0803  0.0490  0.0398  0.0000  0.0000  0.0000  0.0000  0.0000 </r>
        <r>  0.0010  0.0803  0.0490  0.0398  0.0000  0.0000  0.0000  0.0000  0.0000 </r>
       </set>
       <set comment="band 5">
        <r>  0.0259  0.0448  0.0256  0.0251  0.0000  0.0000  0.0000  0.0000  0.0000 </r>
        <r>  0.0259  0.0448  0.0256  0.0251  0.0000  0.0000  0.0000  0.0000  0.0000 </r>
       </set>
       <set comment="band 6">
        <r>  0.0057  0.0717  0.0032  0.0017  0.0000  0.0000  0.0000  0.0000  0.0000 </r>
        <r>  0.0057  0.0717  0.0032  0.0017  0.0000  0.0000  0.0000  0.0000  0.0000 </r>
       </set>
       <set comment="band 7">
        <r>  0.0670  0.0085  0.0379  0.0515  0.0000  0.0000  0.0000  0.0000  0.0000 </r>
        <r>  0.0670  0.0085  0.0379  0.0515  0.0000  0.0000  0.0000  0.0000  0.0000 </r>
       </set>
       <set comment="band 8">
        <r>  0.0238  0.0404  0.0444  0.0279  0.0000  0.0000  0.0000  0.0000  0.0000 </r>
        <r>  0.0238  0.0404  0.0444  0.0279  0.0000  0.0000  0.0000  0.0000  0.0000 </r>
       </set>
       <set comment="band 9">
        <r>  0.0029  0.0411  0.0242  0.0765  0.0000  0.0000  0.0000  0.0000  0.0000 </r>
        <r>  0.0029  0.0411  0.0242  0.0765  0.0000  0.0000  0.0000  0.0000  0.0000 </r>
       </set>
       <set comment="band 10">
        <r>  0.0253  0.0144  0.0783  0.0002  0.0000  0.0000  0.0000  0.0000  0.0000 </r>
        <r>  0.0253  0.0144  0.0783  0.0002  0.0000  0.0000  0.0000  0.0000  0.0000 </r>
       </set>
       <set comment="band 11">
        <r>  0.0087  0.0221  0.0000  0.0923  0.0000  0.0000  0.0000  0.0000  0.0000 </r>
        <r>  0.0087  0.0221  0.0000  0.0923  0.0000  0.0000  0.0000  0.0000  0.0000 </r>
       </set>
       <set comment="band 12">
        <r>  0.0029  0.0012  0.1017  0.0167  0.0000  0.0000  0.0000  0.0000  0.0000 </r>
        <r>  0.0036  0.0016  0.0969  0.0197  0.0000  0.0000  0.0000  0.0000  0.0000 </r>
       </set>
      </set>
      <set comment="kpoint 218">
       <set comment="band 1">
        <r>  0.2093  0.0009  0.0196  0.0128  0.0000  0.0000  0.0000  0.0000  0.0000 </r>
        <r>  0.2093  0.0009  0.0196  0.0128  0.0000  0.0000  0.0000  0.0000  0.0000 </r>
       </set>
       <set comment="band 2">
        <r>  0.1936  0.0016  0.0244  0.0245  0.0000  0.0000  0.0000  0.0000  0.0000 </r>
        <r>  0.1936  0.0016  0.0244  0.0245  0.0000  0.0000  0.0000  0.0000  0.0000 </r>
       </set>
       <set comment="band 3">
        <r>  0.0030  0.0603  0.0396  0.0551  0.0000  0.0000  0.0000  0.0000  0.0000 </r>
        <r>  0.0030  0.0603  0.0396  0.0551  0.0000  0.0000  0.0000  0.0000  0.0000 </r>
       </set>
       <set comment="band 4">
        <r>  0.0007  0.0775  0.0476  0.0417  0.0000  0.0000  0.0000  0.0000  0.0000 </r>
        <r>  0.0007  0.0775  0.0476  0.0417  0.0000  0.0000  0.0000  0.0000  0.0000 </r>
       </set>
       <set comment="band 5">
        <r>  0.0095  0.0682  0.0095  0.0084  0.0000  0.0000  0.0000  0.0000  0.0000 </r>
        <r>  0.0095  0.0682  0.0095  0.0084  0.0000  0.0000  0.0000  0.0000  0.0000 </r>
       </set>
       <set comment="band 6">
        <r>  0.0337  0.0452  0.0220  0.0251  0.0000  0.0000  0.0000  0.0000  0.0000 </r>
        <r>  0.0337  0.0452  0.0220  0.0251  0.0000  0.0000  0.0000  0.0000  0.0000 </r>
       </set>
       <set comment="band 7">
        <r>  0.0449  0.0263  0.0293  0.0390  0.0000  0.0000  0.0000  0.0000  0.0000 </r>
        <r>  0.0449  0.0263  0.0293  0.0390  0.0000  0.0000  0.0000  0.0000  0.0000 </r>
       </set>
       <set comment="band 8">
        <r>  0.0348  0.0278  0.0471  0.0337  0.0000  0.0000  0.0000  0.0000  0.0000 </r>
        <r>  0.0348  0.0278  0.0471  0.0337  0.0000  0.0000  0.0000  0.0000  0.0000 </r>
       </set>
       <set comment="band 9">
        <r>  0.0055  0.0381  0.0379  0.0610  0.0000  0.0000  0.0000  0.0000  0.0000 </r>
        <r>  0.0055  0.0381  0.0379  0.0610  0.0000  0.0000  0.0000  0.0000  0.0000 </r>
       </set>
       <set comment="band 10">
        <r>  0.0102  0.0268  0.0680  0.0152  0.0000  0.0000  0.0000  0.0000  0.0000 </r>
        <r>  0.0102  0.0268  0.0680  0.0152  0.0000  0.0000  0.0000  0.0000  0.0000 </r>
       </set>
       <set comment="band 11">
        <r>  0.0198  0.0092  0.0220  0.0788  0.0000  0.0000  0.0000  0.0000  0.0000 </r>
        <r>  0.0198  0.0092  0.0220  0.0789  0.0000  0.0000  0.0000  0.0000  0.0000 </r>
       </set>
       <set comment="band 12">
        <r>  0.0067  0.0059  0.0742  0.0437  0.0000  0.0000  0.0000  0.0000  0.0000 </r>
        <r>  0.0067  0.0060  0.0739  0.0439  0.0000  0.0000  0.0000  0.0000  0.0000 </r>
       </set>
      </set>
      <set comment="kpoint 219">
       <set comment="band 1">
        <r>  0.2055  0.0003  0.0255  0.0117  0.0000  0.0000  0.0000  0.0000  0.0000 </r>
        <r>  0.2055  0.0003  0.0255  0.0117  0.0000  0.0000  0.0000  0.0000  0.0000 </r>
       </set>
       <set comment="band 2">
        <r>  0.2004  0.0001  0.0276  0.0173  0.0000  0.0000  0.0000  0.0000  0.0000 </r>
        <r>  0.2004  0.0001  0.0276  0.0173  0.0000  0.0000  0.0000  0.0000  0.0000 </r>
       </set>
       <set comment="band 3">
        <r>  0.0015  0.0663  0.0329  0.0595  0.0000  0.0000  0.0000  0.0000  0.0000 </r>
        <r>  0.0015  0.0663  0.0329  0.0595  0.0000  0.0000  0.0000  0.0000  0.0000 </r>
       </set>
       <set comment="band 4">
        <r>  0.0000  0.0734  0.0393  0.0504  0.0000  0.0000  0.0000  0.0000  0.0000 </r>
        <r>  0.0000  0.0734  0.0393  0.0504  0.0000  0.0000  0.0000  0.0000  0.0000 </r>
       </set>
       <set comment="band 5">
        <r>  0.0254  0.0485  0.0194  0.0203  0.0000  0.0000  0.0000  0.0000  0.0000 </r>
        <r>  0.0254  0.0485  0.0194  0.0203  0.0000  0.0000  0.0000  0.0000  0.0000 </r>
       </set>
       <set comment="band 6">
        <r>  0.0215  0.0544  0.0133  0.0138  0.0000  0.0000  0.0000  0.0000  0.0000 </r>
        <r>  0.0215  0.0544  0.0133  0.0138  0.0000  0.0000  0.0000  0.0000  0.0000 </r>
       </set>
       <set comment="band 7">
        <r>  0.0437  0.0298  0.0360  0.0379  0.0000  0.0000  0.0000  0.0000  0.0000 </r>
        <r>  0.0437  0.0298  0.0360  0.0379  0.0000  0.0000  0.0000  0.0000  0.0000 </r>
       </set>
       <set comment="band 8">
        <r>  0.0324  0.0374  0.0393  0.0316  0.0000  0.0000  0.0000  0.0000  0.0000 </r>
        <r>  0.0324  0.0374  0.0393  0.0316  0.0000  0.0000  0.0000  0.0000  0.0000 </r>
       </set>
       <set comment="band 9">
        <r>  0.0004  0.0391  0.0303  0.0685  0.0000  0.0000  0.0000  0.0000  0.0000 </r>
        <r>  0.0004  0.0390  0.0303  0.0685  0.0000  0.0000  0.0000  0.0000  0.0000 </r>
       </set>
       <set comment="band 10">
        <r>  0.0031  0.0351  0.0583  0.0330  0.0000  0.0000  0.0000  0.0000  0.0000 </r>
        <r>  0.0031  0.0351  0.0583  0.0330  0.0000  0.0000  0.0000  0.0000  0.0000 </r>
       </set>
       <set comment="band 11">
        <r>  0.0261  0.0023  0.0355  0.0629  0.0000  0.0000  0.0000  0.0000  0.0000 </r>
        <r>  0.0260  0.0022  0.0353  0.0632  0.0000  0.0000  0.0000  0.0000  0.0000 </r>
       </set>
       <set comment="band 12">
        <r>  0.0198  0.0005  0.0810  0.0272  0.0000  0.0000  0.0000  0.0000  0.0000 </r>
        <r>  0.0198  0.0005  0.0810  0.0272  0.0000  0.0000  0.0000  0.0000  0.0000 </r>
       </set>
      </set>
      <set comment="kpoint 220">
       <set comment="band 1">
        <r>  0.2073  0.0002  0.0191  0.0180  0.0000  0.0000  0.0000  0.0000  0.0000 </r>
        <r>  0.2073  0.0002  0.0191  0.0180  0.0000  0.0000  0.0000  0.0000  0.0000 </r>
       </set>
       <set comment="band 2">
        <r>  0.2001  0.0003  0.0259  0.0185  0.0000  0.0000  0.0000  0.0000  0.0000 </r>
        <r>  0.2001  0.0003  0.0259  0.0185  0.0000  0.0000  0.0000  0.0000  0.0000 </r>
       </set>
       <set comment="band 3">
        <r>  0.0001  0.0653  0.0474  0.0447  0.0000  0.0000  0.0000  0.0000  0.0000 </r>
        <r>  0.0001  0.0653  0.0474  0.0447  0.0000  0.0000  0.0000  0.0000  0.0000 </r>
       </set>
       <set comment="band 4">
        <r>  0.0006  0.0728  0.0367  0.0534  0.0000  0.0000  0.0000  0.0000  0.0000 </r>
        <r>  0.0006  0.0728  0.0367  0.0534  0.0000  0.0000  0.0000  0.0000  0.0000 </r>
       </set>
       <set comment="band 5">
        <r>  0.0184  0.0602  0.0137  0.0121  0.0000  0.0000  0.0000  0.0000  0.0000 </r>
        <r>  0.0184  0.0602  0.0137  0.0121  0.0000  0.0000  0.0000  0.0000  0.0000 </r>
       </set>
       <set comment="band 6">
        <r>  0.0006  0.0853  0.0000  0.0008  0.0000  0.0000  0.0000  0.0000  0.0000 </r>
        <r>  0.0006  0.0853  0.0000  0.0008  0.0000  0.0000  0.0000  0.0000  0.0000 </r>
       </set>
       <set comment="band 7">
        <r>  0.0473  0.0237  0.0399  0.0349  0.0000  0.0000  0.0000  0.0000  0.0000 </r>
        <r>  0.0473  0.0237  0.0399  0.0349  0.0000  0.0000  0.0000  0.0000  0.0000 </r>
       </set>
       <set comment="band 8">
        <r>  0.0568  0.0010  0.0529  0.0571  0.0000  0.0000  0.0000  0.0000  0.0000 </r>
        <r>  0.0568  0.0010  0.0529  0.0571  0.0000  0.0000  0.0000  0.0000  0.0000 </r>
       </set>
       <set comment="band 9">
        <r>  0.0013  0.0391  0.0600  0.0396  0.0000  0.0000  0.0000  0.0000  0.0000 </r>
        <r>  0.0013  0.0391  0.0600  0.0396  0.0000  0.0000  0.0000  0.0000  0.0000 </r>
       </set>
       <set comment="band 10">
        <r>  0.0031  0.0347  0.0181  0.0721  0.0000  0.0000  0.0000  0.0000  0.0000 </r>
        <r>  0.0031  0.0346  0.0181  0.0722  0.0000  0.0000  0.0000  0.0000  0.0000 </r>
       </set>
       <set comment="band 11">
        <r>  0.0248  0.0031  0.0836  0.0189  0.0000  0.0000  0.0000  0.0000  0.0000 </r>
        <r>  0.0248  0.0031  0.0836  0.0189  0.0000  0.0000  0.0000  0.0000  0.0000 </r>
       </set>
       <set comment="band 12">
        <r>  0.0205  0.0009  0.0397  0.0674  0.0000  0.0000  0.0000  0.0000  0.0000 </r>
        <r>  0.0205  0.0009  0.0398  0.0673  0.0000  0.0000  0.0000  0.0000  0.0000 </r>
       </set>
      </set>
     </set>
    </set>
   </array>
  </projected>
 </calculation>
 <structure name="finalpos" >
  <crystal>
   <varray name="basis" >
    <v>       0.00000000       2.73456800       2.73456800 </v>
    <v>       2.73456800       0.00000000       2.73456800 </v>
    <v>       2.73456800       2.73456800       0.00000000 </v>
   </varray>
   <i name="volume">     40.89744507 </i>
   <varray name="rec_basis" >
    <v>      -0.18284424       0.18284424       0.18284424 </v>
    <v>       0.18284424      -0.18284424       0.18284424 </v>
    <v>       0.18284424       0.18284424      -0.18284424 </v>
   </varray>
  </crystal>
  <varray name="positions" >
   <v>       0.37500000       0.37500000       0.37500000 </v>
   <v>       0.62500000       0.62500000       0.62500000 </v>
  </varray>
 </structure>
</modeling>
