<?xml version="1.0" encoding="ISO-8859-1"?>
<modeling>
 <generator>
  <i name="program" type="string">vasp </i>
  <i name="version" type="string">6.1.1  </i>
  <i name="subversion" type="string">19Jun20 (build Sep 15 2020 22:57:04) complex                          parallel </i>
  <i name="platform" type="string">VASP6.1.1-r2SCAN-MP </i>
  <i name="date" type="string">2020 11 16 </i>
  <i name="time" type="string">13:26:51 </i>
 </generator>
 <incar>
  <i type="string" name="PREC"> Accurate</i>
  <i type="string" name="ALGO"> All</i>
  <i type="int" name="ISPIN">     2</i>
  <i type="int" name="NELM">   200</i>
  <i type="int" name="IBRION">     2</i>
  <i name="EDIFF">      0.00001000</i>
  <i name="EDIFFG">     -0.05000000</i>
  <i type="int" name="NSW">     0</i>
  <i type="int" name="ISIF">     3</i>
  <i name="ENCUT">    680.00000000</i>
  <i name="ENAUG">   1360.00000000</i>
  <v name="MAGMOM">      0.00000000      0.00000000</v>
  <i type="string" name="LREAL"> Auto</i>
  <i type="int" name="ISMEAR">     2</i>
  <i name="SIGMA">      0.20000000</i>
  <i name="KSPACING">      0.22000000</i>
  <i type="logical" name="LWAVE"> F  </i>
  <i type="logical" name="LCHARG"> T  </i>
  <i type="logical" name="LVTOT"> T  </i>
  <i type="logical" name="LELF"> T  </i>
  <i type="logical" name="LASPH"> T  </i>
  <i type="logical" name="LAECHG"> T  </i>
  <i type="string" name="ALGO"> All</i>
  <i type="int" name="NELM">   200</i>
  <i name="EDIFF">      0.00001000</i>
  <i type="string" name="METAGGA"> R2SCAN</i>
  <i type="logical" name="LASPH"> T  </i>
  <i type="logical" name="LMIXTAU"> T  </i>
  <i type="int" name="ISPIN">     2</i>
 </incar>
 <structure name="primitive_cell" >
  <crystal>
   <varray name="basis" >
    <v>       0.00000000       2.04171400       2.04171400 </v>
    <v>       2.04171400       0.00000000       2.04171400 </v>
    <v>       2.04171400       2.04171400       0.00000000 </v>
   </varray>
   <i name="volume">     17.02216186 </i>
   <varray name="rec_basis" >
    <v>      -0.24489228       0.24489228       0.24489228 </v>
    <v>       0.24489228      -0.24489228       0.24489228 </v>
    <v>       0.24489228       0.24489228      -0.24489228 </v>
   </varray>
  </crystal>
  <varray name="positions" >
   <v>       0.00000000       0.00000000       0.00000000 </v>
   <v>       0.50000000       0.50000000       0.50000000 </v>
  </varray>
 </structure>
 <varray name="primitive_index" >
  <v type="int" >        1 </v>
  <v type="int" >        2 </v>
 </varray>
 <kpoints>
  <generation param="Gamma">
   <v type="int" name="divisions">      13       13       13 </v>
   <v name="usershift">      0.00000000       0.00000000       0.00000000 </v>
   <v name="genvec1">      0.07692308      -0.00000000       0.00000000 </v>
   <v name="genvec2">     -0.00000000       0.07692308      -0.00000000 </v>
   <v name="genvec3">      0.00000000       0.00000000       0.07692308 </v>
   <v name="shift">      0.00000000       0.00000000       0.00000000 </v>
  </generation>
  <varray name="kpointlist" >
   <v>       0.00000000       0.00000000       0.00000000 </v>
   <v>       0.07692308      -0.00000000       0.00000000 </v>
   <v>       0.15384615      -0.00000000       0.00000000 </v>
   <v>       0.23076923      -0.00000000       0.00000000 </v>
   <v>       0.30769231      -0.00000000       0.00000000 </v>
   <v>       0.38461538       0.00000000      -0.00000000 </v>
   <v>       0.46153846       0.00000000      -0.00000000 </v>
   <v>       0.07692308       0.07692308       0.00000000 </v>
   <v>       0.15384615       0.07692308       0.00000000 </v>
   <v>       0.23076923       0.07692308       0.00000000 </v>
   <v>       0.30769231       0.07692308       0.00000000 </v>
   <v>       0.38461538       0.07692308       0.00000000 </v>
   <v>       0.46153846       0.07692308       0.00000000 </v>
   <v>      -0.46153846       0.07692308       0.00000000 </v>
   <v>      -0.38461538       0.07692308      -0.00000000 </v>
   <v>      -0.30769231       0.07692308       0.00000000 </v>
   <v>      -0.23076923       0.07692308       0.00000000 </v>
   <v>      -0.15384615       0.07692308      -0.00000000 </v>
   <v>      -0.07692308       0.07692308      -0.00000000 </v>
   <v>       0.15384615       0.15384615      -0.00000000 </v>
   <v>       0.23076923       0.15384615       0.00000000 </v>
   <v>       0.30769231       0.15384615       0.00000000 </v>
   <v>       0.38461538       0.15384615       0.00000000 </v>
   <v>       0.46153846       0.15384615       0.00000000 </v>
   <v>      -0.46153846       0.15384615      -0.00000000 </v>
   <v>      -0.38461538       0.15384615      -0.00000000 </v>
   <v>      -0.30769231       0.15384615       0.00000000 </v>
   <v>      -0.23076923       0.15384615      -0.00000000 </v>
   <v>      -0.15384615       0.15384615      -0.00000000 </v>
   <v>       0.23076923       0.23076923       0.00000000 </v>
   <v>       0.30769231       0.23076923       0.00000000 </v>
   <v>       0.38461538       0.23076923       0.00000000 </v>
   <v>       0.46153846       0.23076923       0.00000000 </v>
   <v>      -0.46153846       0.23076923      -0.00000000 </v>
   <v>      -0.38461538       0.23076923      -0.00000000 </v>
   <v>      -0.30769231       0.23076923       0.00000000 </v>
   <v>      -0.23076923       0.23076923      -0.00000000 </v>
   <v>       0.30769231       0.30769231      -0.00000000 </v>
   <v>       0.38461538       0.30769231       0.00000000 </v>
   <v>       0.46153846       0.30769231       0.00000000 </v>
   <v>      -0.46153846       0.30769231      -0.00000000 </v>
   <v>      -0.38461538       0.30769231      -0.00000000 </v>
   <v>      -0.30769231       0.30769231      -0.00000000 </v>
   <v>       0.38461538       0.38461538       0.00000000 </v>
   <v>       0.46153846       0.38461538       0.00000000 </v>
   <v>      -0.46153846       0.38461538       0.00000000 </v>
   <v>      -0.38461538       0.38461538       0.00000000 </v>
   <v>       0.46153846       0.46153846      -0.00000000 </v>
   <v>      -0.46153846       0.46153846       0.00000000 </v>
   <v>       0.23076923       0.15384615       0.07692308 </v>
   <v>       0.30769231       0.15384615       0.07692308 </v>
   <v>       0.38461538       0.15384615       0.07692308 </v>
   <v>       0.46153846       0.15384615       0.07692308 </v>
   <v>      -0.46153846       0.15384615       0.07692308 </v>
   <v>       0.30769231       0.23076923       0.07692308 </v>
   <v>       0.38461538       0.23076923       0.07692308 </v>
   <v>       0.46153846       0.23076923       0.07692308 </v>
   <v>      -0.46153846       0.23076923       0.07692308 </v>
   <v>      -0.38461538       0.23076923       0.07692308 </v>
   <v>      -0.30769231       0.23076923       0.07692308 </v>
   <v>      -0.23076923       0.23076923       0.07692308 </v>
   <v>      -0.15384615       0.23076923       0.07692308 </v>
   <v>       0.38461538       0.30769231       0.07692308 </v>
   <v>       0.46153846       0.30769231       0.07692308 </v>
   <v>      -0.46153846       0.30769231       0.07692308 </v>
   <v>      -0.38461538       0.30769231       0.07692308 </v>
   <v>      -0.30769231       0.30769231       0.07692308 </v>
   <v>      -0.23076923       0.30769231       0.07692308 </v>
   <v>       0.46153846       0.38461538       0.07692308 </v>
   <v>      -0.46153846       0.38461538       0.07692308 </v>
   <v>      -0.38461538       0.38461538       0.07692308 </v>
   <v>      -0.30769231       0.38461538       0.07692308 </v>
   <v>      -0.46153846       0.46153846       0.07692308 </v>
   <v>      -0.38461538       0.46153846       0.07692308 </v>
   <v>       0.46153846       0.30769231       0.15384615 </v>
   <v>      -0.46153846       0.30769231       0.15384615 </v>
   <v>      -0.38461538       0.30769231       0.15384615 </v>
   <v>      -0.46153846       0.38461538       0.15384615 </v>
   <v>      -0.38461538       0.38461538       0.15384615 </v>
   <v>      -0.30769231       0.38461538       0.15384615 </v>
   <v>      -0.23076923       0.38461538       0.15384615 </v>
   <v>      -0.38461538       0.46153846       0.15384615 </v>
   <v>      -0.30769231       0.46153846       0.15384615 </v>
   <v>      -0.30769231       0.46153846       0.23076923 </v>
  </varray>
  <varray name="weights" >
   <v>       0.00045517 </v>
   <v>       0.00364133 </v>
   <v>       0.00364133 </v>
   <v>       0.00364133 </v>
   <v>       0.00364133 </v>
   <v>       0.00364133 </v>
   <v>       0.00364133 </v>
   <v>       0.00273100 </v>
   <v>       0.01092399 </v>
   <v>       0.01092399 </v>
   <v>       0.01092399 </v>
   <v>       0.01092399 </v>
   <v>       0.01092399 </v>
   <v>       0.01092399 </v>
   <v>       0.01092399 </v>
   <v>       0.01092399 </v>
   <v>       0.01092399 </v>
   <v>       0.01092399 </v>
   <v>       0.00546199 </v>
   <v>       0.00273100 </v>
   <v>       0.01092399 </v>
   <v>       0.01092399 </v>
   <v>       0.01092399 </v>
   <v>       0.01092399 </v>
   <v>       0.01092399 </v>
   <v>       0.01092399 </v>
   <v>       0.01092399 </v>
   <v>       0.01092399 </v>
   <v>       0.00546199 </v>
   <v>       0.00273100 </v>
   <v>       0.01092399 </v>
   <v>       0.01092399 </v>
   <v>       0.01092399 </v>
   <v>       0.01092399 </v>
   <v>       0.01092399 </v>
   <v>       0.01092399 </v>
   <v>       0.00546199 </v>
   <v>       0.00273100 </v>
   <v>       0.01092399 </v>
   <v>       0.01092399 </v>
   <v>       0.01092399 </v>
   <v>       0.01092399 </v>
   <v>       0.00546199 </v>
   <v>       0.00273100 </v>
   <v>       0.01092399 </v>
   <v>       0.01092399 </v>
   <v>       0.00546199 </v>
   <v>       0.00273100 </v>
   <v>       0.00546199 </v>
   <v>       0.01092399 </v>
   <v>       0.02184797 </v>
   <v>       0.02184797 </v>
   <v>       0.02184797 </v>
   <v>       0.02184797 </v>
   <v>       0.01092399 </v>
   <v>       0.02184797 </v>
   <v>       0.02184797 </v>
   <v>       0.02184797 </v>
   <v>       0.02184797 </v>
   <v>       0.02184797 </v>
   <v>       0.02184797 </v>
   <v>       0.01092399 </v>
   <v>       0.01092399 </v>
   <v>       0.02184797 </v>
   <v>       0.02184797 </v>
   <v>       0.02184797 </v>
   <v>       0.02184797 </v>
   <v>       0.01092399 </v>
   <v>       0.01092399 </v>
   <v>       0.02184797 </v>
   <v>       0.02184797 </v>
   <v>       0.01092399 </v>
   <v>       0.01092399 </v>
   <v>       0.01092399 </v>
   <v>       0.01092399 </v>
   <v>       0.02184797 </v>
   <v>       0.02184797 </v>
   <v>       0.01092399 </v>
   <v>       0.02184797 </v>
   <v>       0.02184797 </v>
   <v>       0.01092399 </v>
   <v>       0.01092399 </v>
   <v>       0.01092399 </v>
   <v>       0.01092399 </v>
  </varray>
 </kpoints>
 <parameters>
  <separator name="general" >
   <i type="string" name="SYSTEM">unknown system</i>
   <i type="logical" name="LCOMPAT"> F  </i>
  </separator>
  <separator name="electronic" >
   <i type="string" name="PREC">accura</i>
   <i name="ENMAX">    680.00000000</i>
   <i name="ENAUG">   1360.00000000</i>
   <i name="EDIFF">      0.00001000</i>
   <i type="int" name="IALGO">    58</i>
   <i type="int" name="IWAVPR">    10</i>
   <i type="int" name="NBANDS">    64</i>
   <i type="int" name="NBANDSLOW">    -1</i>
   <i type="int" name="NBANDSHIGH">    -1</i>
   <i name="NELECT">     10.00000000</i>
   <i type="int" name="TURBO">     0</i>
   <i type="int" name="IRESTART">     0</i>
   <i type="int" name="NREBOOT">     0</i>
   <i type="int" name="NMIN">     0</i>
   <i name="EREF">      0.00000000</i>
   <separator name="electronic smearing" >
    <i type="int" name="ISMEAR">     2</i>
    <i name="SIGMA">      0.20000000</i>
    <i name="KSPACING">      0.22000000</i>
    <i type="logical" name="KGAMMA"> T  </i>
    <i type="logical" name="KBLOWUP"> T  </i>
   </separator>
   <separator name="electronic projectors" >
    <i type="logical" name="LREAL"> T  </i>
    <v name="ROPT">     -0.00025000     -0.00025000</v>
    <i type="int" name="LMAXPAW">  -100</i>
    <i type="int" name="LMAXMIX">     2</i>
    <i type="logical" name="NLSPLINE"> F  </i>
   </separator>
   <separator name="electronic startup" >
    <i type="int" name="ISTART">     0</i>
    <i type="int" name="ICHARG">     2</i>
    <i type="int" name="INIWAV">     1</i>
   </separator>
   <separator name="electronic spin" >
    <i type="int" name="ISPIN">     2</i>
    <i type="logical" name="LNONCOLLINEAR"> F  </i>
    <v name="MAGMOM">      0.00000000      0.00000000</v>
    <i name="NUPDOWN">     -1.00000000</i>
    <i type="logical" name="LSORBIT"> F  </i>
    <v name="SAXIS">      0.00000000      0.00000000      1.00000000</v>
    <i type="logical" name="LSPIRAL"> F  </i>
    <v name="QSPIRAL">      0.00000000      0.00000000      0.00000000</v>
    <i type="logical" name="LZEROZ"> F  </i>
   </separator>
   <separator name="electronic exchange-correlation" >
    <i type="logical" name="LASPH"> T  </i>
    <i type="logical" name="LMETAGGA"> F  </i>
   </separator>
   <separator name="electronic convergence" >
    <i type="int" name="NELM">   200</i>
    <i type="int" name="NELMDL">    -5</i>
    <i type="int" name="NELMIN">     2</i>
    <i name="ENINI">    680.00000000</i>
    <separator name="electronic convergence detail" >
     <i type="logical" name="LDIAG"> T  </i>
     <i type="logical" name="LSUBROT"> F  </i>
     <i name="WEIMIN">      0.00000000</i>
     <i name="EBREAK">      0.00000004</i>
     <i name="DEPER">      0.30000000</i>
     <i type="int" name="NRMM">     4</i>
     <i name="TIME">      0.40000000</i>
    </separator>
   </separator>
   <separator name="electronic mixer" >
    <i name="AMIX">      0.40000000</i>
    <i name="BMIX">      1.00000000</i>
    <i name="AMIN">      0.10000000</i>
    <i name="AMIX_MAG">      1.60000000</i>
    <i name="BMIX_MAG">      1.00000000</i>
    <separator name="electronic mixer details" >
     <i type="int" name="IMIX">     4</i>
     <i type="logical" name="MIXFIRST"> F  </i>
     <i type="int" name="MAXMIX">   -45</i>
     <i name="WC">    100.00000000</i>
     <i type="int" name="INIMIX">     1</i>
     <i type="int" name="MIXPRE">     1</i>
     <i type="int" name="MREMOVE">     5</i>
    </separator>
   </separator>
   <separator name="electronic dipolcorrection" >
    <i type="logical" name="LDIPOL"> F  </i>
    <i type="logical" name="LMONO"> F  </i>
    <i type="int" name="IDIPOL">     0</i>
    <i name="EPSILON">      1.00000000</i>
    <v name="DIPOL">   -100.00000000   -100.00000000   -100.00000000</v>
    <i name="EFIELD">      0.00000000</i>
   </separator>
  </separator>
  <separator name="grids" >
   <i type="int" name="NGX">    28</i>
   <i type="int" name="NGY">    28</i>
   <i type="int" name="NGZ">    28</i>
   <i type="int" name="NGXF">    56</i>
   <i type="int" name="NGYF">    56</i>
   <i type="int" name="NGZF">    56</i>
   <i type="logical" name="ADDGRID"> F  </i>
  </separator>
  <separator name="ionic" >
   <i type="int" name="NSW">     0</i>
   <i type="int" name="IBRION">    -1</i>
   <i type="int" name="MDALGO">     0</i>
   <i type="int" name="ISIF">     3</i>
   <i name="PSTRESS">      0.00000000</i>
   <i name="EDIFFG">     -0.05000000</i>
   <i type="int" name="NFREE">     1</i>
   <i name="POTIM">      0.50000000</i>
   <i name="SMASS">     -3.00000000</i>
   <i name="SCALEE">      1.00000000</i>
  </separator>
  <separator name="ionic md" >
   <i name="TEBEG">      0.00010000</i>
   <i name="TEEND">      0.00010000</i>
   <i type="int" name="NBLOCK">     1</i>
   <i type="int" name="KBLOCK">     1</i>
   <i type="int" name="NPACO">   256</i>
   <i name="APACO">     16.00000000</i>
  </separator>
  <separator name="symmetry" >
   <i type="int" name="ISYM">     2</i>
   <i name="SYMPREC">      0.00001000</i>
  </separator>
  <separator name="dos" >
   <i type="int" name="LORBIT">    11</i>
   <v name="RWIGS">     -1.00000000     -1.00000000</v>
   <i type="int" name="NEDOS">   301</i>
   <i name="EMIN">     10.00000000</i>
   <i name="EMAX">    -10.00000000</i>
   <i name="EFERMI">      0.00000000</i>
  </separator>
  <separator name="writing" >
   <i type="int" name="NWRITE">     2</i>
   <i type="logical" name="LWAVE"> F  </i>
   <i type="logical" name="LDOWNSAMPLE"> F  </i>
   <i type="logical" name="LCHARG"> T  </i>
   <i type="logical" name="LPARD"> F  </i>
   <i type="logical" name="LVTOT"> T  </i>
   <i type="logical" name="LVHAR"> F  </i>
   <i type="logical" name="LELF"> T  </i>
   <i type="logical" name="LOPTICS"> F  </i>
   <v name="STM">      0.00000000      0.00000000      0.00000000      0.00000000      0.00000000      0.00000000      0.00000000</v>
  </separator>
  <separator name="performance" >
   <i type="int" name="NPAR">    64</i>
   <i type="int" name="NSIM">     4</i>
   <i type="int" name="NBLK">    -1</i>
   <i type="logical" name="LPLANE"> T  </i>
   <i type="logical" name="LSCALAPACK"> T  </i>
   <i type="logical" name="LSCAAWARE"> T  </i>
   <i type="logical" name="LSCALU"> F  </i>
   <i type="logical" name="LASYNC"> F  </i>
   <i type="logical" name="LORBITALREAL"> F  </i>
  </separator>
  <separator name="miscellaneous" >
   <i type="int" name="IDIOT">     3</i>
   <i type="int" name="PHON_NSTRUCT">    -1</i>
   <i type="logical" name="LMUSIC"> F  </i>
   <v name="POMASS">      7.01000000     18.99800000</v>
   <v name="DARWINR">      0.00000000      0.00000000</v>
   <v name="DARWINV">      1.00000000      1.00000000</v>
   <i type="logical" name="LCORR"> T  </i>
  </separator>
  <i type="logical" name="GGA_COMPAT"> T  </i>
  <i type="logical" name="LBERRY"> F  </i>
  <i type="int" name="ICORELEVEL">     0</i>
  <i type="logical" name="LDAU"> F  </i>
  <i type="int" name="I_CONSTRAINED_M">     0</i>
  <separator name="electronic exchange-correlation" >
   <i type="string" name="GGA">--</i>
   <i type="int" name="VOSKOWN">     0</i>
   <i type="logical" name="LHFCALC"> F  </i>
   <i type="string" name="PRECFOCK"></i>
   <i type="logical" name="LSYMGRAD"> F  </i>
   <i type="logical" name="LHFONE"> F  </i>
   <i type="logical" name="LRHFCALC"> F  </i>
   <i type="logical" name="LTHOMAS"> F  </i>
   <i type="logical" name="LMODELHF"> F  </i>
   <i type="logical" name="LFOCKACE"> F  </i>
   <i name="ENCUT4O">     -1.00000000</i>
   <i type="int" name="EXXOEP">     0</i>
   <i type="int" name="FOURORBIT">     0</i>
   <i name="AEXX">      0.00000000</i>
   <i name="HFALPHA">      0.00000000</i>
   <i name="MCALPHA">      0.00000000</i>
   <i name="ALDAX">      1.00000000</i>
   <i name="AGGAX">      1.00000000</i>
   <i name="ALDAC">      1.00000000</i>
   <i name="AGGAC">      1.00000000</i>
   <i type="int" name="NKREDX">     1</i>
   <i type="int" name="NKREDY">     1</i>
   <i type="int" name="NKREDZ">     1</i>
   <i type="logical" name="SHIFTRED"> F  </i>
   <i type="logical" name="ODDONLY"> F  </i>
   <i type="logical" name="EVENONLY"> F  </i>
   <i type="int" name="LMAXFOCK">     0</i>
   <i type="int" name="NMAXFOCKAE">     0</i>
   <i type="logical" name="LFOCKAEDFT"> F  </i>
   <i name="HFSCREEN">      0.00000000</i>
   <i name="HFSCREENC">      0.00000000</i>
   <i type="int" name="NBANDSGWLOW">     0</i>
  </separator>
  <separator name="vdW DFT" >
   <i type="logical" name="LUSE_VDW"> F  </i>
   <i name="Zab_VDW">     -0.84910000</i>
   <i name="PARAM1">      0.12340000</i>
   <i name="PARAM2">      1.00000000</i>
   <i name="PARAM3">      0.00000000</i>
  </separator>
  <separator name="model GW" >
   <i type="int" name="MODEL_GW">     0</i>
   <i name="MODEL_EPS0">      5.10664856</i>
   <i name="MODEL_ALPHA">      1.00000000</i>
  </separator>
  <separator name="linear response parameters" >
   <i type="logical" name="LEPSILON"> F  </i>
   <i type="logical" name="LRPA"> F  </i>
   <i type="logical" name="LNABLA"> F  </i>
   <i type="logical" name="LVEL"> F  </i>
   <i type="int" name="KINTER">     0</i>
   <i name="CSHIFT">      0.10000000</i>
   <i name="OMEGAMAX">     -1.00000000</i>
   <i name="DEG_THRESHOLD">      0.00200000</i>
   <i name="RTIME">     -0.10000000</i>
   <i name="WPLASMAI">      0.00000000</i>
   <v name="DFIELD">      0.00000000      0.00000000      0.00000000</v>
   <v name="WPLASMA">      0.00000000      0.00000000      0.00000000      0.00000000      0.00000000      0.00000000      0.00000000      0.00000000      0.00000000</v>
  </separator>
  <separator name="orbital magnetization" >
   <i type="logical" name="NUCIND"> F  </i>
   <v name="MAGPOS">      0.00000000      0.00000000      0.00000000</v>
   <i type="logical" name="LNICSALL"> T  </i>
   <i type="logical" name="ORBITALMAG"> F  </i>
   <i type="logical" name="LMAGBLOCH"> F  </i>
   <i type="logical" name="LCHIMAG"> F  </i>
   <i type="logical" name="LGAUGE"> T  </i>
   <i type="int" name="MAGATOM">     0</i>
   <v name="MAGDIPOL">      0.00000000      0.00000000      0.00000000</v>
   <v name="AVECCONST">      0.00000000      0.00000000      0.00000000</v>
  </separator>
  <separator name="response functions" >
   <i type="logical" name="LFINITE_TEMPERATURE"> F  </i>
   <i type="logical" name="LADDER"> F  </i>
   <i type="logical" name="LRPAFORCE"> F  </i>
   <i type="logical" name="LFXC"> F  </i>
   <i type="logical" name="LHARTREE"> T  </i>
   <i type="int" name="IBSE">     0</i>
   <v type="int" name="KPOINT">    -1     0     0     0</v>
   <i type="logical" name="LTCTC"> F  </i>
   <i type="logical" name="LTCTE"> F  </i>
   <i type="logical" name="LTETE"> F  </i>
   <i type="logical" name="LTRIPLET"> F  </i>
   <i type="logical" name="LFXCEPS"> F  </i>
   <i type="logical" name="LFXHEG"> F  </i>
   <i type="int" name="NATURALO">     2</i>
   <i type="logical" name="LHOLEGF"> F  </i>
   <i type="logical" name="L2ORDER"> F  </i>
   <i type="logical" name="LDMP1"> F  </i>
   <i type="logical" name="LMP2LT"> F  </i>
   <i type="logical" name="LSMP2LT"> F  </i>
   <i type="logical" name="LGWLF"> F  </i>
   <i name="ENCUTGW">     -2.00000000</i>
   <i name="ENCUTGWSOFT">     -2.00000000</i>
   <i name="ENCUTLF">     -1.00000000</i>
   <i type="logical" name="LESF_SPLINES"> F  </i>
   <i type="int" name="LMAXMP2">    -1</i>
   <i name="SCISSOR">      0.00000000</i>
   <i type="int" name="NOMEGA">     0</i>
   <i type="int" name="NOMEGAR">     0</i>
   <i type="int" name="NBANDSGW">    -1</i>
   <i type="int" name="NBANDSO">    -1</i>
   <i type="int" name="NBANDSV">    -1</i>
   <i type="int" name="NELM">   200</i>
   <i type="int" name="NELMHF">     1</i>
   <i type="int" name="DIM">     3</i>
   <i type="int" name="IESPILON">     4</i>
   <i type="int" name="ANTIRES">     0</i>
   <i name="OMEGAMAX">    -30.00000000</i>
   <i name="OMEGAMIN">    -30.00000000</i>
   <i name="OMEGATL">   -200.00000000</i>
   <i type="int" name="OMEGAGRID">     0</i>
   <i name="CSHIFT">     -0.10000000</i>
   <i type="logical" name="LSELFENERGY"> F  </i>
   <i type="logical" name="LSPECTRAL"> F  </i>
   <i type="logical" name="LSPECTRALGW"> F  </i>
   <i type="logical" name="LSINGLES"> F  </i>
   <i type="logical" name="LFERMIGW"> F  </i>
   <i type="logical" name="ODDONLYGW"> F  </i>
   <i type="logical" name="EVENONLYGW"> F  </i>
   <i type="int" name="NKREDLFX">     1</i>
   <i type="int" name="NKREDLFY">     1</i>
   <i type="int" name="NKREDLFZ">     1</i>
   <i type="int" name="MAXMEM">  2800</i>
   <i type="int" name="TELESCOPE">     0</i>
   <i type="int" name="NTAUPAR">    -1</i>
   <i type="int" name="NOMEGAPAR">    -1</i>
   <i name="LAMBDA">      1.00000000</i>
  </separator>
  <separator name="External order field" >
   <i name="OFIELD_KAPPA">      0.00000000</i>
   <v name="OFIELD_K">      0.00000000      0.00000000      0.00000000</v>
   <i name="OFIELD_Q6_NEAR">      0.00000000</i>
   <i name="OFIELD_Q6_FAR">      0.00000000</i>
   <i name="OFIELD_A">      0.00000000</i>
  </separator>
 </parameters>
 <atominfo>
  <atoms>       2 </atoms>
  <types>       2 </types>
  <array name="atoms" >
   <dimension dim="1">ion</dimension>
   <field type="string">element</field>
   <field type="int">atomtype</field>
   <set>
    <rc><c>Li</c><c>   1</c></rc>
    <rc><c>F </c><c>   2</c></rc>
   </set>
  </array>
  <array name="atomtypes" >
   <dimension dim="1">type</dimension>
   <field type="int">atomspertype</field>
   <field type="string">element</field>
   <field>mass</field>
   <field>valence</field>
   <field type="string">pseudopotential</field>
   <set>
    <rc><c>   1</c><c>Li</c><c>      7.01000000</c><c>      3.00000000</c><c>  PAW_PBE Li_sv 10Sep2004               </c></rc>
    <rc><c>   1</c><c>F </c><c>     18.99800000</c><c>      7.00000000</c><c>  PAW_PBE F 08Apr2002                   </c></rc>
   </set>
  </array>
 </atominfo>
 <structure name="initialpos" >
  <crystal>
   <varray name="basis" >
    <v>       0.00000000       2.04171400       2.04171400 </v>
    <v>       2.04171400       0.00000000       2.04171400 </v>
    <v>       2.04171400       2.04171400       0.00000000 </v>
   </varray>
   <i name="volume">     17.02216186 </i>
   <varray name="rec_basis" >
    <v>      -0.24489228       0.24489228       0.24489228 </v>
    <v>       0.24489228      -0.24489228       0.24489228 </v>
    <v>       0.24489228       0.24489228      -0.24489228 </v>
   </varray>
  </crystal>
  <varray name="positions" >
   <v>       0.00000000       0.00000000       0.00000000 </v>
   <v>       0.50000000       0.50000000       0.50000000 </v>
  </varray>
 </structure>
 <calculation>
  <scstep>
   <time name="total">   30.91   31.25</time>
   <energy>
    <i name="alphaZ">     19.24755120 </i>
    <i name="ewald">   -549.57268052 </i>
    <i name="hartreedc">   -217.48188625 </i>
    <i name="XCdc">     58.18671818 </i>
    <i name="pawpsdc">    610.19169424 </i>
    <i name="pawaedc">   -630.32424878 </i>
    <i name="eentropy">     -0.00000000 </i>
    <i name="bandstr">   -162.42340619 </i>
    <i name="atom">    862.41152047 </i>
    <i name="e_fr_energy">     -9.76473763 </i>
    <i name="e_wo_entrp">     -9.76473763 </i>
    <i name="e_0_energy">     -9.76473763 </i>
   </energy>
  </scstep>
  <scstep>
   <time name="total">   34.50   34.50</time>
   <energy>
    <i name="e_fr_energy">    -14.96576742 </i>
    <i name="e_wo_entrp">    -14.96947725 </i>
    <i name="e_0_energy">    -14.96669488 </i>
   </energy>
  </scstep>
  <scstep>
   <time name="total">   27.28   27.30</time>
   <energy>
    <i name="e_fr_energy">    -14.96804159 </i>
    <i name="e_wo_entrp">    -14.96804159 </i>
    <i name="e_0_energy">    -14.96804159 </i>
   </energy>
  </scstep>
  <scstep>
   <time name="total">   49.72   49.72</time>
   <energy>
    <i name="e_fr_energy">    -14.96804163 </i>
    <i name="e_wo_entrp">    -14.96804163 </i>
    <i name="e_0_energy">    -14.96804163 </i>
   </energy>
  </scstep>
  <scstep>
   <time name="total">   27.96   27.97</time>
   <energy>
    <i name="e_fr_energy">    -14.96804163 </i>
    <i name="e_wo_entrp">    -14.96804163 </i>
    <i name="e_0_energy">    -14.96804163 </i>
   </energy>
  </scstep>
  <scstep>
   <time name="total">   26.28   26.57</time>
   <energy>
    <i name="e_fr_energy">    -11.40696937 </i>
    <i name="e_wo_entrp">    -11.40696937 </i>
    <i name="e_0_energy">    -11.40696937 </i>
   </energy>
  </scstep>
  <scstep>
   <time name="total">   26.01   26.01</time>
   <energy>
    <i name="e_fr_energy">    -11.86903135 </i>
    <i name="e_wo_entrp">    -11.87188801 </i>
    <i name="e_0_energy">    -11.86974551 </i>
   </energy>
  </scstep>
  <scstep>
   <time name="total">   21.32   21.32</time>
   <energy>
    <i name="e_fr_energy">    -11.88487956 </i>
    <i name="e_wo_entrp">    -11.88487956 </i>
    <i name="e_0_energy">    -11.88487956 </i>
   </energy>
  </scstep>
  <scstep>
   <time name="total">   26.01   26.01</time>
   <energy>
    <i name="e_fr_energy">    -11.88805504 </i>
    <i name="e_wo_entrp">    -11.88805504 </i>
    <i name="e_0_energy">    -11.88805504 </i>
   </energy>
  </scstep>
  <scstep>
   <time name="total">   26.01   26.01</time>
   <energy>
    <i name="e_fr_energy">    -11.89030793 </i>
    <i name="e_wo_entrp">    -11.89030793 </i>
    <i name="e_0_energy">    -11.89030793 </i>
   </energy>
  </scstep>
  <scstep>
   <time name="total">   26.01   26.01</time>
   <energy>
    <i name="e_fr_energy">    -11.89057837 </i>
    <i name="e_wo_entrp">    -11.89057837 </i>
    <i name="e_0_energy">    -11.89057837 </i>
   </energy>
  </scstep>
  <scstep>
   <time name="total">   26.02   26.02</time>
   <energy>
    <i name="e_fr_energy">    -11.89058871 </i>
    <i name="e_wo_entrp">    -11.89058871 </i>
    <i name="e_0_energy">    -11.89058871 </i>
   </energy>
  </scstep>
  <scstep>
   <time name="total">   31.33   31.33</time>
   <energy>
    <i name="alphaZ">     19.24755120 </i>
    <i name="ewald">   -549.57268052 </i>
    <i name="hartreedc">   -232.42038980 </i>
    <i name="XCdc">     59.99588238 </i>
    <i name="pawpsdc">    707.80879313 </i>
    <i name="pawaedc">   -728.52363557 </i>
    <i name="eentropy">     -0.00000000 </i>
    <i name="bandstr">   -150.83763193 </i>
    <i name="atom">    862.41152047 </i>
    <i name="e_fr_energy">    -11.89059065 </i>
    <i name="e_wo_entrp">    -11.89059065 </i>
    <i name="e_0_energy">    -11.89059065 </i>
   </energy>
  </scstep>
  <structure>
   <crystal>
    <varray name="basis" >
     <v>       0.00000000       2.04171400       2.04171400 </v>
     <v>       2.04171400       0.00000000       2.04171400 </v>
     <v>       2.04171400       2.04171400       0.00000000 </v>
    </varray>
    <i name="volume">     17.02216186 </i>
    <varray name="rec_basis" >
     <v>      -0.24489228       0.24489228       0.24489228 </v>
     <v>       0.24489228      -0.24489228       0.24489228 </v>
     <v>       0.24489228       0.24489228      -0.24489228 </v>
    </varray>
   </crystal>
   <varray name="positions" >
    <v>       0.00000000       0.00000000       0.00000000 </v>
    <v>       0.50000000       0.50000000       0.50000000 </v>
   </varray>
  </structure>
  <varray name="forces" >
   <v>       0.00000000      -0.00000000      -0.00000000 </v>
   <v>      -0.00000000       0.00000000       0.00000000 </v>
  </varray>
  <varray name="stress" >
   <v>     -58.32977156       0.00000000       0.00000000 </v>
   <v>       0.00000000     -58.32977156       0.00000000 </v>
   <v>      -0.00000000      -0.00000000     -58.32977156 </v>
  </varray>
  <energy>
   <i name="e_fr_energy">    -11.89059065 </i>
   <i name="e_wo_entrp">    -11.89059065 </i>
   <i name="e_0_energy">    -11.89059065 </i>
  </energy>
  <time name="totalsc">  412.48  413.30</time>
  <eigenvalues>
   <array>
    <dimension dim="1">band</dimension>
    <dimension dim="2">kpoint</dimension>
    <dimension dim="3">spin</dimension>
    <field>eigene</field>
    <field>occ</field>
    <set>
     <set comment="spin 1">
      <set comment="kpoint 1">
       <r>  -44.0265    1.0000 </r>
       <r>  -22.8753    1.0000 </r>
       <r>   -1.8883    1.0000 </r>
       <r>   -1.8883    1.0000 </r>
       <r>   -1.8883    1.0000 </r>
       <r>    7.9940    0.0000 </r>
       <r>   23.1948    0.0000 </r>
       <r>   23.1948    0.0000 </r>
       <r>   23.1949    0.0000 </r>
       <r>   23.5680    0.0000 </r>
       <r>   23.5680    0.0000 </r>
       <r>   23.5686    0.0000 </r>
       <r>   26.0850    0.0000 </r>
       <r>   30.3549    0.0000 </r>
       <r>   30.3549    0.0000 </r>
       <r>   43.7382    0.0000 </r>
       <r>   43.7382    0.0000 </r>
       <r>   43.7383    0.0000 </r>
       <r>   47.0254    0.0000 </r>
       <r>   63.2919    0.0000 </r>
       <r>   63.2919    0.0000 </r>
       <r>   63.2923    0.0000 </r>
       <r>   64.8394    0.0000 </r>
       <r>   67.6181    0.0000 </r>
       <r>   67.6181    0.0000 </r>
       <r>   68.4272    0.0000 </r>
       <r>   68.4276    0.0000 </r>
       <r>   68.4276    0.0000 </r>
       <r>   72.3670    0.0000 </r>
       <r>   72.3670    0.0000 </r>
       <r>   72.3671    0.0000 </r>
       <r>   83.2279    0.0000 </r>
       <r>   83.2279    0.0000 </r>
       <r>   89.2563    0.0000 </r>
       <r>   89.2563    0.0000 </r>
       <r>   89.2568    0.0000 </r>
       <r>   94.0738    0.0000 </r>
       <r>   94.0738    0.0000 </r>
       <r>   94.0738    0.0000 </r>
       <r>   95.4464    0.0000 </r>
       <r>   95.4472    0.0000 </r>
       <r>   95.4472    0.0000 </r>
       <r>   96.2172    0.0000 </r>
       <r>   97.3131    0.0000 </r>
       <r>   97.3133    0.0000 </r>
       <r>   97.3133    0.0000 </r>
       <r>   98.0830    0.0000 </r>
       <r>   98.7632    0.0000 </r>
       <r>   98.7632    0.0000 </r>
       <r>   98.7632    0.0000 </r>
       <r>   99.4817    0.0000 </r>
       <r>   99.4817    0.0000 </r>
       <r>  101.4005    0.0000 </r>
       <r>  101.4005    0.0000 </r>
       <r>  101.4005    0.0000 </r>
       <r>  101.9458    0.0000 </r>
       <r>  101.9458    0.0000 </r>
       <r>  101.9459    0.0000 </r>
       <r>  102.5062    0.0000 </r>
       <r>  120.8316    0.0000 </r>
       <r>  124.4948    0.0000 </r>
       <r>  124.4950    0.0000 </r>
       <r>  124.4950    0.0000 </r>
       <r>  134.2740    0.0000 </r>
      </set>
      <set comment="kpoint 2">
       <r>  -44.0237    1.0000 </r>
       <r>  -22.8544    1.0000 </r>
       <r>   -2.0498    1.0000 </r>
       <r>   -1.9016    1.0000 </r>
       <r>   -1.9016    1.0000 </r>
       <r>    8.1676    0.0000 </r>
       <r>   21.0481    0.0000 </r>
       <r>   22.3625    0.0000 </r>
       <r>   22.3628    0.0000 </r>
       <r>   24.2161    0.0000 </r>
       <r>   24.2163    0.0000 </r>
       <r>   24.5463    0.0000 </r>
       <r>   27.9211    0.0000 </r>
       <r>   30.9326    0.0000 </r>
       <r>   30.9327    0.0000 </r>
       <r>   42.9332    0.0000 </r>
       <r>   43.8339    0.0000 </r>
       <r>   43.8339    0.0000 </r>
       <r>   47.3082    0.0000 </r>
       <r>   61.2163    0.0000 </r>
       <r>   61.2166    0.0000 </r>
       <r>   63.0414    0.0000 </r>
       <r>   65.0174    0.0000 </r>
       <r>   66.0732    0.0000 </r>
       <r>   66.0734    0.0000 </r>
       <r>   68.5923    0.0000 </r>
       <r>   71.3390    0.0000 </r>
       <r>   71.3392    0.0000 </r>
       <r>   72.8861    0.0000 </r>
       <r>   73.1730    0.0000 </r>
       <r>   73.1731    0.0000 </r>
       <r>   82.9357    0.0000 </r>
       <r>   82.9357    0.0000 </r>
       <r>   87.2230    0.0000 </r>
       <r>   87.7427    0.0000 </r>
       <r>   87.7432    0.0000 </r>
       <r>   91.2502    0.0000 </r>
       <r>   91.2502    0.0000 </r>
       <r>   92.1534    0.0000 </r>
       <r>   93.8060    0.0000 </r>
       <r>   94.5783    0.0000 </r>
       <r>   94.8435    0.0000 </r>
       <r>   94.8436    0.0000 </r>
       <r>   95.6941    0.0000 </r>
       <r>   97.6225    0.0000 </r>
       <r>   97.6229    0.0000 </r>
       <r>   98.1183    0.0000 </r>
       <r>   99.1073    0.0000 </r>
       <r>   99.1073    0.0000 </r>
       <r>  100.3445    0.0000 </r>
       <r>  100.3446    0.0000 </r>
       <r>  100.9373    0.0000 </r>
       <r>  102.1296    0.0000 </r>
       <r>  102.8103    0.0000 </r>
       <r>  104.4263    0.0000 </r>
       <r>  104.4263    0.0000 </r>
       <r>  104.8499    0.0000 </r>
       <r>  104.8500    0.0000 </r>
       <r>  109.1168    0.0000 </r>
       <r>  120.7374    0.0000 </r>
       <r>  123.1595    0.0000 </r>
       <r>  123.1601    0.0000 </r>
       <r>  124.6053    0.0000 </r>
       <r>  134.6782    0.0000 </r>
      </set>
      <set comment="kpoint 3">
       <r>  -44.0162    1.0000 </r>
       <r>  -22.7958    1.0000 </r>
       <r>   -2.4752    1.0000 </r>
       <r>   -1.9390    1.0000 </r>
       <r>   -1.9390    1.0000 </r>
       <r>    8.6082    0.0000 </r>
       <r>   18.8949    0.0000 </r>
       <r>   21.2175    0.0000 </r>
       <r>   21.2179    0.0000 </r>
       <r>   25.0763    0.0000 </r>
       <r>   25.0764    0.0000 </r>
       <r>   25.2016    0.0000 </r>
       <r>   31.3853    0.0000 </r>
       <r>   32.3285    0.0000 </r>
       <r>   32.3285    0.0000 </r>
       <r>   41.1554    0.0000 </r>
       <r>   44.1214    0.0000 </r>
       <r>   44.1214    0.0000 </r>
       <r>   47.7089    0.0000 </r>
       <r>   57.3807    0.0000 </r>
       <r>   57.3809    0.0000 </r>
       <r>   62.3819    0.0000 </r>
       <r>   65.3956    0.0000 </r>
       <r>   66.2103    0.0000 </r>
       <r>   66.2105    0.0000 </r>
       <r>   69.0862    0.0000 </r>
       <r>   70.5625    0.0000 </r>
       <r>   70.5626    0.0000 </r>
       <r>   74.1274    0.0000 </r>
       <r>   77.6511    0.0000 </r>
       <r>   77.6513    0.0000 </r>
       <r>   81.6273    0.0000 </r>
       <r>   81.6274    0.0000 </r>
       <r>   83.8840    0.0000 </r>
       <r>   84.8116    0.0000 </r>
       <r>   84.8121    0.0000 </r>
       <r>   87.3490    0.0000 </r>
       <r>   88.4067    0.0000 </r>
       <r>   88.6243    0.0000 </r>
       <r>   88.6245    0.0000 </r>
       <r>   93.0090    0.0000 </r>
       <r>   93.3938    0.0000 </r>
       <r>   93.3939    0.0000 </r>
       <r>   96.1378    0.0000 </r>
       <r>   97.2643    0.0000 </r>
       <r>   97.2644    0.0000 </r>
       <r>   98.9474    0.0000 </r>
       <r>  100.5714    0.0000 </r>
       <r>  100.5719    0.0000 </r>
       <r>  104.2792    0.0000 </r>
       <r>  104.4364    0.0000 </r>
       <r>  104.4366    0.0000 </r>
       <r>  105.6735    0.0000 </r>
       <r>  107.6436    0.0000 </r>
       <r>  107.6859    0.0000 </r>
       <r>  107.6860    0.0000 </r>
       <r>  111.6257    0.0000 </r>
       <r>  111.6259    0.0000 </r>
       <r>  115.3220    0.0000 </r>
       <r>  120.0438    0.0000 </r>
       <r>  120.2465    0.0000 </r>
       <r>  120.2471    0.0000 </r>
       <r>  126.2419    0.0000 </r>
       <r>  134.5429    0.0000 </r>
      </set>
      <set comment="kpoint 4">
       <r>  -44.0055    1.0000 </r>
       <r>  -22.7114    1.0000 </r>
       <r>   -3.0291    1.0000 </r>
       <r>   -1.9906    1.0000 </r>
       <r>   -1.9906    1.0000 </r>
       <r>    9.1266    0.0000 </r>
       <r>   17.2762    0.0000 </r>
       <r>   20.1133    0.0000 </r>
       <r>   20.1137    0.0000 </r>
       <r>   26.0675    0.0000 </r>
       <r>   26.1673    0.0000 </r>
       <r>   26.1674    0.0000 </r>
       <r>   33.9584    0.0000 </r>
       <r>   33.9585    0.0000 </r>
       <r>   35.1242    0.0000 </r>
       <r>   39.3058    0.0000 </r>
       <r>   44.5651    0.0000 </r>
       <r>   44.5652    0.0000 </r>
       <r>   47.9213    0.0000 </r>
       <r>   53.9104    0.0000 </r>
       <r>   53.9106    0.0000 </r>
       <r>   61.6208    0.0000 </r>
       <r>   65.4419    0.0000 </r>
       <r>   66.8672    0.0000 </r>
       <r>   66.8675    0.0000 </r>
       <r>   68.8444    0.0000 </r>
       <r>   68.8445    0.0000 </r>
       <r>   69.9090    0.0000 </r>
       <r>   75.0474    0.0000 </r>
       <r>   77.3488    0.0000 </r>
       <r>   77.3489    0.0000 </r>
       <r>   79.4546    0.0000 </r>
       <r>   81.5339    0.0000 </r>
       <r>   81.5343    0.0000 </r>
       <r>   83.6409    0.0000 </r>
       <r>   83.8814    0.0000 </r>
       <r>   83.8815    0.0000 </r>
       <r>   84.9586    0.0000 </r>
       <r>   88.4955    0.0000 </r>
       <r>   88.4957    0.0000 </r>
       <r>   92.1650    0.0000 </r>
       <r>   92.8005    0.0000 </r>
       <r>   92.8006    0.0000 </r>
       <r>   95.2871    0.0000 </r>
       <r>   96.1902    0.0000 </r>
       <r>   96.1904    0.0000 </r>
       <r>  101.5974    0.0000 </r>
       <r>  104.1785    0.0000 </r>
       <r>  104.1789    0.0000 </r>
       <r>  105.8175    0.0000 </r>
       <r>  109.0805    0.0000 </r>
       <r>  109.0807    0.0000 </r>
       <r>  110.7715    0.0000 </r>
       <r>  111.0571    0.0000 </r>
       <r>  111.0572    0.0000 </r>
       <r>  113.5506    0.0000 </r>
       <r>  117.2304    0.0000 </r>
       <r>  117.2307    0.0000 </r>
       <r>  118.5477    0.0000 </r>
       <r>  119.1026    0.0000 </r>
       <r>  119.1027    0.0000 </r>
       <r>  119.2284    0.0000 </r>
       <r>  130.8741    0.0000 </r>
       <r>  132.2032    0.0000 </r>
      </set>
      <set comment="kpoint 5">
       <r>  -43.9943    1.0000 </r>
       <r>  -22.6192    1.0000 </r>
       <r>   -3.5727    1.0000 </r>
       <r>   -2.0442    1.0000 </r>
       <r>   -2.0442    1.0000 </r>
       <r>    9.5192    0.0000 </r>
       <r>   16.2821    0.0000 </r>
       <r>   19.2013    0.0000 </r>
       <r>   19.2017    0.0000 </r>
       <r>   27.1426    0.0000 </r>
       <r>   27.4680    0.0000 </r>
       <r>   27.4680    0.0000 </r>
       <r>   35.3158    0.0000 </r>
       <r>   35.3159    0.0000 </r>
       <r>   35.9247    0.0000 </r>
       <r>   40.7691    0.0000 </r>
       <r>   44.8986    0.0000 </r>
       <r>   44.8988    0.0000 </r>
       <r>   47.9348    0.0000 </r>
       <r>   51.6306    0.0000 </r>
       <r>   51.6308    0.0000 </r>
       <r>   60.8911    0.0000 </r>
       <r>   64.6572    0.0000 </r>
       <r>   66.1587    0.0000 </r>
       <r>   66.1589    0.0000 </r>
       <r>   68.0672    0.0000 </r>
       <r>   68.0674    0.0000 </r>
       <r>   71.0587    0.0000 </r>
       <r>   73.4020    0.0000 </r>
       <r>   74.6657    0.0000 </r>
       <r>   74.6657    0.0000 </r>
       <r>   75.3726    0.0000 </r>
       <r>   78.6959    0.0000 </r>
       <r>   78.6962    0.0000 </r>
       <r>   81.8348    0.0000 </r>
       <r>   84.2531    0.0000 </r>
       <r>   85.7836    0.0000 </r>
       <r>   85.7839    0.0000 </r>
       <r>   91.7014    0.0000 </r>
       <r>   91.7016    0.0000 </r>
       <r>   91.7183    0.0000 </r>
       <r>   92.4397    0.0000 </r>
       <r>   92.4398    0.0000 </r>
       <r>   94.6409    0.0000 </r>
       <r>   96.8157    0.0000 </r>
       <r>   96.8159    0.0000 </r>
       <r>  104.3521    0.0000 </r>
       <r>  106.9001    0.0000 </r>
       <r>  107.4419    0.0000 </r>
       <r>  107.4422    0.0000 </r>
       <r>  112.7218    0.0000 </r>
       <r>  112.7219    0.0000 </r>
       <r>  114.2982    0.0000 </r>
       <r>  114.2985    0.0000 </r>
       <r>  115.9492    0.0000 </r>
       <r>  116.2055    0.0000 </r>
       <r>  116.9507    0.0000 </r>
       <r>  116.9507    0.0000 </r>
       <r>  120.3067    0.0000 </r>
       <r>  121.6780    0.0000 </r>
       <r>  127.0105    0.0000 </r>
       <r>  127.0106    0.0000 </r>
       <r>  127.2349    0.0000 </r>
       <r>  127.2349    0.0000 </r>
      </set>
      <set comment="kpoint 6">
       <r>  -43.9849    1.0000 </r>
       <r>  -22.5407    1.0000 </r>
       <r>   -3.9971    1.0000 </r>
       <r>   -2.0875    1.0000 </r>
       <r>   -2.0875    1.0000 </r>
       <r>    9.6910    0.0000 </r>
       <r>   15.8494    0.0000 </r>
       <r>   18.5613    0.0000 </r>
       <r>   18.5617    0.0000 </r>
       <r>   28.3317    0.0000 </r>
       <r>   28.7974    0.0000 </r>
       <r>   28.7974    0.0000 </r>
       <r>   34.1898    0.0000 </r>
       <r>   36.0353    0.0000 </r>
       <r>   36.0354    0.0000 </r>
       <r>   44.5836    0.0000 </r>
       <r>   44.5838    0.0000 </r>
       <r>   45.2345    0.0000 </r>
       <r>   47.8602    0.0000 </r>
       <r>   51.3595    0.0000 </r>
       <r>   51.3597    0.0000 </r>
       <r>   59.3842    0.0000 </r>
       <r>   63.2234    0.0000 </r>
       <r>   63.2235    0.0000 </r>
       <r>   63.3905    0.0000 </r>
       <r>   69.3025    0.0000 </r>
       <r>   69.3027    0.0000 </r>
       <r>   69.4660    0.0000 </r>
       <r>   72.5296    0.0000 </r>
       <r>   72.9197    0.0000 </r>
       <r>   72.9198    0.0000 </r>
       <r>   74.5044    0.0000 </r>
       <r>   76.1740    0.0000 </r>
       <r>   76.1744    0.0000 </r>
       <r>   79.0468    0.0000 </r>
       <r>   85.8262    0.0000 </r>
       <r>   85.8266    0.0000 </r>
       <r>   86.2733    0.0000 </r>
       <r>   91.4351    0.0000 </r>
       <r>   91.9201    0.0000 </r>
       <r>   91.9201    0.0000 </r>
       <r>   94.4885    0.0000 </r>
       <r>   95.7285    0.0000 </r>
       <r>   95.7288    0.0000 </r>
       <r>  100.2860    0.0000 </r>
       <r>  100.2860    0.0000 </r>
       <r>  105.9308    0.0000 </r>
       <r>  107.5450    0.0000 </r>
       <r>  107.5452    0.0000 </r>
       <r>  107.8207    0.0000 </r>
       <r>  114.7096    0.0000 </r>
       <r>  114.7097    0.0000 </r>
       <r>  115.4566    0.0000 </r>
       <r>  119.2934    0.0000 </r>
       <r>  119.2943    0.0000 </r>
       <r>  120.2356    0.0000 </r>
       <r>  120.2404    0.0000 </r>
       <r>  120.7516    0.0000 </r>
       <r>  121.5588    0.0000 </r>
       <r>  121.5605    0.0000 </r>
       <r>  121.9697    0.0000 </r>
       <r>  126.6363    0.0000 </r>
       <r>  129.7666    0.0000 </r>
       <r>  130.2531    0.0000 </r>
      </set>
      <set comment="kpoint 7">
       <r>  -43.9797    1.0000 </r>
       <r>  -22.4954    1.0000 </r>
       <r>   -4.2283    1.0000 </r>
       <r>   -2.1117    1.0000 </r>
       <r>   -2.1117    1.0000 </r>
       <r>    9.7189    0.0000 </r>
       <r>   15.7431    0.0000 </r>
       <r>   18.2321    0.0000 </r>
       <r>   18.2325    0.0000 </r>
       <r>   29.3785    0.0000 </r>
       <r>   29.7429    0.0000 </r>
       <r>   29.7429    0.0000 </r>
       <r>   32.7650    0.0000 </r>
       <r>   36.1517    0.0000 </r>
       <r>   36.1518    0.0000 </r>
       <r>   44.0524    0.0000 </r>
       <r>   44.0527    0.0000 </r>
       <r>   47.5612    0.0000 </r>
       <r>   50.1239    0.0000 </r>
       <r>   52.3366    0.0000 </r>
       <r>   52.3369    0.0000 </r>
       <r>   55.8700    0.0000 </r>
       <r>   60.8293    0.0000 </r>
       <r>   60.8293    0.0000 </r>
       <r>   63.0638    0.0000 </r>
       <r>   67.3281    0.0000 </r>
       <r>   70.5698    0.0000 </r>
       <r>   70.5699    0.0000 </r>
       <r>   72.1522    0.0000 </r>
       <r>   72.1523    0.0000 </r>
       <r>   74.1520    0.0000 </r>
       <r>   74.2535    0.0000 </r>
       <r>   74.2539    0.0000 </r>
       <r>   74.2721    0.0000 </r>
       <r>   76.6452    0.0000 </r>
       <r>   85.7159    0.0000 </r>
       <r>   85.7163    0.0000 </r>
       <r>   87.7835    0.0000 </r>
       <r>   91.2029    0.0000 </r>
       <r>   91.5863    0.0000 </r>
       <r>   91.5863    0.0000 </r>
       <r>   94.7453    0.0000 </r>
       <r>   97.8074    0.0000 </r>
       <r>   97.8079    0.0000 </r>
       <r>  105.4486    0.0000 </r>
       <r>  105.4488    0.0000 </r>
       <r>  105.4830    0.0000 </r>
       <r>  106.7931    0.0000 </r>
       <r>  106.7932    0.0000 </r>
       <r>  109.2713    0.0000 </r>
       <r>  113.4426    0.0000 </r>
       <r>  113.4427    0.0000 </r>
       <r>  115.0527    0.0000 </r>
       <r>  118.6991    0.0000 </r>
       <r>  118.6994    0.0000 </r>
       <r>  121.2962    0.0000 </r>
       <r>  124.7256    0.0000 </r>
       <r>  124.7260    0.0000 </r>
       <r>  124.9163    0.0000 </r>
       <r>  124.9166    0.0000 </r>
       <r>  126.3495    0.0000 </r>
       <r>  126.3496    0.0000 </r>
       <r>  127.2740    0.0000 </r>
       <r>  128.0606    0.0000 </r>
      </set>
      <set comment="kpoint 8">
       <r>  -44.0229    1.0000 </r>
       <r>  -22.8472    1.0000 </r>
       <r>   -2.0323    1.0000 </r>
       <r>   -1.9443    1.0000 </r>
       <r>   -1.9443    1.0000 </r>
       <r>    8.2326    0.0000 </r>
       <r>   21.6788    0.0000 </r>
       <r>   21.7573    0.0000 </r>
       <r>   21.7575    0.0000 </r>
       <r>   22.5894    0.0000 </r>
       <r>   25.5434    0.0000 </r>
       <r>   25.5436    0.0000 </r>
       <r>   28.0355    0.0000 </r>
       <r>   30.5634    0.0000 </r>
       <r>   31.5255    0.0000 </r>
       <r>   43.2035    0.0000 </r>
       <r>   43.5966    0.0000 </r>
       <r>   43.5966    0.0000 </r>
       <r>   47.4179    0.0000 </r>
       <r>   61.1494    0.0000 </r>
       <r>   61.1496    0.0000 </r>
       <r>   62.5890    0.0000 </r>
       <r>   63.4798    0.0000 </r>
       <r>   65.0597    0.0000 </r>
       <r>   67.2598    0.0000 </r>
       <r>   70.2710    0.0000 </r>
       <r>   70.2711    0.0000 </r>
       <r>   72.0479    0.0000 </r>
       <r>   73.1793    0.0000 </r>
       <r>   73.1795    0.0000 </r>
       <r>   73.8559    0.0000 </r>
       <r>   82.8503    0.0000 </r>
       <r>   83.1128    0.0000 </r>
       <r>   85.7344    0.0000 </r>
       <r>   85.7347    0.0000 </r>
       <r>   87.7444    0.0000 </r>
       <r>   91.1877    0.0000 </r>
       <r>   92.8160    0.0000 </r>
       <r>   92.8161    0.0000 </r>
       <r>   93.7239    0.0000 </r>
       <r>   93.7243    0.0000 </r>
       <r>   95.5650    0.0000 </r>
       <r>   95.9558    0.0000 </r>
       <r>   96.3051    0.0000 </r>
       <r>   96.4461    0.0000 </r>
       <r>   96.5379    0.0000 </r>
       <r>   96.5379    0.0000 </r>
       <r>   96.8835    0.0000 </r>
       <r>   98.2696    0.0000 </r>
       <r>  100.5065    0.0000 </r>
       <r>  100.5065    0.0000 </r>
       <r>  101.6682    0.0000 </r>
       <r>  103.0989    0.0000 </r>
       <r>  103.5969    0.0000 </r>
       <r>  103.5972    0.0000 </r>
       <r>  107.2151    0.0000 </r>
       <r>  107.2152    0.0000 </r>
       <r>  107.3895    0.0000 </r>
       <r>  108.0253    0.0000 </r>
       <r>  119.5197    0.0000 </r>
       <r>  122.8391    0.0000 </r>
       <r>  124.4021    0.0000 </r>
       <r>  124.4023    0.0000 </r>
       <r>  134.8596    0.0000 </r>
      </set>
      <set comment="kpoint 9">
       <r>  -44.0169    1.0000 </r>
       <r>  -22.8003    1.0000 </r>
       <r>   -2.3571    1.0000 </r>
       <r>   -2.0071    1.0000 </r>
       <r>   -1.9645    1.0000 </r>
       <r>    8.6057    0.0000 </r>
       <r>   19.4626    0.0000 </r>
       <r>   21.0270    0.0000 </r>
       <r>   21.4439    0.0000 </r>
       <r>   22.5910    0.0000 </r>
       <r>   26.3871    0.0000 </r>
       <r>   26.5560    0.0000 </r>
       <r>   30.6442    0.0000 </r>
       <r>   31.3957    0.0000 </r>
       <r>   32.6846    0.0000 </r>
       <r>   41.8397    0.0000 </r>
       <r>   43.5221    0.0000 </r>
       <r>   44.0902    0.0000 </r>
       <r>   47.7862    0.0000 </r>
       <r>   57.5720    0.0000 </r>
       <r>   58.7541    0.0000 </r>
       <r>   62.2865    0.0000 </r>
       <r>   63.1149    0.0000 </r>
       <r>   65.3651    0.0000 </r>
       <r>   66.3999    0.0000 </r>
       <r>   70.5913    0.0000 </r>
       <r>   70.7570    0.0000 </r>
       <r>   72.9474    0.0000 </r>
       <r>   73.3306    0.0000 </r>
       <r>   75.7047    0.0000 </r>
       <r>   78.2068    0.0000 </r>
       <r>   81.4100    0.0000 </r>
       <r>   81.6072    0.0000 </r>
       <r>   83.4171    0.0000 </r>
       <r>   83.7420    0.0000 </r>
       <r>   85.3148    0.0000 </r>
       <r>   88.0636    0.0000 </r>
       <r>   89.4040    0.0000 </r>
       <r>   89.5050    0.0000 </r>
       <r>   91.5612    0.0000 </r>
       <r>   91.9393    0.0000 </r>
       <r>   94.2725    0.0000 </r>
       <r>   94.3801    0.0000 </r>
       <r>   95.4064    0.0000 </r>
       <r>   97.2673    0.0000 </r>
       <r>   97.3716    0.0000 </r>
       <r>   98.2799    0.0000 </r>
       <r>   99.3378    0.0000 </r>
       <r>   99.5940    0.0000 </r>
       <r>  100.3584    0.0000 </r>
       <r>  103.2856    0.0000 </r>
       <r>  104.7913    0.0000 </r>
       <r>  107.1225    0.0000 </r>
       <r>  107.5969    0.0000 </r>
       <r>  107.7038    0.0000 </r>
       <r>  108.2721    0.0000 </r>
       <r>  110.4205    0.0000 </r>
       <r>  112.9097    0.0000 </r>
       <r>  114.2330    0.0000 </r>
       <r>  116.6629    0.0000 </r>
       <r>  122.3416    0.0000 </r>
       <r>  123.1467    0.0000 </r>
       <r>  125.2882    0.0000 </r>
       <r>  134.4660    0.0000 </r>
      </set>
      <set comment="kpoint 10">
       <r>  -44.0074    1.0000 </r>
       <r>  -22.7233    1.0000 </r>
       <r>   -2.8673    1.0000 </r>
       <r>   -2.0752    1.0000 </r>
       <r>   -2.0055    1.0000 </r>
       <r>    9.1336    0.0000 </r>
       <r>   17.6571    0.0000 </r>
       <r>   20.2110    0.0000 </r>
       <r>   20.3301    0.0000 </r>
       <r>   23.5948    0.0000 </r>
       <r>   27.1831    0.0000 </r>
       <r>   27.4148    0.0000 </r>
       <r>   33.0953    0.0000 </r>
       <r>   33.8506    0.0000 </r>
       <r>   34.3437    0.0000 </r>
       <r>   39.9746    0.0000 </r>
       <r>   43.5063    0.0000 </r>
       <r>   45.0183    0.0000 </r>
       <r>   48.1042    0.0000 </r>
       <r>   53.9599    0.0000 </r>
       <r>   55.5233    0.0000 </r>
       <r>   62.1567    0.0000 </r>
       <r>   62.8803    0.0000 </r>
       <r>   65.4226    0.0000 </r>
       <r>   66.2532    0.0000 </r>
       <r>   69.6986    0.0000 </r>
       <r>   70.0696    0.0000 </r>
       <r>   73.5376    0.0000 </r>
       <r>   74.2249    0.0000 </r>
       <r>   76.8379    0.0000 </r>
       <r>   77.6768    0.0000 </r>
       <r>   80.7504    0.0000 </r>
       <r>   80.8880    0.0000 </r>
       <r>   82.3192    0.0000 </r>
       <r>   82.9689    0.0000 </r>
       <r>   83.3782    0.0000 </r>
       <r>   84.6326    0.0000 </r>
       <r>   86.1595    0.0000 </r>
       <r>   87.4837    0.0000 </r>
       <r>   88.9863    0.0000 </r>
       <r>   90.6245    0.0000 </r>
       <r>   92.9334    0.0000 </r>
       <r>   93.9938    0.0000 </r>
       <r>   96.0356    0.0000 </r>
       <r>   96.4356    0.0000 </r>
       <r>   98.0243    0.0000 </r>
       <r>  101.1534    0.0000 </r>
       <r>  102.1560    0.0000 </r>
       <r>  103.1567    0.0000 </r>
       <r>  104.1949    0.0000 </r>
       <r>  104.2541    0.0000 </r>
       <r>  108.7516    0.0000 </r>
       <r>  110.2687    0.0000 </r>
       <r>  111.7375    0.0000 </r>
       <r>  112.3010    0.0000 </r>
       <r>  113.5936    0.0000 </r>
       <r>  114.2220    0.0000 </r>
       <r>  114.8777    0.0000 </r>
       <r>  118.5522    0.0000 </r>
       <r>  119.8436    0.0000 </r>
       <r>  120.7994    0.0000 </r>
       <r>  121.2622    0.0000 </r>
       <r>  129.1726    0.0000 </r>
       <r>  132.6499    0.0000 </r>
      </set>
      <set comment="kpoint 11">
       <r>  -43.9964    1.0000 </r>
       <r>  -22.6321    1.0000 </r>
       <r>   -3.4089    1.0000 </r>
       <r>   -2.1322    1.0000 </r>
       <r>   -2.0738    1.0000 </r>
       <r>    9.6118    0.0000 </r>
       <r>   16.4351    0.0000 </r>
       <r>   19.3813    0.0000 </r>
       <r>   19.4213    0.0000 </r>
       <r>   24.8421    0.0000 </r>
       <r>   28.2034    0.0000 </r>
       <r>   28.4016    0.0000 </r>
       <r>   34.7266    0.0000 </r>
       <r>   34.9282    0.0000 </r>
       <r>   36.8432    0.0000 </r>
       <r>   39.7888    0.0000 </r>
       <r>   43.3708    0.0000 </r>
       <r>   45.9933    0.0000 </r>
       <r>   48.4477    0.0000 </r>
       <r>   51.4938    0.0000 </r>
       <r>   52.6039    0.0000 </r>
       <r>   61.1531    0.0000 </r>
       <r>   63.6306    0.0000 </r>
       <r>   64.3990    0.0000 </r>
       <r>   66.1403    0.0000 </r>
       <r>   68.5675    0.0000 </r>
       <r>   68.7674    0.0000 </r>
       <r>   72.6625    0.0000 </r>
       <r>   74.0055    0.0000 </r>
       <r>   74.3419    0.0000 </r>
       <r>   75.8146    0.0000 </r>
       <r>   76.8204    0.0000 </r>
       <r>   78.5892    0.0000 </r>
       <r>   80.0713    0.0000 </r>
       <r>   82.5161    0.0000 </r>
       <r>   84.8694    0.0000 </r>
       <r>   84.9795    0.0000 </r>
       <r>   86.5920    0.0000 </r>
       <r>   87.4567    0.0000 </r>
       <r>   90.0585    0.0000 </r>
       <r>   90.4623    0.0000 </r>
       <r>   93.6506    0.0000 </r>
       <r>   93.6625    0.0000 </r>
       <r>   95.3537    0.0000 </r>
       <r>   97.0886    0.0000 </r>
       <r>   99.8593    0.0000 </r>
       <r>  101.9166    0.0000 </r>
       <r>  105.9199    0.0000 </r>
       <r>  106.2037    0.0000 </r>
       <r>  107.5191    0.0000 </r>
       <r>  108.7699    0.0000 </r>
       <r>  109.7486    0.0000 </r>
       <r>  111.4875    0.0000 </r>
       <r>  114.3013    0.0000 </r>
       <r>  115.1967    0.0000 </r>
       <r>  117.2996    0.0000 </r>
       <r>  118.5302    0.0000 </r>
       <r>  119.6578    0.0000 </r>
       <r>  120.1281    0.0000 </r>
       <r>  122.2030    0.0000 </r>
       <r>  122.6469    0.0000 </r>
       <r>  127.3465    0.0000 </r>
       <r>  128.3241    0.0000 </r>
       <r>  129.1508    0.0000 </r>
      </set>
      <set comment="kpoint 12">
       <r>  -43.9865    1.0000 </r>
       <r>  -22.5475    1.0000 </r>
       <r>   -3.8660    1.0000 </r>
       <r>   -2.1658    1.0000 </r>
       <r>   -2.1531    1.0000 </r>
       <r>    9.8867    0.0000 </r>
       <r>   15.8019    0.0000 </r>
       <r>   18.7044    0.0000 </r>
       <r>   18.7794    0.0000 </r>
       <r>   26.2384    0.0000 </r>
       <r>   29.3088    0.0000 </r>
       <r>   29.4326    0.0000 </r>
       <r>   34.4885    0.0000 </r>
       <r>   36.1801    0.0000 </r>
       <r>   36.3613    0.0000 </r>
       <r>   43.0962    0.0000 </r>
       <r>   43.8601    0.0000 </r>
       <r>   45.9186    0.0000 </r>
       <r>   48.8236    0.0000 </r>
       <r>   50.7682    0.0000 </r>
       <r>   51.4626    0.0000 </r>
       <r>   59.9651    0.0000 </r>
       <r>   62.0896    0.0000 </r>
       <r>   63.8916    0.0000 </r>
       <r>   64.5925    0.0000 </r>
       <r>   67.2205    0.0000 </r>
       <r>   68.2382    0.0000 </r>
       <r>   70.5511    0.0000 </r>
       <r>   71.3464    0.0000 </r>
       <r>   73.0580    0.0000 </r>
       <r>   74.9234    0.0000 </r>
       <r>   75.1730    0.0000 </r>
       <r>   76.6699    0.0000 </r>
       <r>   78.2152    0.0000 </r>
       <r>   82.6747    0.0000 </r>
       <r>   83.2461    0.0000 </r>
       <r>   85.4898    0.0000 </r>
       <r>   86.0837    0.0000 </r>
       <r>   89.3490    0.0000 </r>
       <r>   91.3421    0.0000 </r>
       <r>   91.6045    0.0000 </r>
       <r>   95.1397    0.0000 </r>
       <r>   95.7122    0.0000 </r>
       <r>   97.9553    0.0000 </r>
       <r>   98.8996    0.0000 </r>
       <r>  100.2458    0.0000 </r>
       <r>  104.3631    0.0000 </r>
       <r>  106.3033    0.0000 </r>
       <r>  108.2357    0.0000 </r>
       <r>  108.7045    0.0000 </r>
       <r>  112.0608    0.0000 </r>
       <r>  112.8868    0.0000 </r>
       <r>  113.6553    0.0000 </r>
       <r>  115.8215    0.0000 </r>
       <r>  116.4630    0.0000 </r>
       <r>  120.7519    0.0000 </r>
       <r>  121.5512    0.0000 </r>
       <r>  122.5648    0.0000 </r>
       <r>  122.7832    0.0000 </r>
       <r>  124.6347    0.0000 </r>
       <r>  124.8027    0.0000 </r>
       <r>  125.6022    0.0000 </r>
       <r>  129.4226    0.0000 </r>
       <r>  129.7647    0.0000 </r>
      </set>
      <set comment="kpoint 13">
       <r>  -43.9799    1.0000 </r>
       <r>  -22.4901    1.0000 </r>
       <r>   -4.1560    1.0000 </r>
       <r>   -2.2248    1.0000 </r>
       <r>   -2.1691    1.0000 </r>
       <r>    9.9667    0.0000 </r>
       <r>   15.5861    0.0000 </r>
       <r>   18.3337    0.0000 </r>
       <r>   18.3718    0.0000 </r>
       <r>   27.6477    0.0000 </r>
       <r>   29.9944    0.0000 </r>
       <r>   30.1132    0.0000 </r>
       <r>   33.6906    0.0000 </r>
       <r>   36.3066    0.0000 </r>
       <r>   36.3980    0.0000 </r>
       <r>   43.3257    0.0000 </r>
       <r>   44.5414    0.0000 </r>
       <r>   48.0836    0.0000 </r>
       <r>   49.1810    0.0000 </r>
       <r>   51.5938    0.0000 </r>
       <r>   52.5301    0.0000 </r>
       <r>   57.2793    0.0000 </r>
       <r>   59.9503    0.0000 </r>
       <r>   62.0827    0.0000 </r>
       <r>   62.6727    0.0000 </r>
       <r>   67.4725    0.0000 </r>
       <r>   67.9695    0.0000 </r>
       <r>   69.5109    0.0000 </r>
       <r>   69.7747    0.0000 </r>
       <r>   71.7686    0.0000 </r>
       <r>   74.0724    0.0000 </r>
       <r>   74.2415    0.0000 </r>
       <r>   77.1428    0.0000 </r>
       <r>   77.2498    0.0000 </r>
       <r>   81.1801    0.0000 </r>
       <r>   82.6401    0.0000 </r>
       <r>   84.9750    0.0000 </r>
       <r>   87.2064    0.0000 </r>
       <r>   89.7908    0.0000 </r>
       <r>   91.9529    0.0000 </r>
       <r>   91.9901    0.0000 </r>
       <r>   96.9392    0.0000 </r>
       <r>   97.0645    0.0000 </r>
       <r>   99.7716    0.0000 </r>
       <r>  101.6840    0.0000 </r>
       <r>  105.2295    0.0000 </r>
       <r>  105.4008    0.0000 </r>
       <r>  105.7742    0.0000 </r>
       <r>  107.2277    0.0000 </r>
       <r>  109.7733    0.0000 </r>
       <r>  114.6332    0.0000 </r>
       <r>  114.9456    0.0000 </r>
       <r>  115.3538    0.0000 </r>
       <r>  117.4527    0.0000 </r>
       <r>  118.2557    0.0000 </r>
       <r>  118.8083    0.0000 </r>
       <r>  120.4917    0.0000 </r>
       <r>  122.8927    0.0000 </r>
       <r>  124.3479    0.0000 </r>
       <r>  124.5008    0.0000 </r>
       <r>  126.5679    0.0000 </r>
       <r>  127.2170    0.0000 </r>
       <r>  129.4253    0.0000 </r>
       <r>  129.6250    0.0000 </r>
      </set>
      <set comment="kpoint 14">
       <r>  -43.9781    1.0000 </r>
       <r>  -22.4748    1.0000 </r>
       <r>   -4.2295    1.0000 </r>
       <r>   -2.2723    1.0000 </r>
       <r>   -2.1415    1.0000 </r>
       <r>    9.9706    0.0000 </r>
       <r>   15.5446    0.0000 </r>
       <r>   18.2524    0.0000 </r>
       <r>   18.2641    0.0000 </r>
       <r>   28.8079    0.0000 </r>
       <r>   29.6061    0.0000 </r>
       <r>   29.8839    0.0000 </r>
       <r>   33.7173    0.0000 </r>
       <r>   36.1929    0.0000 </r>
       <r>   36.4661    0.0000 </r>
       <r>   43.2408    0.0000 </r>
       <r>   44.3591    0.0000 </r>
       <r>   48.2945    0.0000 </r>
       <r>   51.4807    0.0000 </r>
       <r>   52.4527    0.0000 </r>
       <r>   52.6360    0.0000 </r>
       <r>   54.9356    0.0000 </r>
       <r>   60.1397    0.0000 </r>
       <r>   60.3309    0.0000 </r>
       <r>   62.2182    0.0000 </r>
       <r>   67.8609    0.0000 </r>
       <r>   68.0215    0.0000 </r>
       <r>   68.8830    0.0000 </r>
       <r>   69.9442    0.0000 </r>
       <r>   71.2381    0.0000 </r>
       <r>   73.4824    0.0000 </r>
       <r>   73.9495    0.0000 </r>
       <r>   76.9847    0.0000 </r>
       <r>   77.9348    0.0000 </r>
       <r>   80.3053    0.0000 </r>
       <r>   82.8297    0.0000 </r>
       <r>   84.6927    0.0000 </r>
       <r>   87.1918    0.0000 </r>
       <r>   90.1472    0.0000 </r>
       <r>   91.9100    0.0000 </r>
       <r>   92.2238    0.0000 </r>
       <r>   96.6128    0.0000 </r>
       <r>   98.5024    0.0000 </r>
       <r>   99.8461    0.0000 </r>
       <r>  103.9262    0.0000 </r>
       <r>  104.2946    0.0000 </r>
       <r>  105.4009    0.0000 </r>
       <r>  108.2003    0.0000 </r>
       <r>  109.0914    0.0000 </r>
       <r>  110.3277    0.0000 </r>
       <r>  112.4344    0.0000 </r>
       <r>  112.5550    0.0000 </r>
       <r>  115.5061    0.0000 </r>
       <r>  118.4287    0.0000 </r>
       <r>  119.1033    0.0000 </r>
       <r>  119.4648    0.0000 </r>
       <r>  122.2574    0.0000 </r>
       <r>  122.9933    0.0000 </r>
       <r>  123.6334    0.0000 </r>
       <r>  124.3665    0.0000 </r>
       <r>  126.3839    0.0000 </r>
       <r>  127.1604    0.0000 </r>
       <r>  127.8377    0.0000 </r>
       <r>  128.2922    0.0000 </r>
      </set>
      <set comment="kpoint 15">
       <r>  -43.9816    1.0000 </r>
       <r>  -22.5058    1.0000 </r>
       <r>   -4.0751    1.0000 </r>
       <r>   -2.2849    1.0000 </r>
       <r>   -2.0893    1.0000 </r>
       <r>    9.9450    0.0000 </r>
       <r>   15.5980    0.0000 </r>
       <r>   18.4501    0.0000 </r>
       <r>   18.4688    0.0000 </r>
       <r>   28.3526    0.0000 </r>
       <r>   28.7225    0.0000 </r>
       <r>   29.5503    0.0000 </r>
       <r>   34.2431    0.0000 </r>
       <r>   36.0629    0.0000 </r>
       <r>   36.7389    0.0000 </r>
       <r>   42.7246    0.0000 </r>
       <r>   45.8703    0.0000 </r>
       <r>   46.9821    0.0000 </r>
       <r>   48.4632    0.0000 </r>
       <r>   50.9902    0.0000 </r>
       <r>   52.1737    0.0000 </r>
       <r>   58.4107    0.0000 </r>
       <r>   61.1338    0.0000 </r>
       <r>   61.9310    0.0000 </r>
       <r>   63.6559    0.0000 </r>
       <r>   66.7273    0.0000 </r>
       <r>   68.3297    0.0000 </r>
       <r>   70.4161    0.0000 </r>
       <r>   70.5979    0.0000 </r>
       <r>   71.2140    0.0000 </r>
       <r>   73.8348    0.0000 </r>
       <r>   74.4931    0.0000 </r>
       <r>   76.9258    0.0000 </r>
       <r>   77.7125    0.0000 </r>
       <r>   81.9139    0.0000 </r>
       <r>   83.3604    0.0000 </r>
       <r>   84.6990    0.0000 </r>
       <r>   86.4383    0.0000 </r>
       <r>   89.5333    0.0000 </r>
       <r>   91.2929    0.0000 </r>
       <r>   92.3881    0.0000 </r>
       <r>   96.1160    0.0000 </r>
       <r>   97.2667    0.0000 </r>
       <r>   99.2681    0.0000 </r>
       <r>  101.6539    0.0000 </r>
       <r>  102.6678    0.0000 </r>
       <r>  105.7987    0.0000 </r>
       <r>  106.6698    0.0000 </r>
       <r>  106.7937    0.0000 </r>
       <r>  109.0882    0.0000 </r>
       <r>  113.6347    0.0000 </r>
       <r>  114.2800    0.0000 </r>
       <r>  116.4733    0.0000 </r>
       <r>  117.8431    0.0000 </r>
       <r>  118.1096    0.0000 </r>
       <r>  119.6286    0.0000 </r>
       <r>  120.1917    0.0000 </r>
       <r>  120.9922    0.0000 </r>
       <r>  122.4524    0.0000 </r>
       <r>  124.4865    0.0000 </r>
       <r>  125.7870    0.0000 </r>
       <r>  128.0531    0.0000 </r>
       <r>  128.7711    0.0000 </r>
       <r>  130.0576    0.0000 </r>
      </set>
      <set comment="kpoint 16">
       <r>  -43.9895    1.0000 </r>
       <r>  -22.5748    1.0000 </r>
       <r>   -3.7191    1.0000 </r>
       <r>   -2.2586    1.0000 </r>
       <r>   -2.0239    1.0000 </r>
       <r>    9.8036    0.0000 </r>
       <r>   15.9045    0.0000 </r>
       <r>   18.9160    0.0000 </r>
       <r>   18.9758    0.0000 </r>
       <r>   27.1869    0.0000 </r>
       <r>   27.1929    0.0000 </r>
       <r>   29.1640    0.0000 </r>
       <r>   35.0797    0.0000 </r>
       <r>   35.6763    0.0000 </r>
       <r>   36.5807    0.0000 </r>
       <r>   42.1611    0.0000 </r>
       <r>   43.3168    0.0000 </r>
       <r>   46.8574    0.0000 </r>
       <r>   48.2191    0.0000 </r>
       <r>   50.4138    0.0000 </r>
       <r>   51.8016    0.0000 </r>
       <r>   60.4270    0.0000 </r>
       <r>   63.3366    0.0000 </r>
       <r>   63.7466    0.0000 </r>
       <r>   65.9592    0.0000 </r>
       <r>   65.9789    0.0000 </r>
       <r>   69.4736    0.0000 </r>
       <r>   71.0498    0.0000 </r>
       <r>   72.6281    0.0000 </r>
       <r>   73.6476    0.0000 </r>
       <r>   74.4158    0.0000 </r>
       <r>   75.3246    0.0000 </r>
       <r>   76.5807    0.0000 </r>
       <r>   79.2084    0.0000 </r>
       <r>   83.8212    0.0000 </r>
       <r>   84.2323    0.0000 </r>
       <r>   84.9611    0.0000 </r>
       <r>   85.2545    0.0000 </r>
       <r>   88.9407    0.0000 </r>
       <r>   90.2147    0.0000 </r>
       <r>   90.9609    0.0000 </r>
       <r>   93.8321    0.0000 </r>
       <r>   96.1455    0.0000 </r>
       <r>   97.0054    0.0000 </r>
       <r>   98.9027    0.0000 </r>
       <r>  100.0283    0.0000 </r>
       <r>  104.0263    0.0000 </r>
       <r>  106.8715    0.0000 </r>
       <r>  107.2273    0.0000 </r>
       <r>  108.8124    0.0000 </r>
       <r>  109.7640    0.0000 </r>
       <r>  113.2824    0.0000 </r>
       <r>  114.1830    0.0000 </r>
       <r>  115.6382    0.0000 </r>
       <r>  115.6602    0.0000 </r>
       <r>  117.1040    0.0000 </r>
       <r>  117.6898    0.0000 </r>
       <r>  122.3847    0.0000 </r>
       <r>  122.7132    0.0000 </r>
       <r>  124.0815    0.0000 </r>
       <r>  125.9628    0.0000 </r>
       <r>  126.4846    0.0000 </r>
       <r>  128.9404    0.0000 </r>
       <r>  130.3169    0.0000 </r>
      </set>
      <set comment="kpoint 17">
       <r>  -44.0001    1.0000 </r>
       <r>  -22.6641    1.0000 </r>
       <r>   -3.2247    1.0000 </r>
       <r>   -2.1976    1.0000 </r>
       <r>   -1.9596    1.0000 </r>
       <r>    9.4473    0.0000 </r>
       <r>   16.6997    0.0000 </r>
       <r>   19.5457    0.0000 </r>
       <r>   19.8218    0.0000 </r>
       <r>   25.7105    0.0000 </r>
       <r>   26.1124    0.0000 </r>
       <r>   28.2839    0.0000 </r>
       <r>   34.3518    0.0000 </r>
       <r>   34.8008    0.0000 </r>
       <r>   36.5179    0.0000 </r>
       <r>   39.0857    0.0000 </r>
       <r>   43.4473    0.0000 </r>
       <r>   46.1632    0.0000 </r>
       <r>   48.0840    0.0000 </r>
       <r>   51.7082    0.0000 </r>
       <r>   53.8438    0.0000 </r>
       <r>   61.3902    0.0000 </r>
       <r>   63.8310    0.0000 </r>
       <r>   65.1092    0.0000 </r>
       <r>   66.0807    0.0000 </r>
       <r>   67.2376    0.0000 </r>
       <r>   70.8241    0.0000 </r>
       <r>   73.5569    0.0000 </r>
       <r>   73.6621    0.0000 </r>
       <r>   75.7566    0.0000 </r>
       <r>   76.4060    0.0000 </r>
       <r>   78.1208    0.0000 </r>
       <r>   78.1922    0.0000 </r>
       <r>   81.0983    0.0000 </r>
       <r>   82.6657    0.0000 </r>
       <r>   83.8687    0.0000 </r>
       <r>   86.2727    0.0000 </r>
       <r>   86.7786    0.0000 </r>
       <r>   87.7071    0.0000 </r>
       <r>   88.3619    0.0000 </r>
       <r>   89.0133    0.0000 </r>
       <r>   92.2684    0.0000 </r>
       <r>   92.9969    0.0000 </r>
       <r>   96.6826    0.0000 </r>
       <r>   98.9079    0.0000 </r>
       <r>   99.6058    0.0000 </r>
       <r>  101.0494    0.0000 </r>
       <r>  103.6564    0.0000 </r>
       <r>  105.5137    0.0000 </r>
       <r>  107.2812    0.0000 </r>
       <r>  108.5276    0.0000 </r>
       <r>  110.3584    0.0000 </r>
       <r>  110.7491    0.0000 </r>
       <r>  113.3853    0.0000 </r>
       <r>  113.9128    0.0000 </r>
       <r>  114.9542    0.0000 </r>
       <r>  116.0308    0.0000 </r>
       <r>  116.8744    0.0000 </r>
       <r>  119.1681    0.0000 </r>
       <r>  121.9044    0.0000 </r>
       <r>  123.8341    0.0000 </r>
       <r>  123.8835    0.0000 </r>
       <r>  128.9055    0.0000 </r>
       <r>  131.6314    0.0000 </r>
      </set>
      <set comment="kpoint 18">
       <r>  -44.0109    1.0000 </r>
       <r>  -22.7526    1.0000 </r>
       <r>   -2.6908    1.0000 </r>
       <r>   -2.1110    1.0000 </r>
       <r>   -1.9109    1.0000 </r>
       <r>    8.9299    0.0000 </r>
       <r>   18.0664    0.0000 </r>
       <r>   20.2680    0.0000 </r>
       <r>   20.9517    0.0000 </r>
       <r>   24.4673    0.0000 </r>
       <r>   25.2640    0.0000 </r>
       <r>   27.3116    0.0000 </r>
       <r>   32.7113    0.0000 </r>
       <r>   33.1697    0.0000 </r>
       <r>   33.5111    0.0000 </r>
       <r>   40.3559    0.0000 </r>
       <r>   43.4238    0.0000 </r>
       <r>   45.0960    0.0000 </r>
       <r>   47.8999    0.0000 </r>
       <r>   54.5511    0.0000 </r>
       <r>   57.1086    0.0000 </r>
       <r>   62.2509    0.0000 </r>
       <r>   63.5315    0.0000 </r>
       <r>   65.4741    0.0000 </r>
       <r>   65.5775    0.0000 </r>
       <r>   69.1202    0.0000 </r>
       <r>   71.6840    0.0000 </r>
       <r>   73.0280    0.0000 </r>
       <r>   74.2433    0.0000 </r>
       <r>   77.2829    0.0000 </r>
       <r>   79.1874    0.0000 </r>
       <r>   80.4860    0.0000 </r>
       <r>   81.2051    0.0000 </r>
       <r>   81.5283    0.0000 </r>
       <r>   82.2030    0.0000 </r>
       <r>   84.3600    0.0000 </r>
       <r>   85.5699    0.0000 </r>
       <r>   88.2331    0.0000 </r>
       <r>   88.7231    0.0000 </r>
       <r>   88.9602    0.0000 </r>
       <r>   89.9161    0.0000 </r>
       <r>   91.3435    0.0000 </r>
       <r>   93.1112    0.0000 </r>
       <r>   95.9427    0.0000 </r>
       <r>   99.1322    0.0000 </r>
       <r>   99.2585    0.0000 </r>
       <r>   99.6943    0.0000 </r>
       <r>  100.5237    0.0000 </r>
       <r>  103.1226    0.0000 </r>
       <r>  104.2721    0.0000 </r>
       <r>  105.2398    0.0000 </r>
       <r>  106.3645    0.0000 </r>
       <r>  106.4354    0.0000 </r>
       <r>  108.4974    0.0000 </r>
       <r>  111.5187    0.0000 </r>
       <r>  111.9323    0.0000 </r>
       <r>  114.4571    0.0000 </r>
       <r>  116.3855    0.0000 </r>
       <r>  116.6223    0.0000 </r>
       <r>  117.5867    0.0000 </r>
       <r>  118.2377    0.0000 </r>
       <r>  123.3759    0.0000 </r>
       <r>  127.5288    0.0000 </r>
       <r>  132.6087    0.0000 </r>
      </set>
      <set comment="kpoint 19">
       <r>  -44.0194    1.0000 </r>
       <r>  -22.8207    1.0000 </r>
       <r>   -2.2557    1.0000 </r>
       <r>   -2.0046    1.0000 </r>
       <r>   -1.8897    1.0000 </r>
       <r>    8.4377    0.0000 </r>
       <r>   19.8139    0.0000 </r>
       <r>   21.0673    0.0000 </r>
       <r>   22.1932    0.0000 </r>
       <r>   23.6295    0.0000 </r>
       <r>   24.6889    0.0000 </r>
       <r>   26.1788    0.0000 </r>
       <r>   29.8556    0.0000 </r>
       <r>   31.3628    0.0000 </r>
       <r>   32.0877    0.0000 </r>
       <r>   42.0581    0.0000 </r>
       <r>   43.4833    0.0000 </r>
       <r>   44.3102    0.0000 </r>
       <r>   47.5987    0.0000 </r>
       <r>   58.1124    0.0000 </r>
       <r>   60.0991    0.0000 </r>
       <r>   62.9005    0.0000 </r>
       <r>   64.2046    0.0000 </r>
       <r>   65.2208    0.0000 </r>
       <r>   65.3846    0.0000 </r>
       <r>   70.3719    0.0000 </r>
       <r>   72.0045    0.0000 </r>
       <r>   72.4477    0.0000 </r>
       <r>   73.1478    0.0000 </r>
       <r>   73.2594    0.0000 </r>
       <r>   77.1899    0.0000 </r>
       <r>   82.2597    0.0000 </r>
       <r>   82.5195    0.0000 </r>
       <r>   84.3840    0.0000 </r>
       <r>   84.8654    0.0000 </r>
       <r>   85.6170    0.0000 </r>
       <r>   89.8749    0.0000 </r>
       <r>   90.3829    0.0000 </r>
       <r>   90.8665    0.0000 </r>
       <r>   91.5380    0.0000 </r>
       <r>   92.3212    0.0000 </r>
       <r>   92.4415    0.0000 </r>
       <r>   94.2631    0.0000 </r>
       <r>   94.9209    0.0000 </r>
       <r>   95.7263    0.0000 </r>
       <r>   99.2181    0.0000 </r>
       <r>   99.6581    0.0000 </r>
       <r>   99.8481    0.0000 </r>
       <r>  101.9901    0.0000 </r>
       <r>  102.0492    0.0000 </r>
       <r>  102.1264    0.0000 </r>
       <r>  102.7571    0.0000 </r>
       <r>  103.0128    0.0000 </r>
       <r>  103.2581    0.0000 </r>
       <r>  106.2409    0.0000 </r>
       <r>  108.3174    0.0000 </r>
       <r>  109.3030    0.0000 </r>
       <r>  109.8873    0.0000 </r>
       <r>  113.0162    0.0000 </r>
       <r>  119.6841    0.0000 </r>
       <r>  120.1170    0.0000 </r>
       <r>  124.3675    0.0000 </r>
       <r>  124.4521    0.0000 </r>
       <r>  134.3276    0.0000 </r>
      </set>
      <set comment="kpoint 20">
       <r>  -44.0129    1.0000 </r>
       <r>  -22.7652    1.0000 </r>
       <r>   -2.4456    1.0000 </r>
       <r>   -2.0985    1.0000 </r>
       <r>   -2.0985    1.0000 </r>
       <r>    8.9215    0.0000 </r>
       <r>   19.6657    0.0000 </r>
       <r>   20.6527    0.0000 </r>
       <r>   20.6529    0.0000 </r>
       <r>   20.8722    0.0000 </r>
       <r>   28.2287    0.0000 </r>
       <r>   28.2289    0.0000 </r>
       <r>   31.1855    0.0000 </r>
       <r>   31.3516    0.0000 </r>
       <r>   33.3462    0.0000 </r>
       <r>   42.5366    0.0000 </r>
       <r>   43.1650    0.0000 </r>
       <r>   43.1650    0.0000 </r>
       <r>   48.1696    0.0000 </r>
       <r>   57.6183    0.0000 </r>
       <r>   58.1030    0.0000 </r>
       <r>   58.1033    0.0000 </r>
       <r>   64.0336    0.0000 </r>
       <r>   65.4260    0.0000 </r>
       <r>   65.9379    0.0000 </r>
       <r>   70.8590    0.0000 </r>
       <r>   70.8590    0.0000 </r>
       <r>   72.2905    0.0000 </r>
       <r>   76.4068    0.0000 </r>
       <r>   76.4071    0.0000 </r>
       <r>   79.6037    0.0000 </r>
       <r>   80.2040    0.0000 </r>
       <r>   80.2042    0.0000 </r>
       <r>   81.7868    0.0000 </r>
       <r>   82.4278    0.0000 </r>
       <r>   83.0069    0.0000 </r>
       <r>   87.8436    0.0000 </r>
       <r>   91.1171    0.0000 </r>
       <r>   91.1172    0.0000 </r>
       <r>   92.1323    0.0000 </r>
       <r>   92.1731    0.0000 </r>
       <r>   92.1733    0.0000 </r>
       <r>   93.4671    0.0000 </r>
       <r>   94.1659    0.0000 </r>
       <r>   94.4721    0.0000 </r>
       <r>   94.4723    0.0000 </r>
       <r>   98.5908    0.0000 </r>
       <r>  100.5085    0.0000 </r>
       <r>  101.0294    0.0000 </r>
       <r>  103.7004    0.0000 </r>
       <r>  103.7005    0.0000 </r>
       <r>  105.0812    0.0000 </r>
       <r>  105.3683    0.0000 </r>
       <r>  110.9528    0.0000 </r>
       <r>  110.9530    0.0000 </r>
       <r>  113.0773    0.0000 </r>
       <r>  113.9016    0.0000 </r>
       <r>  113.9017    0.0000 </r>
       <r>  114.2644    0.0000 </r>
       <r>  116.4404    0.0000 </r>
       <r>  124.1632    0.0000 </r>
       <r>  124.1633    0.0000 </r>
       <r>  124.6832    0.0000 </r>
       <r>  133.5476    0.0000 </r>
      </set>
      <set comment="kpoint 21">
       <r>  -44.0051    1.0000 </r>
       <r>  -22.6974    1.0000 </r>
       <r>   -2.8362    1.0000 </r>
       <r>   -2.1918    1.0000 </r>
       <r>   -2.1702    1.0000 </r>
       <r>    9.4491    0.0000 </r>
       <r>   18.0320    0.0000 </r>
       <r>   19.9852    0.0000 </r>
       <r>   20.1608    0.0000 </r>
       <r>   21.2792    0.0000 </r>
       <r>   29.2763    0.0000 </r>
       <r>   29.2766    0.0000 </r>
       <r>   32.4057    0.0000 </r>
       <r>   33.8936    0.0000 </r>
       <r>   34.1687    0.0000 </r>
       <r>   41.0774    0.0000 </r>
       <r>   42.8732    0.0000 </r>
       <r>   44.1547    0.0000 </r>
       <r>   48.7084    0.0000 </r>
       <r>   53.9764    0.0000 </r>
       <r>   56.1442    0.0000 </r>
       <r>   58.4338    0.0000 </r>
       <r>   63.5183    0.0000 </r>
       <r>   64.6696    0.0000 </r>
       <r>   65.9736    0.0000 </r>
       <r>   70.2970    0.0000 </r>
       <r>   70.8899    0.0000 </r>
       <r>   72.7800    0.0000 </r>
       <r>   75.4492    0.0000 </r>
       <r>   75.4863    0.0000 </r>
       <r>   79.0066    0.0000 </r>
       <r>   79.1032    0.0000 </r>
       <r>   80.7359    0.0000 </r>
       <r>   81.2641    0.0000 </r>
       <r>   83.2172    0.0000 </r>
       <r>   85.3426    0.0000 </r>
       <r>   85.5221    0.0000 </r>
       <r>   85.5860    0.0000 </r>
       <r>   87.8313    0.0000 </r>
       <r>   90.0092    0.0000 </r>
       <r>   90.8246    0.0000 </r>
       <r>   93.2495    0.0000 </r>
       <r>   93.7063    0.0000 </r>
       <r>   94.7008    0.0000 </r>
       <r>   96.3225    0.0000 </r>
       <r>   96.5221    0.0000 </r>
       <r>  100.2050    0.0000 </r>
       <r>  100.8547    0.0000 </r>
       <r>  103.4262    0.0000 </r>
       <r>  103.4309    0.0000 </r>
       <r>  106.2361    0.0000 </r>
       <r>  108.2353    0.0000 </r>
       <r>  109.8768    0.0000 </r>
       <r>  111.2074    0.0000 </r>
[...]
        <r>  0.0576  0.0061  0.0000  0.0673  0.0000  0.0000  0.0000  0.0000  0.0000 </r>
       </set>
       <set comment="band 44">
        <r>  0.0008  0.2040  0.0000  0.0025  0.0000  0.0000  0.0000  0.0000  0.0000 </r>
        <r>  0.0215  0.0086  0.0000  0.0210  0.0000  0.0000  0.0000  0.0000  0.0000 </r>
       </set>
       <set comment="band 45">
        <r>  0.0000  0.0000  0.0071  0.0000  0.0000  0.0000  0.0000  0.0000  0.0000 </r>
        <r>  0.0000  0.0000  0.0313  0.0000  0.0000  0.0000  0.0000  0.0000  0.0000 </r>
       </set>
       <set comment="band 46">
        <r>  0.0000  0.0000  0.0538  0.0000  0.0000  0.0000  0.0000  0.0000  0.0000 </r>
        <r>  0.0000  0.0000  0.0572  0.0000  0.0000  0.0000  0.0000  0.0000  0.0000 </r>
       </set>
       <set comment="band 47">
        <r>  0.0543  0.0361  0.0000  0.0039  0.0000  0.0000  0.0000  0.0000  0.0000 </r>
        <r>  0.0013  0.0004  0.0000  0.0192  0.0000  0.0000  0.0000  0.0000  0.0000 </r>
       </set>
       <set comment="band 48">
        <r>  0.0482  0.0148  0.0000  0.1356  0.0000  0.0000  0.0000  0.0000  0.0000 </r>
        <r>  0.0354  0.0010  0.0000  0.0212  0.0000  0.0000  0.0000  0.0000  0.0000 </r>
       </set>
       <set comment="band 49">
        <r>  0.0001  0.2420  0.0000  0.0560  0.0000  0.0000  0.0000  0.0000  0.0000 </r>
        <r>  0.0097  0.0336  0.0000  0.0039  0.0000  0.0000  0.0000  0.0000  0.0000 </r>
       </set>
       <set comment="band 50">
        <r>  0.0000  0.0000  0.0000  0.0000  0.0000  0.0000  0.0000  0.0000  0.0000 </r>
        <r>  0.0000  0.0000  0.0370  0.0000  0.0000  0.0000  0.0000  0.0000  0.0000 </r>
       </set>
       <set comment="band 51">
        <r>  0.0043  0.3375  0.0000  0.0021  0.0000  0.0000  0.0000  0.0000  0.0000 </r>
        <r>  0.0000  0.0221  0.0000  0.0050  0.0000  0.0000  0.0000  0.0000  0.0000 </r>
       </set>
       <set comment="band 52">
        <r>  0.0000  0.0000  0.2498  0.0000  0.0000  0.0000  0.0000  0.0000  0.0000 </r>
        <r>  0.0000  0.0000  0.0001  0.0000  0.0000  0.0000  0.0000  0.0000  0.0000 </r>
       </set>
       <set comment="band 53">
        <r>  0.0076  0.0007  0.0000  0.2181  0.0000  0.0000  0.0000  0.0000  0.0000 </r>
        <r>  0.1656  0.0049  0.0000  0.0144  0.0000  0.0000  0.0000  0.0000  0.0000 </r>
       </set>
       <set comment="band 54">
        <r>  0.0177  0.1003  0.0000  0.1833  0.0000  0.0000  0.0000  0.0000  0.0000 </r>
        <r>  0.0266  0.0343  0.0000  0.0303  0.0000  0.0000  0.0000  0.0000  0.0000 </r>
       </set>
       <set comment="band 55">
        <r>  0.0000  0.0000  0.3851  0.0000  0.0000  0.0000  0.0000  0.0000  0.0000 </r>
        <r>  0.0000  0.0000  0.0018  0.0000  0.0000  0.0000  0.0000  0.0000  0.0000 </r>
       </set>
       <set comment="band 56">
        <r>  0.0000  0.0000  0.0875  0.0000  0.0000  0.0000  0.0000  0.0000  0.0000 </r>
        <r>  0.0000  0.0000  0.0754  0.0000  0.0000  0.0000  0.0000  0.0000  0.0000 </r>
       </set>
       <set comment="band 57">
        <r>  0.0175  0.1296  0.0000  0.0318  0.0000  0.0000  0.0000  0.0000  0.0000 </r>
        <r>  0.1075  0.0286  0.0000  0.0095  0.0000  0.0000  0.0000  0.0000  0.0000 </r>
       </set>
       <set comment="band 58">
        <r>  0.0223  0.0561  0.0000  0.0001  0.0000  0.0000  0.0000  0.0000  0.0000 </r>
        <r>  0.0022  0.0704  0.0000  0.0366  0.0000  0.0000  0.0000  0.0000  0.0000 </r>
       </set>
       <set comment="band 59">
        <r>  0.0000  0.0000  0.0610  0.0000  0.0000  0.0000  0.0000  0.0000  0.0000 </r>
        <r>  0.0000  0.0000  0.0000  0.0000  0.0000  0.0000  0.0000  0.0000  0.0000 </r>
       </set>
       <set comment="band 60">
        <r>  0.0452  0.0321  0.0000  0.1518  0.0000  0.0000  0.0000  0.0000  0.0000 </r>
        <r>  0.0341  0.0000  0.0000  0.0317  0.0000  0.0000  0.0000  0.0000  0.0000 </r>
       </set>
       <set comment="band 61">
        <r>  0.0000  0.0000  0.1172  0.0000  0.0000  0.0000  0.0000  0.0000  0.0000 </r>
        <r>  0.0000  0.0000  0.0042  0.0000  0.0000  0.0000  0.0000  0.0000  0.0000 </r>
       </set>
       <set comment="band 62">
        <r>  0.0116  0.1481  0.0000  0.1262  0.0000  0.0000  0.0000  0.0000  0.0000 </r>
        <r>  0.0199  0.0018  0.0000  0.0462  0.0000  0.0000  0.0000  0.0000  0.0000 </r>
       </set>
       <set comment="band 63">
        <r>  0.0000  0.0000  0.0445  0.0000  0.0000  0.0000  0.0000  0.0000  0.0000 </r>
        <r>  0.0000  0.0000  0.0629  0.0000  0.0000  0.0000  0.0000  0.0000  0.0000 </r>
       </set>
       <set comment="band 64">
        <r>  0.0048  0.1110  0.0000  0.4160  0.0000  0.0000  0.0000  0.0000  0.0000 </r>
        <r>  0.0017  0.0990  0.0000  0.0219  0.0000  0.0000  0.0000  0.0000  0.0000 </r>
       </set>
      </set>
      <set comment="kpoint 84">
       <set comment="band 1">
        <r>  0.9904  0.0000  0.0000  0.0000  0.0000  0.0000  0.0000  0.0000  0.0000 </r>
        <r>  0.0000  0.0001  0.0000  0.0000  0.0000  0.0000  0.0000  0.0000  0.0000 </r>
       </set>
       <set comment="band 2">
        <r>  0.0000  0.0001  0.0000  0.0000  0.0000  0.0000  0.0000  0.0000  0.0000 </r>
        <r>  0.8720  0.0000  0.0000  0.0000  0.0000  0.0000  0.0000  0.0000  0.0000 </r>
       </set>
       <set comment="band 3">
        <r>  0.0012  0.0000  0.0051  0.0000  0.0000  0.0000  0.0000  0.0000  0.0000 </r>
        <r>  0.0002  0.0116  0.6531  0.0000  0.0000  0.0000  0.0000  0.0000  0.0000 </r>
       </set>
       <set comment="band 4">
        <r>  0.0000  0.0000  0.0000  0.0050  0.0000  0.0000  0.0000  0.0000  0.0000 </r>
        <r>  0.0000  0.0000  0.0000  0.6817  0.0000  0.0000  0.0000  0.0000  0.0000 </r>
       </set>
       <set comment="band 5">
        <r>  0.0089  0.0001  0.0001  0.0000  0.0000  0.0000  0.0000  0.0000  0.0000 </r>
        <r>  0.0000  0.7581  0.0131  0.0000  0.0000  0.0000  0.0000  0.0000  0.0000 </r>
       </set>
       <set comment="band 6">
        <r>  0.0013  0.0067  0.0482  0.0000  0.0000  0.0000  0.0000  0.0000  0.0000 </r>
        <r>  0.0097  0.0009  0.2276  0.0000  0.0000  0.0000  0.0000  0.0000  0.0000 </r>
       </set>
       <set comment="band 7">
        <r>  0.0000  0.0000  0.0000  0.0501  0.0000  0.0000  0.0000  0.0000  0.0000 </r>
        <r>  0.0000  0.0000  0.0000  0.2194  0.0000  0.0000  0.0000  0.0000  0.0000 </r>
       </set>
       <set comment="band 8">
        <r>  0.0041  0.1271  0.0064  0.0000  0.0000  0.0000  0.0000  0.0000  0.0000 </r>
        <r>  0.0551  0.0000  0.0197  0.0000  0.0000  0.0000  0.0000  0.0000  0.0000 </r>
       </set>
       <set comment="band 9">
        <r>  0.2887  0.0030  0.0019  0.0000  0.0000  0.0000  0.0000  0.0000  0.0000 </r>
        <r>  0.0001  0.1063  0.0006  0.0000  0.0000  0.0000  0.0000  0.0000  0.0000 </r>
       </set>
       <set comment="band 10">
        <r>  0.0000  0.0000  0.0000  0.1146  0.0000  0.0000  0.0000  0.0000  0.0000 </r>
        <r>  0.0000  0.0000  0.0000  0.0336  0.0000  0.0000  0.0000  0.0000  0.0000 </r>
       </set>
       <set comment="band 11">
        <r>  0.0022  0.0005  0.1065  0.0000  0.0000  0.0000  0.0000  0.0000  0.0000 </r>
        <r>  0.0064  0.0004  0.0188  0.0000  0.0000  0.0000  0.0000  0.0000  0.0000 </r>
       </set>
       <set comment="band 12">
        <r>  0.0021  0.0775  0.0031  0.0000  0.0000  0.0000  0.0000  0.0000  0.0000 </r>
        <r>  0.1124  0.0005  0.0086  0.0000  0.0000  0.0000  0.0000  0.0000  0.0000 </r>
       </set>
       <set comment="band 13">
        <r>  0.0396  0.0005  0.0074  0.0000  0.0000  0.0000  0.0000  0.0000  0.0000 </r>
        <r>  0.0000  0.1543  0.0007  0.0000  0.0000  0.0000  0.0000  0.0000  0.0000 </r>
       </set>
       <set comment="band 14">
        <r>  0.0000  0.0000  0.0000  0.1419  0.0000  0.0000  0.0000  0.0000  0.0000 </r>
        <r>  0.0000  0.0000  0.0000  0.0022  0.0000  0.0000  0.0000  0.0000  0.0000 </r>
       </set>
       <set comment="band 15">
        <r>  0.0000  0.0000  0.0000  0.0475  0.0000  0.0000  0.0000  0.0000  0.0000 </r>
        <r>  0.0000  0.0000  0.0000  0.0118  0.0000  0.0000  0.0000  0.0000  0.0000 </r>
       </set>
       <set comment="band 16">
        <r>  0.0220  0.0002  0.2626  0.0000  0.0000  0.0000  0.0000  0.0000  0.0000 </r>
        <r>  0.0003  0.0007  0.0116  0.0000  0.0000  0.0000  0.0000  0.0000  0.0000 </r>
       </set>
       <set comment="band 17">
        <r>  0.0000  0.0000  0.0000  0.1082  0.0000  0.0000  0.0000  0.0000  0.0000 </r>
        <r>  0.0000  0.0000  0.0000  0.0135  0.0000  0.0000  0.0000  0.0000  0.0000 </r>
       </set>
       <set comment="band 18">
        <r>  0.1530  0.0229  0.0211  0.0000  0.0000  0.0000  0.0000  0.0000  0.0000 </r>
        <r>  0.0015  0.0000  0.0149  0.0000  0.0000  0.0000  0.0000  0.0000  0.0000 </r>
       </set>
       <set comment="band 19">
        <r>  0.0914  0.0173  0.0137  0.0000  0.0000  0.0000  0.0000  0.0000  0.0000 </r>
        <r>  0.0245  0.0044  0.0372  0.0000  0.0000  0.0000  0.0000  0.0000  0.0000 </r>
       </set>
       <set comment="band 20">
        <r>  0.0000  0.0000  0.0000  0.0004  0.0000  0.0000  0.0000  0.0000  0.0000 </r>
        <r>  0.0000  0.0000  0.0000  0.0772  0.0000  0.0000  0.0000  0.0000  0.0000 </r>
       </set>
       <set comment="band 21">
        <r>  0.0342  0.2853  0.0016  0.0000  0.0000  0.0000  0.0000  0.0000  0.0000 </r>
        <r>  0.0497  0.0008  0.0054  0.0000  0.0000  0.0000  0.0000  0.0000  0.0000 </r>
       </set>
       <set comment="band 22">
        <r>  0.0093  0.3593  0.0157  0.0000  0.0000  0.0000  0.0000  0.0000  0.0000 </r>
        <r>  0.0388  0.0001  0.0144  0.0000  0.0000  0.0000  0.0000  0.0000  0.0000 </r>
       </set>
       <set comment="band 23">
        <r>  0.0000  0.0000  0.0000  0.1548  0.0000  0.0000  0.0000  0.0000  0.0000 </r>
        <r>  0.0000  0.0000  0.0000  0.0078  0.0000  0.0000  0.0000  0.0000  0.0000 </r>
       </set>
       <set comment="band 24">
        <r>  0.0136  0.0248  0.3899  0.0000  0.0000  0.0000  0.0000  0.0000  0.0000 </r>
        <r>  0.0040  0.0010  0.0398  0.0000  0.0000  0.0000  0.0000  0.0000  0.0000 </r>
       </set>
       <set comment="band 25">
        <r>  0.0001  0.0313  0.0097  0.0000  0.0000  0.0000  0.0000  0.0000  0.0000 </r>
        <r>  0.0000  0.0009  0.0182  0.0000  0.0000  0.0000  0.0000  0.0000  0.0000 </r>
       </set>
       <set comment="band 26">
        <r>  0.0000  0.0000  0.0000  0.1896  0.0000  0.0000  0.0000  0.0000  0.0000 </r>
        <r>  0.0000  0.0000  0.0000  0.0371  0.0000  0.0000  0.0000  0.0000  0.0000 </r>
       </set>
       <set comment="band 27">
        <r>  0.0000  0.0000  0.0000  0.0110  0.0000  0.0000  0.0000  0.0000  0.0000 </r>
        <r>  0.0000  0.0000  0.0000  0.0002  0.0000  0.0000  0.0000  0.0000  0.0000 </r>
       </set>
       <set comment="band 28">
        <r>  0.0000  0.0000  0.0000  0.0624  0.0000  0.0000  0.0000  0.0000  0.0000 </r>
        <r>  0.0000  0.0000  0.0000  0.0024  0.0000  0.0000  0.0000  0.0000  0.0000 </r>
       </set>
       <set comment="band 29">
        <r>  0.1081  0.0025  0.0657  0.0000  0.0000  0.0000  0.0000  0.0000  0.0000 </r>
        <r>  0.0065  0.0007  0.0222  0.0000  0.0000  0.0000  0.0000  0.0000  0.0000 </r>
       </set>
       <set comment="band 30">
        <r>  0.0000  0.0000  0.0000  0.0888  0.0000  0.0000  0.0000  0.0000  0.0000 </r>
        <r>  0.0000  0.0000  0.0000  0.1071  0.0000  0.0000  0.0000  0.0000  0.0000 </r>
       </set>
       <set comment="band 31">
        <r>  0.1419  0.0022  0.0280  0.0000  0.0000  0.0000  0.0000  0.0000  0.0000 </r>
        <r>  0.0101  0.0005  0.0622  0.0000  0.0000  0.0000  0.0000  0.0000  0.0000 </r>
       </set>
       <set comment="band 32">
        <r>  0.0000  0.0187  0.0009  0.0000  0.0000  0.0000  0.0000  0.0000  0.0000 </r>
        <r>  0.0785  0.0278  0.0324  0.0000  0.0000  0.0000  0.0000  0.0000  0.0000 </r>
       </set>
       <set comment="band 33">
        <r>  0.0019  0.0005  0.0036  0.0000  0.0000  0.0000  0.0000  0.0000  0.0000 </r>
        <r>  0.0019  0.2341  0.0045  0.0000  0.0000  0.0000  0.0000  0.0000  0.0000 </r>
       </set>
       <set comment="band 34">
        <r>  0.2544  0.0107  0.0067  0.0000  0.0000  0.0000  0.0000  0.0000  0.0000 </r>
        <r>  0.0143  0.0031  0.0421  0.0000  0.0000  0.0000  0.0000  0.0000  0.0000 </r>
       </set>
       <set comment="band 35">
        <r>  0.0000  0.0000  0.0000  0.2572  0.0000  0.0000  0.0000  0.0000  0.0000 </r>
        <r>  0.0000  0.0000  0.0000  0.0760  0.0000  0.0000  0.0000  0.0000  0.0000 </r>
       </set>
       <set comment="band 36">
        <r>  0.0785  0.0000  0.1878  0.0000  0.0000  0.0000  0.0000  0.0000  0.0000 </r>
        <r>  0.0236  0.0127  0.0538  0.0000  0.0000  0.0000  0.0000  0.0000  0.0000 </r>
       </set>
       <set comment="band 37">
        <r>  0.0000  0.3335  0.0330  0.0000  0.0000  0.0000  0.0000  0.0000  0.0000 </r>
        <r>  0.1155  0.0065  0.0135  0.0000  0.0000  0.0000  0.0000  0.0000  0.0000 </r>
       </set>
       <set comment="band 38">
        <r>  0.0000  0.0000  0.0000  0.3444  0.0000  0.0000  0.0000  0.0000  0.0000 </r>
        <r>  0.0000  0.0000  0.0000  0.0313  0.0000  0.0000  0.0000  0.0000  0.0000 </r>
       </set>
       <set comment="band 39">
        <r>  0.0037  0.0425  0.1213  0.0000  0.0000  0.0000  0.0000  0.0000  0.0000 </r>
        <r>  0.1028  0.0002  0.0096  0.0000  0.0000  0.0000  0.0000  0.0000  0.0000 </r>
       </set>
       <set comment="band 40">
        <r>  0.0045  0.0013  0.1368  0.0000  0.0000  0.0000  0.0000  0.0000  0.0000 </r>
        <r>  0.0063  0.0043  0.0190  0.0000  0.0000  0.0000  0.0000  0.0000  0.0000 </r>
       </set>
       <set comment="band 41">
        <r>  0.0000  0.0000  0.0000  0.0002  0.0000  0.0000  0.0000  0.0000  0.0000 </r>
        <r>  0.0000  0.0000  0.0000  0.0237  0.0000  0.0000  0.0000  0.0000  0.0000 </r>
       </set>
       <set comment="band 42">
        <r>  0.0000  0.0000  0.0000  0.0216  0.0000  0.0000  0.0000  0.0000  0.0000 </r>
        <r>  0.0000  0.0000  0.0000  0.0006  0.0000  0.0000  0.0000  0.0000  0.0000 </r>
       </set>
       <set comment="band 43">
        <r>  0.0393  0.0962  0.0708  0.0000  0.0000  0.0000  0.0000  0.0000  0.0000 </r>
        <r>  0.0005  0.0131  0.0002  0.0000  0.0000  0.0000  0.0000  0.0000  0.0000 </r>
       </set>
       <set comment="band 44">
        <r>  0.0050  0.1237  0.0316  0.0000  0.0000  0.0000  0.0000  0.0000  0.0000 </r>
        <r>  0.0001  0.0252  0.0297  0.0000  0.0000  0.0000  0.0000  0.0000  0.0000 </r>
       </set>
       <set comment="band 45">
        <r>  0.0000  0.0000  0.0000  0.0086  0.0000  0.0000  0.0000  0.0000  0.0000 </r>
        <r>  0.0000  0.0000  0.0000  0.0688  0.0000  0.0000  0.0000  0.0000  0.0000 </r>
       </set>
       <set comment="band 46">
        <r>  0.0009  0.0000  0.0311  0.0000  0.0000  0.0000  0.0000  0.0000  0.0000 </r>
        <r>  0.0565  0.0056  0.0708  0.0000  0.0000  0.0000  0.0000  0.0000  0.0000 </r>
       </set>
       <set comment="band 47">
        <r>  0.0000  0.0000  0.0000  0.0914  0.0000  0.0000  0.0000  0.0000  0.0000 </r>
        <r>  0.0000  0.0000  0.0000  0.0425  0.0000  0.0000  0.0000  0.0000  0.0000 </r>
       </set>
       <set comment="band 48">
        <r>  0.0714  0.1007  0.1306  0.0000  0.0000  0.0000  0.0000  0.0000  0.0000 </r>
        <r>  0.0013  0.0141  0.0027  0.0000  0.0000  0.0000  0.0000  0.0000  0.0000 </r>
       </set>
       <set comment="band 49">
        <r>  0.0009  0.8568  0.0399  0.0000  0.0000  0.0000  0.0000  0.0000  0.0000 </r>
        <r>  0.0106  0.0164  0.0129  0.0000  0.0000  0.0000  0.0000  0.0000  0.0000 </r>
       </set>
       <set comment="band 50">
        <r>  0.0000  0.0000  0.0000  0.0854  0.0000  0.0000  0.0000  0.0000  0.0000 </r>
        <r>  0.0000  0.0000  0.0000  0.0376  0.0000  0.0000  0.0000  0.0000  0.0000 </r>
       </set>
       <set comment="band 51">
        <r>  0.0000  0.0000  0.0000  0.1273  0.0000  0.0000  0.0000  0.0000  0.0000 </r>
        <r>  0.0000  0.0000  0.0000  0.0144  0.0000  0.0000  0.0000  0.0000  0.0000 </r>
       </set>
       <set comment="band 52">
        <r>  0.0009  0.0286  0.0017  0.0000  0.0000  0.0000  0.0000  0.0000  0.0000 </r>
        <r>  0.2312  0.0019  0.0389  0.0000  0.0000  0.0000  0.0000  0.0000  0.0000 </r>
       </set>
       <set comment="band 53">
        <r>  0.0000  0.0000  0.0000  0.0162  0.0000  0.0000  0.0000  0.0000  0.0000 </r>
        <r>  0.0000  0.0000  0.0000  0.0004  0.0000  0.0000  0.0000  0.0000  0.0000 </r>
       </set>
       <set comment="band 54">
        <r>  0.0355  0.0164  0.4198  0.0000  0.0000  0.0000  0.0000  0.0000  0.0000 </r>
        <r>  0.0070  0.0081  0.0000  0.0000  0.0000  0.0000  0.0000  0.0000  0.0000 </r>
       </set>
       <set comment="band 55">
        <r>  0.0000  0.0000  0.0000  0.3334  0.0000  0.0000  0.0000  0.0000  0.0000 </r>
        <r>  0.0000  0.0000  0.0000  0.0016  0.0000  0.0000  0.0000  0.0000  0.0000 </r>
       </set>
       <set comment="band 56">
        <r>  0.0006  0.0026  0.0037  0.0000  0.0000  0.0000  0.0000  0.0000  0.0000 </r>
        <r>  0.0053  0.0051  0.0075  0.0000  0.0000  0.0000  0.0000  0.0000  0.0000 </r>
       </set>
       <set comment="band 57">
        <r>  0.0030  0.0001  0.0571  0.0000  0.0000  0.0000  0.0000  0.0000  0.0000 </r>
        <r>  0.0339  0.0891  0.0043  0.0000  0.0000  0.0000  0.0000  0.0000  0.0000 </r>
       </set>
       <set comment="band 58">
        <r>  0.0639  0.0196  0.0235  0.0000  0.0000  0.0000  0.0000  0.0000  0.0000 </r>
        <r>  0.0189  0.0011  0.0359  0.0000  0.0000  0.0000  0.0000  0.0000  0.0000 </r>
       </set>
       <set comment="band 59">
        <r>  0.0000  0.0000  0.0000  0.1396  0.0000  0.0000  0.0000  0.0000  0.0000 </r>
        <r>  0.0000  0.0000  0.0000  0.1197  0.0000  0.0000  0.0000  0.0000  0.0000 </r>
       </set>
       <set comment="band 60">
        <r>  0.0230  0.0341  0.2680  0.0000  0.0000  0.0000  0.0000  0.0000  0.0000 </r>
        <r>  0.0277  0.0456  0.0622  0.0000  0.0000  0.0000  0.0000  0.0000  0.0000 </r>
       </set>
       <set comment="band 61">
        <r>  0.0000  0.0000  0.0000  0.2090  0.0000  0.0000  0.0000  0.0000  0.0000 </r>
        <r>  0.0000  0.0000  0.0000  0.0025  0.0000  0.0000  0.0000  0.0000  0.0000 </r>
       </set>
       <set comment="band 62">
        <r>  0.0097  0.2135  0.0120  0.0000  0.0000  0.0000  0.0000  0.0000  0.0000 </r>
        <r>  0.0058  0.0559  0.0010  0.0000  0.0000  0.0000  0.0000  0.0000  0.0000 </r>
       </set>
       <set comment="band 63">
        <r>  0.0000  0.0000  0.0000  0.0020  0.0000  0.0000  0.0000  0.0000  0.0000 </r>
        <r>  0.0000  0.0000  0.0000  0.0290  0.0000  0.0000  0.0000  0.0000  0.0000 </r>
       </set>
       <set comment="band 64">
        <r>  0.0073  0.0022  0.0906  0.0000  0.0000  0.0000  0.0000  0.0000  0.0000 </r>
        <r>  0.0012  0.0073  0.0020  0.0000  0.0000  0.0000  0.0000  0.0000  0.0000 </r>
       </set>
      </set>
     </set>
    </set>
   </array>
  </projected>
 </calculation>
 <structure name="finalpos" >
  <crystal>
   <varray name="basis" >
    <v>       0.00000000       2.04171400       2.04171400 </v>
    <v>       2.04171400       0.00000000       2.04171400 </v>
    <v>       2.04171400       2.04171400       0.00000000 </v>
   </varray>
   <i name="volume">     17.02216186 </i>
   <varray name="rec_basis" >
    <v>      -0.24489228       0.24489228       0.24489228 </v>
    <v>       0.24489228      -0.24489228       0.24489228 </v>
    <v>       0.24489228       0.24489228      -0.24489228 </v>
   </varray>
  </crystal>
  <varray name="positions" >
   <v>       0.00000000       0.00000000       0.00000000 </v>
   <v>       0.50000000       0.50000000       0.50000000 </v>
  </varray>
 </structure>
</modeling>
