<?xml version="1.0" encoding="ISO-8859-1"?>
<modeling>
 <generator>
  <i name="program" type="string">vasp </i>
  <i name="version" type="string">6.1.1  </i>
  <i name="subversion" type="string">19Jun20 (build Sep 15 2020 22:57:04) complex                          parallel </i>
  <i name="platform" type="string">VASP6.1.1-r2SCAN-MP </i>
  <i name="date" type="string">2020 10 09 </i>
  <i name="time" type="string">07:46:37 </i>
 </generator>
 <incar>
  <i type="string" name="PREC"> Accurate</i>
  <i type="string" name="ALGO"> All</i>
  <i type="int" name="ISPIN">     2</i>
  <i type="int" name="ICHARG">     1</i>
  <i type="int" name="NELM">   200</i>
  <i type="int" name="IBRION">     2</i>
  <i name="EDIFF">      0.00001000</i>
  <i name="EDIFFG">     -0.02000000</i>
  <i type="int" name="NSW">     0</i>
  <i type="int" name="ISIF">     3</i>
  <i name="ENCUT">    680.00000000</i>
  <i name="ENAUG">   1360.00000000</i>
  <v name="MAGMOM">      0.60000000      0.60000000</v>
  <i type="string" name="LREAL"> Auto</i>
  <i type="int" name="ISMEAR">    -5</i>
  <i name="SIGMA">      0.05000000</i>
  <i name="KSPACING">      0.34323898</i>
  <i type="logical" name="LWAVE"> F  </i>
  <i type="logical" name="LCHARG"> T  </i>
  <i type="logical" name="LVTOT"> T  </i>
  <i type="logical" name="LELF"> T  </i>
  <i type="logical" name="LASPH"> T  </i>
  <i type="logical" name="LAECHG"> T  </i>
  <i type="string" name="ALGO"> All</i>
  <i type="int" name="NELM">   200</i>
  <i name="EDIFF">      0.00001000</i>
  <i type="string" name="METAGGA"> R2scan</i>
  <i type="logical" name="LASPH"> T  </i>
  <i type="logical" name="LMIXTAU"> T  </i>
  <i type="int" name="ISPIN">     2</i>
 </incar>
 <structure name="primitive_cell" >
  <crystal>
   <varray name="basis" >
    <v>       2.46004600       0.00000000       1.42030800 </v>
    <v>       0.82001500       2.31935400       1.42030800 </v>
    <v>       0.00000000       0.00000000       2.84061700 </v>
   </varray>
   <i name="volume">     16.20775821 </i>
   <varray name="rec_basis" >
    <v>       0.40649646      -0.14371812       0.00000000 </v>
    <v>       0.00000000       0.43115454       0.00000000 </v>
    <v>      -0.20324816      -0.14371816       0.35203619 </v>
   </varray>
  </crystal>
  <varray name="positions" >
   <v>       0.00000000       0.00000000       0.00000000 </v>
   <v>       0.50000000       0.50000000       0.50000000 </v>
  </varray>
 </structure>
 <varray name="primitive_index" >
  <v type="int" >        1 </v>
  <v type="int" >        2 </v>
 </varray>
 <kpoints>
  <generation param="Gamma">
   <v type="int" name="divisions">       8        8        8 </v>
   <v name="usershift">      0.00000000       0.00000000       0.00000000 </v>
   <v name="genvec1">      0.12500000       0.00000000       0.00000000 </v>
   <v name="genvec2">      0.00000000       0.12500000       0.00000000 </v>
   <v name="genvec3">      0.00000000       0.00000000       0.12500000 </v>
   <v name="shift">      0.00000000       0.00000000       0.00000000 </v>
  </generation>
  <varray name="kpointlist" >
   <v>       0.00000000       0.00000000       0.00000000 </v>
   <v>       0.12500000       0.00000000       0.00000000 </v>
   <v>       0.25000000       0.00000000       0.00000000 </v>
   <v>       0.37500000       0.00000000       0.00000000 </v>
   <v>       0.50000000       0.00000000       0.00000000 </v>
   <v>       0.12500000       0.12500000       0.00000000 </v>
   <v>       0.25000000       0.12500000       0.00000000 </v>
   <v>       0.37500000       0.12500000       0.00000000 </v>
   <v>       0.50000000       0.12500000       0.00000000 </v>
   <v>      -0.37500000       0.12500000       0.00000000 </v>
   <v>      -0.25000000       0.12500000       0.00000000 </v>
   <v>      -0.12500000       0.12500000       0.00000000 </v>
   <v>       0.25000000       0.25000000       0.00000000 </v>
   <v>       0.37500000       0.25000000       0.00000000 </v>
   <v>       0.50000000       0.25000000       0.00000000 </v>
   <v>      -0.37500000       0.25000000       0.00000000 </v>
   <v>      -0.25000000       0.25000000       0.00000000 </v>
   <v>       0.37500000       0.37500000       0.00000000 </v>
   <v>       0.50000000       0.37500000       0.00000000 </v>
   <v>      -0.37500000       0.37500000       0.00000000 </v>
   <v>       0.50000000       0.50000000       0.00000000 </v>
   <v>       0.37500000       0.25000000       0.12500000 </v>
   <v>       0.50000000       0.25000000       0.12500000 </v>
   <v>      -0.37500000       0.25000000       0.12500000 </v>
   <v>       0.50000000       0.37500000       0.12500000 </v>
   <v>      -0.37500000       0.37500000       0.12500000 </v>
   <v>      -0.25000000       0.37500000       0.12500000 </v>
   <v>      -0.37500000       0.50000000       0.12500000 </v>
   <v>      -0.25000000       0.50000000       0.25000000 </v>
  </varray>
  <varray name="weights" >
   <v>       0.00195312 </v>
   <v>       0.01562500 </v>
   <v>       0.01562500 </v>
   <v>       0.01562500 </v>
   <v>       0.00781250 </v>
   <v>       0.01171875 </v>
   <v>       0.04687500 </v>
   <v>       0.04687500 </v>
   <v>       0.04687500 </v>
   <v>       0.04687500 </v>
   <v>       0.04687500 </v>
   <v>       0.02343750 </v>
   <v>       0.01171875 </v>
   <v>       0.04687500 </v>
   <v>       0.04687500 </v>
   <v>       0.04687500 </v>
   <v>       0.02343750 </v>
   <v>       0.01171875 </v>
   <v>       0.04687500 </v>
   <v>       0.02343750 </v>
   <v>       0.00585938 </v>
   <v>       0.04687500 </v>
   <v>       0.09375000 </v>
   <v>       0.04687500 </v>
   <v>       0.04687500 </v>
   <v>       0.09375000 </v>
   <v>       0.04687500 </v>
   <v>       0.02343750 </v>
   <v>       0.01171875 </v>
  </varray>
  <varray name="tetrahedronlist"  type="int" >
   <v type="int" >       24        1        2        2        6 </v>
   <v type="int" >       48        2        6        7       12 </v>
   <v type="int" >       48        2        3        7       12 </v>
   <v type="int" >       24        2        2        6       12 </v>
   <v type="int" >       48        3        7        8       11 </v>
   <v type="int" >       48        3        4        8       11 </v>
   <v type="int" >       48        3        7       11       12 </v>
   <v type="int" >       48        4        8        9       10 </v>
   <v type="int" >       48        4        5        9       10 </v>
   <v type="int" >       48        4        8       10       11 </v>
   <v type="int" >       48        5        9        9       10 </v>
   <v type="int" >       24        6        7        7       13 </v>
   <v type="int" >       24        6        7        7       12 </v>
   <v type="int" >       48        7       13       14       22 </v>
   <v type="int" >       48        7        8       14       22 </v>
   <v type="int" >       48        7        8       11       22 </v>
   <v type="int" >       24        7        7       13       22 </v>
   <v type="int" >       24        7        7       12       22 </v>
   <v type="int" >       48        7       11       12       22 </v>
   <v type="int" >       48        8       14       15       23 </v>
   <v type="int" >       48        8        9       15       23 </v>
   <v type="int" >       48        8        9       10       23 </v>
   <v type="int" >       48        8       14       22       23 </v>
   <v type="int" >       48        8       11       22       23 </v>
   <v type="int" >       48        8       10       11       23 </v>
   <v type="int" >       48        9       15       16       24 </v>
   <v type="int" >       48        9       10       16       24 </v>
   <v type="int" >       48        9        9       10       24 </v>
   <v type="int" >       48        9       15       23       24 </v>
   <v type="int" >       48        9       10       23       24 </v>
   <v type="int" >       48       10       16       17       23 </v>
   <v type="int" >       48       10       11       17       23 </v>
   <v type="int" >       48       10       16       23       24 </v>
   <v type="int" >       24       11       11       17       22 </v>
   <v type="int" >       24       11       11       12       22 </v>
   <v type="int" >       48       11       17       22       23 </v>
   <v type="int" >       24       13       14       14       18 </v>
   <v type="int" >       24       13       14       14       22 </v>
   <v type="int" >       48       14       18       19       25 </v>
   <v type="int" >       48       14       15       19       25 </v>
   <v type="int" >       48       14       15       23       25 </v>
   <v type="int" >       24       14       14       18       25 </v>
   <v type="int" >       24       14       14       22       25 </v>
   <v type="int" >       48       14       22       23       25 </v>
   <v type="int" >       48       15       19       20       26 </v>
   <v type="int" >       48       15       16       20       26 </v>
   <v type="int" >       48       15       16       24       26 </v>
   <v type="int" >       48       15       19       25       26 </v>
   <v type="int" >       48       15       23       25       26 </v>
   <v type="int" >       48       15       23       24       26 </v>
   <v type="int" >       24       16       16       20       27 </v>
   <v type="int" >       24       16       16       17       27 </v>
   <v type="int" >       48       16       17       23       27 </v>
   <v type="int" >       48       16       20       26       27 </v>
   <v type="int" >       48       16       24       26       27 </v>
   <v type="int" >       48       16       23       24       27 </v>
   <v type="int" >       24       17       23       23       27 </v>
   <v type="int" >       24       17       22       23       23 </v>
   <v type="int" >       24       18       19       19       21 </v>
   <v type="int" >       24       18       19       19       25 </v>
   <v type="int" >       48       19       19       21       28 </v>
   <v type="int" >       24       19       19       20       28 </v>
   <v type="int" >       48       19       20       26       28 </v>
   <v type="int" >       24       19       19       25       28 </v>
   <v type="int" >       48       19       25       26       28 </v>
   <v type="int" >       24       20       26       26       28 </v>
   <v type="int" >       24       20       26       26       27 </v>
   <v type="int" >       24       22       23       23       25 </v>
   <v type="int" >       48       23       25       26       27 </v>
   <v type="int" >       48       23       24       26       27 </v>
   <v type="int" >       24       23       23       25       27 </v>
   <v type="int" >       48       24       26       26       27 </v>
   <v type="int" >       24       25       26       26       28 </v>
   <v type="int" >       24       25       26       26       27 </v>
   <v type="int" >       48       26       26       28       29 </v>
   <v type="int" >       96       26       26       27       29 </v>
  </varray>
  <i name="volumeweight">      0.00032552 </i>
 </kpoints>
 <parameters>
  <separator name="general" >
   <i type="string" name="SYSTEM">unknown system</i>
   <i type="logical" name="LCOMPAT"> F  </i>
  </separator>
  <separator name="electronic" >
   <i type="string" name="PREC">accura</i>
   <i name="ENMAX">    680.00000000</i>
   <i name="ENAUG">   1360.00000000</i>
   <i name="EDIFF">      0.00001000</i>
   <i type="int" name="IALGO">    58</i>
   <i type="int" name="IWAVPR">    10</i>
   <i type="int" name="NBANDS">     8</i>
   <i type="int" name="NBANDSLOW">    -1</i>
   <i type="int" name="NBANDSHIGH">    -1</i>
   <i name="NELECT">      4.00000000</i>
   <i type="int" name="TURBO">     0</i>
   <i type="int" name="IRESTART">     0</i>
   <i type="int" name="NREBOOT">     0</i>
   <i type="int" name="NMIN">     0</i>
   <i name="EREF">      0.00000000</i>
   <separator name="electronic smearing" >
    <i type="int" name="ISMEAR">    -5</i>
    <i name="SIGMA">      0.05000000</i>
    <i name="KSPACING">      0.34323898</i>
    <i type="logical" name="KGAMMA"> T  </i>
    <i type="logical" name="KBLOWUP"> T  </i>
   </separator>
   <separator name="electronic projectors" >
    <i type="logical" name="LREAL"> T  </i>
    <v name="ROPT">     -0.00025000     -0.00025000</v>
    <i type="int" name="LMAXPAW">  -100</i>
    <i type="int" name="LMAXMIX">     2</i>
    <i type="logical" name="NLSPLINE"> F  </i>
   </separator>
   <separator name="electronic startup" >
    <i type="int" name="ISTART">     0</i>
    <i type="int" name="ICHARG">     1</i>
    <i type="int" name="INIWAV">     1</i>
   </separator>
   <separator name="electronic spin" >
    <i type="int" name="ISPIN">     2</i>
    <i type="logical" name="LNONCOLLINEAR"> F  </i>
    <v name="MAGMOM">      0.60000000      0.60000000</v>
    <i name="NUPDOWN">     -1.00000000</i>
    <i type="logical" name="LSORBIT"> F  </i>
    <v name="SAXIS">      0.00000000      0.00000000      1.00000000</v>
    <i type="logical" name="LSPIRAL"> F  </i>
    <v name="QSPIRAL">      0.00000000      0.00000000      0.00000000</v>
    <i type="logical" name="LZEROZ"> F  </i>
   </separator>
   <separator name="electronic exchange-correlation" >
    <i type="logical" name="LASPH"> T  </i>
    <i type="logical" name="LMETAGGA"> F  </i>
   </separator>
   <separator name="electronic convergence" >
    <i type="int" name="NELM">   200</i>
    <i type="int" name="NELMDL">    -5</i>
    <i type="int" name="NELMIN">     2</i>
    <i name="ENINI">    680.00000000</i>
    <separator name="electronic convergence detail" >
     <i type="logical" name="LDIAG"> T  </i>
     <i type="logical" name="LSUBROT"> F  </i>
     <i name="WEIMIN">      0.00000000</i>
     <i name="EBREAK">      0.00000031</i>
     <i name="DEPER">      0.30000000</i>
     <i type="int" name="NRMM">     4</i>
     <i name="TIME">      0.40000000</i>
    </separator>
   </separator>
   <separator name="electronic mixer" >
    <i name="AMIX">      0.40000000</i>
    <i name="BMIX">      1.00000000</i>
    <i name="AMIN">      0.10000000</i>
    <i name="AMIX_MAG">      1.60000000</i>
    <i name="BMIX_MAG">      1.00000000</i>
    <separator name="electronic mixer details" >
     <i type="int" name="IMIX">     4</i>
     <i type="logical" name="MIXFIRST"> F  </i>
     <i type="int" name="MAXMIX">   -45</i>
     <i name="WC">    100.00000000</i>
     <i type="int" name="INIMIX">     1</i>
     <i type="int" name="MIXPRE">     1</i>
     <i type="int" name="MREMOVE">     5</i>
    </separator>
   </separator>
   <separator name="electronic dipolcorrection" >
    <i type="logical" name="LDIPOL"> F  </i>
    <i type="logical" name="LMONO"> F  </i>
    <i type="int" name="IDIPOL">     0</i>
    <i name="EPSILON">      1.00000000</i>
    <v name="DIPOL">   -100.00000000   -100.00000000   -100.00000000</v>
    <i name="EFIELD">      0.00000000</i>
   </separator>
  </separator>
  <separator name="grids" >
   <i type="int" name="NGX">    24</i>
   <i type="int" name="NGY">    24</i>
   <i type="int" name="NGZ">    24</i>
   <i type="int" name="NGXF">    48</i>
   <i type="int" name="NGYF">    48</i>
   <i type="int" name="NGZF">    48</i>
   <i type="logical" name="ADDGRID"> F  </i>
  </separator>
  <separator name="ionic" >
   <i type="int" name="NSW">     0</i>
   <i type="int" name="IBRION">    -1</i>
   <i type="int" name="MDALGO">     0</i>
   <i type="int" name="ISIF">     3</i>
   <i name="PSTRESS">      0.00000000</i>
   <i name="EDIFFG">     -0.02000000</i>
   <i type="int" name="NFREE">     1</i>
   <i name="POTIM">      0.50000000</i>
   <i name="SMASS">     -3.00000000</i>
   <i name="SCALEE">      1.00000000</i>
  </separator>
  <separator name="ionic md" >
   <i name="TEBEG">      0.00010000</i>
   <i name="TEEND">      0.00010000</i>
   <i type="int" name="NBLOCK">     1</i>
   <i type="int" name="KBLOCK">     1</i>
   <i type="int" name="NPACO">   256</i>
   <i name="APACO">     16.00000000</i>
  </separator>
  <separator name="symmetry" >
   <i type="int" name="ISYM">     2</i>
   <i name="SYMPREC">      0.00001000</i>
  </separator>
  <separator name="dos" >
   <i type="int" name="LORBIT">    11</i>
   <v name="RWIGS">     -1.00000000     -1.00000000</v>
   <i type="int" name="NEDOS">   301</i>
   <i name="EMIN">     10.00000000</i>
   <i name="EMAX">    -10.00000000</i>
   <i name="EFERMI">      0.00000000</i>
  </separator>
  <separator name="writing" >
   <i type="int" name="NWRITE">     2</i>
   <i type="logical" name="LWAVE"> F  </i>
   <i type="logical" name="LDOWNSAMPLE"> F  </i>
   <i type="logical" name="LCHARG"> T  </i>
   <i type="logical" name="LPARD"> F  </i>
   <i type="logical" name="LVTOT"> T  </i>
   <i type="logical" name="LVHAR"> F  </i>
   <i type="logical" name="LELF"> T  </i>
   <i type="logical" name="LOPTICS"> F  </i>
   <v name="STM">      0.00000000      0.00000000      0.00000000      0.00000000      0.00000000      0.00000000      0.00000000</v>
  </separator>
  <separator name="performance" >
   <i type="int" name="NPAR">     4</i>
   <i type="int" name="NSIM">     4</i>
   <i type="int" name="NBLK">    -1</i>
   <i type="logical" name="LPLANE"> T  </i>
   <i type="logical" name="LSCALAPACK"> T  </i>
   <i type="logical" name="LSCAAWARE"> F  </i>
   <i type="logical" name="LSCALU"> F  </i>
   <i type="logical" name="LASYNC"> F  </i>
   <i type="logical" name="LORBITALREAL"> F  </i>
  </separator>
  <separator name="miscellaneous" >
   <i type="int" name="IDIOT">     3</i>
   <i type="int" name="PHON_NSTRUCT">    -1</i>
   <i type="logical" name="LMUSIC"> F  </i>
   <v name="POMASS">      7.01000000      1.00000000</v>
   <v name="DARWINR">      0.00000000      0.00000000</v>
   <v name="DARWINV">      1.00000000      1.00000000</v>
   <i type="logical" name="LCORR"> T  </i>
  </separator>
  <i type="logical" name="GGA_COMPAT"> T  </i>
  <i type="logical" name="LBERRY"> F  </i>
  <i type="int" name="ICORELEVEL">     0</i>
  <i type="logical" name="LDAU"> F  </i>
  <i type="int" name="I_CONSTRAINED_M">     0</i>
  <separator name="electronic exchange-correlation" >
   <i type="string" name="GGA">--</i>
   <i type="int" name="VOSKOWN">     0</i>
   <i type="logical" name="LHFCALC"> F  </i>
   <i type="string" name="PRECFOCK"></i>
   <i type="logical" name="LSYMGRAD"> F  </i>
   <i type="logical" name="LHFONE"> F  </i>
   <i type="logical" name="LRHFCALC"> F  </i>
   <i type="logical" name="LTHOMAS"> F  </i>
   <i type="logical" name="LMODELHF"> F  </i>
   <i type="logical" name="LFOCKACE"> F  </i>
   <i name="ENCUT4O">     -1.00000000</i>
   <i type="int" name="EXXOEP">     0</i>
   <i type="int" name="FOURORBIT">     0</i>
   <i name="AEXX">      0.00000000</i>
   <i name="HFALPHA">      0.00000000</i>
   <i name="MCALPHA">      0.00000000</i>
   <i name="ALDAX">      1.00000000</i>
   <i name="AGGAX">      1.00000000</i>
   <i name="ALDAC">      1.00000000</i>
   <i name="AGGAC">      1.00000000</i>
   <i type="int" name="NKREDX">     1</i>
   <i type="int" name="NKREDY">     1</i>
   <i type="int" name="NKREDZ">     1</i>
   <i type="logical" name="SHIFTRED"> F  </i>
   <i type="logical" name="ODDONLY"> F  </i>
   <i type="logical" name="EVENONLY"> F  </i>
   <i type="int" name="LMAXFOCK">     0</i>
   <i type="int" name="NMAXFOCKAE">     0</i>
   <i type="logical" name="LFOCKAEDFT"> F  </i>
   <i name="HFSCREEN">      0.00000000</i>
   <i name="HFSCREENC">      0.00000000</i>
   <i type="int" name="NBANDSGWLOW">     0</i>
  </separator>
  <separator name="vdW DFT" >
   <i type="logical" name="LUSE_VDW"> F  </i>
   <i name="Zab_VDW">     -0.84910000</i>
   <i name="PARAM1">      0.12340000</i>
   <i name="PARAM2">      1.00000000</i>
   <i name="PARAM3">      0.00000000</i>
  </separator>
  <separator name="model GW" >
   <i type="int" name="MODEL_GW">     0</i>
   <i name="MODEL_EPS0">      4.86232746</i>
   <i name="MODEL_ALPHA">      1.00000000</i>
  </separator>
  <separator name="linear response parameters" >
   <i type="logical" name="LEPSILON"> F  </i>
   <i type="logical" name="LRPA"> F  </i>
   <i type="logical" name="LNABLA"> F  </i>
   <i type="logical" name="LVEL"> F  </i>
   <i type="int" name="KINTER">     0</i>
   <i name="CSHIFT">      0.10000000</i>
   <i name="OMEGAMAX">     -1.00000000</i>
   <i name="DEG_THRESHOLD">      0.00200000</i>
   <i name="RTIME">     -0.10000000</i>
   <i name="WPLASMAI">      0.00000000</i>
   <v name="DFIELD">      0.00000000      0.00000000      0.00000000</v>
   <v name="WPLASMA">      0.00000000      0.00000000      0.00000000      0.00000000      0.00000000      0.00000000      0.00000000      0.00000000      0.00000000</v>
  </separator>
  <separator name="orbital magnetization" >
   <i type="logical" name="NUCIND"> F  </i>
   <v name="MAGPOS">      0.00000000      0.00000000      0.00000000</v>
   <i type="logical" name="LNICSALL"> T  </i>
   <i type="logical" name="ORBITALMAG"> F  </i>
   <i type="logical" name="LMAGBLOCH"> F  </i>
   <i type="logical" name="LCHIMAG"> F  </i>
   <i type="logical" name="LGAUGE"> T  </i>
   <i type="int" name="MAGATOM">     0</i>
   <v name="MAGDIPOL">      0.00000000      0.00000000      0.00000000</v>
   <v name="AVECCONST">      0.00000000      0.00000000      0.00000000</v>
  </separator>
  <separator name="response functions" >
   <i type="logical" name="LFINITE_TEMPERATURE"> F  </i>
   <i type="logical" name="LADDER"> F  </i>
   <i type="logical" name="LRPAFORCE"> F  </i>
   <i type="logical" name="LFXC"> F  </i>
   <i type="logical" name="LHARTREE"> T  </i>
   <i type="int" name="IBSE">     0</i>
   <v type="int" name="KPOINT">    -1     0     0     0</v>
   <i type="logical" name="LTCTC"> F  </i>
   <i type="logical" name="LTCTE"> F  </i>
   <i type="logical" name="LTETE"> F  </i>
   <i type="logical" name="LTRIPLET"> F  </i>
   <i type="logical" name="LFXCEPS"> F  </i>
   <i type="logical" name="LFXHEG"> F  </i>
   <i type="int" name="NATURALO">     2</i>
   <i type="logical" name="LHOLEGF"> F  </i>
   <i type="logical" name="L2ORDER"> F  </i>
   <i type="logical" name="LDMP1"> F  </i>
   <i type="logical" name="LMP2LT"> F  </i>
   <i type="logical" name="LSMP2LT"> F  </i>
   <i type="logical" name="LGWLF"> F  </i>
   <i name="ENCUTGW">     -2.00000000</i>
   <i name="ENCUTGWSOFT">     -2.00000000</i>
   <i name="ENCUTLF">     -1.00000000</i>
   <i type="logical" name="LESF_SPLINES"> F  </i>
   <i type="int" name="LMAXMP2">    -1</i>
   <i name="SCISSOR">      0.00000000</i>
   <i type="int" name="NOMEGA">     0</i>
   <i type="int" name="NOMEGAR">     0</i>
   <i type="int" name="NBANDSGW">    -1</i>
   <i type="int" name="NBANDSO">    -1</i>
   <i type="int" name="NBANDSV">    -1</i>
   <i type="int" name="NELM">   200</i>
   <i type="int" name="NELMHF">     1</i>
   <i type="int" name="DIM">     3</i>
   <i type="int" name="IESPILON">     4</i>
   <i type="int" name="ANTIRES">     0</i>
   <i name="OMEGAMAX">    -30.00000000</i>
   <i name="OMEGAMIN">    -30.00000000</i>
   <i name="OMEGATL">   -200.00000000</i>
   <i type="int" name="OMEGAGRID">     0</i>
   <i name="CSHIFT">     -0.10000000</i>
   <i type="logical" name="LSELFENERGY"> F  </i>
   <i type="logical" name="LSPECTRAL"> F  </i>
   <i type="logical" name="LSPECTRALGW"> F  </i>
   <i type="logical" name="LSINGLES"> F  </i>
   <i type="logical" name="LFERMIGW"> F  </i>
   <i type="logical" name="ODDONLYGW"> F  </i>
   <i type="logical" name="EVENONLYGW"> F  </i>
   <i type="int" name="NKREDLFX">     1</i>
   <i type="int" name="NKREDLFY">     1</i>
   <i type="int" name="NKREDLFZ">     1</i>
   <i type="int" name="MAXMEM">  2800</i>
   <i type="int" name="TELESCOPE">     0</i>
   <i type="int" name="NTAUPAR">    -1</i>
   <i type="int" name="NOMEGAPAR">    -1</i>
   <i name="LAMBDA">      1.00000000</i>
  </separator>
  <separator name="External order field" >
   <i name="OFIELD_KAPPA">      0.00000000</i>
   <v name="OFIELD_K">      0.00000000      0.00000000      0.00000000</v>
   <i name="OFIELD_Q6_NEAR">      0.00000000</i>
   <i name="OFIELD_Q6_FAR">      0.00000000</i>
   <i name="OFIELD_A">      0.00000000</i>
  </separator>
 </parameters>
 <atominfo>
  <atoms>       2 </atoms>
  <types>       2 </types>
  <array name="atoms" >
   <dimension dim="1">ion</dimension>
   <field type="string">element</field>
   <field type="int">atomtype</field>
   <set>
    <rc><c>Li</c><c>   1</c></rc>
    <rc><c>H </c><c>   2</c></rc>
   </set>
  </array>
  <array name="atomtypes" >
   <dimension dim="1">type</dimension>
   <field type="int">atomspertype</field>
   <field type="string">element</field>
   <field>mass</field>
   <field>valence</field>
   <field type="string">pseudopotential</field>
   <set>
    <rc><c>   1</c><c>Li</c><c>      7.01000000</c><c>      3.00000000</c><c>  PAW_PBE Li_sv 10Sep2004               </c></rc>
    <rc><c>   1</c><c>H </c><c>      1.00000000</c><c>      1.00000000</c><c>  PAW_PBE H 15Jun2001                   </c></rc>
   </set>
  </array>
 </atominfo>
 <structure name="initialpos" >
  <crystal>
   <varray name="basis" >
    <v>       2.46004600       0.00000000       1.42030800 </v>
    <v>       0.82001500       2.31935400       1.42030800 </v>
    <v>       0.00000000       0.00000000       2.84061700 </v>
   </varray>
   <i name="volume">     16.20775821 </i>
   <varray name="rec_basis" >
    <v>       0.40649646      -0.14371812       0.00000000 </v>
    <v>       0.00000000       0.43115454       0.00000000 </v>
    <v>      -0.20324816      -0.14371816       0.35203619 </v>
   </varray>
  </crystal>
  <varray name="positions" >
   <v>       0.00000000       0.00000000       0.00000000 </v>
   <v>       0.50000000       0.50000000       0.50000000 </v>
  </varray>
 </structure>
 <calculation>
  <scstep>
   <time name="total">    6.20    6.36</time>
   <energy>
    <i name="alphaZ">      2.49496780 </i>
    <i name="ewald">    -93.89059935 </i>
    <i name="hartreedc">    -36.28993873 </i>
    <i name="XCdc">     17.60588507 </i>
    <i name="pawpsdc">     83.41917298 </i>
    <i name="pawaedc">    -98.05787436 </i>
    <i name="eentropy">      0.00000000 </i>
    <i name="bandstr">    -93.35162206 </i>
    <i name="atom">    215.26843501 </i>
    <i name="e_fr_energy">     -2.80157365 </i>
    <i name="e_wo_entrp">     -2.80157365 </i>
    <i name="e_0_energy">     -2.80157365 </i>
   </energy>
  </scstep>
  <scstep>
   <time name="total">    3.43    3.55</time>
   <energy>
    <i name="e_fr_energy">     -7.27002625 </i>
    <i name="e_wo_entrp">     -7.27002625 </i>
    <i name="e_0_energy">     -7.27002625 </i>
   </energy>
  </scstep>
  <scstep>
   <time name="total">    3.02    3.02</time>
   <energy>
    <i name="e_fr_energy">     -7.31221707 </i>
    <i name="e_wo_entrp">     -7.31221707 </i>
    <i name="e_0_energy">     -7.31221707 </i>
   </energy>
  </scstep>
  <scstep>
   <time name="total">    3.64    3.66</time>
   <energy>
    <i name="e_fr_energy">     -7.31249494 </i>
    <i name="e_wo_entrp">     -7.31249494 </i>
    <i name="e_0_energy">     -7.31249494 </i>
   </energy>
  </scstep>
  <scstep>
   <time name="total">    3.68    3.69</time>
   <energy>
    <i name="e_fr_energy">     -7.31249599 </i>
    <i name="e_wo_entrp">     -7.31249599 </i>
    <i name="e_0_energy">     -7.31249599 </i>
   </energy>
  </scstep>
  <scstep>
   <time name="total">   11.10   11.27</time>
   <energy>
    <i name="e_fr_energy">     -6.78999563 </i>
    <i name="e_wo_entrp">     -6.78999563 </i>
    <i name="e_0_energy">     -6.78999563 </i>
   </energy>
  </scstep>
  <scstep>
   <time name="total">   11.09   11.09</time>
   <energy>
    <i name="e_fr_energy">     -6.81211757 </i>
    <i name="e_wo_entrp">     -6.81211757 </i>
    <i name="e_0_energy">     -6.81211757 </i>
   </energy>
  </scstep>
  <scstep>
   <time name="total">   11.09   11.09</time>
   <energy>
    <i name="e_fr_energy">     -6.81722346 </i>
    <i name="e_wo_entrp">     -6.81722346 </i>
    <i name="e_0_energy">     -6.81722346 </i>
   </energy>
  </scstep>
  <scstep>
   <time name="total">   11.08   11.09</time>
   <energy>
    <i name="e_fr_energy">     -6.81998843 </i>
    <i name="e_wo_entrp">     -6.81998843 </i>
    <i name="e_0_energy">     -6.81998843 </i>
   </energy>
  </scstep>
  <scstep>
   <time name="total">   11.09   11.09</time>
   <energy>
    <i name="e_fr_energy">     -6.82033072 </i>
    <i name="e_wo_entrp">     -6.82033072 </i>
    <i name="e_0_energy">     -6.82033072 </i>
   </energy>
  </scstep>
  <scstep>
   <time name="total">   11.09   11.09</time>
   <energy>
    <i name="e_fr_energy">     -6.82044927 </i>
    <i name="e_wo_entrp">     -6.82044927 </i>
    <i name="e_0_energy">     -6.82044927 </i>
   </energy>
  </scstep>
  <scstep>
   <time name="total">   11.10   11.10</time>
   <energy>
    <i name="e_fr_energy">     -6.82048399 </i>
    <i name="e_wo_entrp">     -6.82048399 </i>
    <i name="e_0_energy">     -6.82048399 </i>
   </energy>
  </scstep>
  <scstep>
   <time name="total">   11.74   11.74</time>
   <energy>
    <i name="alphaZ">      2.49496780 </i>
    <i name="ewald">    -93.89059935 </i>
    <i name="hartreedc">    -36.46715887 </i>
    <i name="XCdc">     17.56858662 </i>
    <i name="pawpsdc">     79.03192779 </i>
    <i name="pawaedc">    -93.95574303 </i>
    <i name="eentropy">      0.00000000 </i>
    <i name="bandstr">    -96.87090746 </i>
    <i name="atom">    215.26843501 </i>
    <i name="e_fr_energy">     -6.82049149 </i>
    <i name="e_wo_entrp">     -6.82049149 </i>
    <i name="e_0_energy">     -6.82049149 </i>
   </energy>
  </scstep>
  <structure>
   <crystal>
    <varray name="basis" >
     <v>       2.46004600       0.00000000       1.42030800 </v>
     <v>       0.82001500       2.31935400       1.42030800 </v>
     <v>       0.00000000       0.00000000       2.84061700 </v>
    </varray>
    <i name="volume">     16.20775821 </i>
    <varray name="rec_basis" >
     <v>       0.40649646      -0.14371812       0.00000000 </v>
     <v>       0.00000000       0.43115454       0.00000000 </v>
     <v>      -0.20324816      -0.14371816       0.35203619 </v>
    </varray>
   </crystal>
   <varray name="positions" >
    <v>       0.00000000       0.00000000       0.00000000 </v>
    <v>       0.50000000       0.50000000       0.50000000 </v>
   </varray>
  </structure>
  <varray name="forces" >
   <v>      -0.00000000      -0.00000000       0.00000000 </v>
   <v>       0.00000000       0.00000000      -0.00000000 </v>
  </varray>
  <varray name="stress" >
   <v>      -6.43295341       0.00000092       0.00000131 </v>
   <v>       0.00000092      -6.43295557       0.00000092 </v>
   <v>       0.00000131       0.00000092      -6.43295595 </v>
  </varray>
  <energy>
   <i name="e_fr_energy">     -6.82049149 </i>
   <i name="e_wo_entrp">     -6.82049149 </i>
   <i name="e_0_energy">     -6.82049149 </i>
  </energy>
  <time name="totalsc">  126.76  127.36</time>
  <eigenvalues>
   <array>
    <dimension dim="1">band</dimension>
    <dimension dim="2">kpoint</dimension>
    <dimension dim="3">spin</dimension>
    <field>eigene</field>
    <field>occ</field>
    <set>
     <set comment="spin 1">
      <set comment="kpoint 1">
       <r>  -45.9489    1.0000 </r>
       <r>   -5.6410    1.0000 </r>
       <r>   17.3172    0.0000 </r>
       <r>   19.0906    0.0000 </r>
       <r>   19.0906    0.0000 </r>
       <r>   19.0911    0.0000 </r>
       <r>   23.5213    0.0000 </r>
       <r>   23.5214    0.0000 </r>
      </set>
      <set comment="kpoint 2">
       <r>  -45.9425    1.0000 </r>
       <r>   -5.3612    1.0000 </r>
       <r>   14.7474    0.0000 </r>
       <r>   17.7376    0.0000 </r>
       <r>   18.4649    0.0000 </r>
       <r>   18.4653    0.0000 </r>
       <r>   23.4539    0.0000 </r>
       <r>   24.9236    0.0000 </r>
      </set>
      <set comment="kpoint 3">
       <r>  -45.9271    1.0000 </r>
       <r>   -4.5626    1.0000 </r>
       <r>   10.3631    0.0000 </r>
       <r>   16.1522    0.0000 </r>
       <r>   17.7383    0.0000 </r>
       <r>   17.7387    0.0000 </r>
       <r>   23.0691    0.0000 </r>
       <r>   23.0693    0.0000 </r>
      </set>
      <set comment="kpoint 4">
       <r>  -45.9117    1.0000 </r>
       <r>   -3.4676    1.0000 </r>
       <r>    6.8797    0.0000 </r>
       <r>   15.0445    0.0000 </r>
       <r>   17.6154    0.0000 </r>
       <r>   17.6158    0.0000 </r>
       <r>   20.6349    0.0000 </r>
       <r>   20.6350    0.0000 </r>
      </set>
      <set comment="kpoint 5">
       <r>  -45.9053    1.0000 </r>
       <r>   -2.8383    1.0000 </r>
       <r>    5.4343    0.0000 </r>
       <r>   14.6536    0.0000 </r>
       <r>   17.8581    0.0000 </r>
       <r>   17.8586    0.0000 </r>
       <r>   19.5256    0.0000 </r>
       <r>   19.5256    0.0000 </r>
      </set>
      <set comment="kpoint 6">
       <r>  -45.9404    1.0000 </r>
       <r>   -5.2605    1.0000 </r>
       <r>   15.2254    0.0000 </r>
       <r>   16.6077    0.0000 </r>
       <r>   16.6079    0.0000 </r>
       <r>   20.1465    0.0000 </r>
       <r>   20.2931    0.0000 </r>
       <r>   25.5349    0.0000 </r>
      </set>
      <set comment="kpoint 7">
       <r>  -45.9281    1.0000 </r>
       <r>   -4.6091    1.0000 </r>
       <r>   11.7521    0.0000 </r>
       <r>   14.7845    0.0000 </r>
       <r>   15.3929    0.0000 </r>
       <r>   19.5128    0.0000 </r>
       <r>   21.2046    0.0000 </r>
       <r>   24.2946    0.0000 </r>
      </set>
      <set comment="kpoint 8">
       <r>  -45.9127    1.0000 </r>
       <r>   -3.5396    1.0000 </r>
       <r>    7.9228    0.0000 </r>
       <r>   13.2268    0.0000 </r>
       <r>   14.9991    0.0000 </r>
       <r>   18.3099    0.0000 </r>
       <r>   22.9954    0.0000 </r>
       <r>   24.7120    0.0000 </r>
      </set>
      <set comment="kpoint 9">
       <r>  -45.9034    1.0000 </r>
       <r>   -2.5993    1.0000 </r>
       <r>    5.6569    0.0000 </r>
       <r>   12.2916    0.0000 </r>
       <r>   15.4633    0.0000 </r>
       <r>   17.2975    0.0000 </r>
       <r>   22.7895    0.0000 </r>
       <r>   23.2531    0.0000 </r>
      </set>
      <set comment="kpoint 10">
       <r>  -45.9055    1.0000 </r>
       <r>   -2.8468    1.0000 </r>
       <r>    6.1929    0.0000 </r>
       <r>   12.0491    0.0000 </r>
       <r>   16.7764    0.0000 </r>
       <r>   16.8751    0.0000 </r>
       <r>   21.6753    0.0000 </r>
       <r>   24.3270    0.0000 </r>
      </set>
      <set comment="kpoint 11">
       <r>  -45.9178    1.0000 </r>
       <r>   -3.9443    1.0000 </r>
       <r>    9.1830    0.0000 </r>
       <r>   12.4738    0.0000 </r>
       <r>   17.1831    0.0000 </r>
       <r>   18.7940    0.0000 </r>
       <r>   21.4332    0.0000 </r>
       <r>   25.2940    0.0000 </r>
      </set>
      <set comment="kpoint 12">
       <r>  -45.9332    1.0000 </r>
       <r>   -4.8978    1.0000 </r>
       <r>   13.1164    0.0000 </r>
       <r>   13.8535    0.0000 </r>
       <r>   17.9532    0.0000 </r>
       <r>   19.9681    0.0000 </r>
       <r>   22.8762    0.0000 </r>
       <r>   23.5391    0.0000 </r>
      </set>
      <set comment="kpoint 13">
       <r>  -45.9202    1.0000 </r>
       <r>   -4.0814    1.0000 </r>
       <r>   11.0277    0.0000 </r>
       <r>   13.8153    0.0000 </r>
       <r>   13.8156    0.0000 </r>
       <r>   17.1745    0.0000 </r>
       <r>   19.2954    0.0000 </r>
       <r>   27.8102    0.0000 </r>
      </set>
      <set comment="kpoint 14">
       <r>  -45.9081    1.0000 </r>
       <r>   -3.0576    1.0000 </r>
       <r>    8.2638    0.0000 </r>
       <r>   11.4251    0.0000 </r>
       <r>   13.0993    0.0000 </r>
       <r>   17.9641    0.0000 </r>
       <r>   19.5098    0.0000 </r>
       <r>   28.7882    0.0000 </r>
      </set>
      <set comment="kpoint 15">
       <r>  -45.8988    1.0000 </r>
       <r>   -1.9137    1.0000 </r>
       <r>    5.8970    0.0000 </r>
       <r>    9.5220    0.0000 </r>
       <r>   13.2645    0.0000 </r>
       <r>   17.6199    0.0000 </r>
       <r>   22.7983    0.0000 </r>
       <r>   27.5601    0.0000 </r>
      </set>
      <set comment="kpoint 16">
       <r>  -45.8978    1.0000 </r>
       <r>   -1.7819    1.0000 </r>
       <r>    5.7547    0.0000 </r>
       <r>    8.6724    0.0000 </r>
       <r>   14.3144    0.0000 </r>
       <r>   17.1807    0.0000 </r>
       <r>   25.9072    0.0000 </r>
       <r>   26.5771    0.0000 </r>
      </set>
      <set comment="kpoint 17">
       <r>  -45.9057    1.0000 </r>
       <r>   -2.8555    1.0000 </r>
       <r>    8.1025    0.0000 </r>
       <r>    8.8641    0.0000 </r>
       <r>   16.2309    0.0000 </r>
       <r>   17.0800    0.0000 </r>
       <r>   24.2080    0.0000 </r>
       <r>   27.0292    0.0000 </r>
      </set>
      <set comment="kpoint 18">
       <r>  -45.9004    1.0000 </r>
       <r>   -2.0766    1.0000 </r>
       <r>    6.2587    0.0000 </r>
       <r>   12.0698    0.0000 </r>
       <r>   12.0700    0.0000 </r>
       <r>   15.3776    0.0000 </r>
       <r>   18.8608    0.0000 </r>
       <r>   33.1884    0.0000 </r>
      </set>
      <set comment="kpoint 19">
       <r>  -45.8942    1.0000 </r>
       <r>   -0.9083    1.0000 </r>
       <r>    4.4946    0.0000 </r>
       <r>    9.9340    0.0000 </r>
       <r>   11.9290    0.0000 </r>
       <r>   17.0382    0.0000 </r>
       <r>   19.1629    0.0000 </r>
       <r>   32.9666    0.0000 </r>
      </set>
      <set comment="kpoint 20">
       <r>  -45.8931    1.0000 </r>
       <r>   -0.7306    1.0000 </r>
       <r>    4.5546    0.0000 </r>
       <r>    8.1506    0.0000 </r>
       <r>   12.6795    0.0000 </r>
       <r>   17.5462    0.0000 </r>
       <r>   22.4549    0.0000 </r>
       <r>   30.1067    0.0000 </r>
      </set>
      <set comment="kpoint 21">
       <r>  -45.8921    1.0000 </r>
       <r>   -0.2178    1.0000 </r>
       <r>    3.3652    0.0000 </r>
       <r>   11.4827    0.0000 </r>
       <r>   11.4829    0.0000 </r>
       <r>   14.7777    0.0000 </r>
       <r>   18.8618    0.0000 </r>
       <r>   37.0695    0.0000 </r>
      </set>
      <set comment="kpoint 22">
       <r>  -45.9159    1.0000 </r>
       <r>   -3.7778    1.0000 </r>
       <r>   10.1545    0.0000 </r>
       <r>   10.9875    0.0000 </r>
       <r>   15.1434    0.0000 </r>
       <r>   19.1484    0.0000 </r>
       <r>   21.1847    0.0000 </r>
       <r>   24.7199    0.0000 </r>
      </set>
      <set comment="kpoint 23">
       <r>  -45.9037    1.0000 </r>
       <r>   -2.6109    1.0000 </r>
       <r>    7.0670    0.0000 </r>
       <r>    9.7208    0.0000 </r>
       <r>   14.4530    0.0000 </r>
       <r>   18.1707    0.0000 </r>
       <r>   23.4273    0.0000 </r>
       <r>   25.5065    0.0000 </r>
      </set>
      <set comment="kpoint 24">
       <r>  -45.8987    1.0000 </r>
       <r>   -1.9149    1.0000 </r>
       <r>    5.5848    0.0000 </r>
       <r>    9.4067    0.0000 </r>
       <r>   14.1943    0.0000 </r>
       <r>   17.7095    0.0000 </r>
       <r>   24.0923    0.0000 </r>
       <r>   27.4892    0.0000 </r>
      </set>
      <set comment="kpoint 25">
       <r>  -45.8990    1.0000 </r>
       <r>   -1.9141    1.0000 </r>
       <r>    6.3837    0.0000 </r>
       <r>    9.2203    0.0000 </r>
       <r>   12.7487    0.0000 </r>
       <r>   18.8718    0.0000 </r>
       <r>   19.4237    0.0000 </r>
       <r>   28.8198    0.0000 </r>
      </set>
      <set comment="kpoint 26">
       <r>  -45.8939    1.0000 </r>
       <r>   -0.9748    1.0000 </r>
       <r>    5.2678    0.0000 </r>
       <r>    7.5101    0.0000 </r>
       <r>   12.8417    0.0000 </r>
       <r>   18.4187    0.0000 </r>
       <r>   22.9202    0.0000 </r>
       <r>   28.1010    0.0000 </r>
      </set>
      <set comment="kpoint 27">
       <r>  -45.8959    1.0000 </r>
       <r>   -1.4265    1.0000 </r>
       <r>    6.3296    0.0000 </r>
       <r>    7.0530    0.0000 </r>
       <r>   13.5049    0.0000 </r>
       <r>   18.1978    0.0000 </r>
       <r>   25.8866    0.0000 </r>
       <r>   26.0841    0.0000 </r>
      </set>
      <set comment="kpoint 28">
       <r>  -45.8921    1.0000 </r>
       <r>   -0.3413    1.0000 </r>
       <r>    3.9599    0.0000 </r>
       <r>    8.6276    0.0000 </r>
       <r>   12.0525    0.0000 </r>
       <r>   18.8314    0.0000 </r>
       <r>   18.9505    0.0000 </r>
       <r>   31.8753    0.0000 </r>
      </set>
      <set comment="kpoint 29">
       <r>  -45.8918    1.0000 </r>
       <r>   -0.4590    1.0000 </r>
       <r>    5.7354    0.0000 </r>
       <r>    5.7355    0.0000 </r>
       <r>   12.6656    0.0000 </r>
       <r>   19.0784    0.0000 </r>
       <r>   25.3117    0.0000 </r>
       <r>   25.3117    0.0000 </r>
      </set>
     </set>
     <set comment="spin 2">
      <set comment="kpoint 1">
       <r>  -45.9489    1.0000 </r>
       <r>   -5.6410    1.0000 </r>
       <r>   17.3172    0.0000 </r>
       <r>   19.0906    0.0000 </r>
       <r>   19.0906    0.0000 </r>
       <r>   19.0911    0.0000 </r>
       <r>   23.5213    0.0000 </r>
       <r>   23.5214    0.0000 </r>
      </set>
      <set comment="kpoint 2">
       <r>  -45.9425    1.0000 </r>
       <r>   -5.3612    1.0000 </r>
       <r>   14.7474    0.0000 </r>
       <r>   17.7376    0.0000 </r>
       <r>   18.4649    0.0000 </r>
       <r>   18.4653    0.0000 </r>
       <r>   23.4539    0.0000 </r>
       <r>   24.9237    0.0000 </r>
      </set>
      <set comment="kpoint 3">
       <r>  -45.9271    1.0000 </r>
       <r>   -4.5626    1.0000 </r>
       <r>   10.3631    0.0000 </r>
       <r>   16.1522    0.0000 </r>
       <r>   17.7383    0.0000 </r>
       <r>   17.7387    0.0000 </r>
       <r>   23.0691    0.0000 </r>
       <r>   23.0693    0.0000 </r>
      </set>
      <set comment="kpoint 4">
       <r>  -45.9117    1.0000 </r>
       <r>   -3.4676    1.0000 </r>
       <r>    6.8797    0.0000 </r>
       <r>   15.0445    0.0000 </r>
       <r>   17.6154    0.0000 </r>
       <r>   17.6158    0.0000 </r>
       <r>   20.6349    0.0000 </r>
       <r>   20.6350    0.0000 </r>
      </set>
      <set comment="kpoint 5">
       <r>  -45.9053    1.0000 </r>
       <r>   -2.8383    1.0000 </r>
       <r>    5.4343    0.0000 </r>
       <r>   14.6536    0.0000 </r>
       <r>   17.8581    0.0000 </r>
       <r>   17.8586    0.0000 </r>
       <r>   19.5256    0.0000 </r>
       <r>   19.5256    0.0000 </r>
      </set>
      <set comment="kpoint 6">
       <r>  -45.9404    1.0000 </r>
       <r>   -5.2605    1.0000 </r>
       <r>   15.2254    0.0000 </r>
       <r>   16.6077    0.0000 </r>
       <r>   16.6079    0.0000 </r>
       <r>   20.1465    0.0000 </r>
       <r>   20.2931    0.0000 </r>
       <r>   25.5349    0.0000 </r>
      </set>
      <set comment="kpoint 7">
       <r>  -45.9281    1.0000 </r>
       <r>   -4.6091    1.0000 </r>
       <r>   11.7521    0.0000 </r>
       <r>   14.7845    0.0000 </r>
       <r>   15.3929    0.0000 </r>
       <r>   19.5128    0.0000 </r>
       <r>   21.2046    0.0000 </r>
       <r>   24.2946    0.0000 </r>
      </set>
      <set comment="kpoint 8">
       <r>  -45.9127    1.0000 </r>
       <r>   -3.5396    1.0000 </r>
       <r>    7.9228    0.0000 </r>
       <r>   13.2268    0.0000 </r>
       <r>   14.9991    0.0000 </r>
       <r>   18.3099    0.0000 </r>
       <r>   22.9956    0.0000 </r>
       <r>   24.7146    0.0000 </r>
      </set>
      <set comment="kpoint 9">
       <r>  -45.9034    1.0000 </r>
       <r>   -2.5993    1.0000 </r>
       <r>    5.6569    0.0000 </r>
       <r>   12.2916    0.0000 </r>
       <r>   15.4633    0.0000 </r>
       <r>   17.2975    0.0000 </r>
       <r>   22.7895    0.0000 </r>
       <r>   23.2531    0.0000 </r>
      </set>
      <set comment="kpoint 10">
       <r>  -45.9055    1.0000 </r>
       <r>   -2.8468    1.0000 </r>
       <r>    6.1929    0.0000 </r>
       <r>   12.0491    0.0000 </r>
       <r>   16.7764    0.0000 </r>
       <r>   16.8751    0.0000 </r>
       <r>   21.6753    0.0000 </r>
       <r>   24.3270    0.0000 </r>
      </set>
      <set comment="kpoint 11">
       <r>  -45.9178    1.0000 </r>
       <r>   -3.9443    1.0000 </r>
       <r>    9.1830    0.0000 </r>
       <r>   12.4738    0.0000 </r>
       <r>   17.1831    0.0000 </r>
       <r>   18.7940    0.0000 </r>
       <r>   21.4331    0.0000 </r>
       <r>   25.2940    0.0000 </r>
      </set>
      <set comment="kpoint 12">
       <r>  -45.9332    1.0000 </r>
       <r>   -4.8978    1.0000 </r>
       <r>   13.1164    0.0000 </r>
       <r>   13.8535    0.0000 </r>
       <r>   17.9532    0.0000 </r>
       <r>   19.9681    0.0000 </r>
       <r>   22.8762    0.0000 </r>
       <r>   23.5391    0.0000 </r>
      </set>
      <set comment="kpoint 13">
       <r>  -45.9202    1.0000 </r>
       <r>   -4.0814    1.0000 </r>
       <r>   11.0277    0.0000 </r>
       <r>   13.8153    0.0000 </r>
       <r>   13.8155    0.0000 </r>
       <r>   17.1745    0.0000 </r>
       <r>   19.2954    0.0000 </r>
       <r>   27.8102    0.0000 </r>
      </set>
      <set comment="kpoint 14">
       <r>  -45.9081    1.0000 </r>
       <r>   -3.0576    1.0000 </r>
       <r>    8.2638    0.0000 </r>
       <r>   11.4251    0.0000 </r>
       <r>   13.0993    0.0000 </r>
       <r>   17.9641    0.0000 </r>
       <r>   19.5098    0.0000 </r>
       <r>   28.7870    0.0000 </r>
      </set>
      <set comment="kpoint 15">
       <r>  -45.8988    1.0000 </r>
       <r>   -1.9137    1.0000 </r>
       <r>    5.8970    0.0000 </r>
       <r>    9.5220    0.0000 </r>
       <r>   13.2645    0.0000 </r>
       <r>   17.6199    0.0000 </r>
       <r>   22.7983    0.0000 </r>
       <r>   27.5601    0.0000 </r>
      </set>
      <set comment="kpoint 16">
       <r>  -45.8978    1.0000 </r>
       <r>   -1.7819    1.0000 </r>
       <r>    5.7547    0.0000 </r>
       <r>    8.6724    0.0000 </r>
       <r>   14.3144    0.0000 </r>
       <r>   17.1807    0.0000 </r>
       <r>   25.9072    0.0000 </r>
       <r>   26.5771    0.0000 </r>
      </set>
      <set comment="kpoint 17">
       <r>  -45.9057    1.0000 </r>
       <r>   -2.8555    1.0000 </r>
       <r>    8.1025    0.0000 </r>
       <r>    8.8641    0.0000 </r>
       <r>   16.2309    0.0000 </r>
       <r>   17.0800    0.0000 </r>
       <r>   24.2080    0.0000 </r>
       <r>   27.0292    0.0000 </r>
      </set>
      <set comment="kpoint 18">
       <r>  -45.9004    1.0000 </r>
       <r>   -2.0766    1.0000 </r>
       <r>    6.2587    0.0000 </r>
       <r>   12.0698    0.0000 </r>
       <r>   12.0700    0.0000 </r>
       <r>   15.3776    0.0000 </r>
       <r>   18.8608    0.0000 </r>
       <r>   33.1889    0.0000 </r>
      </set>
      <set comment="kpoint 19">
       <r>  -45.8942    1.0000 </r>
       <r>   -0.9083    1.0000 </r>
       <r>    4.4946    0.0000 </r>
       <r>    9.9340    0.0000 </r>
       <r>   11.9290    0.0000 </r>
       <r>   17.0382    0.0000 </r>
       <r>   19.1629    0.0000 </r>
       <r>   32.9723    0.0000 </r>
      </set>
      <set comment="kpoint 20">
       <r>  -45.8931    1.0000 </r>
       <r>   -0.7306    1.0000 </r>
       <r>    4.5546    0.0000 </r>
       <r>    8.1506    0.0000 </r>
       <r>   12.6795    0.0000 </r>
       <r>   17.5462    0.0000 </r>
       <r>   22.4549    0.0000 </r>
       <r>   30.1067    0.0000 </r>
      </set>
      <set comment="kpoint 21">
       <r>  -45.8921    1.0000 </r>
       <r>   -0.2178    1.0000 </r>
       <r>    3.3652    0.0000 </r>
       <r>   11.4827    0.0000 </r>
       <r>   11.4829    0.0000 </r>
       <r>   14.7777    0.0000 </r>
       <r>   18.8618    0.0000 </r>
       <r>   37.5243    0.0000 </r>
      </set>
      <set comment="kpoint 22">
       <r>  -45.9159    1.0000 </r>
       <r>   -3.7778    1.0000 </r>
       <r>   10.1545    0.0000 </r>
       <r>   10.9875    0.0000 </r>
       <r>   15.1434    0.0000 </r>
       <r>   19.1484    0.0000 </r>
       <r>   21.1847    0.0000 </r>
       <r>   24.7199    0.0000 </r>
      </set>
      <set comment="kpoint 23">
       <r>  -45.9037    1.0000 </r>
       <r>   -2.6109    1.0000 </r>
       <r>    7.0670    0.0000 </r>
       <r>    9.7208    0.0000 </r>
       <r>   14.4530    0.0000 </r>
       <r>   18.1707    0.0000 </r>
       <r>   23.4273    0.0000 </r>
       <r>   25.5065    0.0000 </r>
      </set>
      <set comment="kpoint 24">
       <r>  -45.8987    1.0000 </r>
       <r>   -1.9149    1.0000 </r>
       <r>    5.5848    0.0000 </r>
       <r>    9.4067    0.0000 </r>
       <r>   14.1943    0.0000 </r>
       <r>   17.7095    0.0000 </r>
       <r>   24.0923    0.0000 </r>
       <r>   27.4892    0.0000 </r>
      </set>
      <set comment="kpoint 25">
       <r>  -45.8990    1.0000 </r>
       <r>   -1.9141    1.0000 </r>
       <r>    6.3837    0.0000 </r>
       <r>    9.2203    0.0000 </r>
       <r>   12.7487    0.0000 </r>
       <r>   18.8718    0.0000 </r>
       <r>   19.4237    0.0000 </r>
       <r>   28.8198    0.0000 </r>
      </set>
      <set comment="kpoint 26">
       <r>  -45.8939    1.0000 </r>
       <r>   -0.9748    1.0000 </r>
       <r>    5.2678    0.0000 </r>
       <r>    7.5101    0.0000 </r>
       <r>   12.8417    0.0000 </r>
       <r>   18.4187    0.0000 </r>
       <r>   22.9202    0.0000 </r>
       <r>   28.1007    0.0000 </r>
      </set>
      <set comment="kpoint 27">
       <r>  -45.8959    1.0000 </r>
       <r>   -1.4265    1.0000 </r>
       <r>    6.3296    0.0000 </r>
       <r>    7.0530    0.0000 </r>
       <r>   13.5049    0.0000 </r>
       <r>   18.1978    0.0000 </r>
       <r>   25.8866    0.0000 </r>
       <r>   26.0841    0.0000 </r>
      </set>
      <set comment="kpoint 28">
       <r>  -45.8921    1.0000 </r>
       <r>   -0.3413    1.0000 </r>
       <r>    3.9599    0.0000 </r>
       <r>    8.6276    0.0000 </r>
       <r>   12.0525    0.0000 </r>
       <r>   18.8314    0.0000 </r>
       <r>   18.9505    0.0000 </r>
       <r>   31.8749    0.0000 </r>
      </set>
      <set comment="kpoint 29">
       <r>  -45.8918    1.0000 </r>
       <r>   -0.4590    1.0000 </r>
       <r>    5.7354    0.0000 </r>
       <r>    5.7355    0.0000 </r>
       <r>   12.6656    0.0000 </r>
       <r>   19.0784    0.0000 </r>
       <r>   25.3117    0.0000 </r>
       <r>   25.3117    0.0000 </r>
      </set>
     </set>
    </set>
   </array>
  </eigenvalues>
  <separator name="orbital magnetization" >
   <v name="MAGDIPOLOUT">      0.00000000      0.00000000      0.00000000</v>
  </separator>
  <dos>
   <i name="efermi">      3.36526658 </i>
   <total>
    <array>
     <dimension dim="1">gridpoints</dimension>
     <dimension dim="2">spin</dimension>
     <field>energy</field>
     <field>total</field>
     <field>integrated</field>
     <set>
      <set comment="spin 1">
       <r>   -50.1226     0.0000     0.0000 </r>
       <r>   -49.8165     0.0000     0.0000 </r>
       <r>   -49.5104     0.0000     0.0000 </r>
       <r>   -49.2044     0.0000     0.0000 </r>
       <r>   -48.8983     0.0000     0.0000 </r>
       <r>   -48.5922     0.0000     0.0000 </r>
       <r>   -48.2862     0.0000     0.0000 </r>
       <r>   -47.9801     0.0000     0.0000 </r>
       <r>   -47.6740     0.0000     0.0000 </r>
       <r>   -47.3680     0.0000     0.0000 </r>
       <r>   -47.0619     0.0000     0.0000 </r>
       <r>   -46.7558     0.0000     0.0000 </r>
       <r>   -46.4498     0.0000     0.0000 </r>
       <r>   -46.1437     0.0000     0.0000 </r>
       <r>   -45.8376     3.2672     1.0000 </r>
       <r>   -45.5315     0.0000     1.0000 </r>
       <r>   -45.2255     0.0000     1.0000 </r>
       <r>   -44.9194     0.0000     1.0000 </r>
       <r>   -44.6133     0.0000     1.0000 </r>
       <r>   -44.3073     0.0000     1.0000 </r>
       <r>   -44.0012     0.0000     1.0000 </r>
       <r>   -43.6951     0.0000     1.0000 </r>
       <r>   -43.3891     0.0000     1.0000 </r>
       <r>   -43.0830     0.0000     1.0000 </r>
       <r>   -42.7769     0.0000     1.0000 </r>
       <r>   -42.4709     0.0000     1.0000 </r>
       <r>   -42.1648     0.0000     1.0000 </r>
       <r>   -41.8587     0.0000     1.0000 </r>
       <r>   -41.5527     0.0000     1.0000 </r>
       <r>   -41.2466     0.0000     1.0000 </r>
       <r>   -40.9405     0.0000     1.0000 </r>
       <r>   -40.6345     0.0000     1.0000 </r>
       <r>   -40.3284     0.0000     1.0000 </r>
       <r>   -40.0223     0.0000     1.0000 </r>
       <r>   -39.7162     0.0000     1.0000 </r>
       <r>   -39.4102     0.0000     1.0000 </r>
       <r>   -39.1041     0.0000     1.0000 </r>
       <r>   -38.7980     0.0000     1.0000 </r>
       <r>   -38.4920     0.0000     1.0000 </r>
       <r>   -38.1859     0.0000     1.0000 </r>
       <r>   -37.8798     0.0000     1.0000 </r>
       <r>   -37.5738     0.0000     1.0000 </r>
       <r>   -37.2677     0.0000     1.0000 </r>
       <r>   -36.9616     0.0000     1.0000 </r>
       <r>   -36.6556     0.0000     1.0000 </r>
       <r>   -36.3495     0.0000     1.0000 </r>
       <r>   -36.0434     0.0000     1.0000 </r>
       <r>   -35.7374     0.0000     1.0000 </r>
       <r>   -35.4313     0.0000     1.0000 </r>
       <r>   -35.1252     0.0000     1.0000 </r>
       <r>   -34.8192     0.0000     1.0000 </r>
       <r>   -34.5131     0.0000     1.0000 </r>
       <r>   -34.2070     0.0000     1.0000 </r>
       <r>   -33.9009     0.0000     1.0000 </r>
       <r>   -33.5949     0.0000     1.0000 </r>
       <r>   -33.2888     0.0000     1.0000 </r>
       <r>   -32.9827     0.0000     1.0000 </r>
       <r>   -32.6767     0.0000     1.0000 </r>
       <r>   -32.3706     0.0000     1.0000 </r>
       <r>   -32.0645     0.0000     1.0000 </r>
       <r>   -31.7585     0.0000     1.0000 </r>
       <r>   -31.4524     0.0000     1.0000 </r>
       <r>   -31.1463     0.0000     1.0000 </r>
       <r>   -30.8403     0.0000     1.0000 </r>
       <r>   -30.5342     0.0000     1.0000 </r>
       <r>   -30.2281     0.0000     1.0000 </r>
       <r>   -29.9221     0.0000     1.0000 </r>
       <r>   -29.6160     0.0000     1.0000 </r>
       <r>   -29.3099     0.0000     1.0000 </r>
       <r>   -29.0038     0.0000     1.0000 </r>
       <r>   -28.6978     0.0000     1.0000 </r>
       <r>   -28.3917     0.0000     1.0000 </r>
       <r>   -28.0856     0.0000     1.0000 </r>
       <r>   -27.7796     0.0000     1.0000 </r>
       <r>   -27.4735     0.0000     1.0000 </r>
       <r>   -27.1674     0.0000     1.0000 </r>
       <r>   -26.8614     0.0000     1.0000 </r>
       <r>   -26.5553     0.0000     1.0000 </r>
       <r>   -26.2492     0.0000     1.0000 </r>
       <r>   -25.9432     0.0000     1.0000 </r>
       <r>   -25.6371     0.0000     1.0000 </r>
       <r>   -25.3310     0.0000     1.0000 </r>
       <r>   -25.0250     0.0000     1.0000 </r>
       <r>   -24.7189     0.0000     1.0000 </r>
       <r>   -24.4128     0.0000     1.0000 </r>
       <r>   -24.1068     0.0000     1.0000 </r>
       <r>   -23.8007     0.0000     1.0000 </r>
       <r>   -23.4946     0.0000     1.0000 </r>
       <r>   -23.1885     0.0000     1.0000 </r>
       <r>   -22.8825     0.0000     1.0000 </r>
       <r>   -22.5764     0.0000     1.0000 </r>
       <r>   -22.2703     0.0000     1.0000 </r>
       <r>   -21.9643     0.0000     1.0000 </r>
       <r>   -21.6582     0.0000     1.0000 </r>
       <r>   -21.3521     0.0000     1.0000 </r>
       <r>   -21.0461     0.0000     1.0000 </r>
       <r>   -20.7400     0.0000     1.0000 </r>
       <r>   -20.4339     0.0000     1.0000 </r>
       <r>   -20.1279     0.0000     1.0000 </r>
       <r>   -19.8218     0.0000     1.0000 </r>
       <r>   -19.5157     0.0000     1.0000 </r>
       <r>   -19.2097     0.0000     1.0000 </r>
       <r>   -18.9036     0.0000     1.0000 </r>
       <r>   -18.5975     0.0000     1.0000 </r>
       <r>   -18.2914     0.0000     1.0000 </r>
       <r>   -17.9854     0.0000     1.0000 </r>
       <r>   -17.6793     0.0000     1.0000 </r>
       <r>   -17.3732     0.0000     1.0000 </r>
       <r>   -17.0672     0.0000     1.0000 </r>
       <r>   -16.7611     0.0000     1.0000 </r>
       <r>   -16.4550     0.0000     1.0000 </r>
       <r>   -16.1490     0.0000     1.0000 </r>
       <r>   -15.8429     0.0000     1.0000 </r>
       <r>   -15.5368     0.0000     1.0000 </r>
       <r>   -15.2308     0.0000     1.0000 </r>
       <r>   -14.9247     0.0000     1.0000 </r>
       <r>   -14.6186     0.0000     1.0000 </r>
       <r>   -14.3126     0.0000     1.0000 </r>
       <r>   -14.0065     0.0000     1.0000 </r>
       <r>   -13.7004     0.0000     1.0000 </r>
       <r>   -13.3944     0.0000     1.0000 </r>
       <r>   -13.0883     0.0000     1.0000 </r>
       <r>   -12.7822     0.0000     1.0000 </r>
       <r>   -12.4761     0.0000     1.0000 </r>
       <r>   -12.1701     0.0000     1.0000 </r>
       <r>   -11.8640     0.0000     1.0000 </r>
       <r>   -11.5579     0.0000     1.0000 </r>
       <r>   -11.2519     0.0000     1.0000 </r>
       <r>   -10.9458     0.0000     1.0000 </r>
       <r>   -10.6397     0.0000     1.0000 </r>
       <r>   -10.3337     0.0000     1.0000 </r>
       <r>   -10.0276     0.0000     1.0000 </r>
       <r>    -9.7215     0.0000     1.0000 </r>
       <r>    -9.4155     0.0000     1.0000 </r>
       <r>    -9.1094     0.0000     1.0000 </r>
       <r>    -8.8033     0.0000     1.0000 </r>
       <r>    -8.4973     0.0000     1.0000 </r>
       <r>    -8.1912     0.0000     1.0000 </r>
       <r>    -7.8851     0.0000     1.0000 </r>
       <r>    -7.5791     0.0000     1.0000 </r>
       <r>    -7.2730     0.0000     1.0000 </r>
       <r>    -6.9669     0.0000     1.0000 </r>
       <r>    -6.6608     0.0000     1.0000 </r>
       <r>    -6.3548     0.0000     1.0000 </r>
       <r>    -6.0487     0.0000     1.0000 </r>
       <r>    -5.7426     0.0000     1.0000 </r>
       <r>    -5.4366     0.0329     1.0022 </r>
       <r>    -5.1305     0.0664     1.0192 </r>
       <r>    -4.8244     0.0970     1.0442 </r>
       <r>    -4.5184     0.1110     1.0762 </r>
       <r>    -4.2123     0.1325     1.1134 </r>
       <r>    -3.9062     0.1550     1.1575 </r>
       <r>    -3.6002     0.1749     1.2078 </r>
       <r>    -3.2941     0.2059     1.2656 </r>
       <r>    -2.9880     0.2497     1.3351 </r>
       <r>    -2.6820     0.3490     1.4262 </r>
       <r>    -2.3759     0.2936     1.5197 </r>
       <r>    -2.0698     0.2848     1.6082 </r>
       <r>    -1.7637     0.2619     1.6923 </r>
       <r>    -1.4577     0.2545     1.7717 </r>
       <r>    -1.1516     0.2526     1.8485 </r>
       <r>    -0.8455     0.2705     1.9281 </r>
       <r>    -0.5395     0.1033     1.9894 </r>
       <r>    -0.2334     0.0002     2.0000 </r>
       <r>     0.0727     0.0000     2.0000 </r>
       <r>     0.3787     0.0000     2.0000 </r>
       <r>     0.6848     0.0000     2.0000 </r>
       <r>     0.9909     0.0000     2.0000 </r>
       <r>     1.2969     0.0000     2.0000 </r>
       <r>     1.6030     0.0000     2.0000 </r>
       <r>     1.9091     0.0000     2.0000 </r>
       <r>     2.2151     0.0000     2.0000 </r>
       <r>     2.5212     0.0000     2.0000 </r>
       <r>     2.8273     0.0000     2.0000 </r>
       <r>     3.1333     0.0000     2.0000 </r>
       <r>     3.4394     0.0004     2.0000 </r>
       <r>     3.7455     0.0099     2.0012 </r>
       <r>     4.0516     0.0328     2.0074 </r>
       <r>     4.3576     0.0798     2.0239 </r>
       <r>     4.6637     0.0865     2.0511 </r>
       <r>     4.9698     0.1143     2.0816 </r>
       <r>     5.2758     0.1534     2.1218 </r>
       <r>     5.5819     0.3482     2.1967 </r>
       <r>     5.8880     0.3793     2.3530 </r>
       <r>     6.1940     0.2581     2.4472 </r>
       <r>     6.5001     0.2208     2.5197 </r>
       <r>     6.8062     0.1997     2.5838 </r>
       <r>     7.1122     0.1903     2.6431 </r>
       <r>     7.4183     0.2035     2.7028 </r>
       <r>     7.7244     0.2207     2.7681 </r>
       <r>     8.0304     0.2372     2.8381 </r>
       <r>     8.3365     0.2545     2.9136 </r>
       <r>     8.6426     0.2580     2.9924 </r>
       <r>     8.9487     0.2450     3.0687 </r>
       <r>     9.2547     0.2403     3.1433 </r>
       <r>     9.5608     0.2267     3.2149 </r>
       <r>     9.8669     0.2153     3.2828 </r>
       <r>    10.1729     0.2019     3.3465 </r>
       <r>    10.4790     0.1909     3.4066 </r>
       <r>    10.7851     0.1803     3.4634 </r>
       <r>    11.0911     0.1702     3.5170 </r>
       <r>    11.3972     0.1581     3.5674 </r>
       <r>    11.7033     0.1739     3.6158 </r>
       <r>    12.0093     0.2311     3.6828 </r>
       <r>    12.3154     0.2780     3.7593 </r>
       <r>    12.6215     0.3380     3.8534 </r>
       <r>    12.9275     0.3977     3.9706 </r>
       <r>    13.2336     0.3259     4.0798 </r>
       <r>    13.5397     0.3077     4.1759 </r>
       <r>    13.8457     0.3000     4.2691 </r>
       <r>    14.1518     0.2868     4.3590 </r>
       <r>    14.4579     0.2442     4.4405 </r>
       <r>    14.7640     0.2369     4.5141 </r>
       <r>    15.0700     0.2216     4.5842 </r>
       <r>    15.3761     0.2072     4.6500 </r>
       <r>    15.6822     0.1936     4.7114 </r>
       <r>    15.9882     0.1827     4.7688 </r>
       <r>    16.2943     0.1761     4.8237 </r>
       <r>    16.6004     0.1684     4.8765 </r>
       <r>    16.9064     0.1597     4.9264 </r>
       <r>    17.2125     0.4082     5.0027 </r>
       <r>    17.5186     0.5983     5.1667 </r>
       <r>    17.8246     0.5845     5.3472 </r>
       <r>    18.1307     0.6052     5.5330 </r>
       <r>    18.4368     0.5390     5.7072 </r>
       <r>    18.7428     0.3305     5.8432 </r>
       <r>    19.0489     0.3324     5.9274 </r>
       <r>    19.3550     0.2414     6.0163 </r>
       <r>    19.6610     0.1500     6.0734 </r>
       <r>    19.9671     0.0968     6.1116 </r>
       <r>    20.2732     0.0878     6.1378 </r>
       <r>    20.5793     0.1020     6.1668 </r>
       <r>    20.8853     0.1189     6.2005 </r>
       <r>    21.1914     0.1420     6.2402 </r>
       <r>    21.4975     0.2411     6.3024 </r>
       <r>    21.8035     0.2558     6.3787 </r>
       <r>    22.1096     0.2635     6.4583 </r>
       <r>    22.4157     0.2652     6.5394 </r>
       <r>    22.7217     0.2620     6.6202 </r>
       <r>    23.0278     0.3052     6.7109 </r>
       <r>    23.3339     0.2413     6.7930 </r>
       <r>    23.6399     0.2253     6.8632 </r>
       <r>    23.9460     0.2423     6.9343 </r>
       <r>    24.2521     0.2775     7.0135 </r>
       <r>    24.5581     0.2949     7.1009 </r>
       <r>    24.8642     0.3084     7.1954 </r>
       <r>    25.1703     0.2484     7.2818 </r>
       <r>    25.4764     0.1884     7.3473 </r>
       <r>    25.7824     0.1823     7.4036 </r>
       <r>    26.0885     0.1759     7.4570 </r>
       <r>    26.3946     0.1950     7.5140 </r>
       <r>    26.7006     0.1809     7.5739 </r>
       <r>    27.0067     0.1617     7.6251 </r>
       <r>    27.3128     0.1704     7.6758 </r>
       <r>    27.6188     0.1603     7.7285 </r>
       <r>    27.9249     0.1108     7.7698 </r>
       <r>    28.2310     0.0796     7.7979 </r>
       <r>    28.5370     0.0664     7.8201 </r>
       <r>    28.8431     0.0563     7.8388 </r>
       <r>    29.1492     0.0516     7.8553 </r>
       <r>    29.4552     0.0475     7.8704 </r>
       <r>    29.7613     0.0438     7.8844 </r>
       <r>    30.0674     0.0408     7.8973 </r>
       <r>    30.3734     0.0381     7.9094 </r>
       <r>    30.6795     0.0354     7.9206 </r>
       <r>    30.9856     0.0328     7.9311 </r>
       <r>    31.2917     0.0302     7.9407 </r>
       <r>    31.5977     0.0277     7.9496 </r>
       <r>    31.9038     0.0253     7.9577 </r>
       <r>    32.2099     0.0227     7.9651 </r>
       <r>    32.5159     0.0198     7.9716 </r>
       <r>    32.8220     0.0166     7.9771 </r>
       <r>    33.1281     0.0139     7.9817 </r>
       <r>    33.4341     0.0118     7.9857 </r>
       <r>    33.7402     0.0099     7.9890 </r>
       <r>    34.0463     0.0082     7.9918 </r>
       <r>    34.3523     0.0066     7.9940 </r>
       <r>    34.6584     0.0052     7.9958 </r>
       <r>    34.9645     0.0040     7.9972 </r>
       <r>    35.2705     0.0029     7.9983 </r>
       <r>    35.5766     0.0020     7.9990 </r>
       <r>    35.8827     0.0013     7.9995 </r>
       <r>    36.1888     0.0007     7.9998 </r>
       <r>    36.4948     0.0003     7.9999 </r>
       <r>    36.8009     0.0001     8.0000 </r>
       <r>    37.1070     0.0000     8.0000 </r>
       <r>    37.4130     0.0000     8.0000 </r>
       <r>    37.7191     0.0000     8.0000 </r>
       <r>    38.0252     0.0000     8.0000 </r>
       <r>    38.3312     0.0000     8.0000 </r>
       <r>    38.6373     0.0000     8.0000 </r>
       <r>    38.9434     0.0000     8.0000 </r>
       <r>    39.2494     0.0000     8.0000 </r>
       <r>    39.5555     0.0000     8.0000 </r>
       <r>    39.8616     0.0000     8.0000 </r>
       <r>    40.1676     0.0000     8.0000 </r>
       <r>    40.4737     0.0000     8.0000 </r>
       <r>    40.7798     0.0000     8.0000 </r>
       <r>    41.0858     0.0000     8.0000 </r>
       <r>    41.3919     0.0000     8.0000 </r>
       <r>    41.6980     0.0000     8.0000 </r>
      </set>
      <set comment="spin 2">
       <r>   -50.1226     0.0000     0.0000 </r>
       <r>   -49.8165     0.0000     0.0000 </r>
       <r>   -49.5104     0.0000     0.0000 </r>
       <r>   -49.2044     0.0000     0.0000 </r>
       <r>   -48.8983     0.0000     0.0000 </r>
       <r>   -48.5922     0.0000     0.0000 </r>
       <r>   -48.2862     0.0000     0.0000 </r>
       <r>   -47.9801     0.0000     0.0000 </r>
       <r>   -47.6740     0.0000     0.0000 </r>
       <r>   -47.3680     0.0000     0.0000 </r>
       <r>   -47.0619     0.0000     0.0000 </r>
       <r>   -46.7558     0.0000     0.0000 </r>
       <r>   -46.4498     0.0000     0.0000 </r>
       <r>   -46.1437     0.0000     0.0000 </r>
       <r>   -45.8376     3.2672     1.0000 </r>
       <r>   -45.5315     0.0000     1.0000 </r>
       <r>   -45.2255     0.0000     1.0000 </r>
       <r>   -44.9194     0.0000     1.0000 </r>
       <r>   -44.6133     0.0000     1.0000 </r>
       <r>   -44.3073     0.0000     1.0000 </r>
       <r>   -44.0012     0.0000     1.0000 </r>
       <r>   -43.6951     0.0000     1.0000 </r>
       <r>   -43.3891     0.0000     1.0000 </r>
       <r>   -43.0830     0.0000     1.0000 </r>
       <r>   -42.7769     0.0000     1.0000 </r>
       <r>   -42.4709     0.0000     1.0000 </r>
       <r>   -42.1648     0.0000     1.0000 </r>
       <r>   -41.8587     0.0000     1.0000 </r>
       <r>   -41.5527     0.0000     1.0000 </r>
       <r>   -41.2466     0.0000     1.0000 </r>
       <r>   -40.9405     0.0000     1.0000 </r>
       <r>   -40.6345     0.0000     1.0000 </r>
       <r>   -40.3284     0.0000     1.0000 </r>
       <r>   -40.0223     0.0000     1.0000 </r>
       <r>   -39.7162     0.0000     1.0000 </r>
       <r>   -39.4102     0.0000     1.0000 </r>
       <r>   -39.1041     0.0000     1.0000 </r>
       <r>   -38.7980     0.0000     1.0000 </r>
       <r>   -38.4920     0.0000     1.0000 </r>
       <r>   -38.1859     0.0000     1.0000 </r>
       <r>   -37.8798     0.0000     1.0000 </r>
       <r>   -37.5738     0.0000     1.0000 </r>
       <r>   -37.2677     0.0000     1.0000 </r>
       <r>   -36.9616     0.0000     1.0000 </r>
       <r>   -36.6556     0.0000     1.0000 </r>
       <r>   -36.3495     0.0000     1.0000 </r>
       <r>   -36.0434     0.0000     1.0000 </r>
       <r>   -35.7374     0.0000     1.0000 </r>
       <r>   -35.4313     0.0000     1.0000 </r>
       <r>   -35.1252     0.0000     1.0000 </r>
       <r>   -34.8192     0.0000     1.0000 </r>
       <r>   -34.5131     0.0000     1.0000 </r>
       <r>   -34.2070     0.0000     1.0000 </r>
       <r>   -33.9009     0.0000     1.0000 </r>
       <r>   -33.5949     0.0000     1.0000 </r>
       <r>   -33.2888     0.0000     1.0000 </r>
       <r>   -32.9827     0.0000     1.0000 </r>
       <r>   -32.6767     0.0000     1.0000 </r>
       <r>   -32.3706     0.0000     1.0000 </r>
       <r>   -32.0645     0.0000     1.0000 </r>
       <r>   -31.7585     0.0000     1.0000 </r>
       <r>   -31.4524     0.0000     1.0000 </r>
       <r>   -31.1463     0.0000     1.0000 </r>
       <r>   -30.8403     0.0000     1.0000 </r>
       <r>   -30.5342     0.0000     1.0000 </r>
       <r>   -30.2281     0.0000     1.0000 </r>
       <r>   -29.9221     0.0000     1.0000 </r>
       <r>   -29.6160     0.0000     1.0000 </r>
       <r>   -29.3099     0.0000     1.0000 </r>
       <r>   -29.0038     0.0000     1.0000 </r>
       <r>   -28.6978     0.0000     1.0000 </r>
       <r>   -28.3917     0.0000     1.0000 </r>
       <r>   -28.0856     0.0000     1.0000 </r>
       <r>   -27.7796     0.0000     1.0000 </r>
       <r>   -27.4735     0.0000     1.0000 </r>
       <r>   -27.1674     0.0000     1.0000 </r>
       <r>   -26.8614     0.0000     1.0000 </r>
       <r>   -26.5553     0.0000     1.0000 </r>
       <r>   -26.2492     0.0000     1.0000 </r>
       <r>   -25.9432     0.0000     1.0000 </r>
       <r>   -25.6371     0.0000     1.0000 </r>
       <r>   -25.3310     0.0000     1.0000 </r>
       <r>   -25.0250     0.0000     1.0000 </r>
       <r>   -24.7189     0.0000     1.0000 </r>
       <r>   -24.4128     0.0000     1.0000 </r>
       <r>   -24.1068     0.0000     1.0000 </r>
       <r>   -23.8007     0.0000     1.0000 </r>
       <r>   -23.4946     0.0000     1.0000 </r>
       <r>   -23.1885     0.0000     1.0000 </r>
       <r>   -22.8825     0.0000     1.0000 </r>
       <r>   -22.5764     0.0000     1.0000 </r>
       <r>   -22.2703     0.0000     1.0000 </r>
       <r>   -21.9643     0.0000     1.0000 </r>
       <r>   -21.6582     0.0000     1.0000 </r>
       <r>   -21.3521     0.0000     1.0000 </r>
       <r>   -21.0461     0.0000     1.0000 </r>
       <r>   -20.7400     0.0000     1.0000 </r>
       <r>   -20.4339     0.0000     1.0000 </r>
       <r>   -20.1279     0.0000     1.0000 </r>
       <r>   -19.8218     0.0000     1.0000 </r>
       <r>   -19.5157     0.0000     1.0000 </r>
       <r>   -19.2097     0.0000     1.0000 </r>
       <r>   -18.9036     0.0000     1.0000 </r>
       <r>   -18.5975     0.0000     1.0000 </r>
       <r>   -18.2914     0.0000     1.0000 </r>
       <r>   -17.9854     0.0000     1.0000 </r>
       <r>   -17.6793     0.0000     1.0000 </r>
       <r>   -17.3732     0.0000     1.0000 </r>
       <r>   -17.0672     0.0000     1.0000 </r>
       <r>   -16.7611     0.0000     1.0000 </r>
       <r>   -16.4550     0.0000     1.0000 </r>
       <r>   -16.1490     0.0000     1.0000 </r>
       <r>   -15.8429     0.0000     1.0000 </r>
       <r>   -15.5368     0.0000     1.0000 </r>
       <r>   -15.2308     0.0000     1.0000 </r>
       <r>   -14.9247     0.0000     1.0000 </r>
       <r>   -14.6186     0.0000     1.0000 </r>
       <r>   -14.3126     0.0000     1.0000 </r>
       <r>   -14.0065     0.0000     1.0000 </r>
       <r>   -13.7004     0.0000     1.0000 </r>
       <r>   -13.3944     0.0000     1.0000 </r>
       <r>   -13.0883     0.0000     1.0000 </r>
       <r>   -12.7822     0.0000     1.0000 </r>
       <r>   -12.4761     0.0000     1.0000 </r>
       <r>   -12.1701     0.0000     1.0000 </r>
       <r>   -11.8640     0.0000     1.0000 </r>
       <r>   -11.5579     0.0000     1.0000 </r>
       <r>   -11.2519     0.0000     1.0000 </r>
       <r>   -10.9458     0.0000     1.0000 </r>
       <r>   -10.6397     0.0000     1.0000 </r>
       <r>   -10.3337     0.0000     1.0000 </r>
       <r>   -10.0276     0.0000     1.0000 </r>
       <r>    -9.7215     0.0000     1.0000 </r>
       <r>    -9.4155     0.0000     1.0000 </r>
       <r>    -9.1094     0.0000     1.0000 </r>
       <r>    -8.8033     0.0000     1.0000 </r>
       <r>    -8.4973     0.0000     1.0000 </r>
       <r>    -8.1912     0.0000     1.0000 </r>
       <r>    -7.8851     0.0000     1.0000 </r>
       <r>    -7.5791     0.0000     1.0000 </r>
       <r>    -7.2730     0.0000     1.0000 </r>
       <r>    -6.9669     0.0000     1.0000 </r>
       <r>    -6.6608     0.0000     1.0000 </r>
       <r>    -6.3548     0.0000     1.0000 </r>
       <r>    -6.0487     0.0000     1.0000 </r>
       <r>    -5.7426     0.0000     1.0000 </r>
       <r>    -5.4366     0.0329     1.0022 </r>
       <r>    -5.1305     0.0664     1.0192 </r>
       <r>    -4.8244     0.0970     1.0442 </r>
       <r>    -4.5184     0.1110     1.0762 </r>
       <r>    -4.2123     0.1325     1.1134 </r>
       <r>    -3.9062     0.1550     1.1575 </r>
       <r>    -3.6002     0.1749     1.2078 </r>
       <r>    -3.2941     0.2059     1.2656 </r>
       <r>    -2.9880     0.2497     1.3351 </r>
       <r>    -2.6820     0.3490     1.4262 </r>
       <r>    -2.3759     0.2936     1.5197 </r>
       <r>    -2.0698     0.2848     1.6082 </r>
       <r>    -1.7637     0.2619     1.6923 </r>
       <r>    -1.4577     0.2545     1.7717 </r>
       <r>    -1.1516     0.2526     1.8485 </r>
       <r>    -0.8455     0.2705     1.9281 </r>
       <r>    -0.5395     0.1033     1.9894 </r>
       <r>    -0.2334     0.0002     2.0000 </r>
       <r>     0.0727     0.0000     2.0000 </r>
       <r>     0.3787     0.0000     2.0000 </r>
       <r>     0.6848     0.0000     2.0000 </r>
       <r>     0.9909     0.0000     2.0000 </r>
       <r>     1.2969     0.0000     2.0000 </r>
       <r>     1.6030     0.0000     2.0000 </r>
       <r>     1.9091     0.0000     2.0000 </r>
       <r>     2.2151     0.0000     2.0000 </r>
       <r>     2.5212     0.0000     2.0000 </r>
       <r>     2.8273     0.0000     2.0000 </r>
       <r>     3.1333     0.0000     2.0000 </r>
       <r>     3.4394     0.0004     2.0000 </r>
       <r>     3.7455     0.0099     2.0012 </r>
       <r>     4.0516     0.0328     2.0074 </r>
       <r>     4.3576     0.0798     2.0239 </r>
       <r>     4.6637     0.0865     2.0511 </r>
       <r>     4.9698     0.1143     2.0816 </r>
       <r>     5.2758     0.1534     2.1218 </r>
       <r>     5.5819     0.3482     2.1967 </r>
       <r>     5.8880     0.3793     2.3530 </r>
       <r>     6.1940     0.2581     2.4472 </r>
       <r>     6.5001     0.2208     2.5197 </r>
       <r>     6.8062     0.1997     2.5838 </r>
       <r>     7.1122     0.1903     2.6431 </r>
       <r>     7.4183     0.2035     2.7028 </r>
       <r>     7.7244     0.2207     2.7681 </r>
       <r>     8.0304     0.2372     2.8381 </r>
       <r>     8.3365     0.2545     2.9136 </r>
       <r>     8.6426     0.2580     2.9924 </r>
       <r>     8.9487     0.2450     3.0687 </r>
       <r>     9.2547     0.2403     3.1433 </r>
       <r>     9.5608     0.2267     3.2149 </r>
       <r>     9.8669     0.2153     3.2828 </r>
       <r>    10.1729     0.2019     3.3465 </r>
       <r>    10.4790     0.1909     3.4066 </r>
       <r>    10.7851     0.1803     3.4634 </r>
       <r>    11.0911     0.1702     3.5170 </r>
       <r>    11.3972     0.1581     3.5674 </r>
       <r>    11.7033     0.1739     3.6158 </r>
       <r>    12.0093     0.2311     3.6828 </r>
       <r>    12.3154     0.2780     3.7593 </r>
       <r>    12.6215     0.3380     3.8534 </r>
       <r>    12.9275     0.3977     3.9706 </r>
       <r>    13.2336     0.3259     4.0798 </r>
       <r>    13.5397     0.3077     4.1759 </r>
       <r>    13.8457     0.3000     4.2691 </r>
       <r>    14.1518     0.2868     4.3590 </r>
       <r>    14.4579     0.2442     4.4405 </r>
       <r>    14.7640     0.2369     4.5141 </r>
       <r>    15.0700     0.2216     4.5842 </r>
       <r>    15.3761     0.2072     4.6500 </r>
       <r>    15.6822     0.1936     4.7114 </r>
       <r>    15.9882     0.1827     4.7688 </r>
       <r>    16.2943     0.1761     4.8237 </r>
       <r>    16.6004     0.1684     4.8765 </r>
       <r>    16.9064     0.1597     4.9264 </r>
       <r>    17.2125     0.4082     5.0027 </r>
       <r>    17.5186     0.5983     5.1667 </r>
       <r>    17.8246     0.5845     5.3472 </r>
       <r>    18.1307     0.6052     5.5330 </r>
       <r>    18.4368     0.5390     5.7072 </r>
       <r>    18.7428     0.3305     5.8432 </r>
       <r>    19.0489     0.3324     5.9274 </r>
       <r>    19.3550     0.2414     6.0163 </r>
       <r>    19.6610     0.1500     6.0734 </r>
       <r>    19.9671     0.0968     6.1116 </r>
       <r>    20.2732     0.0878     6.1378 </r>
       <r>    20.5793     0.1020     6.1668 </r>
       <r>    20.8853     0.1189     6.2005 </r>
       <r>    21.1914     0.1420     6.2402 </r>
       <r>    21.4975     0.2411     6.3024 </r>
       <r>    21.8035     0.2558     6.3787 </r>
       <r>    22.1096     0.2635     6.4583 </r>
       <r>    22.4157     0.2652     6.5394 </r>
       <r>    22.7217     0.2620     6.6201 </r>
       <r>    23.0278     0.3052     6.7108 </r>
       <r>    23.3339     0.2413     6.7930 </r>
       <r>    23.6399     0.2253     6.8632 </r>
       <r>    23.9460     0.2423     6.9343 </r>
       <r>    24.2521     0.2775     7.0134 </r>
       <r>    24.5581     0.2947     7.1008 </r>
       <r>    24.8642     0.3085     7.1954 </r>
       <r>    25.1703     0.2486     7.2817 </r>
       <r>    25.4764     0.1884     7.3473 </r>
       <r>    25.7824     0.1824     7.4036 </r>
       <r>    26.0885     0.1759     7.4570 </r>
       <r>    26.3946     0.1950     7.5140 </r>
       <r>    26.7006     0.1809     7.5739 </r>
       <r>    27.0067     0.1617     7.6251 </r>
       <r>    27.3128     0.1705     7.6759 </r>
       <r>    27.6188     0.1604     7.7285 </r>
       <r>    27.9249     0.1108     7.7698 </r>
       <r>    28.2310     0.0796     7.7979 </r>
       <r>    28.5370     0.0664     7.8201 </r>
       <r>    28.8431     0.0563     7.8388 </r>
       <r>    29.1492     0.0516     7.8553 </r>
       <r>    29.4552     0.0474     7.8704 </r>
       <r>    29.7613     0.0438     7.8844 </r>
       <r>    30.0674     0.0408     7.8973 </r>
       <r>    30.3734     0.0380     7.9094 </r>
       <r>    30.6795     0.0354     7.9206 </r>
       <r>    30.9856     0.0328     7.9310 </r>
       <r>    31.2917     0.0302     7.9407 </r>
       <r>    31.5977     0.0277     7.9495 </r>
       <r>    31.9038     0.0253     7.9577 </r>
       <r>    32.2099     0.0226     7.9650 </r>
       <r>    32.5159     0.0195     7.9714 </r>
       <r>    32.8220     0.0161     7.9769 </r>
       <r>    33.1281     0.0128     7.9813 </r>
       <r>    33.4341     0.0111     7.9849 </r>
       <r>    33.7402     0.0095     7.9881 </r>
       <r>    34.0463     0.0080     7.9907 </r>
       <r>    34.3523     0.0067     7.9930 </r>
       <r>    34.6584     0.0054     7.9948 </r>
       <r>    34.9645     0.0043     7.9963 </r>
       <r>    35.2705     0.0034     7.9975 </r>
       <r>    35.5766     0.0025     7.9984 </r>
       <r>    35.8827     0.0018     7.9990 </r>
       <r>    36.1888     0.0012     7.9995 </r>
       <r>    36.4948     0.0007     7.9998 </r>
       <r>    36.8009     0.0003     7.9999 </r>
       <r>    37.1070     0.0001     8.0000 </r>
[...]
       </set>
       <set comment="band 5">
        <r>  0.0000  0.0000  0.1012  0.0000  0.0000  0.0000  0.0000  0.0000  0.0000 </r>
        <r>  0.0000  0.0000  0.0364  0.0000  0.0000  0.0000  0.0000  0.0000  0.0000 </r>
       </set>
       <set comment="band 6">
        <r>  0.0733  0.0024  0.0000  0.0076  0.0000  0.0000  0.0000  0.0000  0.0000 </r>
        <r>  0.0100  0.0058  0.0000  0.0029  0.0000  0.0000  0.0000  0.0000  0.0000 </r>
       </set>
       <set comment="band 7">
        <r>  0.2101  0.0579  0.0000  0.0050  0.0000  0.0000  0.0000  0.0000  0.0000 </r>
        <r>  0.0954  0.0008  0.0000  0.0003  0.0000  0.0000  0.0000  0.0000  0.0000 </r>
       </set>
       <set comment="band 8">
        <r>  0.0006  0.0002  0.2117  0.0003  0.0000  0.0000  0.0000  0.0000  0.0000 </r>
        <r>  0.0006  0.0006  0.0849  0.0000  0.0000  0.0000  0.0000  0.0000  0.0000 </r>
       </set>
      </set>
      <set comment="kpoint 20">
       <set comment="band 1">
        <r>  0.9908  0.0000  0.0000  0.0000  0.0000  0.0000  0.0000  0.0000  0.0000 </r>
        <r>  0.0000  0.0000  0.0000  0.0000  0.0000  0.0000  0.0000  0.0000  0.0000 </r>
       </set>
       <set comment="band 2">
        <r>  0.0012  0.0055  0.0000  0.0027  0.0000  0.0000  0.0000  0.0000  0.0000 </r>
        <r>  0.3545  0.0001  0.0000  0.0001  0.0000  0.0000  0.0000  0.0000  0.0000 </r>
       </set>
       <set comment="band 3">
        <r>  0.0000  0.0161  0.0000  0.0321  0.0000  0.0000  0.0000  0.0000  0.0000 </r>
        <r>  0.0000  0.0069  0.0000  0.0139  0.0000  0.0000  0.0000  0.0000  0.0000 </r>
       </set>
       <set comment="band 4">
        <r>  0.0598  0.0174  0.0000  0.0087  0.0000  0.0000  0.0000  0.0000  0.0000 </r>
        <r>  0.0285  0.0162  0.0000  0.0081  0.0000  0.0000  0.0000  0.0000  0.0000 </r>
       </set>
       <set comment="band 5">
        <r>  0.0000  0.0000  0.1044  0.0000  0.0000  0.0000  0.0000  0.0000  0.0000 </r>
        <r>  0.0000  0.0000  0.0358  0.0000  0.0000  0.0000  0.0000  0.0000  0.0000 </r>
       </set>
       <set comment="band 6">
        <r>  0.2024  0.0190  0.0000  0.0095  0.0000  0.0000  0.0000  0.0000  0.0000 </r>
        <r>  0.0759  0.0031  0.0000  0.0015  0.0000  0.0000  0.0000  0.0000  0.0000 </r>
       </set>
       <set comment="band 7">
        <r>  0.0047  0.0739  0.0000  0.0370  0.0000  0.0000  0.0000  0.0000  0.0000 </r>
        <r>  0.0544  0.0040  0.0000  0.0020  0.0000  0.0000  0.0000  0.0000  0.0000 </r>
       </set>
       <set comment="band 8">
        <r>  0.0000  0.0000  0.2092  0.0000  0.0000  0.0000  0.0000  0.0000  0.0000 </r>
        <r>  0.0000  0.0000  0.0925  0.0000  0.0000  0.0000  0.0000  0.0000  0.0000 </r>
       </set>
      </set>
      <set comment="kpoint 21">
       <set comment="band 1">
        <r>  0.9909  0.0000  0.0000  0.0000  0.0000  0.0000  0.0000  0.0000  0.0000 </r>
        <r>  0.0000  0.0000  0.0000  0.0000  0.0000  0.0000  0.0000  0.0000  0.0000 </r>
       </set>
       <set comment="band 2">
        <r>  0.0148  0.0000  0.0000  0.0000  0.0000  0.0000  0.0000  0.0000  0.0000 </r>
        <r>  0.3865  0.0000  0.0000  0.0000  0.0000  0.0000  0.0000  0.0000  0.0000 </r>
       </set>
       <set comment="band 3">
        <r>  0.0000  0.0154  0.0000  0.0307  0.0000  0.0000  0.0000  0.0000  0.0000 </r>
        <r>  0.0000  0.0068  0.0000  0.0135  0.0000  0.0000  0.0000  0.0000  0.0000 </r>
       </set>
       <set comment="band 4">
        <r>  0.0000  0.0664  0.0000  0.0332  0.0000  0.0000  0.0000  0.0000  0.0000 </r>
        <r>  0.0000  0.0243  0.0000  0.0121  0.0000  0.0000  0.0000  0.0000  0.0000 </r>
       </set>
       <set comment="band 5">
        <r>  0.0000  0.0000  0.0996  0.0000  0.0000  0.0000  0.0000  0.0000  0.0000 </r>
        <r>  0.0000  0.0000  0.0364  0.0000  0.0000  0.0000  0.0000  0.0000  0.0000 </r>
       </set>
       <set comment="band 6">
        <r>  0.0000  0.0000  0.0000  0.0000  0.0000  0.0000  0.0000  0.0000  0.0000 </r>
        <r>  0.0000  0.0000  0.0000  0.0000  0.0000  0.0000  0.0000  0.0000  0.0000 </r>
       </set>
       <set comment="band 7">
        <r>  0.3456  0.0000  0.0000  0.0000  0.0000  0.0000  0.0000  0.0000  0.0000 </r>
        <r>  0.1023  0.0000  0.0000  0.0000  0.0000  0.0000  0.0000  0.0000  0.0000 </r>
       </set>
       <set comment="band 8">
        <r>  0.0719  0.0054  0.0423  0.0030  0.0000  0.0000  0.0000  0.0000  0.0000 </r>
        <r>  0.2353  0.0021  0.0154  0.0010  0.0000  0.0000  0.0000  0.0000  0.0000 </r>
       </set>
      </set>
      <set comment="kpoint 22">
       <set comment="band 1">
        <r>  0.9896  0.0000  0.0000  0.0000  0.0000  0.0000  0.0000  0.0000  0.0000 </r>
        <r>  0.0000  0.0000  0.0000  0.0000  0.0000  0.0000  0.0000  0.0000  0.0000 </r>
       </set>
       <set comment="band 2">
        <r>  0.0360  0.0003  0.0009  0.0057  0.0000  0.0000  0.0000  0.0000  0.0000 </r>
        <r>  0.2335  0.0001  0.0001  0.0008  0.0000  0.0000  0.0000  0.0000  0.0000 </r>
       </set>
       <set comment="band 3">
        <r>  0.0597  0.0092  0.0040  0.0007  0.0000  0.0000  0.0000  0.0000  0.0000 </r>
        <r>  0.1689  0.0009  0.0038  0.0221  0.0000  0.0000  0.0000  0.0000  0.0000 </r>
       </set>
       <set comment="band 4">
        <r>  0.0000  0.0230  0.0345  0.0115  0.0000  0.0000  0.0000  0.0000  0.0000 </r>
        <r>  0.0000  0.0084  0.0127  0.0042  0.0000  0.0000  0.0000  0.0000  0.0000 </r>
       </set>
       <set comment="band 5">
        <r>  0.0228  0.0003  0.0280  0.0701  0.0000  0.0000  0.0000  0.0000  0.0000 </r>
        <r>  0.0531  0.0154  0.0131  0.0005  0.0000  0.0000  0.0000  0.0000  0.0000 </r>
       </set>
       <set comment="band 6">
        <r>  0.0664  0.1280  0.0529  0.0116  0.0000  0.0000  0.0000  0.0000  0.0000 </r>
        <r>  0.0505  0.0000  0.0000  0.0001  0.0000  0.0000  0.0000  0.0000  0.0000 </r>
       </set>
       <set comment="band 7">
        <r>  0.0000  0.0166  0.0249  0.0083  0.0000  0.0000  0.0000  0.0000  0.0000 </r>
        <r>  0.0000  0.0040  0.0061  0.0020  0.0000  0.0000  0.0000  0.0000  0.0000 </r>
       </set>
       <set comment="band 8">
        <r>  0.0134  0.0130  0.0021  0.0579  0.0000  0.0000  0.0000  0.0000  0.0000 </r>
        <r>  0.0489  0.0649  0.0221  0.0105  0.0000  0.0000  0.0000  0.0000  0.0000 </r>
       </set>
      </set>
      <set comment="kpoint 23">
       <set comment="band 1">
        <r>  0.9903  0.0000  0.0000  0.0000  0.0000  0.0000  0.0000  0.0000  0.0000 </r>
        <r>  0.0000  0.0000  0.0000  0.0000  0.0000  0.0000  0.0000  0.0000  0.0000 </r>
       </set>
       <set comment="band 2">
        <r>  0.0155  0.0000  0.0006  0.0103  0.0000  0.0000  0.0000  0.0000  0.0000 </r>
        <r>  0.2649  0.0001  0.0001  0.0008  0.0000  0.0000  0.0000  0.0000  0.0000 </r>
       </set>
       <set comment="band 3">
        <r>  0.0539  0.0212  0.0038  0.0002  0.0000  0.0000  0.0000  0.0000  0.0000 </r>
        <r>  0.0429  0.0014  0.0003  0.0222  0.0000  0.0000  0.0000  0.0000  0.0000 </r>
       </set>
       <set comment="band 4">
        <r>  0.0060  0.0010  0.0232  0.0231  0.0000  0.0000  0.0000  0.0000  0.0000 </r>
        <r>  0.0875  0.0111  0.0101  0.0018  0.0000  0.0000  0.0000  0.0000  0.0000 </r>
       </set>
       <set comment="band 5">
        <r>  0.0726  0.0127  0.0264  0.0335  0.0000  0.0000  0.0000  0.0000  0.0000 </r>
        <r>  0.0162  0.0111  0.0204  0.0002  0.0000  0.0000  0.0000  0.0000  0.0000 </r>
       </set>
       <set comment="band 6">
        <r>  0.0202  0.0905  0.0845  0.0005  0.0000  0.0000  0.0000  0.0000  0.0000 </r>
        <r>  0.0876  0.0022  0.0002  0.0001  0.0000  0.0000  0.0000  0.0000  0.0000 </r>
       </set>
       <set comment="band 7">
        <r>  0.0309  0.0080  0.0011  0.0363  0.0000  0.0000  0.0000  0.0000  0.0000 </r>
        <r>  0.0154  0.0024  0.0181  0.0062  0.0000  0.0000  0.0000  0.0000  0.0000 </r>
       </set>
       <set comment="band 8">
        <r>  0.0360  0.0890  0.0134  0.0020  0.0000  0.0000  0.0000  0.0000  0.0000 </r>
        <r>  0.0001  0.0512  0.0152  0.0006  0.0000  0.0000  0.0000  0.0000  0.0000 </r>
       </set>
      </set>
      <set comment="kpoint 24">
       <set comment="band 1">
        <r>  0.9905  0.0000  0.0000  0.0000  0.0000  0.0000  0.0000  0.0000  0.0000 </r>
        <r>  0.0000  0.0000  0.0000  0.0000  0.0000  0.0000  0.0000  0.0000  0.0000 </r>
       </set>
       <set comment="band 2">
        <r>  0.0000  0.0019  0.0001  0.0117  0.0000  0.0000  0.0000  0.0000  0.0000 </r>
        <r>  0.2957  0.0003  0.0001  0.0000  0.0000  0.0000  0.0000  0.0000  0.0000 </r>
       </set>
       <set comment="band 3">
        <r>  0.0667  0.0145  0.0054  0.0018  0.0000  0.0000  0.0000  0.0000  0.0000 </r>
        <r>  0.0000  0.0016  0.0004  0.0215  0.0000  0.0000  0.0000  0.0000  0.0000 </r>
       </set>
       <set comment="band 4">
        <r>  0.0000  0.0001  0.0147  0.0318  0.0000  0.0000  0.0000  0.0000  0.0000 </r>
        <r>  0.0999  0.0145  0.0055  0.0018  0.0000  0.0000  0.0000  0.0000  0.0000 </r>
       </set>
       <set comment="band 5">
        <r>  0.0952  0.0410  0.0154  0.0051  0.0000  0.0000  0.0000  0.0000  0.0000 </r>
        <r>  0.0000  0.0099  0.0235  0.0003  0.0000  0.0000  0.0000  0.0000  0.0000 </r>
       </set>
       <set comment="band 6">
        <r>  0.0000  0.0550  0.1124  0.0069  0.0000  0.0000  0.0000  0.0000  0.0000 </r>
        <r>  0.0996  0.0021  0.0008  0.0003  0.0000  0.0000  0.0000  0.0000  0.0000 </r>
       </set>
       <set comment="band 7">
        <r>  0.0966  0.0091  0.0034  0.0011  0.0000  0.0000  0.0000  0.0000  0.0000 </r>
        <r>  0.0000  0.0098  0.0397  0.0042  0.0000  0.0000  0.0000  0.0000  0.0000 </r>
       </set>
       <set comment="band 8">
        <r>  0.0000  0.0000  0.0288  0.0887  0.0000  0.0000  0.0000  0.0000  0.0000 </r>
        <r>  0.1014  0.0150  0.0056  0.0019  0.0000  0.0000  0.0000  0.0000  0.0000 </r>
       </set>
      </set>
      <set comment="kpoint 25">
       <set comment="band 1">
        <r>  0.9905  0.0000  0.0000  0.0000  0.0000  0.0000  0.0000  0.0000  0.0000 </r>
        <r>  0.0000  0.0000  0.0000  0.0000  0.0000  0.0000  0.0000  0.0000  0.0000 </r>
       </set>
       <set comment="band 2">
        <r>  0.0169  0.0004  0.0012  0.0075  0.0000  0.0000  0.0000  0.0000  0.0000 </r>
        <r>  0.2805  0.0004  0.0000  0.0012  0.0000  0.0000  0.0000  0.0000  0.0000 </r>
       </set>
       <set comment="band 3">
        <r>  0.0104  0.0176  0.0013  0.0157  0.0000  0.0000  0.0000  0.0000  0.0000 </r>
        <r>  0.1089  0.0039  0.0005  0.0165  0.0000  0.0000  0.0000  0.0000  0.0000 </r>
       </set>
       <set comment="band 4">
        <r>  0.0000  0.0210  0.0316  0.0105  0.0000  0.0000  0.0000  0.0000  0.0000 </r>
        <r>  0.0000  0.0082  0.0122  0.0041  0.0000  0.0000  0.0000  0.0000  0.0000 </r>
       </set>
       <set comment="band 5">
        <r>  0.0714  0.0061  0.0279  0.0320  0.0000  0.0000  0.0000  0.0000  0.0000 </r>
        <r>  0.0055  0.0147  0.0176  0.0034  0.0000  0.0000  0.0000  0.0000  0.0000 </r>
       </set>
       <set comment="band 6">
        <r>  0.1587  0.0712  0.0456  0.0001  0.0000  0.0000  0.0000  0.0000  0.0000 </r>
        <r>  0.1025  0.0000  0.0000  0.0000  0.0000  0.0000  0.0000  0.0000  0.0000 </r>
       </set>
       <set comment="band 7">
        <r>  0.0000  0.0142  0.0213  0.0071  0.0000  0.0000  0.0000  0.0000  0.0000 </r>
        <r>  0.0000  0.0040  0.0060  0.0020  0.0000  0.0000  0.0000  0.0000  0.0000 </r>
       </set>
       <set comment="band 8">
        <r>  0.0880  0.0024  0.0204  0.0318  0.0000  0.0000  0.0000  0.0000  0.0000 </r>
        <r>  0.0187  0.0510  0.0293  0.0005  0.0000  0.0000  0.0000  0.0000  0.0000 </r>
       </set>
      </set>
      <set comment="kpoint 26">
       <set comment="band 1">
        <r>  0.9908  0.0000  0.0000  0.0000  0.0000  0.0000  0.0000  0.0000  0.0000 </r>
        <r>  0.0000  0.0000  0.0000  0.0000  0.0000  0.0000  0.0000  0.0000  0.0000 </r>
       </set>
       <set comment="band 2">
        <r>  0.0022  0.0012  0.0006  0.0077  0.0000  0.0000  0.0000  0.0000  0.0000 </r>
        <r>  0.3357  0.0004  0.0000  0.0002  0.0000  0.0000  0.0000  0.0000  0.0000 </r>
       </set>
       <set comment="band 3">
        <r>  0.0108  0.0257  0.0003  0.0169  0.0000  0.0000  0.0000  0.0000  0.0000 </r>
        <r>  0.0208  0.0018  0.0000  0.0193  0.0000  0.0000  0.0000  0.0000  0.0000 </r>
       </set>
       <set comment="band 4">
        <r>  0.0124  0.0072  0.0203  0.0193  0.0000  0.0000  0.0000  0.0000  0.0000 </r>
        <r>  0.0239  0.0151  0.0057  0.0017  0.0000  0.0000  0.0000  0.0000  0.0000 </r>
       </set>
       <set comment="band 5">
        <r>  0.1218  0.0006  0.0355  0.0042  0.0000  0.0000  0.0000  0.0000  0.0000 </r>
        <r>  0.0008  0.0080  0.0259  0.0021  0.0000  0.0000  0.0000  0.0000  0.0000 </r>
       </set>
       <set comment="band 6">
        <r>  0.0755  0.0561  0.0750  0.0070  0.0000  0.0000  0.0000  0.0000  0.0000 </r>
        <r>  0.1078  0.0011  0.0009  0.0001  0.0000  0.0000  0.0000  0.0000  0.0000 </r>
       </set>
       <set comment="band 7">
        <r>  0.0015  0.0548  0.0006  0.0229  0.0000  0.0000  0.0000  0.0000  0.0000 </r>
        <r>  0.0233  0.0027  0.0055  0.0029  0.0000  0.0000  0.0000  0.0000  0.0000 </r>
       </set>
       <set comment="band 8">
        <r>  0.1032  0.0000  0.0307  0.0075  0.0000  0.0000  0.0000  0.0000  0.0000 </r>
        <r>  0.0000  0.0246  0.0313  0.0003  0.0000  0.0000  0.0000  0.0000  0.0000 </r>
       </set>
      </set>
      <set comment="kpoint 27">
       <set comment="band 1">
        <r>  0.9907  0.0000  0.0000  0.0000  0.0000  0.0000  0.0000  0.0000  0.0000 </r>
        <r>  0.0000  0.0000  0.0000  0.0000  0.0000  0.0000  0.0000  0.0000  0.0000 </r>
       </set>
       <set comment="band 2">
        <r>  0.0032  0.0075  0.0000  0.0038  0.0000  0.0000  0.0000  0.0000  0.0000 </r>
        <r>  0.3123  0.0004  0.0001  0.0002  0.0000  0.0000  0.0000  0.0000  0.0000 </r>
       </set>
       <set comment="band 3">
        <r>  0.0000  0.0174  0.0000  0.0349  0.0000  0.0000  0.0000  0.0000  0.0000 </r>
        <r>  0.0000  0.0072  0.0000  0.0145  0.0000  0.0000  0.0000  0.0000  0.0000 </r>
       </set>
       <set comment="band 4">
        <r>  0.0423  0.0066  0.0168  0.0033  0.0000  0.0000  0.0000  0.0000  0.0000 </r>
        <r>  0.0682  0.0132  0.0030  0.0066  0.0000  0.0000  0.0000  0.0000  0.0000 </r>
       </set>
       <set comment="band 5">
        <r>  0.1290  0.0084  0.0262  0.0042  0.0000  0.0000  0.0000  0.0000  0.0000 </r>
        <r>  0.0017  0.0052  0.0270  0.0026  0.0000  0.0000  0.0000  0.0000  0.0000 </r>
       </set>
       <set comment="band 6">
        <r>  0.0118  0.0477  0.1033  0.0238  0.0000  0.0000  0.0000  0.0000  0.0000 </r>
        <r>  0.1157  0.0007  0.0013  0.0003  0.0000  0.0000  0.0000  0.0000  0.0000 </r>
       </set>
       <set comment="band 7">
        <r>  0.0000  0.0230  0.0000  0.0460  0.0000  0.0000  0.0000  0.0000  0.0000 </r>
        <r>  0.0000  0.0046  0.0000  0.0091  0.0000  0.0000  0.0000  0.0000  0.0000 </r>
       </set>
       <set comment="band 8">
        <r>  0.1073  0.0100  0.0185  0.0050  0.0000  0.0000  0.0000  0.0000  0.0000 </r>
        <r>  0.0158  0.0002  0.0462  0.0001  0.0000  0.0000  0.0000  0.0000  0.0000 </r>
       </set>
      </set>
      <set comment="kpoint 28">
       <set comment="band 1">
        <r>  0.9909  0.0000  0.0000  0.0000  0.0000  0.0000  0.0000  0.0000  0.0000 </r>
        <r>  0.0000  0.0000  0.0000  0.0000  0.0000  0.0000  0.0000  0.0000  0.0000 </r>
       </set>
       <set comment="band 2">
        <r>  0.0070  0.0012  0.0018  0.0006  0.0000  0.0000  0.0000  0.0000  0.0000 </r>
        <r>  0.3801  0.0000  0.0000  0.0000  0.0000  0.0000  0.0000  0.0000  0.0000 </r>
       </set>
       <set comment="band 3">
        <r>  0.0000  0.0157  0.0000  0.0314  0.0000  0.0000  0.0000  0.0000  0.0000 </r>
        <r>  0.0000  0.0069  0.0000  0.0137  0.0000  0.0000  0.0000  0.0000  0.0000 </r>
       </set>
       <set comment="band 4">
        <r>  0.0000  0.0205  0.0308  0.0103  0.0000  0.0000  0.0000  0.0000  0.0000 </r>
        <r>  0.0000  0.0080  0.0121  0.0040  0.0000  0.0000  0.0000  0.0000  0.0000 </r>
       </set>
       <set comment="band 5">
        <r>  0.0832  0.0193  0.0289  0.0096  0.0000  0.0000  0.0000  0.0000  0.0000 </r>
        <r>  0.0015  0.0122  0.0183  0.0061  0.0000  0.0000  0.0000  0.0000  0.0000 </r>
       </set>
       <set comment="band 6">
        <r>  0.0000  0.0136  0.0205  0.0068  0.0000  0.0000  0.0000  0.0000  0.0000 </r>
        <r>  0.0000  0.0040  0.0060  0.0020  0.0000  0.0000  0.0000  0.0000  0.0000 </r>
       </set>
       <set comment="band 7">
        <r>  0.2057  0.0284  0.0425  0.0142  0.0000  0.0000  0.0000  0.0000  0.0000 </r>
        <r>  0.1176  0.0000  0.0000  0.0000  0.0000  0.0000  0.0000  0.0000  0.0000 </r>
       </set>
       <set comment="band 8">
        <r>  0.1215  0.0358  0.0529  0.0170  0.0000  0.0000  0.0000  0.0000  0.0000 </r>
        <r>  0.0203  0.0308  0.0461  0.0151  0.0000  0.0000  0.0000  0.0000  0.0000 </r>
       </set>
      </set>
      <set comment="kpoint 29">
       <set comment="band 1">
        <r>  0.9909  0.0000  0.0000  0.0000  0.0000  0.0000  0.0000  0.0000  0.0000 </r>
        <r>  0.0000  0.0000  0.0000  0.0000  0.0000  0.0000  0.0000  0.0000  0.0000 </r>
       </set>
       <set comment="band 2">
        <r>  0.0000  0.0023  0.0035  0.0012  0.0000  0.0000  0.0000  0.0000  0.0000 </r>
        <r>  0.3743  0.0000  0.0000  0.0000  0.0000  0.0000  0.0000  0.0000  0.0000 </r>
       </set>
       <set comment="band 3">
        <r>  0.0000  0.0000  0.0131  0.0380  0.0000  0.0000  0.0000  0.0000  0.0000 </r>
        <r>  0.0000  0.0143  0.0055  0.0017  0.0000  0.0000  0.0000  0.0000  0.0000 </r>
       </set>
       <set comment="band 4">
        <r>  0.0000  0.0340  0.0125  0.0046  0.0000  0.0000  0.0000  0.0000  0.0000 </r>
        <r>  0.0000  0.0000  0.0052  0.0162  0.0000  0.0000  0.0000  0.0000  0.0000 </r>
       </set>
       <set comment="band 5">
        <r>  0.1964  0.0000  0.0000  0.0000  0.0000  0.0000  0.0000  0.0000  0.0000 </r>
        <r>  0.0000  0.0123  0.0184  0.0061  0.0000  0.0000  0.0000  0.0000  0.0000 </r>
       </set>
       <set comment="band 6">
        <r>  0.0000  0.0703  0.1054  0.0351  0.0000  0.0000  0.0000  0.0000  0.0000 </r>
        <r>  0.1404  0.0000  0.0000  0.0000  0.0000  0.0000  0.0000  0.0000  0.0000 </r>
       </set>
       <set comment="band 7">
        <r>  0.0000  0.0129  0.0303  0.0199  0.0000  0.0000  0.0000  0.0000  0.0000 </r>
        <r>  0.0000  0.0063  0.0066  0.0008  0.0000  0.0000  0.0000  0.0000  0.0000 </r>
       </set>
       <set comment="band 8">
        <r>  0.0000  0.0292  0.0012  0.0327  0.0000  0.0000  0.0000  0.0000  0.0000 </r>
        <r>  0.0000  0.0028  0.0003  0.0106  0.0000  0.0000  0.0000  0.0000  0.0000 </r>
       </set>
      </set>
     </set>
    </set>
   </array>
  </projected>
 </calculation>
 <structure name="finalpos" >
  <crystal>
   <varray name="basis" >
    <v>       2.46004600       0.00000000       1.42030800 </v>
    <v>       0.82001500       2.31935400       1.42030800 </v>
    <v>       0.00000000       0.00000000       2.84061700 </v>
   </varray>
   <i name="volume">     16.20775821 </i>
   <varray name="rec_basis" >
    <v>       0.40649646      -0.14371812       0.00000000 </v>
    <v>       0.00000000       0.43115454       0.00000000 </v>
    <v>      -0.20324816      -0.14371816       0.35203619 </v>
   </varray>
  </crystal>
  <varray name="positions" >
   <v>       0.00000000       0.00000000       0.00000000 </v>
   <v>       0.50000000       0.50000000       0.50000000 </v>
  </varray>
 </structure>
</modeling>
