   2   2   1   0
  0.2376593E+02  0.4065993E-09  0.4065993E-09  0.4065993E-09  0.5000000E-15
  1.000000000000000E-004
  CAR
 unknown system
     39.97141100    -13.79355025  301      3.56642696      1.00000000
    -13.794  0.0000E+00  0.0000E+00
    -13.614  0.0000E+00  0.0000E+00
    -13.435  0.0000E+00  0.0000E+00
    -13.256  0.0000E+00  0.0000E+00
    -13.077  0.0000E+00  0.0000E+00
    -12.897  0.0000E+00  0.0000E+00
    -12.718  0.0000E+00  0.0000E+00
    -12.539  0.0000E+00  0.0000E+00
    -12.360  0.0000E+00  0.0000E+00
    -12.181  0.0000E+00  0.0000E+00
    -12.001  0.0000E+00  0.0000E+00
    -11.822  0.2026E-10  0.3630E-11
    -11.643  0.4867E-04  0.8723E-05
    -11.464  0.2978E+00  0.5339E-01
    -11.285  0.1494E+02  0.2732E+01
    -11.105  0.3723E+02  0.9405E+01
    -10.926  0.3320E+01  0.1000E+02
    -10.747  0.2252E-02  0.1000E+02
    -10.568  0.4315E-08  0.1000E+02
    -10.388  0.0000E+00  0.1000E+02
    -10.209  0.0000E+00  0.1000E+02
    -10.030  0.0000E+00  0.1000E+02
     -9.851  0.0000E+00  0.1000E+02
     -9.672  0.0000E+00  0.1000E+02
     -9.492  0.1210E-17  0.1000E+02
     -9.313  0.8395E-10  0.1000E+02
     -9.134  0.1301E-04  0.1000E+02
     -8.955  0.5398E-02  0.1000E+02
     -8.775  0.7696E-01  0.1001E+02
     -8.596  0.2328E+00  0.1006E+02
     -8.417  0.2412E+00  0.1010E+02
     -8.238  0.5811E+00  0.1020E+02
     -8.059  0.2222E+00  0.1024E+02
     -7.879  0.6824E+00  0.1037E+02
     -7.700  0.7667E+00  0.1050E+02
     -7.521  0.6806E+00  0.1063E+02
     -7.342  0.9652E+00  0.1080E+02
     -7.163  0.1647E+01  0.1109E+02
     -6.983  0.1380E+01  0.1134E+02
     -6.804  0.1447E+01  0.1160E+02
     -6.625  0.1700E+01  0.1190E+02
     -6.446  0.5199E+00  0.1200E+02
     -6.266  0.1088E-01  0.1200E+02
     -6.087  0.1652E-05  0.1200E+02
     -5.908  0.6620E-12  0.1200E+02
     -5.729  0.0000E+00  0.1200E+02
     -5.550  0.0000E+00  0.1200E+02
     -5.370  0.0000E+00  0.1200E+02
     -5.191  0.0000E+00  0.1200E+02
     -5.012  0.0000E+00  0.1200E+02
     -4.833  0.0000E+00  0.1200E+02
     -4.654  0.0000E+00  0.1200E+02
     -4.474  0.0000E+00  0.1200E+02
     -4.295  0.0000E+00  0.1200E+02
     -4.116  0.0000E+00  0.1200E+02
     -3.937  0.0000E+00  0.1200E+02
     -3.757  0.0000E+00  0.1200E+02
     -3.578  0.3408E-11  0.1200E+02
     -3.399  0.2881E-05  0.1200E+02
     -3.220  0.6999E-02  0.1200E+02
     -3.041  0.2386E+00  0.1204E+02
     -2.861  0.1474E+01  0.1231E+02
     -2.682  0.2392E+01  0.1274E+02
     -2.503  0.1265E+01  0.1296E+02
     -2.324  0.8306E+00  0.1311E+02
     -2.144  0.1095E+01  0.1331E+02
     -1.965  0.3010E+00  0.1336E+02
     -1.786  0.2803E+00  0.1341E+02
     -1.607  0.7418E+00  0.1355E+02
     -1.428  0.7538E-01  0.1356E+02
     -1.248  0.2934E+00  0.1361E+02
     -1.069  0.6473E+00  0.1373E+02
     -0.890  0.1020E+00  0.1375E+02
     -0.711  0.1126E-01  0.1375E+02
     -0.532  0.2227E+00  0.1379E+02
     -0.352  0.7187E-01  0.1380E+02
     -0.173  0.2728E+00  0.1385E+02
      0.006  0.1422E+01  0.1410E+02
      0.185  0.1236E+01  0.1433E+02
      0.365  0.6834E+00  0.1445E+02
      0.544  0.1695E+01  0.1475E+02
      0.723  0.1892E+01  0.1509E+02
      0.902  0.2453E+00  0.1514E+02
      1.081  0.1178E+01  0.1535E+02
      1.261  0.2220E+01  0.1574E+02
      1.440  0.1954E+01  0.1609E+02
      1.619  0.1599E+01  0.1638E+02
      1.798  0.1334E+01  0.1662E+02
      1.978  0.1637E+01  0.1691E+02
      2.157  0.8883E+00  0.1707E+02
      2.336  0.1525E+01  0.1735E+02
      2.515  0.1597E+01  0.1763E+02
      2.694  0.2885E+00  0.1768E+02
      2.874  0.7895E+00  0.1783E+02
      3.053  0.3011E+00  0.1788E+02
      3.232  0.2975E+00  0.1793E+02
      3.411  0.3182E+00  0.1799E+02
      3.590  0.6232E-01  0.1800E+02
      3.770  0.1612E-01  0.1800E+02
      3.949  0.2796E-03  0.1800E+02
      4.128  0.2019E-03  0.1800E+02
      4.307  0.3724E-01  0.1801E+02
      4.487  0.1719E+00  0.1804E+02
      4.666  0.7365E-01  0.1805E+02
      4.845  0.2499E+00  0.1810E+02
      5.024  0.2052E+00  0.1814E+02
      5.203  0.3324E+00  0.1820E+02
      5.383  0.8009E+00  0.1834E+02
      5.562  0.1796E+01  0.1866E+02
      5.741  0.1726E+01  0.1897E+02
      5.920  0.1015E+01  0.1915E+02
      6.099  0.9143E+00  0.1932E+02
      6.279  0.1228E+01  0.1954E+02
      6.458  0.2374E+01  0.1996E+02
      6.637  0.1298E+01  0.2019E+02
      6.816  0.1347E+01  0.2044E+02
      6.996  0.7364E+00  0.2057E+02
      7.175  0.6653E-01  0.2058E+02
      7.354  0.5219E-01  0.2059E+02
      7.533  0.8303E+00  0.2074E+02
      7.712  0.2163E+01  0.2113E+02
      7.892  0.8405E+00  0.2128E+02
      8.071  0.2524E+01  0.2173E+02
      8.250  0.1978E+01  0.2208E+02
      8.429  0.2653E+00  0.2213E+02
      8.609  0.7222E+00  0.2226E+02
      8.788  0.2258E+01  0.2266E+02
      8.967  0.2722E+01  0.2315E+02
      9.146  0.1028E+01  0.2334E+02
      9.325  0.1128E+01  0.2354E+02
      9.505  0.9338E+00  0.2371E+02
      9.684  0.2274E+01  0.2411E+02
      9.863  0.1256E+01  0.2434E+02
     10.042  0.2500E+00  0.2438E+02
     10.221  0.7085E+00  0.2451E+02
     10.401  0.9245E+00  0.2468E+02
     10.580  0.6390E+00  0.2479E+02
     10.759  0.4179E+00  0.2487E+02
     10.938  0.8452E+00  0.2502E+02
     11.118  0.2309E+01  0.2543E+02
     11.297  0.1204E+01  0.2565E+02
     11.476  0.5308E+00  0.2574E+02
     11.655  0.7412E+00  0.2587E+02
     11.834  0.2463E+01  0.2632E+02
     12.014  0.1818E+01  0.2664E+02
     12.193  0.6580E+00  0.2676E+02
     12.372  0.5385E+00  0.2686E+02
     12.551  0.9220E+00  0.2702E+02
     12.730  0.2260E+01  0.2743E+02
     12.910  0.1293E+01  0.2766E+02
     13.089  0.2019E+01  0.2802E+02
     13.268  0.1173E+01  0.2823E+02
     13.447  0.9706E+00  0.2840E+02
     13.627  0.1843E+01  0.2873E+02
     13.806  0.9937E+00  0.2891E+02
     13.985  0.7216E+00  0.2904E+02
     14.164  0.1419E+01  0.2930E+02
     14.343  0.1354E+01  0.2954E+02
     14.523  0.8405E+00  0.2969E+02
     14.702  0.7360E+00  0.2982E+02
     14.881  0.7324E+00  0.2995E+02
     15.060  0.1290E+01  0.3018E+02
     15.240  0.1884E+01  0.3052E+02
     15.419  0.2862E+01  0.3103E+02
     15.598  0.1687E+01  0.3134E+02
     15.777  0.1776E+01  0.3166E+02
     15.956  0.1882E+01  0.3199E+02
     16.136  0.1844E+01  0.3232E+02
     16.315  0.1410E+01  0.3258E+02
     16.494  0.2479E+01  0.3302E+02
     16.673  0.1612E+01  0.3331E+02
     16.852  0.5500E+00  0.3341E+02
     17.032  0.3299E+00  0.3347E+02
     17.211  0.1632E+01  0.3376E+02
     17.390  0.1835E+01  0.3409E+02
     17.569  0.1423E+01  0.3434E+02
     17.749  0.9802E+00  0.3452E+02
     17.928  0.4801E+00  0.3460E+02
     18.107  0.1127E+00  0.3462E+02
     18.286  0.1803E+01  0.3495E+02
     18.465  0.3011E+01  0.3549E+02
     18.645  0.1516E+01  0.3576E+02
     18.824  0.1508E+01  0.3603E+02
     19.003  0.1638E+01  0.3632E+02
     19.182  0.2969E+01  0.3686E+02
     19.362  0.1193E+01  0.3707E+02
     19.541  0.8023E+00  0.3721E+02
     19.720  0.1302E+01  0.3745E+02
     19.899  0.1150E+01  0.3765E+02
     20.078  0.1845E+01  0.3798E+02
     20.258  0.1823E+01  0.3831E+02
     20.437  0.1849E+01  0.3864E+02
     20.616  0.9993E+00  0.3882E+02
     20.795  0.1184E+01  0.3903E+02
     20.974  0.1118E+01  0.3923E+02
     21.154  0.1607E+01  0.3952E+02
     21.333  0.1856E+01  0.3985E+02
     21.512  0.1865E+01  0.4019E+02
     21.691  0.2779E+01  0.4069E+02
     21.871  0.2805E+01  0.4119E+02
     22.050  0.2084E+01  0.4156E+02
     22.229  0.1623E+01  0.4185E+02
     22.408  0.1937E+01  0.4220E+02
     22.587  0.5372E+00  0.4230E+02
     22.767  0.9356E+00  0.4246E+02
     22.946  0.1685E+01  0.4277E+02
     23.125  0.1862E+01  0.4310E+02
     23.304  0.1748E+01  0.4341E+02
     23.483  0.2057E+01  0.4378E+02
     23.663  0.2040E+01  0.4415E+02
     23.842  0.1596E+01  0.4443E+02
     24.021  0.1688E+01  0.4473E+02
     24.200  0.1182E+01  0.4495E+02
     24.380  0.1036E+01  0.4513E+02
     24.559  0.1360E+01  0.4538E+02
     24.738  0.2632E+01  0.4585E+02
     24.917  0.1431E+01  0.4610E+02
     25.096  0.2332E+01  0.4652E+02
     25.276  0.1902E+01  0.4686E+02
     25.455  0.3404E+01  0.4747E+02
     25.634  0.1271E+01  0.4770E+02
     25.813  0.1918E+01  0.4804E+02
     25.993  0.1529E+01  0.4832E+02
     26.172  0.1018E+01  0.4850E+02
     26.351  0.2573E+01  0.4896E+02
     26.530  0.2242E+01  0.4936E+02
     26.709  0.8902E+00  0.4952E+02
     26.889  0.2075E+01  0.4990E+02
     27.068  0.1734E+01  0.5021E+02
     27.247  0.1402E+01  0.5046E+02
     27.426  0.2331E+01  0.5088E+02
     27.605  0.2280E+01  0.5128E+02
     27.785  0.1642E+01  0.5158E+02
     27.964  0.2525E+01  0.5203E+02
     28.143  0.1562E+01  0.5231E+02
     28.322  0.1677E+01  0.5261E+02
     28.502  0.2761E+01  0.5311E+02
     28.681  0.1969E+01  0.5346E+02
     28.860  0.1161E+01  0.5367E+02
     29.039  0.1910E+01  0.5401E+02
     29.218  0.1852E+01  0.5434E+02
     29.398  0.2163E+01  0.5473E+02
     29.577  0.1921E+01  0.5507E+02
     29.756  0.1735E+01  0.5538E+02
     29.935  0.1447E+01  0.5564E+02
     30.115  0.2142E+01  0.5603E+02
     30.294  0.2104E+01  0.5640E+02
     30.473  0.1615E+01  0.5669E+02
     30.652  0.2215E+01  0.5709E+02
     30.831  0.3645E+01  0.5774E+02
     31.011  0.2017E+01  0.5811E+02
     31.190  0.1233E+01  0.5833E+02
     31.369  0.1896E+01  0.5867E+02
     31.548  0.2666E+01  0.5914E+02
     31.727  0.2454E+01  0.5958E+02
     31.907  0.2385E+01  0.6001E+02
     32.086  0.2342E+01  0.6043E+02
     32.265  0.2246E+01  0.6083E+02
     32.444  0.1326E+01  0.6107E+02
     32.624  0.1422E+01  0.6133E+02
     32.803  0.1973E+01  0.6168E+02
     32.982  0.1069E+01  0.6187E+02
     33.161  0.2191E+00  0.6191E+02
     33.340  0.6729E+00  0.6203E+02
     33.520  0.2195E+01  0.6242E+02
     33.699  0.1755E+01  0.6274E+02
     33.878  0.1844E+01  0.6307E+02
     34.057  0.1130E+01  0.6327E+02
     34.236  0.3310E+00  0.6333E+02
     34.416  0.5523E+00  0.6343E+02
     34.595  0.1005E+01  0.6361E+02
     34.774  0.3552E+00  0.6367E+02
     34.953  0.2934E+00  0.6373E+02
     35.133  0.4912E+00  0.6381E+02
     35.312  0.4309E+00  0.6389E+02
     35.491  0.1619E+00  0.6392E+02
     35.670  0.1136E+00  0.6394E+02
     35.849  0.1103E-02  0.6394E+02
     36.029  0.4576E-07  0.6394E+02
     36.208  0.8575E-06  0.6394E+02
     36.387  0.4459E-02  0.6394E+02
     36.566  0.9511E-01  0.6396E+02
     36.746  0.3113E-01  0.6396E+02
     36.925  0.2535E-03  0.6396E+02
     37.104  0.5062E-01  0.6397E+02
     37.283  0.1304E+00  0.6400E+02
     37.462  0.1488E-01  0.6400E+02
     37.642  0.1224E-03  0.6400E+02
     37.821  0.4302E-08  0.6400E+02
     38.000  0.3097E-15  0.6400E+02
     38.179  0.0000E+00  0.6400E+02
     38.358  0.0000E+00  0.6400E+02
     38.538  0.0000E+00  0.6400E+02
     38.717  0.0000E+00  0.6400E+02
     38.896  0.0000E+00  0.6400E+02
     39.075  0.0000E+00  0.6400E+02
     39.255  0.0000E+00  0.6400E+02
     39.434  0.0000E+00  0.6400E+02
     39.613  0.0000E+00  0.6400E+02
     39.792  0.0000E+00  0.6400E+02
     39.971  0.0000E+00  0.6400E+02
     39.97141100    -13.79355025  301      3.56642696      1.00000000
    -13.794  0.0000E+00  0.0000E+00  0.0000E+00  0.0000E+00  0.0000E+00  0.0000E+00  0.0000E+00  0.0000E+00  0.0000E+00
    -13.614  0.0000E+00  0.0000E+00  0.0000E+00  0.0000E+00  0.0000E+00  0.0000E+00  0.0000E+00  0.0000E+00  0.0000E+00
    -13.435  0.0000E+00  0.0000E+00  0.0000E+00  0.0000E+00  0.0000E+00  0.0000E+00  0.0000E+00  0.0000E+00  0.0000E+00
    -13.256  0.0000E+00  0.0000E+00  0.0000E+00  0.0000E+00  0.0000E+00  0.0000E+00  0.0000E+00  0.0000E+00  0.0000E+00
    -13.077  0.0000E+00  0.0000E+00  0.0000E+00  0.0000E+00  0.0000E+00  0.0000E+00  0.0000E+00  0.0000E+00  0.0000E+00
    -12.897  0.0000E+00  0.0000E+00  0.0000E+00  0.0000E+00  0.0000E+00  0.0000E+00  0.0000E+00  0.0000E+00  0.0000E+00
    -12.718  0.0000E+00  0.0000E+00  0.0000E+00  0.0000E+00  0.0000E+00  0.0000E+00  0.0000E+00  0.0000E+00  0.0000E+00
    -12.539  0.0000E+00  0.0000E+00  0.0000E+00  0.0000E+00  0.0000E+00  0.0000E+00  0.0000E+00  0.0000E+00  0.0000E+00
    -12.360  0.0000E+00  0.0000E+00  0.0000E+00  0.0000E+00  0.0000E+00  0.0000E+00  0.0000E+00  0.0000E+00  0.0000E+00
    -12.181  0.0000E+00  0.0000E+00  0.0000E+00  0.0000E+00  0.0000E+00  0.0000E+00  0.0000E+00  0.0000E+00  0.0000E+00
    -12.001  0.0000E+00  0.0000E+00  0.0000E+00  0.0000E+00  0.0000E+00  0.0000E+00  0.0000E+00  0.0000E+00  0.0000E+00
    -11.822  0.3632E-14  0.4685E-14  0.4685E-14  0.4685E-14  0.6459E-11  0.6459E-11  0.4058E-14  0.6459E-11  0.4058E-14
    -11.643  0.1137E-07  0.1094E-07  0.1094E-07  0.1094E-07  0.1552E-04  0.1552E-04  0.1473E-07  0.1552E-04  0.1473E-07
    -11.464  0.8574E-04  0.6092E-04  0.6092E-04  0.6092E-04  0.9458E-01  0.9458E-01  0.1039E-02  0.9458E-01  0.1039E-02
    -11.285  0.2853E-02  0.1615E-02  0.1615E-02  0.1615E-02  0.4104E+01  0.4104E+01  0.1117E+01  0.4104E+01  0.1117E+01
    -11.105  0.1721E-02  0.9932E-03  0.9932E-03  0.9932E-03  0.6427E+01  0.6427E+01  0.8712E+01  0.6427E+01  0.8712E+01
    -10.926  0.3313E-04  0.2299E-04  0.2299E-04  0.2299E-04  0.2898E+00  0.2898E+00  0.1207E+01  0.2898E+00  0.1207E+01
    -10.747  0.1391E-07  0.5472E-08  0.5472E-08  0.5472E-08  0.8273E-04  0.8273E-04  0.9904E-03  0.8273E-04  0.9904E-03
    -10.568  0.2034E-13  0.4617E-14  0.4617E-14  0.4617E-14  0.8283E-10  0.8283E-10  0.2011E-08  0.8283E-10  0.2011E-08
    -10.388  0.0000E+00  0.0000E+00  0.0000E+00  0.0000E+00  0.0000E+00  0.0000E+00  0.0000E+00  0.0000E+00  0.0000E+00
    -10.209  0.0000E+00  0.0000E+00  0.0000E+00  0.0000E+00  0.0000E+00  0.0000E+00  0.0000E+00  0.0000E+00  0.0000E+00
    -10.030  0.0000E+00  0.0000E+00  0.0000E+00  0.0000E+00  0.0000E+00  0.0000E+00  0.0000E+00  0.0000E+00  0.0000E+00
     -9.851  0.0000E+00  0.0000E+00  0.0000E+00  0.0000E+00  0.0000E+00  0.0000E+00  0.0000E+00  0.0000E+00  0.0000E+00
     -9.672  0.0000E+00  0.0000E+00  0.0000E+00  0.0000E+00  0.0000E+00  0.0000E+00  0.0000E+00  0.0000E+00  0.0000E+00
     -9.492  0.1982E-18  0.1644E-34  0.2465E-34  0.6318E-34  0.3351E-30  0.3350E-30  0.4349E-38  0.3351E-30  0.4924E-37
     -9.313  0.1375E-10  0.2425E-19  0.2425E-19  0.2425E-19  0.5511E-19  0.5511E-19  0.3224E-30  0.5511E-19  0.3437E-29
     -9.134  0.2131E-05  0.1305E-11  0.1305E-11  0.1305E-11  0.2963E-11  0.2963E-11  0.1497E-15  0.2963E-11  0.1497E-15
     -8.955  0.8830E-03  0.1492E-06  0.1492E-06  0.1492E-06  0.3378E-06  0.3378E-06  0.1153E-09  0.3378E-06  0.1153E-09
     -8.775  0.1221E-01  0.5442E-04  0.5442E-04  0.5442E-04  0.1216E-03  0.1216E-03  0.2046E-06  0.1216E-03  0.2046E-06
     -8.596  0.3642E-01  0.2357E-03  0.2357E-03  0.2357E-03  0.5114E-03  0.5114E-03  0.1980E-05  0.5114E-03  0.1980E-05
     -8.417  0.3550E-01  0.5350E-03  0.5350E-03  0.5350E-03  0.1043E-02  0.1043E-02  0.4081E-05  0.1043E-02  0.4081E-05
     -8.238  0.8205E-01  0.1724E-02  0.1724E-02  0.1724E-02  0.3147E-02  0.3147E-02  0.1915E-04  0.3147E-02  0.1915E-04
     -8.059  0.3015E-01  0.8035E-03  0.8035E-03  0.8035E-03  0.1366E-02  0.1366E-02  0.1176E-04  0.1366E-02  0.1176E-04
     -7.879  0.8359E-01  0.3453E-02  0.3453E-02  0.3453E-02  0.5460E-02  0.5460E-02  0.3653E-04  0.5460E-02  0.3653E-04
     -7.700  0.8907E-01  0.4346E-02  0.4346E-02  0.4346E-02  0.6710E-02  0.6710E-02  0.4014E-04  0.6710E-02  0.4014E-04
     -7.521  0.7107E-01  0.4666E-02  0.4666E-02  0.4666E-02  0.6588E-02  0.6588E-02  0.5628E-04  0.6588E-02  0.5628E-04
     -7.342  0.8543E-01  0.7860E-02  0.7860E-02  0.7860E-02  0.1085E-01  0.1085E-01  0.5295E-04  0.1085E-01  0.5295E-04
     -7.163  0.1321E+00  0.1445E-01  0.1445E-01  0.1445E-01  0.1977E-01  0.1977E-01  0.7050E-04  0.1977E-01  0.7050E-04
     -6.983  0.8123E-01  0.1474E-01  0.1474E-01  0.1474E-01  0.1772E-01  0.1772E-01  0.9087E-04  0.1772E-01  0.9087E-04
     -6.804  0.6355E-01  0.1700E-01  0.1700E-01  0.1700E-01  0.1998E-01  0.1998E-01  0.4691E-04  0.1998E-01  0.4691E-04
     -6.625  0.3455E-01  0.2338E-01  0.2338E-01  0.2338E-01  0.2463E-01  0.2463E-01  0.4467E-04  0.2463E-01  0.4467E-04
     -6.446  0.3677E-02  0.7674E-02  0.7674E-02  0.7674E-02  0.7789E-02  0.7789E-02  0.3524E-05  0.7789E-02  0.3524E-05
     -6.266  0.6571E-05  0.1655E-03  0.1655E-03  0.1655E-03  0.1661E-03  0.1661E-03  0.2448E-08  0.1661E-03  0.2448E-08
     -6.087  0.6756E-10  0.2507E-07  0.2507E-07  0.2507E-07  0.2552E-07  0.2552E-07  0.9607E-14  0.2552E-07  0.9607E-14
     -5.908  0.1634E-17  0.1001E-13  0.1001E-13  0.1001E-13  0.1030E-13  0.1030E-13  0.1629E-21  0.1030E-13  0.1629E-21
     -5.729  0.0000E+00  0.0000E+00  0.0000E+00  0.0000E+00  0.0000E+00  0.0000E+00  0.0000E+00  0.0000E+00  0.0000E+00
     -5.550  0.0000E+00  0.0000E+00  0.0000E+00  0.0000E+00  0.0000E+00  0.0000E+00  0.0000E+00  0.0000E+00  0.0000E+00
     -5.370  0.0000E+00  0.0000E+00  0.0000E+00  0.0000E+00  0.0000E+00  0.0000E+00  0.0000E+00  0.0000E+00  0.0000E+00
     -5.191  0.0000E+00  0.0000E+00  0.0000E+00  0.0000E+00  0.0000E+00  0.0000E+00  0.0000E+00  0.0000E+00  0.0000E+00
     -5.012  0.0000E+00  0.0000E+00  0.0000E+00  0.0000E+00  0.0000E+00  0.0000E+00  0.0000E+00  0.0000E+00  0.0000E+00
     -4.833  0.0000E+00  0.0000E+00  0.0000E+00  0.0000E+00  0.0000E+00  0.0000E+00  0.0000E+00  0.0000E+00  0.0000E+00
     -4.654  0.0000E+00  0.0000E+00  0.0000E+00  0.0000E+00  0.0000E+00  0.0000E+00  0.0000E+00  0.0000E+00  0.0000E+00
     -4.474  0.0000E+00  0.0000E+00  0.0000E+00  0.0000E+00  0.0000E+00  0.0000E+00  0.0000E+00  0.0000E+00  0.0000E+00
     -4.295  0.0000E+00  0.0000E+00  0.0000E+00  0.0000E+00  0.0000E+00  0.0000E+00  0.0000E+00  0.0000E+00  0.0000E+00
     -4.116  0.0000E+00  0.0000E+00  0.0000E+00  0.0000E+00  0.0000E+00  0.0000E+00  0.0000E+00  0.0000E+00  0.0000E+00
     -3.937  0.0000E+00  0.0000E+00  0.0000E+00  0.0000E+00  0.0000E+00  0.0000E+00  0.0000E+00  0.0000E+00  0.0000E+00
     -3.757  0.0000E+00  0.0000E+00  0.0000E+00  0.0000E+00  0.0000E+00  0.0000E+00  0.0000E+00  0.0000E+00  0.0000E+00
     -3.578  0.1525E-11  0.2087E-18  0.2087E-18  0.2087E-18  0.8670E-20  0.8670E-20  0.8015E-14  0.8670E-20  0.8015E-14
     -3.399  0.1290E-05  0.2724E-11  0.2724E-11  0.2724E-11  0.1159E-12  0.1159E-12  0.6726E-08  0.1159E-12  0.6726E-08
     -3.220  0.3153E-02  0.1076E-06  0.1076E-06  0.1076E-06  0.6457E-08  0.6457E-08  0.1504E-04  0.6457E-08  0.1504E-04
     -3.041  0.1085E+00  0.1214E-03  0.1214E-03  0.1214E-03  0.1385E-04  0.1385E-04  0.3619E-03  0.1385E-04  0.3619E-03
     -2.861  0.6289E+00  0.5401E-02  0.5401E-02  0.5401E-02  0.7317E-03  0.7317E-03  0.1284E-02  0.7317E-03  0.1284E-02
     -2.682  0.9196E+00  0.1913E-01  0.1913E-01  0.1913E-01  0.1833E-02  0.1833E-02  0.9935E-03  0.1833E-02  0.9935E-03
     -2.503  0.4484E+00  0.1331E-01  0.1331E-01  0.1331E-01  0.1780E-02  0.1780E-02  0.3898E-03  0.1780E-02  0.3898E-03
     -2.324  0.2934E+00  0.7807E-02  0.7807E-02  0.7807E-02  0.2055E-02  0.2055E-02  0.5805E-03  0.2055E-02  0.5805E-03
     -2.144  0.3576E+00  0.1345E-01  0.1345E-01  0.1345E-01  0.3070E-02  0.3070E-02  0.3816E-03  0.3070E-02  0.3816E-03
     -1.965  0.9687E-01  0.3900E-02  0.3900E-02  0.3900E-02  0.9842E-03  0.9842E-03  0.1890E-04  0.9842E-03  0.1890E-04
     -1.786  0.8044E-01  0.4393E-02  0.4393E-02  0.4393E-02  0.1125E-02  0.1125E-02  0.6961E-04  0.1125E-02  0.6961E-04
     -1.607  0.2228E+00  0.1002E-01  0.1002E-01  0.1002E-01  0.3295E-02  0.3295E-02  0.4597E-03  0.3295E-02  0.4597E-03
     -1.428  0.2395E-01  0.8470E-03  0.8470E-03  0.8470E-03  0.3591E-03  0.3591E-03  0.6561E-04  0.3591E-03  0.6561E-04
     -1.248  0.7592E-01  0.5336E-02  0.5336E-02  0.5336E-02  0.1546E-02  0.1546E-02  0.1952E-04  0.1546E-02  0.1952E-04
     -1.069  0.1788E+00  0.1025E-01  0.1025E-01  0.1025E-01  0.3658E-02  0.3658E-02  0.1571E-03  0.3658E-02  0.1571E-03
     -0.890  0.2937E-01  0.1452E-02  0.1452E-02  0.1452E-02  0.6027E-03  0.6027E-03  0.3698E-04  0.6027E-03  0.3698E-04
     -0.711  0.2937E-02  0.1819E-03  0.1819E-03  0.1819E-03  0.7613E-04  0.7613E-04  0.7040E-05  0.7613E-04  0.7040E-05
     -0.532  0.5633E-01  0.3844E-02  0.3844E-02  0.3844E-02  0.1489E-02  0.1489E-02  0.1148E-03  0.1489E-02  0.1148E-03
     -0.352  0.1765E-01  0.1315E-02  0.1315E-02  0.1315E-02  0.4736E-03  0.4736E-03  0.3106E-04  0.4736E-03  0.3106E-04
     -0.173  0.3337E-01  0.9555E-02  0.9555E-02  0.9555E-02  0.1110E-02  0.1110E-02  0.4581E-03  0.1110E-02  0.4581E-03
      0.006  0.1013E+00  0.5997E-01  0.5997E-01  0.5997E-01  0.3881E-02  0.3881E-02  0.3338E-02  0.3881E-02  0.3338E-02
      0.185  0.2071E-01  0.6138E-01  0.6138E-01  0.6138E-01  0.1674E-02  0.1674E-02  0.4009E-02  0.1674E-02  0.4009E-02
      0.365  0.4860E-01  0.2954E-01  0.2954E-01  0.2954E-01  0.2348E-02  0.2348E-02  0.1353E-02  0.2348E-02  0.1353E-02
      0.544  0.6518E-01  0.8294E-01  0.8294E-01  0.8294E-01  0.4337E-02  0.4337E-02  0.3880E-02  0.4337E-02  0.3880E-02
      0.723  0.3824E-01  0.9983E-01  0.9983E-01  0.9983E-01  0.4480E-02  0.4480E-02  0.3469E-02  0.4480E-02  0.3469E-02
      0.902  0.2520E-02  0.1374E-01  0.1374E-01  0.1374E-01  0.5580E-03  0.5580E-03  0.4045E-03  0.5580E-03  0.4045E-03
      1.081  0.2404E-02  0.6860E-01  0.6860E-01  0.6860E-01  0.2766E-02  0.2766E-02  0.2033E-02  0.2766E-02  0.2033E-02
      1.261  0.2936E-01  0.1233E+00  0.1233E+00  0.1233E+00  0.8008E-02  0.8008E-02  0.2954E-02  0.8008E-02  0.2954E-02
      1.440  0.7952E-01  0.9772E-01  0.9772E-01  0.9772E-01  0.8691E-02  0.8691E-02  0.3595E-02  0.8691E-02  0.3595E-02
      1.619  0.5409E-01  0.8218E-01  0.8218E-01  0.8218E-01  0.8393E-02  0.8393E-02  0.1900E-02  0.8393E-02  0.1900E-02
      1.798  0.1689E-01  0.7313E-01  0.7313E-01  0.7313E-01  0.6427E-02  0.6427E-02  0.2843E-02  0.6427E-02  0.2843E-02
      1.978  0.1679E-01  0.8955E-01  0.8955E-01  0.8955E-01  0.8569E-02  0.8569E-02  0.3701E-02  0.8569E-02  0.3701E-02
      2.157  0.1542E-02  0.4894E-01  0.4894E-01  0.4894E-01  0.5876E-02  0.5876E-02  0.1404E-02  0.5876E-02  0.1404E-02
      2.336  0.1083E-01  0.8009E-01  0.8009E-01  0.8009E-01  0.1153E-01  0.1153E-01  0.2689E-02  0.1153E-01  0.2689E-02
      2.515  0.1087E-01  0.8257E-01  0.8257E-01  0.8257E-01  0.1306E-01  0.1306E-01  0.2712E-02  0.1306E-01  0.2712E-02
      2.694  0.3157E-03  0.1496E-01  0.1496E-01  0.1496E-01  0.2461E-02  0.2461E-02  0.5617E-03  0.2461E-02  0.5617E-03
      2.874  0.3647E-07  0.3777E-01  0.3777E-01  0.3777E-01  0.8459E-02  0.8459E-02  0.1471E-02  0.8459E-02  0.1471E-02
      3.053  0.1943E-13  0.1404E-01  0.1404E-01  0.1404E-01  0.3520E-02  0.3520E-02  0.3544E-03  0.3520E-02  0.3544E-03
      3.232  0.3780E-09  0.1175E-01  0.1175E-01  0.1175E-01  0.4382E-02  0.4382E-02  0.3491E-03  0.4382E-02  0.3491E-03
      3.411  0.2203E-04  0.1225E-01  0.1225E-01  0.1225E-01  0.4882E-02  0.4882E-02  0.2651E-03  0.4882E-02  0.2651E-03
      3.590  0.3663E-02  0.1726E-02  0.1726E-02  0.1726E-02  0.9899E-03  0.9899E-03  0.2885E-05  0.9899E-03  0.2885E-05
      3.770  0.5856E-02  0.9113E-04  0.9113E-04  0.9113E-04  0.5405E-04  0.5405E-04  0.1508E-09  0.5405E-04  0.1508E-09
      3.949  0.1237E-03  0.2346E-07  0.2346E-07  0.2346E-07  0.1389E-07  0.1389E-07  0.2028E-16  0.1389E-07  0.2028E-16
      4.128  0.5808E-04  0.4103E-05  0.4103E-05  0.4103E-05  0.1028E-05  0.1028E-05  0.3202E-18  0.1028E-05  0.3215E-18
      4.307  0.1069E-01  0.7693E-03  0.7693E-03  0.7693E-03  0.1867E-03  0.1867E-03  0.5974E-16  0.1867E-03  0.5998E-16
      4.487  0.4868E-01  0.3864E-02  0.3864E-02  0.3864E-02  0.7882E-03  0.7882E-03  0.7935E-15  0.7882E-03  0.7946E-15
      4.666  0.2034E-01  0.1864E-02  0.1864E-02  0.1864E-02  0.2869E-03  0.2869E-03  0.2006E-08  0.2869E-03  0.2006E-08
      4.845  0.6485E-01  0.7091E-02  0.7091E-02  0.7091E-02  0.7706E-03  0.7706E-03  0.1706E-04  0.7706E-03  0.1706E-04
      5.024  0.3115E-01  0.7061E-02  0.7061E-02  0.7061E-02  0.1383E-02  0.1383E-02  0.6223E-03  0.1383E-02  0.6223E-03
      5.203  0.3499E-01  0.9924E-02  0.9924E-02  0.9924E-02  0.2349E-02  0.2349E-02  0.3125E-02  0.2349E-02  0.3125E-02
      5.383  0.1292E+00  0.2447E-01  0.2447E-01  0.2447E-01  0.5215E-02  0.5215E-02  0.3973E-02  0.5215E-02  0.3973E-02
      5.562  0.3433E+00  0.5511E-01  0.5511E-01  0.5511E-01  0.1029E-01  0.1029E-01  0.5420E-02  0.1029E-01  0.5420E-02
      5.741  0.2951E+00  0.5416E-01  0.5416E-01  0.5416E-01  0.9880E-02  0.9880E-02  0.8092E-02  0.9880E-02  0.8092E-02
      5.920  0.1747E+00  0.2736E-01  0.2736E-01  0.2736E-01  0.5958E-02  0.5958E-02  0.6020E-02  0.5958E-02  0.6020E-02
      6.099  0.9932E-01  0.3269E-01  0.3269E-01  0.3269E-01  0.7676E-02  0.7676E-02  0.5133E-02  0.7676E-02  0.5133E-02
      6.279  0.1683E+00  0.3433E-01  0.3433E-01  0.3433E-01  0.8008E-02  0.8008E-02  0.1008E-01  0.8008E-02  0.1008E-01
      6.458  0.4152E+00  0.6021E-01  0.6021E-01  0.6021E-01  0.1592E-01  0.1592E-01  0.1290E-01  0.1592E-01  0.1290E-01
      6.637  0.1563E+00  0.4915E-01  0.4915E-01  0.4915E-01  0.6894E-02  0.6894E-02  0.9609E-02  0.6894E-02  0.9609E-02
      6.816  0.1293E+00  0.6850E-01  0.6850E-01  0.6850E-01  0.6308E-02  0.6308E-02  0.8402E-02  0.6308E-02  0.8402E-02
      6.996  0.1920E-01  0.6906E-01  0.6906E-01  0.6906E-01  0.2829E-02  0.2829E-02  0.5769E-03  0.2829E-02  0.5769E-03
      7.175  0.4063E-03  0.7558E-02  0.7558E-02  0.7558E-02  0.2237E-03  0.2237E-03  0.6589E-05  0.2237E-03  0.6589E-05
      7.354  0.4379E-03  0.6133E-02  0.6133E-02  0.6133E-02  0.2321E-03  0.2321E-03  0.6999E-05  0.2321E-03  0.6999E-05
      7.533  0.1710E-01  0.7569E-01  0.7569E-01  0.7569E-01  0.5933E-02  0.5933E-02  0.1626E-02  0.5933E-02  0.1626E-02
      7.712  0.3841E-01  0.1690E+00  0.1690E+00  0.1690E+00  0.1678E-01  0.1678E-01  0.9501E-02  0.1678E-01  0.9501E-02
      7.892  0.4004E-01  0.4816E-01  0.4816E-01  0.4816E-01  0.5858E-02  0.5858E-02  0.6890E-02  0.5858E-02  0.6890E-02
      8.071  0.1588E+00  0.1353E+00  0.1353E+00  0.1353E+00  0.1992E-01  0.1992E-01  0.1469E-01  0.1992E-01  0.1469E-01
      8.250  0.5643E-01  0.1445E+00  0.1445E+00  0.1445E+00  0.1704E-01  0.1704E-01  0.1126E-01  0.1704E-01  0.1126E-01
      8.429  0.8672E-03  0.2214E-01  0.2214E-01  0.2214E-01  0.2275E-02  0.2275E-02  0.2224E-02  0.2275E-02  0.2224E-02
      8.609  0.2448E-02  0.5432E-01  0.5432E-01  0.5432E-01  0.7791E-02  0.7791E-02  0.4597E-02  0.7791E-02  0.4597E-02
      8.788  0.7061E-01  0.1479E+00  0.1479E+00  0.1479E+00  0.1738E-01  0.1738E-01  0.1550E-01  0.1738E-01  0.1550E-01
      8.967  0.7367E-01  0.1724E+00  0.1724E+00  0.1724E+00  0.1884E-01  0.1884E-01  0.2305E-01  0.1884E-01  0.2305E-01
      9.146  0.2027E-01  0.7180E-01  0.7180E-01  0.7180E-01  0.8726E-02  0.8726E-02  0.6991E-02  0.8726E-02  0.6991E-02
      9.325  0.1437E-01  0.7771E-01  0.7771E-01  0.7771E-01  0.1162E-01  0.1162E-01  0.7763E-02  0.1162E-01  0.7763E-02
      9.505  0.2211E-01  0.5370E-01  0.5370E-01  0.5370E-01  0.7036E-02  0.7036E-02  0.8596E-02  0.7036E-02  0.8596E-02
      9.684  0.4342E-01  0.1541E+00  0.1541E+00  0.1541E+00  0.2220E-01  0.2220E-01  0.1679E-01  0.2220E-01  0.1679E-01
      9.863  0.1644E-01  0.9782E-01  0.9782E-01  0.9782E-01  0.1337E-01  0.1337E-01  0.7123E-02  0.1337E-01  0.7123E-02
     10.042  0.5186E-03  0.2444E-01  0.2444E-01  0.2444E-01  0.2866E-02  0.2866E-02  0.6035E-03  0.2866E-02  0.6035E-03
     10.221  0.2506E-02  0.5872E-01  0.5872E-01  0.5872E-01  0.8637E-02  0.8637E-02  0.6450E-02  0.8637E-02  0.6450E-02
     10.401  0.2118E-02  0.7752E-01  0.7752E-01  0.7752E-01  0.1061E-01  0.1061E-01  0.8506E-02  0.1061E-01  0.8506E-02
     10.580  0.6742E-02  0.5317E-01  0.5317E-01  0.5317E-01  0.7694E-02  0.7694E-02  0.3096E-02  0.7694E-02  0.3096E-02
     10.759  0.1292E-01  0.2209E-01  0.2209E-01  0.2209E-01  0.5770E-02  0.5770E-02  0.2364E-02  0.5770E-02  0.2364E-02
     10.938  0.1982E-01  0.5410E-01  0.5410E-01  0.5410E-01  0.7810E-02  0.7810E-02  0.6260E-02  0.7810E-02  0.6260E-02
     11.118  0.4927E-01  0.1670E+00  0.1670E+00  0.1670E+00  0.1672E-01  0.1672E-01  0.1715E-01  0.1672E-01  0.1715E-01
     11.297  0.2086E-01  0.7100E-01  0.7100E-01  0.7100E-01  0.1129E-01  0.1129E-01  0.1471E-01  0.1129E-01  0.1471E-01
     11.476  0.3910E-02  0.3281E-01  0.3281E-01  0.3281E-01  0.6552E-02  0.6552E-02  0.5609E-02  0.6552E-02  0.5609E-02
     11.655  0.2414E-01  0.3928E-01  0.3928E-01  0.3928E-01  0.5576E-02  0.5576E-02  0.1212E-01  0.5576E-02  0.1212E-01
     11.834  0.4405E-01  0.1075E+00  0.1075E+00  0.1075E+00  0.3088E-01  0.3088E-01  0.4815E-01  0.3088E-01  0.4815E-01
     12.014  0.2129E-01  0.1061E+00  0.1061E+00  0.1061E+00  0.3119E-01  0.3119E-01  0.1523E-01  0.3119E-01  0.1523E-01
     12.193  0.2231E-01  0.4735E-01  0.4735E-01  0.4735E-01  0.7917E-02  0.7917E-02  0.2124E-02  0.7917E-02  0.2124E-02
     12.372  0.3223E-01  0.2200E-01  0.2200E-01  0.2200E-01  0.3853E-02  0.3853E-02  0.4579E-02  0.3853E-02  0.4579E-02
     12.551  0.2455E-01  0.2108E-01  0.2108E-01  0.2108E-01  0.1209E-01  0.1209E-01  0.1652E-01  0.1209E-01  0.1652E-01
     12.730  0.3232E-01  0.7866E-01  0.7866E-01  0.7866E-01  0.3785E-01  0.3785E-01  0.3265E-01  0.3785E-01  0.3265E-01
     12.910  0.2699E-01  0.3385E-01  0.3385E-01  0.3385E-01  0.1832E-01  0.1832E-01  0.1688E-01  0.1832E-01  0.1688E-01
     13.089  0.8203E-01  0.6259E-01  0.6259E-01  0.6259E-01  0.2201E-01  0.2201E-01  0.2575E-01  0.2201E-01  0.2575E-01
     13.268  0.3381E-01  0.3668E-01  0.3668E-01  0.3668E-01  0.1471E-01  0.1471E-01  0.1675E-01  0.1471E-01  0.1675E-01
     13.447  0.6377E-01  0.4025E-01  0.4025E-01  0.4025E-01  0.5614E-02  0.5614E-02  0.1143E-01  0.5614E-02  0.1143E-01
     13.627  0.3553E-01  0.6372E-01  0.6372E-01  0.6372E-01  0.1855E-01  0.1855E-01  0.4530E-01  0.1855E-01  0.4530E-01
     13.806  0.1536E-01  0.3400E-01  0.3400E-01  0.3400E-01  0.1102E-01  0.1102E-01  0.2965E-01  0.1102E-01  0.2965E-01
     13.985  0.1577E-01  0.3136E-01  0.3136E-01  0.3136E-01  0.9676E-02  0.9676E-02  0.1293E-01  0.9676E-02  0.1293E-01
     14.164  0.1519E-01  0.9267E-01  0.9267E-01  0.9267E-01  0.1981E-01  0.1981E-01  0.2239E-01  0.1981E-01  0.2239E-01