   2    2    1    1
  4.7531857e+01   4.0659927e-10   4.0659927e-10   4.0659927e-10   5.0000000e-16
            1.000000e-04
  CAR
 DOS and projected DOS file by LOBSTER. Energy is shifted such that the Fermi level lies at 0 eV.
      8.58314935      -6.46701788   301       3.56642694       1.00000000
-10.03344   0.00000  11.99615
 -9.98328   0.06292  11.99931
 -9.93311   0.01215  11.99992
 -9.88294   0.00150  11.99999
 -9.83278   0.00012  12.00000
 -9.78261   0.00001  12.00000
 -9.73244   0.00000  12.00000
 -9.68227   0.00000  12.00000
 -9.63211   0.00000  12.00000
 -9.58194   0.00000  12.00000
 -9.53177   0.00000  12.00000
 -9.48161   0.00000  12.00000
 -9.43144   0.00000  12.00000
 -9.38127   0.00000  12.00000
 -9.33110   0.00000  12.00000
 -9.28094   0.00000  12.00000
 -9.23077   0.00000  12.00000
 -9.18060   0.00000  12.00000
 -9.13043   0.00000  12.00000
 -9.08027   0.00000  12.00000
 -9.03010   0.00000  12.00000
 -8.97993   0.00000  12.00000
 -8.92977   0.00000  12.00000
 -8.87960   0.00000  12.00000
 -8.82943   0.00000  12.00000
 -8.77926   0.00000  12.00000
 -8.72910   0.00000  12.00000
 -8.67893   0.00000  12.00000
 -8.62876   0.00000  12.00000
 -8.57860   0.00000  12.00000
 -8.52843   0.00000  12.00000
 -8.47826   0.00000  12.00000
 -8.42809   0.00000  12.00000
 -8.37793   0.00000  12.00000
 -8.32776   0.00000  12.00000
 -8.27759   0.00000  12.00000
 -8.22742   0.00000  12.00000
 -8.17726   0.00000  12.00000
 -8.12709   0.00000  12.00000
 -8.07692   0.00000  12.00000
 -8.02676   0.00000  12.00000
 -7.97659   0.00000  12.00000
 -7.92642   0.00000  12.00000
 -7.87625   0.00000  12.00000
 -7.82609   0.00000  12.00000
 -7.77592   0.00000  12.00000
 -7.72575   0.00000  12.00000
 -7.67559   0.00000  12.00000
 -7.62542   0.00000  12.00000
 -7.57525   0.00000  12.00000
 -7.52508   0.00000  12.00000
 -7.47492   0.00000  12.00000
 -7.42475   0.00000  12.00000
 -7.37458   0.00000  12.00000
 -7.32441   0.00000  12.00000
 -7.27425   0.00000  12.00000
 -7.22408   0.00000  12.00000
 -7.17391   0.00000  12.00000
 -7.12375   0.00000  12.00000
 -7.07358   0.00000  12.00000
 -7.02341   0.00000  12.00000
 -6.97324   0.00001  12.00000
 -6.92308   0.00010  12.00001
 -6.87291   0.00102  12.00006
 -6.82274   0.00666  12.00039
 -6.77258   0.02915  12.00185
 -6.72241   0.09006  12.00637
 -6.67224   0.20757  12.01678
 -6.62207   0.38314  12.03600
 -6.57191   0.63747  12.06799
 -6.52174   1.06572  12.12145
 -6.47157   1.70917  12.20719
 -6.42140   2.33165  12.32417
 -6.37124   2.61641  12.45542
 -6.32107   2.53996  12.58285
 -6.27090   2.22219  12.69433
 -6.22074   1.77518  12.78338
 -6.17057   1.39727  12.85348
 -6.12040   1.17337  12.91235
 -6.07023   1.00454  12.96274
 -6.02007   0.86160  13.00596
 -5.96990   0.78046  13.04512
 -5.91973   0.79161  13.08483
 -5.86957   0.99538  13.13477
 -5.81940   1.28370  13.19917
 -5.76923   1.25336  13.26204
 -5.71906   0.83551  13.30396
 -5.66890   0.43479  13.32577
 -5.61873   0.29421  13.34053
 -5.56856   0.27473  13.35431
 -5.51839   0.20935  13.36482
 -5.46823   0.13580  13.37163
 -5.41806   0.18840  13.38108
 -5.36789   0.43075  13.40269
 -5.31773   0.75507  13.44057
 -5.26756   0.91586  13.48652
 -5.21739   0.77089  13.52519
 -5.16722   0.44480  13.54750
 -5.11706   0.17109  13.55609
 -5.06689   0.04297  13.55824
 -5.01672   0.01096  13.55879
 -4.96656   0.02960  13.56028
 -4.91639   0.12213  13.56640
 -4.86622   0.32414  13.58267
 -4.81605   0.56422  13.61097
 -4.76589   0.70730  13.64645
 -4.71572   0.72523  13.68284
 -4.66555   0.62456  13.71417
 -4.61538   0.40376  13.73442
 -4.56522   0.17516  13.74321
 -4.51505   0.04825  13.74563
 -4.46488   0.00827  13.74605
 -4.41472   0.00097  13.74610
 -4.36455   0.00131  13.74616
 -4.31438   0.00978  13.74665
 -4.26421   0.04709  13.74901
 -4.21405   0.14040  13.75606
 -4.16388   0.25945  13.76907
 -4.11371   0.29735  13.78399
 -4.06355   0.21136  13.79460
 -4.01338   0.09314  13.79927
 -3.96321   0.02564  13.80055
 -3.91304   0.00733  13.80092
 -3.86288   0.02597  13.80222
 -3.81271   0.13411  13.80895
 -3.76254   0.44457  13.83126
 -3.71237   0.94522  13.87868
 -3.66221   1.34922  13.94636
 -3.61204   1.48795  14.02101
 -3.56187   1.61143  14.10185
 -3.51171   1.74406  14.18934
 -3.46154   1.49749  14.26447
 -3.41137   0.91466  14.31035
 -3.36120   0.46609  14.33374
 -3.31104   0.38670  14.35314
 -3.26087   0.63298  14.38489
 -3.21070   1.04258  14.43720
 -3.16054   1.40637  14.50775
 -3.11037   1.59680  14.58786
 -3.06020   1.74430  14.67536
 -3.01003   2.10746  14.78109
 -2.95987   2.45333  14.90417
 -2.90970   2.18003  15.01353
 -2.85953   1.31730  15.07962
 -2.80936   0.52022  15.10571
 -2.75920   0.14869  15.11317
 -2.70903   0.12574  15.11948
 -2.65886   0.37689  15.13839
 -2.60870   0.84631  15.18085
 -2.55853   1.25204  15.24366
 -2.50836   1.37967  15.31287
 -2.45819   1.51173  15.38871
 -2.40803   1.94291  15.48618
 -2.35786   2.44192  15.60869
 -2.30769   2.60697  15.73947
 -2.25753   2.38245  15.85899
 -2.20736   2.02287  15.96047
 -2.15719   1.71875  16.04670
 -2.10702   1.54625  16.12427
 -2.05686   1.56260  16.20266
 -2.00669   1.66502  16.28619
 -1.95652   1.61998  16.36746
 -1.90635   1.36145  16.43576
 -1.85619   1.12245  16.49207
 -1.80602   1.25355  16.55496
 -1.75585   1.79767  16.64514
 -1.70569   2.18904  16.75496
 -1.65552   1.86316  16.84843
 -1.60535   1.08454  16.90284
 -1.55518   0.56278  16.93107
 -1.50502   0.61694  16.96202
 -1.45485   1.02078  17.01323
 -1.40468   1.32418  17.07966
 -1.35452   1.36729  17.14825
 -1.30435   1.39479  17.21823
 -1.25418   1.64037  17.30052
 -1.20401   1.99997  17.40085
 -1.15385   2.04085  17.50323
 -1.10368   1.57472  17.58223
 -1.05351   0.96578  17.63068
 -1.00334   0.52998  17.65727
 -0.95318   0.26270  17.67045
 -0.90301   0.14691  17.67782
 -0.85284   0.24302  17.69001
 -0.80268   0.56704  17.71846
 -0.75251   0.93678  17.76546
 -0.70234   1.02546  17.81690
 -0.65217   0.74349  17.85420
 -0.60201   0.35599  17.87206
 -0.55184   0.11430  17.87779
 -0.50167   0.04393  17.88000
 -0.45151   0.09797  17.88491
 -0.40134   0.26932  17.89842
 -0.35117   0.48993  17.92300
 -0.30100   0.57574  17.95188
 -0.25084   0.43822  17.97387
 -0.20067   0.22410  17.98511
 -0.15050   0.10076  17.99017
 -0.10033   0.07369  17.99386
 -0.05017   0.06898  17.99732
 -0.00000   0.05338  18.00000
  0.05017   0.03654  18.00183
  0.10033   0.02367  18.00302
  0.15050   0.01226  18.00364
  0.20067   0.00430  18.00385
  0.25084   0.00095  18.00390
  0.30100   0.00013  18.00391
  0.35117   0.00001  18.00391
  0.40134   0.00000  18.00391
  0.45151   0.00000  18.00391
  0.50167   0.00003  18.00391
  0.55184   0.00043  18.00393
  0.60201   0.00325  18.00409
  0.65217   0.01542  18.00487
  0.70234   0.04652  18.00720
  0.75251   0.09467  18.01195
  0.80268   0.14556  18.01925
  0.85284   0.18783  18.02867
  0.90301   0.19625  18.03852
  0.95318   0.14673  18.04588
  1.00334   0.07426  18.04961
  1.05351   0.03909  18.05157
  1.10368   0.07009  18.05508
  1.15385   0.16456  18.06334
  1.20401   0.27240  18.07700
  1.25418   0.31108  18.09261
  1.30435   0.25922  18.10561
  1.35452   0.19535  18.11541
  1.40468   0.19068  18.12498
  1.45485   0.21129  18.13558
  1.50502   0.21109  18.14617
  1.55518   0.25023  18.15872
  1.60535   0.39696  18.17864
  1.65552   0.56399  18.20693
  1.70569   0.62542  18.23831
  1.75585   0.71184  18.27402
  1.80602   1.03746  18.32607
  1.85619   1.44565  18.39859
  1.90635   1.67612  18.48268
  1.95652   1.88092  18.57704
  2.00669   2.19421  18.68711
  2.05686   2.24772  18.79988
  2.10702   1.79534  18.88994
  2.15719   1.23975  18.95214
  2.20736   1.06929  19.00578
  2.25753   1.17902  19.06493
  2.30769   1.08363  19.11929
  2.35786   0.70510  19.15467
  2.40803   0.47259  19.17837
  2.45819   0.70547  19.21377
  2.50836   1.25918  19.27694
  2.55853   1.62489  19.35845
  2.60870   1.45260  19.43132
  2.65886   1.02736  19.48286
  2.70903   0.98829  19.53244
  2.75920   1.64707  19.61507
  2.80936   2.56374  19.74369
  2.85953   2.84143  19.88624
  2.90970   2.19767  19.99649
  2.95987   1.37629  20.06553
  3.01003   1.07784  20.11960
  3.06020   1.21293  20.18045
  3.11037   1.40692  20.25103
  3.16054   1.44426  20.32349
  3.21070   1.31236  20.38933
  3.26087   1.17574  20.44831
  3.31104   1.05667  20.50132
  3.36120   0.80227  20.54157
  3.41137   0.44201  20.56374
  3.46154   0.16678  20.57211
  3.51171   0.05328  20.57478
  3.56187   0.04314  20.57695
  3.61204   0.06130  20.58002
  3.66221   0.06152  20.58311
  3.71237   0.04133  20.58518
  3.76254   0.03853  20.58712
  3.81271   0.11717  20.59299
  3.86288   0.36512  20.61131
  3.91304   0.84600  20.65375
  3.96321   1.53880  20.73095
  4.01338   2.25719  20.84419
  4.06355   2.54802  20.97201
  4.11371   2.10935  21.07783
  4.16388   1.36561  21.14634
  4.21405   0.90825  21.19191
  4.26421   0.74295  21.22918
  4.31438   0.74324  21.26646
  4.36455   1.17742  21.32553
  4.41472   2.18688  21.43524
  4.46488   3.15991  21.59377
  4.51505   3.37861  21.76326
  4.56522   2.89953  21.90872
  4.61538   2.08234  22.01319
  4.66555   1.16576  22.07167
  4.71572   0.46531  22.09501
  4.76589   0.16442  22.10326
  4.81605   0.18886  22.11274
  4.86622   0.39050  22.13233
  4.91639   0.58878  22.16186
  4.96656   0.68121  22.19604
  5.01672   0.78462  22.23540
      5.01672241     -10.03344482   301       3.56642694       1.00000000; Z= 31; 4s 4p_y 4p_z 4p_x 3d_xy 3d_yz 3d_z^2 3d_xz 3d_x^2-y^2
-10.03344   0.00000   0.00000   0.00000   0.00000   0.00000   0.00000   0.00000   0.00000   0.00000
 -9.98328   0.00008   0.00393   0.00393   0.00393   0.00070   0.00070   0.00000   0.00070   0.00000
 -9.93311   0.00001   0.00077   0.00077   0.00077   0.00014   0.00014   0.00000   0.00014   0.00000
 -9.88294   0.00000   0.00010   0.00010   0.00010   0.00002   0.00002   0.00000   0.00002   0.00000
 -9.83278   0.00000   0.00001   0.00001   0.00001   0.00000   0.00000   0.00000   0.00000   0.00000
 -9.78261   0.00000   0.00000   0.00000   0.00000   0.00000   0.00000   0.00000   0.00000   0.00000
 -9.73244   0.00000   0.00000   0.00000   0.00000   0.00000   0.00000  -0.00000   0.00000  -0.00000
 -9.68227   0.00000   0.00000   0.00000   0.00000   0.00000   0.00000  -0.00000   0.00000   0.00000
 -9.63211   0.00000   0.00000   0.00000   0.00000   0.00000   0.00000  -0.00000   0.00000   0.00000
 -9.58194   0.00000   0.00000   0.00000   0.00000   0.00000   0.00000   0.00000   0.00000   0.00000
 -9.53177   0.00000  -0.00000   0.00000  -0.00000  -0.00000  -0.00000   0.00000  -0.00000   0.00000
 -9.48161   0.00000   0.00000   0.00000   0.00000   0.00000   0.00000   0.00000   0.00000   0.00000
 -9.43144   0.00000   0.00000   0.00000   0.00000   0.00000   0.00000   0.00000   0.00000   0.00000
 -9.38127   0.00000   0.00000   0.00000   0.00000   0.00000   0.00000   0.00000   0.00000   0.00000
 -9.33110   0.00000   0.00000   0.00000   0.00000   0.00000   0.00000   0.00000   0.00000   0.00000
 -9.28094   0.00000   0.00000   0.00000   0.00000   0.00000   0.00000   0.00000   0.00000   0.00000
 -9.23077   0.00000   0.00000   0.00000   0.00000   0.00000   0.00000   0.00000   0.00000   0.00000
 -9.18060   0.00000   0.00000   0.00000   0.00000   0.00000   0.00000   0.00000   0.00000   0.00000
 -9.13043   0.00000   0.00000   0.00000   0.00000   0.00000   0.00000   0.00000   0.00000   0.00000
 -9.08027   0.00000   0.00000   0.00000   0.00000   0.00000   0.00000   0.00000   0.00000   0.00000
 -9.03010   0.00000   0.00000   0.00000   0.00000   0.00000   0.00000   0.00000   0.00000   0.00000
 -8.97993   0.00000   0.00000   0.00000   0.00000   0.00000   0.00000   0.00000   0.00000   0.00000
 -8.92977   0.00000   0.00000   0.00000   0.00000   0.00000   0.00000   0.00000   0.00000   0.00000
 -8.87960   0.00000   0.00000   0.00000   0.00000   0.00000   0.00000   0.00000   0.00000   0.00000
 -8.82943   0.00000   0.00000   0.00000   0.00000   0.00000   0.00000   0.00000   0.00000   0.00000
 -8.77926   0.00000   0.00000   0.00000   0.00000   0.00000   0.00000   0.00000   0.00000   0.00000
 -8.72910   0.00000   0.00000   0.00000   0.00000   0.00000   0.00000   0.00000   0.00000   0.00000
 -8.67893   0.00000   0.00000   0.00000   0.00000   0.00000   0.00000   0.00000   0.00000   0.00000
 -8.62876   0.00000   0.00000   0.00000   0.00000   0.00000   0.00000   0.00000   0.00000   0.00000
 -8.57860   0.00000   0.00000   0.00000   0.00000   0.00000   0.00000   0.00000   0.00000   0.00000
 -8.52843   0.00000   0.00000   0.00000   0.00000   0.00000   0.00000   0.00000   0.00000   0.00000
 -8.47826   0.00000   0.00000   0.00000   0.00000   0.00000   0.00000   0.00000   0.00000   0.00000
 -8.42809   0.00000   0.00000   0.00000   0.00000   0.00000   0.00000   0.00000   0.00000   0.00000
 -8.37793   0.00000   0.00000   0.00000   0.00000   0.00000   0.00000   0.00000   0.00000   0.00000
 -8.32776   0.00000   0.00000   0.00000   0.00000   0.00000   0.00000   0.00000   0.00000   0.00000
 -8.27759   0.00000   0.00000   0.00000   0.00000   0.00000   0.00000   0.00000   0.00000   0.00000
 -8.22742   0.00000   0.00000   0.00000   0.00000   0.00000   0.00000   0.00000   0.00000   0.00000
 -8.17726   0.00000   0.00000   0.00000   0.00000   0.00000   0.00000   0.00000   0.00000   0.00000
 -8.12709   0.00000   0.00000   0.00000   0.00000   0.00000   0.00000   0.00000   0.00000   0.00000
 -8.07692   0.00000   0.00000   0.00000   0.00000   0.00000   0.00000   0.00000   0.00000   0.00000
 -8.02676   0.00000   0.00000   0.00000   0.00000   0.00000   0.00000   0.00000   0.00000   0.00000
 -7.97659   0.00000   0.00000   0.00000   0.00000   0.00000   0.00000   0.00000   0.00000   0.00000
 -7.92642   0.00000   0.00000   0.00000   0.00000   0.00000   0.00000   0.00000   0.00000   0.00000
 -7.87625   0.00000   0.00000   0.00000   0.00000   0.00000   0.00000   0.00000   0.00000   0.00000
 -7.82609   0.00000   0.00000   0.00000   0.00000   0.00000   0.00000   0.00000   0.00000   0.00000
 -7.77592   0.00000   0.00000   0.00000   0.00000   0.00000   0.00000   0.00000   0.00000   0.00000
 -7.72575   0.00000   0.00000   0.00000   0.00000   0.00000   0.00000   0.00000   0.00000   0.00000
 -7.67559   0.00000   0.00000   0.00000   0.00000   0.00000   0.00000   0.00000   0.00000   0.00000
 -7.62542   0.00000   0.00000   0.00000   0.00000   0.00000   0.00000   0.00000   0.00000   0.00000
 -7.57525   0.00000   0.00000   0.00000   0.00000   0.00000   0.00000   0.00000   0.00000   0.00000
 -7.52508   0.00000   0.00000   0.00000   0.00000   0.00000   0.00000   0.00000   0.00000   0.00000
 -7.47492   0.00000   0.00000   0.00000   0.00000   0.00000   0.00000   0.00000   0.00000   0.00000
 -7.42475   0.00000   0.00000   0.00000   0.00000   0.00000   0.00000   0.00000   0.00000   0.00000
 -7.37458   0.00000   0.00000   0.00000   0.00000   0.00000   0.00000   0.00000   0.00000   0.00000
 -7.32441   0.00000   0.00000   0.00000   0.00000   0.00000   0.00000   0.00000   0.00000   0.00000
 -7.27425   0.00000   0.00000   0.00000   0.00000   0.00000   0.00000   0.00000   0.00000   0.00000
 -7.22408   0.00000   0.00000   0.00000   0.00000   0.00000   0.00000  -0.00000   0.00000  -0.00000
 -7.17391   0.00000   0.00000   0.00000   0.00000   0.00000   0.00000  -0.00000   0.00000  -0.00000
 -7.12375   0.00000   0.00000   0.00000   0.00000   0.00000   0.00000   0.00000   0.00000   0.00000
 -7.07358   0.00000   0.00000   0.00000   0.00000   0.00000   0.00000   0.00000   0.00000   0.00000
 -7.02341   0.00000   0.00000   0.00000   0.00000   0.00000   0.00000   0.00000   0.00000   0.00000
 -6.97324   0.00000   0.00000   0.00000   0.00000   0.00000   0.00000   0.00000   0.00000   0.00000
 -6.92308   0.00006   0.00000   0.00000   0.00000   0.00000   0.00000   0.00000   0.00000   0.00000
 -6.87291   0.00062   0.00000   0.00000   0.00000   0.00000   0.00000   0.00000   0.00000   0.00000
 -6.82274   0.00408   0.00000   0.00000   0.00000   0.00000   0.00000   0.00001   0.00000   0.00001
 -6.77258   0.01788   0.00001   0.00001   0.00001   0.00000   0.00000   0.00003   0.00000   0.00003
 -6.72241   0.05519   0.00005   0.00005   0.00005   0.00000   0.00000   0.00007   0.00000   0.00007
 -6.67224   0.12687   0.00019   0.00019   0.00019   0.00000   0.00000   0.00015   0.00000   0.00015
 -6.62207   0.23231   0.00062   0.00062   0.00062   0.00001   0.00001   0.00023   0.00001   0.00023
 -6.57191   0.37934   0.00190   0.00190   0.00190   0.00005   0.00005   0.00031   0.00005   0.00031
 -6.52174   0.61734   0.00507   0.00507   0.00507   0.00017   0.00017   0.00043   0.00017   0.00043
 -6.47157   0.96399   0.01113   0.01113   0.01113   0.00038   0.00038   0.00061   0.00038   0.00061
 -6.42140   1.27451   0.02016   0.02016   0.02016   0.00060   0.00060   0.00072   0.00060   0.00072
 -6.37124   1.36832   0.03033   0.03033   0.03033   0.00073   0.00073   0.00062   0.00073   0.00062
 -6.32107   1.27037   0.03663   0.03663   0.03663   0.00078   0.00078   0.00040   0.00078   0.00040
 -6.27090   1.09116   0.03464   0.03464   0.03464   0.00079   0.00079   0.00024   0.00079   0.00024
 -6.22074   0.87233   0.02773   0.02773   0.02773   0.00077   0.00077   0.00018   0.00077   0.00018
 -6.17057   0.67308   0.02345   0.02345   0.02345   0.00073   0.00073   0.00016   0.00073   0.00016
 -6.12040   0.53683   0.02266   0.02266   0.02266   0.00071   0.00071   0.00014   0.00071   0.00014
 -6.07023   0.44480   0.02029   0.02029   0.02029   0.00068   0.00068   0.00014   0.00068   0.00014
 -6.02007   0.39376   0.01476   0.01476   0.01476   0.00069   0.00069   0.00018   0.00069   0.00018
 -5.96990   0.37782   0.00991   0.00991   0.00991   0.00074   0.00074   0.00023   0.00074   0.00023
 -5.91973   0.38572   0.00965   0.00965   0.00965   0.00082   0.00082   0.00024   0.00082   0.00024
 -5.86957   0.46287   0.01571   0.01571   0.01571   0.00106   0.00106   0.00022   0.00106   0.00022
 -5.81940   0.57342   0.02415   0.02415   0.02415   0.00137   0.00137   0.00020   0.00137   0.00020
 -5.76923   0.54662   0.02566   0.02566   0.02566   0.00132   0.00132   0.00014   0.00132   0.00014
 -5.71906   0.35772   0.01802   0.01802   0.01802   0.00088   0.00088   0.00007   0.00088   0.00007
 -5.66890   0.18461   0.00958   0.00958   0.00958   0.00047   0.00047   0.00003   0.00047   0.00003
 -5.61873   0.12759   0.00621   0.00621   0.00621   0.00036   0.00036   0.00001   0.00036   0.00001
 -5.56856   0.12135   0.00556   0.00556   0.00556   0.00035   0.00035   0.00000   0.00035   0.00000
 -5.51839   0.09250   0.00424   0.00424   0.00424   0.00027   0.00027   0.00000   0.00027   0.00000
 -5.46823   0.05755   0.00299   0.00299   0.00299   0.00018   0.00018   0.00000   0.00018   0.00000
 -5.41806   0.07291   0.00475   0.00475   0.00475   0.00026   0.00026   0.00001   0.00026   0.00001
 -5.36789   0.16580   0.01054   0.01054   0.01054   0.00061   0.00061   0.00004   0.00061   0.00004
 -5.31773   0.29860   0.01667   0.01667   0.01667   0.00110   0.00110   0.00011   0.00110   0.00011
 -5.26756   0.37508   0.01740   0.01740   0.01740   0.00138   0.00138   0.00018   0.00138   0.00018
 -5.21739   0.32665   0.01225   0.01225   0.01225   0.00120   0.00120   0.00019   0.00120   0.00019
 -5.16722   0.19358   0.00596   0.00596   0.00596   0.00071   0.00071   0.00012   0.00071   0.00012
 -5.11706   0.07578   0.00200   0.00200   0.00200   0.00028   0.00028   0.00005   0.00028   0.00005
 -5.06689   0.01920   0.00047   0.00047   0.00047   0.00007   0.00007   0.00001   0.00007   0.00001
 -5.01672   0.00455   0.00018   0.00018   0.00018   0.00002   0.00002   0.00000   0.00002   0.00000
 -4.96656   0.01073   0.00079   0.00079   0.00079   0.00005   0.00005   0.00000   0.00005   0.00000
 -4.91639   0.04409   0.00331   0.00331   0.00331   0.00020   0.00020   0.00000   0.00020   0.00000
 -4.86622   0.11746   0.00867   0.00867   0.00867   0.00054   0.00054   0.00001   0.00054   0.00001
 -4.81605   0.20675   0.01456   0.01456   0.01456   0.00095   0.00095   0.00001   0.00095   0.00001
 -4.76589   0.26569   0.01673   0.01673   0.01673   0.00122   0.00122   0.00003   0.00122   0.00003
 -4.71572   0.28225   0.01487   0.01487   0.01487   0.00129   0.00129   0.00005   0.00129   0.00005
 -4.66555   0.24996   0.01119   0.01119   0.01119   0.00113   0.00113   0.00006   0.00113   0.00006
 -4.61538   0.16379   0.00672   0.00672   0.00672   0.00074   0.00074   0.00004   0.00074   0.00004
 -4.56522   0.07141   0.00283   0.00283   0.00283   0.00032   0.00032   0.00002   0.00032   0.00002
 -4.51505   0.01970   0.00077   0.00077   0.00077   0.00009   0.00009   0.00001   0.00009   0.00001
 -4.46488   0.00338   0.00013   0.00013   0.00013   0.00002   0.00002   0.00000   0.00002   0.00000
 -4.41472   0.00040   0.00002   0.00002   0.00002   0.00000   0.00000   0.00000   0.00000   0.00000
 -4.36455   0.00050   0.00002   0.00002   0.00002   0.00000   0.00000   0.00000   0.00000   0.00000
 -4.31438   0.00371   0.00013   0.00013   0.00013   0.00002   0.00002   0.00000   0.00002   0.00000
 -4.26421   0.01768   0.00069   0.00069   0.00069   0.00009   0.00009   0.00001   0.00009   0.00001
 -4.21405   0.05217   0.00219   0.00219   0.00219   0.00027   0.00027   0.00002   0.00027   0.00002
 -4.16388   0.09541   0.00433   0.00433   0.00433   0.00050   0.00050   0.00004   0.00050   0.00004
 -4.11371   0.10822   0.00528   0.00528   0.00528   0.00057   0.00057   0.00004   0.00057   0.00004
 -4.06355   0.07613   0.00397   0.00397   0.00397   0.00040   0.00040   0.00003   0.00040   0.00003
 -4.01338   0.03321   0.00184   0.00184   0.00184   0.00018   0.00018   0.00001   0.00018   0.00001
 -3.96321   0.00902   0.00054   0.00054   0.00054   0.00005   0.00005   0.00000   0.00005   0.00000
 -3.91304   0.00210   0.00030   0.00030   0.00030   0.00001   0.00001   0.00000   0.00001   0.00000
 -3.86288   0.00514   0.00177   0.00177   0.00177   0.00003   0.00003   0.00001   0.00003   0.00001
 -3.81271   0.02562   0.00942   0.00942   0.00942   0.00015   0.00015   0.00005   0.00015   0.00005
 -3.76254   0.08111   0.03234   0.03234   0.03234   0.00049   0.00049   0.00017   0.00049   0.00017
 -3.71237   0.15887   0.07274   0.07274   0.07274   0.00098   0.00098   0.00040   0.00098   0.00040
 -3.66221   0.19361   0.11352   0.11352   0.11352   0.00125   0.00125   0.00063   0.00125   0.00063
 -3.61204   0.15086   0.14334   0.14334   0.14334   0.00110   0.00110   0.00081   0.00110   0.00081
 -3.56187   0.08427   0.17789   0.17789   0.17789   0.00083   0.00083   0.00103   0.00083   0.00103
 -3.51171   0.04545   0.20535   0.20535   0.20535   0.00070   0.00070   0.00121   0.00070   0.00121
 -3.46154   0.02763   0.17905   0.17905   0.17905   0.00056   0.00056   0.00109   0.00056   0.00109
 -3.41137   0.01535   0.10900   0.10900   0.10900   0.00035   0.00035   0.00071   0.00035   0.00071
 -3.36120   0.01302   0.05326   0.05326   0.05326   0.00022   0.00022   0.00038   0.00022   0.00038
 -3.31104   0.03198   0.03809   0.03809   0.03809   0.00031   0.00031   0.00023   0.00031   0.00023
 -3.26087   0.07369   0.05729   0.05729   0.05729   0.00060   0.00060   0.00023   0.00060   0.00023
 -3.21070   0.11412   0.09703   0.09703   0.09703   0.00094   0.00094   0.00038   0.00094   0.00038
 -3.16054   0.12190   0.13976   0.13976   0.13976   0.00111   0.00111   0.00062   0.00111   0.00062
 -3.11037   0.09722   0.16977   0.16977   0.16977   0.00109   0.00109   0.00081   0.00109   0.00081
 -3.06020   0.06728   0.19649   0.19649   0.19649   0.00106   0.00106   0.00088   0.00106   0.00088
 -3.01003   0.05494   0.24607   0.24607   0.24607   0.00123   0.00123   0.00094   0.00123   0.00094
 -2.95987   0.05652   0.29006   0.29006   0.29006   0.00145   0.00145   0.00097   0.00145   0.00097
 -2.90970   0.04988   0.25887   0.25887   0.25887   0.00131   0.00131   0.00080   0.00131   0.00080
 -2.85953   0.02981   0.15706   0.15706   0.15706   0.00079   0.00079   0.00046   0.00079   0.00046
 -2.80936   0.01132   0.06236   0.06236   0.06236   0.00031   0.00031   0.00017   0.00031   0.00017
 -2.75920   0.00272   0.01799   0.01799   0.01799   0.00009   0.00009   0.00005   0.00009   0.00005
 -2.70903   0.00058   0.01552   0.01552   0.01552   0.00007   0.00007   0.00004   0.00007   0.00004
 -2.65886   0.00072   0.04670   0.04670   0.04670   0.00020   0.00020   0.00013   0.00020   0.00013
 -2.60870   0.00160   0.10491   0.10491   0.10491   0.00046   0.00046   0.00029   0.00046   0.00029
 -2.55853   0.00243   0.15505   0.15505   0.15505   0.00068   0.00068   0.00043   0.00068   0.00043
 -2.50836   0.00307   0.17001   0.17001   0.17001   0.00079   0.00079   0.00043   0.00079   0.00043
 -2.45819   0.00620   0.18382   0.18382   0.18382   0.00098   0.00098   0.00038   0.00098   0.00038
 -2.40803   0.01707   0.23170   0.23170   0.23170   0.00146   0.00146   0.00043   0.00146   0.00043
 -2.35786   0.03716   0.28492   0.28492   0.28492   0.00202   0.00202   0.00057   0.00202   0.00057
 -2.30769   0.05836   0.29698   0.29698   0.29698   0.00229   0.00229   0.00070   0.00229   0.00070
 -2.25753   0.07537   0.26324   0.26324   0.26324   0.00213   0.00213   0.00076   0.00213   0.00076
 -2.20736   0.09849   0.21182   0.21182   0.21182   0.00186   0.00186   0.00072   0.00186   0.00072
 -2.15719   0.12893   0.16530   0.16530   0.16530   0.00174   0.00174   0.00059   0.00174   0.00059
 -2.10702   0.14161   0.13980   0.13980   0.13980   0.00176   0.00176   0.00043   0.00176   0.00043
 -2.05686   0.11779   0.14708   0.14708   0.14708   0.00183   0.00183   0.00033   0.00183   0.00033
 -2.00669   0.07075   0.17126   0.17126   0.17126   0.00182   0.00182   0.00031   0.00182   0.00031
 -1.95652   0.02995   0.17704   0.17704   0.17704   0.00163   0.00163   0.00033   0.00163   0.00033
 -1.90635   0.01139   0.15227   0.15227   0.15227   0.00129   0.00129   0.00036   0.00129   0.00036
 -1.85619   0.01277   0.12374   0.12374   0.12374   0.00107   0.00107   0.00038   0.00107   0.00038
 -1.80602   0.02580   0.13299   0.13299   0.13299   0.00126   0.00126   0.00050   0.00126   0.00050
 -1.75585   0.03723   0.18864   0.18864   0.18864   0.00187   0.00187   0.00072   0.00187   0.00072
 -1.70569   0.03443   0.23177   0.23177   0.23177   0.00228   0.00228   0.00086   0.00228   0.00086
 -1.65552   0.02043   0.19931   0.19931   0.19931   0.00195   0.00195   0.00069   0.00195   0.00069
 -1.60535   0.00787   0.11665   0.11665   0.11665   0.00116   0.00116   0.00037   0.00116   0.00037
 -1.55518   0.00202   0.05953   0.05953   0.05953   0.00064   0.00064   0.00016   0.00064   0.00016
 -1.50502   0.00056   0.06252   0.06252   0.06252   0.00075   0.00075   0.00016   0.00075   0.00016
 -1.45485   0.00111   0.10219   0.10219   0.10219   0.00127   0.00127   0.00026   0.00127   0.00026
 -1.40468   0.00333   0.13212   0.13212   0.13212   0.00171   0.00171   0.00032   0.00171   0.00032
 -1.35452   0.00707   0.13539   0.13539   0.13539   0.00184   0.00184   0.00033   0.00184   0.00033
 -1.30435   0.01148   0.13564   0.13564   0.13564   0.00193   0.00193   0.00037   0.00193   0.00037
 -1.25418   0.01634   0.15558   0.15558   0.15558   0.00229   0.00229   0.00048   0.00229   0.00048
 -1.20401   0.02053   0.18623   0.18623   0.18623   0.00284   0.00284   0.00057   0.00284   0.00057
 -1.15385   0.01964   0.18829   0.18829   0.18829   0.00296   0.00296   0.00054   0.00296   0.00054
 -1.10368   0.01262   0.14423   0.14423   0.14423   0.00233   0.00233   0.00039   0.00233   0.00039
 -1.05351   0.00515   0.08725   0.08725   0.08725   0.00143   0.00143   0.00024   0.00143   0.00024
 -1.00334   0.00131   0.04689   0.04689   0.04689   0.00078   0.00078   0.00014   0.00078   0.00014
 -0.95318   0.00020   0.02280   0.02280   0.02280   0.00038   0.00038   0.00008   0.00038   0.00008
 -0.90301   0.00002   0.01222   0.01222   0.01222   0.00022   0.00022   0.00005   0.00022   0.00005
 -0.85284   0.00000   0.01910   0.01910   0.01910   0.00040   0.00040   0.00008   0.00040   0.00008
 -0.80268   0.00000   0.04415   0.04415   0.04415   0.00097   0.00097   0.00017   0.00097   0.00017
 -0.75251   0.00000   0.07285   0.07285   0.07285   0.00164   0.00164   0.00026   0.00164   0.00026
 -0.70234  -0.00000   0.07971   0.07971   0.07971   0.00185   0.00185   0.00024   0.00185   0.00024
 -0.65217  -0.00000   0.05779   0.05779   0.05779   0.00138   0.00138   0.00014   0.00138   0.00014
 -0.60201  -0.00000   0.02768   0.02768   0.02768   0.00068   0.00068   0.00005   0.00068   0.00005
 -0.55184  -0.00000   0.00884   0.00884   0.00884   0.00022   0.00022   0.00001   0.00022   0.00001
 -0.50167  -0.00000   0.00300   0.00300   0.00300   0.00009   0.00009   0.00001   0.00009   0.00001
 -0.45151   0.00000   0.00576   0.00576   0.00576   0.00021   0.00021   0.00002   0.00021   0.00002
 -0.40134   0.00000   0.01564   0.01564   0.01564   0.00059   0.00059   0.00005   0.00059   0.00005
 -0.35117   0.00000   0.02835   0.02835   0.02835   0.00109   0.00109   0.00007   0.00109   0.00007
 -0.30100   0.00000   0.03319   0.03319   0.03319   0.00130   0.00130   0.00008   0.00130   0.00008
 -0.25084   0.00000   0.02514   0.02514   0.02514   0.00100   0.00100   0.00005   0.00100   0.00005
 -0.20067   0.00001   0.01264   0.01264   0.01264   0.00052   0.00052   0.00002   0.00052   0.00002
 -0.15050   0.00014   0.00519   0.00519   0.00519   0.00024   0.00024   0.00001   0.00024   0.00001
 -0.10033   0.00092   0.00319   0.00319   0.00319   0.00019   0.00019   0.00000   0.00019   0.00000
 -0.05017   0.00375   0.00265   0.00265   0.00265   0.00017   0.00017   0.00000   0.00017   0.00000
 -0.00000   0.00940   0.00165   0.00165   0.00165   0.00011   0.00011   0.00000   0.00011   0.00000
  0.05017   0.01455   0.00065   0.00065   0.00065   0.00004   0.00004   0.00000   0.00004   0.00000
  0.10033   0.01389   0.00016   0.00016   0.00016   0.00001   0.00001   0.00000   0.00001   0.00000
  0.15050   0.00819   0.00002   0.00002   0.00002   0.00000   0.00000   0.00000   0.00000   0.00000
  0.20067   0.00298   0.00000   0.00000   0.00000   0.00000   0.00000   0.00000   0.00000   0.00000