    2    2    1    1
  0.2376593E+02  0.4065993E-09  0.4065993E-09  0.4065993E-09  0.5000000E-15
  1.000000000000000E-004
  CAR
 unknown system
     18    941     32

  0.0000000E+00  0.0000000E+00  0.0000000E+00  0.1953125E-02
    1      -11.257167   1.000000
    2      -11.257167   1.000000
    3      -11.257166   1.000000
    4      -11.190353   1.000000
    5      -11.190353   1.000000
    6       -8.904795   1.000000
    7        3.470205   0.913209
    8        3.470206   0.913207
    9        3.470206   0.913207
   10        3.611820   0.260451
   11        7.179278   0.000000
   12        7.179282   0.000000
   13        7.179282   0.000000
   14       10.900897   0.000000
   15       13.464621   0.000000
   16       13.464621   0.000000
   17       14.898040   0.000000
   18       14.898041   0.000000
   19       14.898041   0.000000
   20       17.785437   0.000000
   21       27.991342   0.000000
   22       27.991348   0.000000
   23       27.991348   0.000000
   24       29.086294   0.000000
   25       29.086295   0.000000
   26       29.086295   0.000000
   27       29.760208   0.000000
   28       29.760213   0.000000
   29       29.760213   0.000000
   30       30.351443   0.000000
   31       30.351443   0.000000
   32       37.282987   0.000000

  0.1250000E+00  0.0000000E+00  0.0000000E+00  0.1953125E-02
    1      -11.267613   1.000000
    2      -11.254201   1.000000
    3      -11.254201   1.000000
    4      -11.190467   1.000000
    5      -11.190467   1.000000
    6       -8.735666   1.000000
    7        1.472739   1.000000
    8        3.252184   0.999996
    9        3.252185   0.999996
   10        4.820765   0.000000
   11        7.505047   0.000000
   12        7.505051   0.000000
   13        7.564773   0.000000
   14       11.805221   0.000000
   15       12.659724   0.000000
   16       12.659724   0.000000
   17       14.250136   0.000000
   18       16.385583   0.000000
   19       16.385585   0.000000
   20       19.160313   0.000000
   21       25.118577   0.000000
   22       25.306593   0.000000
   23       25.306594   0.000000
   24       28.814732   0.000000
   25       28.814736   0.000000
   26       29.796907   0.000000
   27       29.796910   0.000000
   28       29.916084   0.000000
   29       31.255384   0.000000
   30       33.815915   0.000000
   31       33.815916   0.000000
   32       37.142950   0.000000

  0.2500000E+00  0.0000000E+00  0.0000000E+00  0.1953125E-02
    1      -11.291123   1.000000
    2      -11.247754   1.000000
    3      -11.247754   1.000000
    4      -11.190011   1.000000
    5      -11.190011   1.000000
    6       -8.264186   1.000000
    7       -0.576844   1.000000
    8        2.839252   1.000000
    9        2.839253   1.000000
   10        4.752469   0.000000
   11        8.005610   0.000000
   12        8.005615   0.000000
   13        9.181771   0.000000
   14       12.329919   0.000000
   15       12.418688   0.000000
   16       12.418688   0.000000
   17       15.115307   0.000000
   18       18.877970   0.000000
   19       18.877971   0.000000
   20       21.534501   0.000000
   21       21.798870   0.000000
   22       21.798870   0.000000
   23       22.182777   0.000000
   24       29.270399   0.000000
   25       29.270404   0.000000
   26       30.126645   0.000000
   27       30.126648   0.000000
   28       30.348702   0.000000
   29       31.663567   0.000000
   30       33.578496   0.000000
   31       33.578496   0.000000
   32       33.944762   0.000000

  0.3750000E+00  0.0000000E+00  0.0000000E+00  0.1953125E-02
    1      -11.312734   1.000000
    2      -11.242584   1.000000
    3      -11.242584   1.000000
    4      -11.188239   1.000000
    5      -11.188239   1.000000
    6       -7.640020   1.000000
    7       -2.210930   1.000000
    8        2.518088   1.000000
    9        2.518089   1.000000
   10        4.448010   0.000000
   11        8.117145   0.000000
   12        8.117150   0.000000
   13       10.930683   0.000000
   14       12.236859   0.000000
   15       13.507929   0.000000
   16       13.507929   0.000000
   17       16.703408   0.000000
   18       18.530014   0.000000
   19       18.530014   0.000000
   20       20.232064   0.000000
   21       21.997008   0.000000
   22       21.997008   0.000000
   23       25.161176   0.000000
   24       27.890584   0.000000
   25       29.135622   0.000000
   26       29.135622   0.000000
   27       29.935822   0.000000
   28       29.935827   0.000000
   29       30.907273   0.000000
   30       30.908479   0.000000
   31       30.908481   0.000000
   32       33.219849   0.000000

  0.5000000E+00  0.0000000E+00  0.0000000E+00  0.1953125E-02
    1      -11.321242   1.000000
    2      -11.240890   1.000000
    3      -11.240889   1.000000
    4      -11.187057   1.000000
    5      -11.187057   1.000000
    6       -7.292228   1.000000
    7       -2.904119   1.000000
    8        2.402266   1.000000
    9        2.402267   1.000000
   10        4.328390   0.000000
   11        8.080008   0.000000
   12        8.080013   0.000000
   13       11.163624   0.000000
   14       13.492163   0.000000
   15       15.087869   0.000000
   16       15.087871   0.000000
   17       15.482913   0.000000
   18       16.354320   0.000000
   19       16.354322   0.000000
   20       22.317568   0.000000
   21       24.349871   0.000000
   22       25.070558   0.000000
   23       25.070560   0.000000
   24       25.805887   0.000000
   25       25.805888   0.000000
   26       29.051022   0.000000
   27       29.566011   0.000000
   28       30.236983   0.000000
   29       30.236988   0.000000
   30       31.055361   0.000000
   31       31.055363   0.000000
   32       31.204187   0.000000

 -0.3750000E+00  0.0000000E+00  0.0000000E+00  0.1953125E-02
    1      -11.312734   1.000000
    2      -11.242584   1.000000
    3      -11.242584   1.000000
    4      -11.188239   1.000000
    5      -11.188239   1.000000
    6       -7.640020   1.000000
    7       -2.210930   1.000000
    8        2.518088   1.000000
    9        2.518089   1.000000
   10        4.448010   0.000000
   11        8.117145   0.000000
   12        8.117150   0.000000
   13       10.930683   0.000000
   14       12.236859   0.000000
   15       13.507929   0.000000
   16       13.507929   0.000000
   17       16.703408   0.000000
   18       18.530014   0.000000
   19       18.530014   0.000000
   20       20.232064   0.000000
   21       21.997008   0.000000
   22       21.997008   0.000000
   23       25.161176   0.000000
   24       27.890584   0.000000
   25       29.135622   0.000000
   26       29.135622   0.000000
   27       29.935822   0.000000
   28       29.935827   0.000000
   29       30.907273   0.000000
   30       30.908479   0.000000
   31       30.908481   0.000000
   32       33.219849   0.000000

 -0.2500000E+00  0.0000000E+00  0.0000000E+00  0.1953125E-02
    1      -11.291123   1.000000
    2      -11.247754   1.000000
    3      -11.247754   1.000000
    4      -11.190011   1.000000
    5      -11.190011   1.000000
    6       -8.264186   1.000000
    7       -0.576844   1.000000
    8        2.839252   1.000000
    9        2.839253   1.000000
   10        4.752469   0.000000
   11        8.005610   0.000000
   12        8.005615   0.000000
   13        9.181771   0.000000
   14       12.329919   0.000000
   15       12.418688   0.000000
   16       12.418688   0.000000
   17       15.115307   0.000000
   18       18.877970   0.000000
   19       18.877971   0.000000
   20       21.534501   0.000000
   21       21.798870   0.000000
   22       21.798870   0.000000
   23       22.182777   0.000000
   24       29.270399   0.000000
   25       29.270404   0.000000
   26       30.126645   0.000000
   27       30.126648   0.000000
   28       30.348702   0.000000
   29       31.663567   0.000000
   30       33.578496   0.000000
   31       33.578496   0.000000
   32       33.944762   0.000000

 -0.1250000E+00  0.0000000E+00  0.0000000E+00  0.1953125E-02
    1      -11.267613   1.000000
    2      -11.254201   1.000000
    3      -11.254201   1.000000
    4      -11.190467   1.000000
    5      -11.190467   1.000000
    6       -8.735666   1.000000
    7        1.472739   1.000000
    8        3.252184   0.999996
    9        3.252185   0.999996
   10        4.820765   0.000000
   11        7.505047   0.000000
   12        7.505051   0.000000
   13        7.564773   0.000000
   14       11.805221   0.000000
   15       12.659724   0.000000
   16       12.659724   0.000000
   17       14.250136   0.000000
   18       16.385583   0.000000
   19       16.385585   0.000000
   20       19.160313   0.000000
   21       25.118577   0.000000
   22       25.306593   0.000000
   23       25.306594   0.000000
   24       28.814732   0.000000
   25       28.814736   0.000000
   26       29.796907   0.000000
   27       29.796910   0.000000
   28       29.916084   0.000000
   29       31.255384   0.000000
   30       33.815915   0.000000
   31       33.815916   0.000000
   32       37.142950   0.000000

  0.0000000E+00  0.1250000E+00  0.0000000E+00  0.1953125E-02
    1      -11.267613   1.000000
    2      -11.254201   1.000000
    3      -11.254201   1.000000
    4      -11.190467   1.000000
    5      -11.190467   1.000000
    6       -8.735666   1.000000
    7        1.472739   1.000000
    8        3.252184   0.999996
    9        3.252185   0.999996
   10        4.820765   0.000000
   11        7.505047   0.000000
   12        7.505051   0.000000
   13        7.564773   0.000000
   14       11.805221   0.000000
   15       12.659724   0.000000
   16       12.659724   0.000000
   17       14.250136   0.000000
   18       16.385583   0.000000
   19       16.385585   0.000000
   20       19.160313   0.000000
   21       25.118577   0.000000
   22       25.306593   0.000000
   23       25.306594   0.000000
   24       28.814732   0.000000
   25       28.814736   0.000000
   26       29.796907   0.000000
   27       29.796910   0.000000
   28       29.916084   0.000000
   29       31.255384   0.000000
   30       33.815915   0.000000
   31       33.815916   0.000000
   32       37.142950   0.000000

  0.1250000E+00  0.1250000E+00  0.0000000E+00  0.1953125E-02
    1      -11.273922   1.000000
    2      -11.251369   1.000000
    3      -11.251369   1.000000
    4      -11.192709   1.000000
    5      -11.188763   1.000000
    6       -8.679169   1.000000
    7        1.406173   1.000000
    8        2.863856   1.000000
    9        2.863857   1.000000
   10        5.551410   0.000000
   11        6.559085   0.000000
   12        8.075393   0.000000
   13        8.075395   0.000000
   14       11.461533   0.000000
   15       12.157095   0.000000
   16       13.710034   0.000000
   17       15.416260   0.000000
   18       15.416261   0.000000
   19       16.126961   0.000000
   20       19.932968   0.000000
   21       24.767849   0.000000
   22       24.767853   0.000000
   23       25.861617   0.000000
   24       26.234840   0.000000
   25       29.067349   0.000000
   26       29.331867   0.000000
   27       29.331873   0.000000
   28       31.787111   0.000000
   29       33.283321   0.000000
   30       33.283325   0.000000
   31       34.247717   0.000000
   32       36.516035   0.000000

  0.2500000E+00  0.1250000E+00  0.0000000E+00  0.1953125E-02
    1      -11.292773   1.000000
    2      -11.245923   1.000000
    3      -11.244649   1.000000
    4      -11.194567   1.000000
    5      -11.187334   1.000000
    6       -8.306386   1.000000
    7       -0.126913   1.000000
    8        2.370980   1.000000
    9        2.405627   1.000000
   10        5.826281   0.000000
   11        6.821060   0.000000
   12        8.782006   0.000000
   13        8.892982   0.000000
   14       11.229196   0.000000
   15       13.346017   0.000000
   16       13.545903   0.000000
   17       15.189122   0.000000
   18       17.161697   0.000000
   19       18.356827   0.000000
   20       21.661255   0.000000
   21       21.688903   0.000000
   22       22.293004   0.000000
   23       24.969207   0.000000
   24       26.014624   0.000000
   25       26.857474   0.000000
   26       29.733643   0.000000
   27       30.779402   0.000000
   28       32.402464   0.000000
   29       33.509928   0.000000
   30       33.735591   0.000000
   31       34.983532   0.000000
   32       35.179093   0.000000

  0.3750000E+00  0.1250000E+00  0.0000000E+00  0.1953125E-02
    1      -11.312452   1.000000
    2      -11.241355   1.000000
    3      -11.238910   1.000000
    4      -11.193831   1.000000
    5      -11.186067   1.000000
    6       -7.716654   1.000000
    7       -1.760620   1.000000
    8        1.796074   1.000000
    9        2.129090   1.000000
   10        5.572291   0.000000
   11        7.569450   0.000000
   12        8.945896   0.000000
   13        9.566122   0.000000
   14       12.551596   0.000000
   15       13.464936   0.000000
   16       14.290937   0.000000
   17       16.476398   0.000000
   18       18.330357   0.000000
   19       19.351230   0.000000
   20       19.996062   0.000000
   21       21.407270   0.000000
   22       22.235913   0.000000
   23       25.364801   0.000000
   24       26.520954   0.000000
   25       26.865843   0.000000
   26       28.033810   0.000000
   27       30.325369   0.000000
   28       30.422402   0.000000
   29       31.843398   0.000000
   30       32.087069   0.000000
   31       32.844535   0.000000
   32       33.433334   0.000000

  0.5000000E+00  0.1250000E+00  0.0000000E+00  0.1953125E-02
    1      -11.323374   1.000000
    2      -11.239144   1.000000
    3      -11.236888   1.000000
    4      -11.190729   1.000000
    5      -11.186396   1.000000
    6       -7.222193   1.000000
    7       -2.770077   1.000000
    8        1.387129   1.000000
    9        2.117553   1.000000
   10        5.390404   0.000000
   11        7.786072   0.000000
   12        8.711039   0.000000
   13       11.009492   0.000000
   14       12.931336   0.000000
   15       14.488064   0.000000
   16       15.091076   0.000000
   17       15.641081   0.000000
   18       16.648222   0.000000
   19       19.081942   0.000000
   20       21.681204   0.000000
   21       23.151278   0.000000
   22       24.102170   0.000000
   23       24.922823   0.000000
   24       26.362980   0.000000
   25       26.925333   0.000000
   26       27.502732   0.000000
   27       28.268496   0.000000
   28       28.996651   0.000000
   29       30.867472   0.000000
   30       31.439927   0.000000
   31       31.834379   0.000000
   32       32.011950   0.000000

 -0.3750000E+00  0.1250000E+00  0.0000000E+00  0.1953125E-02
    1      -11.320235   1.000000
    2      -11.239338   1.000000
    3      -11.238616   1.000000
    4      -11.189274   1.000000
    5      -11.188415   1.000000
    6       -7.345230   1.000000
    7       -2.537489   1.000000
    8        1.263395   1.000000
    9        2.366164   1.000000
   10        5.412297   0.000000
   11        7.998327   0.000000
   12        8.465765   0.000000
   13       10.983969   0.000000
   14       12.994399   0.000000
   15       13.056971   0.000000
   16       14.796405   0.000000
   17       16.103877   0.000000
   18       18.284641   0.000000
   19       19.004660   0.000000
   20       20.390270   0.000000
   21       22.252868   0.000000
   22       24.504726   0.000000
   23       25.838556   0.000000
   24       26.415364   0.000000
   25       27.079822   0.000000
   26       27.348999   0.000000
   27       27.912719   0.000000
   28       29.207706   0.000000
   29       30.689205   0.000000
   30       31.481595   0.000000
   31       32.209254   0.000000
   32       32.428847   0.000000

 -0.2500000E+00  0.1250000E+00  0.0000000E+00  0.1953125E-02
    1      -11.304266   1.000000
    2      -11.244006   1.000000
    3      -11.242161   1.000000
    4      -11.192046   1.000000
    5      -11.188286   1.000000
    6       -7.928903   1.000000
    7       -1.251691   1.000000
    8        1.495340   1.000000
    9        2.796630   1.000000
   10        5.594093   0.000000
   11        8.143846   0.000000
   12        8.149280   0.000000
   13        9.423074   0.000000
   14       11.730414   0.000000
   15       13.039716   0.000000
   16       14.300487   0.000000
   17       15.993612   0.000000
   18       18.391015   0.000000
   19       18.774070   0.000000
   20       21.174117   0.000000
   21       21.827616   0.000000
   22       22.274613   0.000000
   23       23.931096   0.000000
   24       26.151534   0.000000
   25       26.992669   0.000000
   26       30.077710   0.000000
   27       30.178976   0.000000
   28       30.904318   0.000000
   29       31.257136   0.000000
   30       32.759737   0.000000
   31       33.743684   0.000000
   32       34.520030   0.000000

 -0.1250000E+00  0.1250000E+00  0.0000000E+00  0.1953125E-02
    1      -11.282845   1.000000
    2      -11.250853   1.000000
    3      -11.247912   1.000000
    4      -11.192124   1.000000
    5      -11.189113   1.000000
    6       -8.464559   1.000000
    7        0.342136   1.000000
    8        2.207425   1.000000
    9        3.208204   1.000000
   10        5.524001   0.000000
   11        7.474504   0.000000
   12        7.631199   0.000000
   13        8.725105   0.000000
   14       11.697931   0.000000
   15       12.583919   0.000000
   16       12.994296   0.000000
   17       15.303210   0.000000
   18       16.095308   0.000000
   19       18.576879   0.000000
   20       20.939721   0.000000
   21       21.591445   0.000000
   22       24.504365   0.000000
   23       25.354694   0.000000
   24       25.892944   0.000000
   25       27.118355   0.000000
   26       29.567979   0.000000
   27       30.688432   0.000000
   28       32.997628   0.000000
   29       33.460091   0.000000
   30       34.118198   0.000000
   31       34.766337   0.000000
   32       35.471435   0.000000

  0.0000000E+00  0.2500000E+00  0.0000000E+00  0.1953125E-02
    1      -11.291123   1.000000
    2      -11.247754   1.000000
    3      -11.247754   1.000000
    4      -11.190011   1.000000
    5      -11.190011   1.000000
    6       -8.264186   1.000000
    7       -0.576844   1.000000
    8        2.839252   1.000000
    9        2.839253   1.000000
   10        4.752469   0.000000
   11        8.005610   0.000000
   12        8.005615   0.000000
   13        9.181771   0.000000
   14       12.329919   0.000000
   15       12.418688   0.000000
   16       12.418688   0.000000
   17       15.115307   0.000000
   18       18.877970   0.000000
   19       18.877971   0.000000
   20       21.534501   0.000000
   21       21.798870   0.000000
   22       21.798870   0.000000
   23       22.182777   0.000000
   24       29.270399   0.000000
   25       29.270404   0.000000
   26       30.126645   0.000000
   27       30.126648   0.000000
   28       30.348702   0.000000
   29       31.663567   0.000000
   30       33.578496   0.000000
   31       33.578496   0.000000
   32       33.944762   0.000000

  0.1250000E+00  0.2500000E+00  0.0000000E+00  0.1953125E-02
    1      -11.292773   1.000000
    2      -11.245923   1.000000
    3      -11.244649   1.000000
    4      -11.194567   1.000000
    5      -11.187334   1.000000
    6       -8.306386   1.000000
    7       -0.126913   1.000000
    8        2.370980   1.000000
    9        2.405627   1.000000
   10        5.826281   0.000000
   11        6.821060   0.000000
   12        8.782006   0.000000
   13        8.892982   0.000000
   14       11.229196   0.000000
   15       13.346017   0.000000
   16       13.545903   0.000000
   17       15.189122   0.000000
   18       17.161697   0.000000
   19       18.356827   0.000000
   20       21.661255   0.000000
   21       21.688903   0.000000
   22       22.293004   0.000000
   23       24.969207   0.000000
   24       26.014624   0.000000
   25       26.857474   0.000000
   26       29.733643   0.000000
   27       30.779402   0.000000
   28       32.402464   0.000000
   29       33.509928   0.000000
   30       33.735591   0.000000
   31       34.983532   0.000000
   32       35.179093   0.000000

  0.2500000E+00  0.2500000E+00  0.0000000E+00  0.1953125E-02
    1      -11.308797   1.000000
    2      -11.237091   1.000000
    3      -11.237091   1.000000
    4      -11.199617   1.000000
    5      -11.184922   1.000000
    6       -8.044299   1.000000
    7       -0.591573   1.000000
    8        1.896021   1.000000
    9        1.896022   1.000000
   10        5.471486   0.000000
   11        6.594844   0.000000
   12        9.888536   0.000000
   13        9.888538   0.000000
   14       10.743085   0.000000
   15       14.440778   0.000000
   16       14.579435   0.000000
   17       16.975827   0.000000
   18       16.975828   0.000000
   19       17.549308   0.000000
   20       21.237938   0.000000
   21       21.237942   0.000000
   22       22.839621   0.000000
   23       22.925468   0.000000
   24       24.367364   0.000000
   25       29.560395   0.000000
   26       30.066449   0.000000
   27       30.066455   0.000000
   28       30.796357   0.000000
   29       31.986467   0.000000
   30       31.986469   0.000000
   31       33.539349   0.000000
   32       33.903678   0.000000

  0.3750000E+00  0.2500000E+00  0.0000000E+00  0.1953125E-02
    1      -11.324409   1.000000
    2      -11.231809   1.000000
    3      -11.230284   1.000000
    4      -11.201685   1.000000
    5      -11.183399   1.000000
    6       -7.542586   1.000000
    7       -1.688871   1.000000
    8        1.210877   1.000000
    9        1.583592   1.000000
   10        5.592906   0.000000
   11        6.702627   0.000000
   12        9.739954   0.000000
   13       10.469810   0.000000
   14       12.626436   0.000000
   15       15.097254   0.000000
   16       15.333075   0.000000
   17       17.119786   0.000000
   18       18.421967   0.000000
   19       18.947502   0.000000
   20       19.129400   0.000000
   21       20.345141   0.000000
   22       22.625155   0.000000
   23       22.834324   0.000000
   24       26.417998   0.000000
   25       27.278039   0.000000
   26       27.821359   0.000000
   27       29.773794   0.000000
   28       29.949692   0.000000
   29       30.631647   0.000000
   30       31.347328   0.000000
   31       32.612655   0.000000
   32       33.955977   0.000000

  0.5000000E+00  0.2500000E+00  0.0000000E+00  0.1953125E-02
    1      -11.332090   1.000000
    2      -11.231863   1.000000
    3      -11.227635   1.000000
    4      -11.199050   1.000000
    5      -11.184311   1.000000
    6       -7.021551   1.000000
    7       -2.608860   1.000000
    8        0.433844   1.000000
    9        1.565049   1.000000
   10        5.657866   0.000000
   11        8.008368   0.000000
   12        9.582396   0.000000
   13       10.265796   0.000000
   14       13.530188   0.000000
   15       15.244901   0.000000
   16       15.673845   0.000000
   17       16.236475   0.000000
   18       17.221508   0.000000
   19       20.645063   0.000000
   20       21.608876   0.000000
   21       22.047428   0.000000
   22       23.420230   0.000000
   23       23.429904   0.000000
   24       23.893622   0.000000
   25       25.405090   0.000000
   26       27.724378   0.000000
   27       28.288228   0.000000
   28       29.261754   0.000000
   29       30.520668   0.000000
   30       31.002984   0.000000
   31       31.664503   0.000000
   32       32.126369   0.000000

 -0.3750000E+00  0.2500000E+00  0.0000000E+00  0.1953125E-02
    1      -11.329831   1.000000
    2      -11.234402   1.000000
    3      -11.229667   1.000000
    4      -11.194075   1.000000
    5      -11.188177   1.000000
    6       -6.941446   1.000000
    7       -2.721390   1.000000
    8        0.045590   1.000000
    9        1.842432   1.000000
   10        5.827707   0.000000
   11        8.743698   0.000000
   12        9.774886   0.000000
   13       10.596069   0.000000
   14       11.834494   0.000000
   15       13.077607   0.000000
   16       15.847432   0.000000
   17       17.653650   0.000000
   18       19.585054   0.000000
   19       19.757572   0.000000
   20       20.375923   0.000000
   21       23.185476   0.000000
   22       23.480397   0.000000
   23       24.682669   0.000000
   24       25.138089   0.000000
   25       25.245750   0.000000
   26       27.510454   0.000000
   27       27.630191   0.000000
   28       28.442419   0.000000
   29       29.050201   0.000000
   30       30.522990   0.000000
   31       31.186983   0.000000
   32       31.945471   0.000000

 -0.2500000E+00  0.2500000E+00  0.0000000E+00  0.1953125E-02
    1      -11.319250   1.000000
    2      -11.237645   1.000000
    3      -11.236121   1.000000
    4      -11.191716   1.000000
    5      -11.189890   1.000000
    6       -7.395361   1.000000
    7       -2.028098   1.000000
    8        0.322650   1.000000
    9        2.331325   1.000000
   10        6.074068   0.000000
   11        8.938392   0.000000
   12        9.014548   0.000000
   13        9.155703   0.000000
   14       11.806478   0.000000
   15       13.553385   0.000000
   16       15.809902   0.000000
   17       16.532396   0.000000
   18       17.443373   0.000000
   19       20.556001   0.000000
   20       21.309331   0.000000
   21       22.167521   0.000000
   22       23.065862   0.000000
   23       24.457625   0.000000
   24       25.019534   0.000000
   25       26.805331   0.000000
   26       27.977783   0.000000
   27       28.444259   0.000000
   28       29.417311   0.000000
   29       30.038830   0.000000
   30       30.664672   0.000000
   31       31.588060   0.000000
   32       33.477396   0.000000

 -0.1250000E+00  0.2500000E+00  0.0000000E+00  0.1953125E-02
    1      -11.304266   1.000000
    2      -11.244006   1.000000
    3      -11.242161   1.000000
    4      -11.192046   1.000000
    5      -11.188286   1.000000
    6       -7.928903   1.000000
    7       -1.251691   1.000000
    8        1.495340   1.000000
    9        2.796630   1.000000
   10        5.594093   0.000000
   11        8.143846   0.000000
   12        8.149280   0.000000
   13        9.423074   0.000000
   14       11.730414   0.000000
   15       13.039716   0.000000
   16       14.300487   0.000000
   17       15.993612   0.000000
   18       18.391015   0.000000
   19       18.774070   0.000000
   20       21.174117   0.000000
   21       21.827616   0.000000
   22       22.274613   0.000000
   23       23.931096   0.000000
   24       26.151534   0.000000
   25       26.992669   0.000000
   26       30.077710   0.000000
   27       30.178976   0.000000
   28       30.904318   0.000000
   29       31.257136   0.000000
   30       32.759737   0.000000
   31       33.743684   0.000000
   32       34.520030   0.000000

  0.0000000E+00  0.3750000E+00  0.0000000E+00  0.1953125E-02
    1      -11.312734   1.000000
    2      -11.242584   1.000000
    3      -11.242584   1.000000
    4      -11.188239   1.000000
    5      -11.188239   1.000000
    6       -7.640020   1.000000
    7       -2.210930   1.000000
    8        2.518088   1.000000
    9        2.518089   1.000000
   10        4.448010   0.000000
   11        8.117145   0.000000
   12        8.117150   0.000000
   13       10.930683   0.000000
   14       12.236859   0.000000
   15       13.507929   0.000000
   16       13.507929   0.000000
   17       16.703408   0.000000
   18       18.530014   0.000000
   19       18.530014   0.000000
   20       20.232064   0.000000
   21       21.997008   0.000000
   22       21.997008   0.000000
   23       25.161176   0.000000
   24       27.890584   0.000000
   25       29.135622   0.000000
   26       29.135622   0.000000
   27       29.935822   0.000000
   28       29.935827   0.000000
   29       30.907273   0.000000
   30       30.908479   0.000000
   31       30.908481   0.000000
   32       33.219849   0.000000

  0.1250000E+00  0.3750000E+00  0.0000000E+00  0.1953125E-02
    1      -11.312452   1.000000
    2      -11.241355   1.000000
    3      -11.238910   1.000000
    4      -11.193831   1.000000
    5      -11.186067   1.000000
    6       -7.716654   1.000000
    7       -1.760620   1.000000
    8        1.796074   1.000000
    9        2.129090   1.000000
   10        5.572291   0.000000
   11        7.569450   0.000000
   12        8.945896   0.000000
   13        9.566122   0.000000
   14       12.551596   0.000000
   15       13.464936   0.000000
   16       14.290937   0.000000
   17       16.476398   0.000000
   18       18.330357   0.000000
   19       19.351230   0.000000
   20       19.996062   0.000000
   21       21.407270   0.000000
   22       22.235913   0.000000
   23       25.364801   0.000000
   24       26.520954   0.000000
   25       26.865843   0.000000
   26       28.033810   0.000000
   27       30.325369   0.000000
   28       30.422402   0.000000
   29       31.843398   0.000000
   30       32.087069   0.000000
   31       32.844535   0.000000
   32       33.433334   0.000000

  0.2500000E+00  0.3750000E+00  0.0000000E+00  0.1953125E-02
    1      -11.324409   1.000000
    2      -11.231809   1.000000
    3      -11.230284   1.000000
    4      -11.201685   1.000000
    5      -11.183399   1.000000
    6       -7.542586   1.000000
    7       -1.688871   1.000000
    8        1.210877   1.000000
    9        1.583592   1.000000
   10        5.592906   0.000000
   11        6.702627   0.000000
   12        9.739954   0.000000
   13       10.469810   0.000000
   14       12.626436   0.000000
   15       15.097254   0.000000
   16       15.333075   0.000000
   17       17.119786   0.000000
   18       18.421967   0.000000
   19       18.947502   0.000000
   20       19.129400   0.000000
   21       20.345141   0.000000