  COHP#  atomMU  atomNU     distance     translation      ICOHP (at) eF   for spin  1
      1     Ga1     Ga1      4.06599       0   0  -1           -0.04908
      2     Ga1     Ga1      4.06599       1   0  -1           -0.04908
      3     Ga1     Ga1      4.06599       0   1  -1           -0.04908
      4     Ga1     Ga1      4.06599       0  -1   0           -0.04908
      5     Ga1     Ga1      4.06599       1  -1   0           -0.04908
      6     Ga1     Ga1      4.06599      -1   0   0           -0.04908
      7     Ga1     Ga1      4.06599       1   0   0           -0.04908
      8     Ga1     Ga1      4.06599      -1   1   0           -0.04908
      9     Ga1     Ga1      4.06599       0   1   0           -0.04908
     10     Ga1     Ga1      4.06599       0  -1   1           -0.04908
     11     Ga1     Ga1      4.06599      -1   0   1           -0.04908
     12     Ga1     Ga1      4.06599       0   0   1           -0.04908
     13     Ga1     As2      4.76780       1   0   0           -0.00465
     14     Ga1     As2      4.76780       2   0   0           -0.00465
     15     Ga1     As2      4.76780       0   1   0           -0.00465
     16     Ga1     As2      2.48990       1   1   0           -4.35464
     17     Ga1     As2      4.76780       2   1   0           -0.00464
     18     Ga1     As2      4.76780       0   2   0           -0.00465
     19     Ga1     As2      4.76780       1   2   0           -0.00464
     20     Ga1     As2      4.76780       0   0   1           -0.00465
     21     Ga1     As2      2.48990       1   0   1           -4.35464
     22     Ga1     As2      4.76780       2   0   1           -0.00464
     23     Ga1     As2      2.48990       0   1   1           -4.35464
     24     Ga1     As2      2.48990       1   1   1           -4.35464
     25     Ga1     As2      4.76780       0   2   1           -0.00464
     26     Ga1     As2      4.76780       0   0   2           -0.00465
     27     Ga1     As2      4.76780       1   0   2           -0.00464
     28     Ga1     As2      4.76780       0   1   2           -0.00464
     29     As2     As2      4.06599       0   0  -1           -0.00218
     30     As2     As2      4.06599       1   0  -1           -0.00218
     31     As2     As2      4.06599       0   1  -1           -0.00218
     32     As2     As2      4.06599       0  -1   0           -0.00218
     33     As2     As2      4.06599       1  -1   0           -0.00218
     34     As2     As2      4.06599      -1   0   0           -0.00218
     35     As2     As2      4.06599       1   0   0           -0.00218
     36     As2     As2      4.06599      -1   1   0           -0.00218
     37     As2     As2      4.06599       0   1   0           -0.00218
     38     As2     As2      4.06599       0  -1   1           -0.00218
     39     As2     As2      4.06599      -1   0   1           -0.00218
     40     As2     As2      4.06599       0   0   1           -0.00218
