 vasp.5.4.1 24Jun15 (build Jul 13 2016 16:36:47) complex

 executed on           IFC91_ompi date 2019.04.19  23:09:58
 running on   32 total cores
 distrk:  each k-point on   32 cores,    1 groups
 distr:  one band on NCORES_PER_BAND=   8 cores,    4 groups


--------------------------------------------------------------------------------------------------------


 INCAR:
 POTCAR:    PAW_PBE Ga_d 06Jul2010
 POTCAR:    PAW_PBE As 22Sep2009
 POTCAR:    PAW_PBE Ga_d 06Jul2010
   VRHFIN =Ga: s2p1
   LEXCH  = PE
   EATOM  =  2148.8298 eV,  157.9345 Ry

   TITEL  = PAW_PBE Ga_d 06Jul2010
   LULTRA =        F    use ultrasoft PP ?
   IUNSCR =        1    unscreen: 0-lin 1-nonlin 2-no
   RPACOR =    1.700    partial core radius
   POMASS =   69.723; ZVAL   =   13.000    mass and valenz
   RCORE  =    2.300    outmost cutoff radius
   RWIGS  =    2.300; RWIGS  =    1.217    wigner-seitz radius (au A)
   ENMAX  =  282.691; ENMIN  =  212.018 eV
   ICORE  =        3    local potential
   LCOR   =        T    correct aug charges
   LPAW   =        T    paw PP
   EAUG   =  490.690
   DEXC   =    0.000
   RMAX   =    2.341    core radius for proj-oper
   RAUG   =    1.300    factor for augmentation sphere
   RDEP   =    2.413    radius for radial grids
   RDEPT  =    1.856    core radius for aug-charge

   Atomic configuration
    9 entries
     n  l   j            E        occ.
     1  0  0.50    -10228.7831   2.0000
     2  0  0.50     -1262.1604   2.0000
     2  1  1.50     -1098.6333   6.0000
     3  0  0.50      -148.1110   2.0000
     3  1  1.50       -98.8436   6.0000
     3  2  2.50       -19.1549  10.0000
     4  0  0.50        -8.9483   2.0000
     4  1  0.50        -2.5791   1.0000
     4  3  2.50        -2.7416   0.0000
   Description
     l       E           TYP  RCUT    TYP  RCUT
     2    -19.1549037     23  2.300
     2     -5.4423304     23  2.300
     0     -8.9483111     23  2.300
     0     68.0291300     23  2.300
     1     -2.5790802     23  2.100
     1     81.6349560     23  2.300
     3      6.8029130     23  2.300
  local pseudopotential read in
  partial core-charges read in
  partial kinetic energy density read in
  atomic valenz-charges read in
  non local Contribution for L=           2  read in
    real space projection operators read in
  non local Contribution for L=           2  read in
    real space projection operators read in
  non local Contribution for L=           0  read in
    real space projection operators read in
  non local Contribution for L=           0  read in
    real space projection operators read in
  non local Contribution for L=           1  read in
    real space projection operators read in
  non local Contribution for L=           1  read in
    real space projection operators read in
    PAW grid and wavefunctions read in

   number of l-projection  operators is LMAX  =           6
   number of lm-projection operators is LMMAX =          18

 POTCAR:    PAW_PBE As 22Sep2009
   VRHFIN =As: s2p3
   LEXCH  = PE
   EATOM  =   170.1867 eV,   12.5084 Ry

   TITEL  = PAW_PBE As 22Sep2009
   LULTRA =        F    use ultrasoft PP ?
   IUNSCR =        1    unscreen: 0-lin 1-nonlin 2-no
   RPACOR =    1.900    partial core radius
   POMASS =   74.922; ZVAL   =    5.000    mass and valenz
   RCORE  =    2.100    outmost cutoff radius
   RWIGS  =    2.300; RWIGS  =    1.217    wigner-seitz radius (au A)
   ENMAX  =  208.702; ENMIN  =  156.526 eV
   ICORE  =        3    local potential
   LCOR   =        T    correct aug charges
   LPAW   =        T    paw PP
   EAUG   =  462.758
   DEXC   =    0.000
   RMAX   =    2.144    core radius for proj-oper
   RAUG   =    1.300    factor for augmentation sphere
   RDEP   =    2.140    radius for radial grids
   RDEPT  =    1.956    core radius for aug-charge

   Atomic configuration
   10 entries
     n  l   j            E        occ.
     1  0  0.50    -11718.0418   2.0000
     2  0  0.50     -1486.5454   2.0000
     2  1  1.50     -1303.3889   6.0000
     3  0  0.50      -190.2849   2.0000
     3  1  1.50      -133.6555   6.0000
     3  2  2.50       -40.6443  10.0000
     4  0  0.50       -14.4936   2.0000
     4  1  0.50        -5.1947   3.0000
     4  2  1.50        -5.4423   0.0000
     4  3  2.50        -5.4423   0.0000
   Description
     l       E           TYP  RCUT    TYP  RCUT
     0    -14.4935570     23  2.100
     0    -11.9212055     23  2.100
     1     -5.1947127     23  2.100
     1     27.2116520     23  2.100
     2     -5.4423304     23  2.100
     3     -1.3605826      7  2.100
  local pseudopotential read in
  partial core-charges read in
  partial kinetic energy density read in
  atomic valenz-charges read in
  non local Contribution for L=           0  read in
    real space projection operators read in
  non local Contribution for L=           0  read in
    real space projection operators read in
  non local Contribution for L=           1  read in
    real space projection operators read in
  non local Contribution for L=           1  read in
    real space projection operators read in
  non local Contribution for L=           2  read in
    real space projection operators read in
    PAW grid and wavefunctions read in

   number of l-projection  operators is LMAX  =           5
   number of lm-projection operators is LMMAX =          13

  PAW_PBE Ga_d 06Jul2010                :
 energy of atom  1       EATOM=-2148.8298
 kinetic energy error for atom=    0.0026 (will be added to EATOM!!)
  PAW_PBE As 22Sep2009                  :
 energy of atom  2       EATOM= -170.1867
 kinetic energy error for atom=    0.0005 (will be added to EATOM!!)


 POSCAR: Ga1 As1
  positions in direct lattice
  No initial velocities read in
 exchange correlation table for  LEXCH =        8
   RHO(1)=    0.500       N(1)  =     2000
   RHO(2)=  100.500       N(2)  =     4000



--------------------------------------------------------------------------------------------------------


 ion  position               nearest neighbor table
   1  0.000  0.000  0.000-   2 2.49   2 2.49   2 2.49   2 2.49
   2  0.750  0.750  0.750-   1 2.49   1 2.49   1 2.49   1 2.49


IMPORTANT INFORMATION: All symmetrisations will be switched off!
NOSYMM: (Re-)initialisation of all symmetry stuff for point group C_1.



 KPOINTS: \Gamma -> X -> W -> K -> \Gamma -> L ->
  k-points in reciprocal lattice
Space group operators:
 irot       det(A)        alpha          n_x          n_y          n_z        tau_x        tau_y        tau_z
    1     1.000000     0.000001     1.000000     0.000000     0.000000     0.000000     0.000000     0.000000


--------------------------------------------------------------------------------------------------------




 Dimension of arrays:
   k-points           NKPTS =    941   k-points in BZ     NKDIM =    941   number of bands    NBANDS=     32
   number of dos      NEDOS =    301   number of ions     NIONS =      2
   non local maximal  LDIM  =      6   non local SUM 2l+1 LMDIM =     18
   total plane-waves  NPLWV =  27000
   max r-space proj   IRMAX =      1   max aug-charges    IRDMAX=  23702
   dimension x,y,z NGX =    30 NGY =   30 NGZ =   30
   dimension x,y,z NGXF=    60 NGYF=   60 NGZF=   60
   support grid    NGXF=    60 NGYF=   60 NGZF=   60
   ions per type =               1   1
 NGX,Y,Z   is equivalent  to a cutoff of  12.27, 12.27, 12.27 a.u.
 NGXF,Y,Z  is equivalent  to a cutoff of  24.53, 24.53, 24.53 a.u.


 I would recommend the setting:
   dimension x,y,z NGX =    30 NGY =   30 NGZ =   30
 SYSTEM =  unknown system
 POSCAR =  Ga1 As1

 Startparameter for this run:
   NWRITE =      2    write-flag & timer
   PREC   = accura    normal or accurate (medium, high low for compatibility)
   ISTART =      1    job   : 0-new  1-cont  2-samecut
   ICHARG =      0    charge: 1-file 2-atom 10-const
   ISPIN  =      1    spin polarized calculation?
   LNONCOLLINEAR =      F non collinear calculations
   LSORBIT =      F    spin-orbit coupling
   INIWAV =      1    electr: 0-lowe 1-rand  2-diag
   LASPH  =      F    aspherical Exc in radial PAW
   METAGGA=      F    non-selfconsistent MetaGGA calc.

 Electronic Relaxation 1
   ENCUT  =  520.0 eV  38.22 Ry    6.18 a.u.   7.56  7.56  7.56*2*pi/ulx,y,z
   ENINI  =  520.0     initial cutoff
   ENAUG  =  490.7 eV  augmentation charge cutoff
   NELM   =    200;   NELMIN=  4; NELMDL=  0     # of ELM steps
   EDIFF  = 0.1E-06   stopping-criterion for ELM
   LREAL  =      F    real-space projection
   NLSPLINE    = F    spline interpolate recip. space projectors
   LCOMPAT=      F    compatible to vasp.4.4
   GGA_COMPAT  = T    GGA compatible to vasp.4.4-vasp.4.6
   LMAXPAW     = -100 max onsite density
   LMAXMIX     =    2 max onsite mixed and CHGCAR
   VOSKOWN=      0    Vosko Wilk Nusair interpolation
   ROPT   =    0.00000   0.00000
 Ionic relaxation
   EDIFFG = 0.1E-04   stopping-criterion for IOM
   NSW    =      0    number of steps for IOM
   NBLOCK =      1;   KBLOCK =      1    inner block; outer block
   IBRION =     -1    ionic relax: 0-MD 1-quasi-New 2-CG
   NFREE  =      1    steps in history (QN), initial steepest desc. (CG)
   ISIF   =      3    stress and relaxation
   IWAVPR =     10    prediction:  0-non 1-charg 2-wave 3-comb
   ISYM   =     -1    0-nonsym 1-usesym 2-fastsym
   LCORR  =      T    Harris-Foulkes like correction to forces

   POTIM  = 0.5000    time-step for ionic-motion
   TEIN   =    0.0    initial temperature
   TEBEG  =    0.0;   TEEND  =   0.0 temperature during run
   SMASS  =  -3.00    Nose mass-parameter (am)
   estimated Nose-frequenzy (Omega)   =  0.10E-29 period in steps =****** mass=  -0.378E-27a.u.
   SCALEE = 1.0000    scale energy and forces
   NPACO  =    256;   APACO  = 16.0  distance and # of slots for P.C.
   PSTRESS=    0.0 pullay stress

  Mass of Ions in am
   POMASS =  69.72 74.92
  Ionic Valenz
   ZVAL   =  13.00  5.00
  Atomic Wigner-Seitz radii
   RWIGS  =  -1.00 -1.00
  virtual crystal weights
   VCA    =   1.00  1.00
   NELECT =      18.0000    total number of electrons
   NUPDOWN=      -1.0000    fix difference up-down

 DOS related values:
   EMIN   =  10.00;   EMAX   =-10.00  energy-range for DOS
   EFERMI =   0.00
   ISMEAR =     0;   SIGMA  =   0.10  broadening in eV -4-tet -1-fermi 0-gaus

 Electronic relaxation 2 (details)
   IALGO  =     38    algorithm
   LDIAG  =      T    sub-space diagonalisation (order eigenvalues)
   LSUBROT=      F    optimize rotation matrix (better conditioning)
   TURBO    =      0    0=normal 1=particle mesh
   IRESTART =      0    0=no restart 2=restart with 2 vectors
   NREBOOT  =      0    no. of reboots
   NMIN     =      0    reboot dimension
   EREF     =   0.00    reference energy to select bands
   IMIX   =      4    mixing-type and parameters
     AMIX     =   0.40;   BMIX     =  1.00
     AMIX_MAG =   1.60;   BMIX_MAG =  1.00
     AMIN     =   0.10
     WC   =   100.;   INIMIX=   1;  MIXPRE=   1;  MAXMIX= -45

 Intra band minimization:
   WEIMIN = 0.0000     energy-eigenvalue tresh-hold
   EBREAK =  0.78E-09  absolut break condition
   DEPER  =   0.30     relativ break condition

   TIME   =   0.40     timestep for ELM

  volume/ion in A,a.u.               =      23.77       160.38
  Fermi-wavevector in a.u.,A,eV,Ry     =   1.184415  2.238221 19.086797  1.402840
  Thomas-Fermi vector in A             =   2.320630

 Write flags
   LWAVE  =      T    write WAVECAR
   LCHARG =      F    write CHGCAR
   LVTOT  =      F    write LOCPOT, total local potential
   LVHAR  =      F    write LOCPOT, Hartree potential only
   LELF   =      F    write electronic localiz. function (ELF)
   LORBIT =     11    0 simple, 1 ext, 2 COOP (PROOUT)


 Dipole corrections
   LMONO  =      F    monopole corrections only (constant potential shift)
   LDIPOL =      F    correct potential (dipole corrections)
   IDIPOL =      0    1-x, 2-y, 3-z, 4-all directions
   EPSILON=  1.0000000 bulk dielectric constant

 Exchange correlation treatment:
   GGA     =    --    GGA type
   LEXCH   =     8    internal setting for exchange type
   VOSKOWN=      0    Vosko Wilk Nusair interpolation
   LHFCALC =     F    Hartree Fock is set to
   LHFONE  =     F    Hartree Fock one center treatment
   AEXX    =    0.0000 exact exchange contribution

 Linear response parameters
   LEPSILON=     F    determine dielectric tensor
   LRPA    =     F    only Hartree local field effects (RPA)
   LNABLA  =     F    use nabla operator in PAW spheres
   LVEL    =     F    velocity operator in full k-point grid
   LINTERFAST=   F  fast interpolation
   KINTER  =     0    interpolate to denser k-point grid
   CSHIFT  =0.1000    complex shift for real part using Kramers Kronig
   OMEGAMAX=  -1.0    maximum frequency
   DEG_THRESHOLD= 0.2000000E-02 threshold for treating states as degnerate
   RTIME   =    0.100 relaxation time in fs

 Orbital magnetization related:
   ORBITALMAG=     F  switch on orbital magnetization
   LCHIMAG   =     F  perturbation theory with respect to B field
   DQ        =  0.001000  dq finite difference perturbation B field



--------------------------------------------------------------------------------------------------------


 Static calculation
 charge density and potential will be updated during run
 non-spin polarized calculation
 Variant of blocked Davidson
 Davidson routine will perform the subspace rotation
 perform sub-space diagonalisation
    after iterative eigenvector-optimisation
 modified Broyden-mixing scheme, WC =      100.0
 initial mixing is a Kerker type mixing with AMIX =  0.4000 and BMIX =      1.0000
 Hartree-type preconditioning will be used
 using additional bands           23
 reciprocal scheme for non local part
 use partial core corrections
 calculate Harris-corrections to forces
   (improved forces if not selfconsistent)
 use gradient corrections
 use of overlap-Matrix (Vanderbilt PP)
 Gauss-broadening in eV      SIGMA  =   0.10


--------------------------------------------------------------------------------------------------------


  energy-cutoff  :      520.00
  volume of cell :       47.53
      direct lattice vectors                 reciprocal lattice vectors
     0.000000000  2.875091000  2.875091000    -0.173907539  0.173907539  0.173907539
     2.875091000  0.000000000  2.875091000     0.173907539 -0.173907539  0.173907539
     2.875091000  2.875091000  0.000000000     0.173907539  0.173907539 -0.173907539

  length of vectors
     4.065992685  4.065992685  4.065992685     0.301216693  0.301216693  0.301216693



 old parameters found on file WAVECAR:
  energy-cutoff  :      520.00
  volume of cell :       47.53
      direct lattice vectors                 reciprocal lattice vectors
     0.000000000  2.875091000  2.875091000    -0.173907539  0.173907539  0.173907539
     2.875091000  0.000000000  2.875091000     0.173907539 -0.173907539  0.173907539
     2.875091000  2.875091000  0.000000000     0.173907539  0.173907539 -0.173907539

  length of vectors


 k-points in units of 2pi/SCALE and weight: \Gamma -> X -> W -> K -> \Gamma -> L ->
   0.00000000  0.00000000  0.00000000       0.002
  -0.02173844  0.02173844  0.02173844       0.002
  -0.04347688  0.04347688  0.04347688       0.002
  -0.06521533  0.06521533  0.06521533       0.002
  -0.08695377  0.08695377  0.08695377       0.002
   0.06521533 -0.06521533 -0.06521533       0.002
   0.04347688 -0.04347688 -0.04347688       0.002
   0.02173844 -0.02173844 -0.02173844       0.002
   0.02173844 -0.02173844  0.02173844       0.002
   0.00000000  0.00000000  0.04347688       0.002
  -0.02173844  0.02173844  0.06521533       0.002
  -0.04347688  0.04347688  0.08695377       0.002
  -0.06521533  0.06521533  0.10869221       0.002
   0.08695377 -0.08695377 -0.04347688       0.002
   0.06521533 -0.06521533 -0.02173844       0.002
   0.04347688 -0.04347688  0.00000000       0.002
   0.04347688 -0.04347688  0.04347688       0.002
   0.02173844 -0.02173844  0.06521533       0.002
   0.00000000  0.00000000  0.08695377       0.002
  -0.02173844  0.02173844  0.10869221       0.002
  -0.04347688  0.04347688  0.13043065       0.002
   0.10869221 -0.10869221 -0.02173844       0.002
   0.08695377 -0.08695377  0.00000000       0.002
   0.06521533 -0.06521533  0.02173844       0.002
   0.06521533 -0.06521533  0.06521533       0.002
   0.04347688 -0.04347688  0.08695377       0.002
   0.02173844 -0.02173844  0.10869221       0.002
   0.00000000  0.00000000  0.13043065       0.002
  -0.02173844  0.02173844  0.15216910       0.002
   0.13043065 -0.13043065  0.00000000       0.002
   0.10869221 -0.10869221  0.02173844       0.002
   0.08695377 -0.08695377  0.04347688       0.002
   0.08695377 -0.08695377  0.08695377       0.002
   0.06521533 -0.06521533  0.10869221       0.002
   0.04347688 -0.04347688  0.13043065       0.002
   0.02173844 -0.02173844  0.15216910       0.002
   0.00000000  0.00000000  0.17390754       0.002
   0.15216910 -0.15216910  0.02173844       0.002
   0.13043065 -0.13043065  0.04347688       0.002
   0.10869221 -0.10869221  0.06521533       0.002
  -0.06521533  0.06521533 -0.06521533       0.002
  -0.08695377  0.08695377 -0.04347688       0.002
  -0.10869221  0.10869221 -0.02173844       0.002
  -0.13043065  0.13043065  0.00000000       0.002
  -0.15216910  0.15216910  0.02173844       0.002
   0.00000000  0.00000000 -0.13043065       0.002
  -0.02173844  0.02173844 -0.10869221       0.002
  -0.04347688  0.04347688 -0.08695377       0.002
  -0.04347688  0.04347688 -0.04347688       0.002
  -0.06521533  0.06521533 -0.02173844       0.002
  -0.08695377  0.08695377  0.00000000       0.002
  -0.10869221  0.10869221  0.02173844       0.002
  -0.13043065  0.13043065  0.04347688       0.002
   0.02173844 -0.02173844 -0.10869221       0.002
   0.00000000  0.00000000 -0.08695377       0.002
  -0.02173844  0.02173844 -0.06521533       0.002
  -0.02173844  0.02173844 -0.02173844       0.002
  -0.04347688  0.04347688  0.00000000       0.002
  -0.06521533  0.06521533  0.02173844       0.002
  -0.08695377  0.08695377  0.04347688       0.002
  -0.10869221  0.10869221  0.06521533       0.002
   0.04347688 -0.04347688 -0.08695377       0.002
   0.02173844 -0.02173844 -0.06521533       0.002
   0.00000000  0.00000000 -0.04347688       0.002
   0.02173844  0.02173844 -0.02173844       0.002
   0.00000000  0.04347688  0.00000000       0.002
  -0.02173844  0.06521533  0.02173844       0.002
  -0.04347688  0.08695377  0.04347688       0.002
  -0.06521533  0.10869221  0.06521533       0.002
   0.08695377 -0.04347688 -0.08695377       0.002
   0.06521533 -0.02173844 -0.06521533       0.002
   0.04347688  0.00000000 -0.04347688       0.002
   0.04347688  0.00000000  0.00000000       0.002
   0.02173844  0.02173844  0.02173844       0.002
   0.00000000  0.04347688  0.04347688       0.002
  -0.02173844  0.06521533  0.06521533       0.002
  -0.04347688  0.08695377  0.08695377       0.002
   0.10869221 -0.06521533 -0.06521533       0.002
   0.08695377 -0.04347688 -0.04347688       0.002
   0.06521533 -0.02173844 -0.02173844       0.002
   0.06521533 -0.02173844  0.02173844       0.002
   0.04347688  0.00000000  0.04347688       0.002
   0.02173844  0.02173844  0.06521533       0.002
  -0.00000000  0.04347688  0.08695377       0.002
  -0.02173844  0.06521533  0.10869221       0.002
   0.13043065 -0.08695377 -0.04347688       0.002
   0.10869221 -0.06521533 -0.02173844       0.002
   0.08695377 -0.04347688  0.00000000       0.002
   0.08695377 -0.04347688  0.04347688       0.002
   0.06521533 -0.02173844  0.06521533       0.002
   0.04347688 -0.00000000  0.08695377       0.002
   0.02173844  0.02173844  0.10869221       0.002
   0.00000000  0.04347688  0.13043065       0.002
   0.15216910 -0.10869221 -0.02173844       0.002
   0.13043065 -0.08695377  0.00000000       0.002
   0.10869221 -0.06521533  0.02173844       0.002
   0.10869221 -0.06521533  0.06521533       0.002
   0.08695377 -0.04347688  0.08695377       0.002
   0.06521533 -0.02173844  0.10869221       0.002
   0.04347688  0.00000000  0.13043065       0.002
   0.02173844  0.02173844  0.15216910       0.002
   0.17390754 -0.13043065 -0.00000000       0.002
   0.15216910 -0.10869221  0.02173844       0.002
   0.13043065 -0.08695377  0.04347688       0.002
  -0.04347688  0.08695377 -0.08695377       0.002
  -0.06521533  0.10869221 -0.06521533       0.002
  -0.08695377  0.13043065 -0.04347688       0.002
  -0.10869221  0.15216910 -0.02173844       0.002
  -0.13043065  0.17390754 -0.00000000       0.002
   0.02173844  0.02173844 -0.15216910       0.002
  -0.00000000  0.04347688 -0.13043065       0.002
  -0.02173844  0.06521533 -0.10869221       0.002
  -0.02173844  0.06521533 -0.06521533       0.002
  -0.04347688  0.08695377 -0.04347688       0.002
  -0.06521533  0.10869221 -0.02173844       0.002
  -0.08695377  0.13043065  0.00000000       0.002
  -0.10869221  0.15216910  0.02173844       0.002
   0.04347688 -0.00000000 -0.13043065       0.002
   0.02173844  0.02173844 -0.10869221       0.002
   0.00000000  0.04347688 -0.08695377       0.002
   0.00000000  0.04347688 -0.04347688       0.002
  -0.02173844  0.06521533 -0.02173844       0.002
  -0.04347688  0.08695377  0.00000000       0.002
  -0.06521533  0.10869221  0.02173844       0.002
  -0.08695377  0.13043065  0.04347688       0.002
   0.06521533 -0.02173844 -0.10869221       0.002
   0.04347688  0.00000000 -0.08695377       0.002
   0.02173844  0.02173844 -0.06521533       0.002
   0.04347688  0.04347688 -0.04347688       0.002
   0.02173844  0.06521533 -0.02173844       0.002
   0.00000000  0.08695377  0.00000000       0.002
  -0.02173844  0.10869221  0.02173844       0.002
  -0.04347688  0.13043065  0.04347688       0.002
   0.10869221 -0.02173844 -0.10869221       0.002
   0.08695377  0.00000000 -0.08695377       0.002
   0.06521533  0.02173844 -0.06521533       0.002
   0.06521533  0.02173844 -0.02173844       0.002
   0.04347688  0.04347688  0.00000000       0.002
   0.02173844  0.06521533  0.02173844       0.002
  -0.00000000  0.08695377  0.04347688       0.002
  -0.02173844  0.10869221  0.06521533       0.002
   0.13043065 -0.04347688 -0.08695377       0.002
   0.10869221 -0.02173844 -0.06521533       0.002
   0.08695377  0.00000000 -0.04347688       0.002
   0.08695377  0.00000000  0.00000000       0.002
   0.06521533  0.02173844  0.02173844       0.002
   0.04347688  0.04347688  0.04347688       0.002
   0.02173844  0.06521533  0.06521533       0.002
   0.00000000  0.08695377  0.08695377       0.002
   0.15216910 -0.06521533 -0.06521533       0.002
   0.13043065 -0.04347688 -0.04347688       0.002
   0.10869221 -0.02173844 -0.02173844       0.002
   0.10869221 -0.02173844  0.02173844       0.002
   0.08695377 -0.00000000  0.04347688       0.002
   0.06521533  0.02173844  0.06521533       0.002
   0.04347688  0.04347688  0.08695377       0.002
   0.02173844  0.06521533  0.10869221       0.002
   0.17390754 -0.08695377 -0.04347688       0.002
   0.15216910 -0.06521533 -0.02173844       0.002
   0.13043065 -0.04347688  0.00000000       0.002
   0.13043065 -0.04347688  0.04347688       0.002
   0.10869221 -0.02173844  0.06521533       0.002
   0.08695377  0.00000000  0.08695377       0.002
   0.06521533  0.02173844  0.10869221       0.002
   0.04347688  0.04347688  0.13043065       0.002
   0.19564598 -0.10869221 -0.02173844       0.002
   0.17390754 -0.08695377  0.00000000       0.002
   0.15216910 -0.06521533  0.02173844       0.002
  -0.02173844  0.10869221 -0.10869221       0.002
  -0.04347688  0.13043065 -0.08695377       0.002
  -0.06521533  0.15216910 -0.06521533       0.002
  -0.08695377  0.17390754 -0.04347688       0.002
  -0.10869221  0.19564598 -0.02173844       0.002
   0.04347688  0.04347688 -0.17390754       0.002
   0.02173844  0.06521533 -0.15216910       0.002
  -0.00000000  0.08695377 -0.13043065       0.002
   0.00000000  0.08695377 -0.08695377       0.002
  -0.02173844  0.10869221 -0.06521533       0.002
  -0.04347688  0.13043065 -0.04347688       0.002
  -0.06521533  0.15216910 -0.02173844       0.002
  -0.08695377  0.17390754  0.00000000       0.002
   0.06521533  0.02173844 -0.15216910       0.002
   0.04347688  0.04347688 -0.13043065       0.002
   0.02173844  0.06521533 -0.10869221       0.002
   0.02173844  0.06521533 -0.06521533       0.002
   0.00000000  0.08695377 -0.04347688       0.002
  -0.02173844  0.10869221 -0.02173844       0.002
  -0.04347688  0.13043065  0.00000000       0.002
  -0.06521533  0.15216910  0.02173844       0.002
   0.08695377 -0.00000000 -0.13043065       0.002
   0.06521533  0.02173844 -0.10869221       0.002
   0.04347688  0.04347688 -0.08695377       0.002
   0.06521533  0.06521533 -0.06521533       0.002
   0.04347688  0.08695377 -0.04347688       0.002
   0.02173844  0.10869221 -0.02173844       0.002
   0.00000000  0.13043065  0.00000000       0.002
  -0.02173844  0.15216910  0.02173844       0.002
   0.13043065  0.00000000 -0.13043065       0.002
   0.10869221  0.02173844 -0.10869221       0.002
   0.08695377  0.04347688 -0.08695377       0.002
   0.08695377  0.04347688 -0.04347688       0.002
   0.06521533  0.06521533 -0.02173844       0.002
   0.04347688  0.08695377  0.00000000       0.002
   0.02173844  0.10869221  0.02173844       0.002
   0.00000000  0.13043065  0.04347688       0.002
   0.15216910 -0.02173844 -0.10869221       0.002
   0.13043065  0.00000000 -0.08695377       0.002
   0.10869221  0.02173844 -0.06521533       0.002
   0.10869221  0.02173844 -0.02173844       0.002
   0.08695377  0.04347688  0.00000000       0.002
   0.06521533  0.06521533  0.02173844       0.002
   0.04347688  0.08695377  0.04347688       0.002
   0.02173844  0.10869221  0.06521533       0.002
   0.17390754 -0.04347688 -0.08695377       0.002
   0.15216910 -0.02173844 -0.06521533       0.002
   0.13043065  0.00000000 -0.04347688       0.002
   0.13043065  0.00000000  0.00000000       0.002
   0.10869221  0.02173844  0.02173844       0.002
   0.08695377  0.04347688  0.04347688       0.002
   0.06521533  0.06521533  0.06521533       0.002
   0.04347688  0.08695377  0.08695377       0.002
   0.19564598 -0.06521533 -0.06521533       0.002
   0.17390754 -0.04347688 -0.04347688       0.002
   0.15216910 -0.02173844 -0.02173844       0.002
   0.15216910 -0.02173844  0.02173844       0.002
   0.13043065  0.00000000  0.04347688       0.002
   0.10869221  0.02173844  0.06521533       0.002
   0.08695377  0.04347688  0.08695377       0.002
   0.06521533  0.06521533  0.10869221       0.002
   0.21738442 -0.08695377 -0.04347688       0.002
   0.19564598 -0.06521533 -0.02173844       0.002
   0.17390754 -0.04347688  0.00000000       0.002
   0.00000000  0.13043065 -0.13043065       0.002
  -0.02173844  0.15216910 -0.10869221       0.002
  -0.04347688  0.17390754 -0.08695377       0.002
  -0.06521533  0.19564598 -0.06521533       0.002
  -0.08695377  0.21738442 -0.04347688       0.002
   0.06521533  0.06521533 -0.19564598       0.002
   0.04347688  0.08695377 -0.17390754       0.002
   0.02173844  0.10869221 -0.15216910       0.002
   0.02173844  0.10869221 -0.10869221       0.002
   0.00000000  0.13043065 -0.08695377       0.002
  -0.02173844  0.15216910 -0.06521533       0.002
  -0.04347688  0.17390754 -0.04347688       0.002
  -0.06521533  0.19564598 -0.02173844       0.002
   0.08695377  0.04347688 -0.17390754       0.002
   0.06521533  0.06521533 -0.15216910       0.002
   0.04347688  0.08695377 -0.13043065       0.002
   0.04347688  0.08695377 -0.08695377       0.002
   0.02173844  0.10869221 -0.06521533       0.002
   0.00000000  0.13043065 -0.04347688       0.002
  -0.02173844  0.15216910 -0.02173844       0.002
  -0.04347688  0.17390754  0.00000000       0.002
   0.10869221  0.02173844 -0.15216910       0.002
   0.08695377  0.04347688 -0.13043065       0.002
   0.06521533  0.06521533 -0.10869221       0.002
   0.08695377  0.08695377 -0.08695377       0.002
   0.06521533  0.10869221 -0.06521533       0.002
   0.04347688  0.13043065 -0.04347688       0.002
   0.02173844  0.15216910 -0.02173844       0.002
   0.00000000  0.17390754  0.00000000       0.002
   0.15216910  0.02173844 -0.15216910       0.002
   0.13043065  0.04347688 -0.13043065       0.002
   0.10869221  0.06521533 -0.10869221       0.002
   0.10869221  0.06521533 -0.06521533       0.002
   0.08695377  0.08695377 -0.04347688       0.002
   0.06521533  0.10869221 -0.02173844       0.002
   0.04347688  0.13043065  0.00000000       0.002
   0.02173844  0.15216910  0.02173844       0.002
   0.17390754  0.00000000 -0.13043065       0.002
   0.15216910  0.02173844 -0.10869221       0.002
   0.13043065  0.04347688 -0.08695377       0.002
   0.13043065  0.04347688 -0.04347688       0.002
   0.10869221  0.06521533 -0.02173844       0.002
   0.08695377  0.08695377  0.00000000       0.002
   0.06521533  0.10869221  0.02173844       0.002
   0.04347688  0.13043065  0.04347688       0.002
   0.19564598 -0.02173844 -0.10869221       0.002
   0.17390754  0.00000000 -0.08695377       0.002
   0.15216910  0.02173844 -0.06521533       0.002
   0.15216910  0.02173844 -0.02173844       0.002
   0.13043065  0.04347688  0.00000000       0.002
   0.10869221  0.06521533  0.02173844       0.002
   0.08695377  0.08695377  0.04347688       0.002
   0.06521533  0.10869221  0.06521533       0.002
   0.21738442 -0.04347688 -0.08695377       0.002
   0.19564598 -0.02173844 -0.06521533       0.002
   0.17390754  0.00000000 -0.04347688       0.002
   0.17390754  0.00000000  0.00000000       0.002
   0.15216910  0.02173844  0.02173844       0.002
   0.13043065  0.04347688  0.04347688       0.002
   0.10869221  0.06521533  0.06521533       0.002
   0.08695377  0.08695377  0.08695377       0.002
   0.23912287 -0.06521533 -0.06521533       0.002
   0.21738442 -0.04347688 -0.04347688       0.002
   0.19564598 -0.02173844 -0.02173844       0.002
   0.02173844  0.15216910 -0.15216910       0.002
   0.00000000  0.17390754 -0.13043065       0.002
  -0.02173844  0.19564598 -0.10869221       0.002
  -0.04347688  0.21738442 -0.08695377       0.002
  -0.06521533  0.23912287 -0.06521533       0.002
   0.08695377  0.08695377 -0.21738442       0.002
   0.06521533  0.10869221 -0.19564598       0.002
   0.04347688  0.13043065 -0.17390754       0.002
   0.04347688  0.13043065 -0.13043065       0.002
   0.02173844  0.15216910 -0.10869221       0.002
   0.00000000  0.17390754 -0.08695377       0.002
  -0.02173844  0.19564598 -0.06521533       0.002
  -0.04347688  0.21738442 -0.04347688       0.002
   0.10869221  0.06521533 -0.19564598       0.002
   0.08695377  0.08695377 -0.17390754       0.002
   0.06521533  0.10869221 -0.15216910       0.002
   0.06521533  0.10869221 -0.10869221       0.002
   0.04347688  0.13043065 -0.08695377       0.002
   0.02173844  0.15216910 -0.06521533       0.002
   0.00000000  0.17390754 -0.04347688       0.002
  -0.02173844  0.19564598 -0.02173844       0.002
   0.13043065  0.04347688 -0.17390754       0.002
   0.10869221  0.06521533 -0.15216910       0.002
   0.08695377  0.08695377 -0.13043065       0.002
  -0.06521533 -0.06521533  0.06521533       0.002
  -0.08695377 -0.04347688  0.08695377       0.002
  -0.10869221 -0.02173844  0.10869221       0.002
  -0.13043065  0.00000000  0.13043065       0.002
  -0.15216910  0.02173844  0.15216910       0.002
   0.00000000 -0.13043065  0.00000000       0.002
  -0.02173844 -0.10869221  0.02173844       0.002
  -0.04347688 -0.08695377  0.04347688       0.002
  -0.04347688 -0.08695377  0.08695377       0.002
  -0.06521533 -0.06521533  0.10869221       0.002
  -0.08695377 -0.04347688  0.13043065       0.002
  -0.10869221 -0.02173844  0.15216910       0.002
  -0.13043065  0.00000000  0.17390754       0.002
   0.02173844 -0.15216910  0.02173844       0.002
   0.00000000 -0.13043065  0.04347688       0.002
  -0.02173844 -0.10869221  0.06521533       0.002
  -0.02173844 -0.10869221  0.10869221       0.002
  -0.04347688 -0.08695377  0.13043065       0.002
  -0.06521533 -0.06521533  0.15216910       0.002
  -0.08695377 -0.04347688  0.17390754       0.002
  -0.10869221 -0.02173844  0.19564598       0.002
   0.04347688 -0.17390754  0.04347688       0.002
   0.02173844 -0.15216910  0.06521533       0.002
   0.00000000 -0.13043065  0.08695377       0.002
   0.00000000 -0.13043065  0.13043065       0.002
  -0.02173844 -0.10869221  0.15216910       0.002
  -0.04347688 -0.08695377  0.17390754       0.002
  -0.06521533 -0.06521533  0.19564598       0.002
  -0.08695377 -0.04347688  0.21738442       0.002
   0.06521533 -0.19564598  0.06521533       0.002
   0.04347688 -0.17390754  0.08695377       0.002
   0.02173844 -0.15216910  0.10869221       0.002
   0.02173844 -0.15216910  0.15216910       0.002
   0.00000000 -0.13043065  0.17390754       0.002
  -0.02173844 -0.10869221  0.19564598       0.002
  -0.04347688 -0.08695377  0.21738442       0.002
  -0.06521533 -0.06521533  0.23912287       0.002
   0.08695377 -0.21738442  0.08695377       0.002
   0.06521533 -0.19564598  0.10869221       0.002
   0.04347688 -0.17390754  0.13043065       0.002
  -0.13043065  0.00000000  0.00000000       0.002
  -0.15216910  0.02173844  0.02173844       0.002
  -0.17390754  0.04347688  0.04347688       0.002
  -0.19564598  0.06521533  0.06521533       0.002
  -0.21738442  0.08695377  0.08695377       0.002
  -0.06521533 -0.06521533 -0.06521533       0.002
  -0.08695377 -0.04347688 -0.04347688       0.002
  -0.10869221 -0.02173844 -0.02173844       0.002
  -0.10869221 -0.02173844  0.02173844       0.002
  -0.13043065  0.00000000  0.04347688       0.002
  -0.15216910  0.02173844  0.06521533       0.002
  -0.17390754  0.04347688  0.08695377       0.002
  -0.19564598  0.06521533  0.10869221       0.002
  -0.04347688 -0.08695377 -0.04347688       0.002
  -0.06521533 -0.06521533 -0.02173844       0.002
  -0.08695377 -0.04347688  0.00000000       0.002
  -0.08695377 -0.04347688  0.04347688       0.002
  -0.10869221 -0.02173844  0.06521533       0.002
  -0.13043065  0.00000000  0.08695377       0.002
  -0.15216910  0.02173844  0.10869221       0.002
  -0.17390754  0.04347688  0.13043065       0.002
  -0.02173844 -0.10869221 -0.02173844       0.002
  -0.04347688 -0.08695377  0.00000000       0.002
  -0.06521533 -0.06521533  0.02173844       0.002
  -0.04347688 -0.04347688  0.04347688       0.002
  -0.06521533 -0.02173844  0.06521533       0.002
  -0.08695377  0.00000000  0.08695377       0.002
  -0.10869221  0.02173844  0.10869221       0.002
  -0.13043065  0.04347688  0.13043065       0.002
   0.02173844 -0.10869221 -0.02173844       0.002
   0.00000000 -0.08695377  0.00000000       0.002
  -0.02173844 -0.06521533  0.02173844       0.002
  -0.02173844 -0.06521533  0.06521533       0.002
  -0.04347688 -0.04347688  0.08695377       0.002
  -0.06521533 -0.02173844  0.10869221       0.002
  -0.08695377  0.00000000  0.13043065       0.002
  -0.10869221  0.02173844  0.15216910       0.002
   0.04347688 -0.13043065 -0.00000000       0.002
   0.02173844 -0.10869221  0.02173844       0.002
   0.00000000 -0.08695377  0.04347688       0.002
   0.00000000 -0.08695377  0.08695377       0.002
  -0.02173844 -0.06521533  0.10869221       0.002
  -0.04347688 -0.04347688  0.13043065       0.002
  -0.06521533 -0.02173844  0.15216910       0.002
  -0.08695377  0.00000000  0.17390754       0.002
   0.06521533 -0.15216910  0.02173844       0.002
   0.04347688 -0.13043065  0.04347688       0.002
   0.02173844 -0.10869221  0.06521533       0.002
   0.02173844 -0.10869221  0.10869221       0.002
   0.00000000 -0.08695377  0.13043065       0.002
  -0.02173844 -0.06521533  0.15216910       0.002
  -0.04347688 -0.04347688  0.17390754       0.002
  -0.06521533 -0.02173844  0.19564598       0.002
   0.08695377 -0.17390754  0.04347688       0.002
   0.06521533 -0.15216910  0.06521533       0.002
   0.04347688 -0.13043065  0.08695377       0.002
   0.04347688 -0.13043065  0.13043065       0.002
   0.02173844 -0.10869221  0.15216910       0.002
   0.00000000 -0.08695377  0.17390754       0.002
  -0.02173844 -0.06521533  0.19564598       0.002
  -0.04347688 -0.04347688  0.21738442       0.002
   0.10869221 -0.19564598  0.06521533       0.002
   0.08695377 -0.17390754  0.08695377       0.002
   0.06521533 -0.15216910  0.10869221       0.002
  -0.10869221  0.02173844 -0.02173844       0.002
  -0.13043065  0.04347688 -0.00000000       0.002
  -0.15216910  0.06521533  0.02173844       0.002
  -0.17390754  0.08695377  0.04347688       0.002
  -0.19564598  0.10869221  0.06521533       0.002
  -0.04347688 -0.04347688 -0.08695377       0.002
  -0.06521533 -0.02173844 -0.06521533       0.002
  -0.08695377  0.00000000 -0.04347688       0.002
  -0.08695377  0.00000000  0.00000000       0.002
  -0.10869221  0.02173844  0.02173844       0.002
  -0.13043065  0.04347688  0.04347688       0.002
  -0.15216910  0.06521533  0.06521533       0.002
  -0.17390754  0.08695377  0.08695377       0.002
  -0.02173844 -0.06521533 -0.06521533       0.002
  -0.04347688 -0.04347688 -0.04347688       0.002
  -0.06521533 -0.02173844 -0.02173844       0.002
  -0.06521533 -0.02173844  0.02173844       0.002
  -0.08695377  0.00000000  0.04347688       0.002
  -0.10869221  0.02173844  0.06521533       0.002
  -0.13043065  0.04347688  0.08695377       0.002
  -0.15216910  0.06521533  0.10869221       0.002
   0.00000000 -0.08695377 -0.04347688       0.002
  -0.02173844 -0.06521533 -0.02173844       0.002
  -0.04347688 -0.04347688  0.00000000       0.002
  -0.02173844 -0.02173844  0.02173844       0.002
  -0.04347688  0.00000000  0.04347688       0.002
  -0.06521533  0.02173844  0.06521533       0.002
  -0.08695377  0.04347688  0.08695377       0.002
  -0.10869221  0.06521533  0.10869221       0.002
   0.04347688 -0.08695377 -0.04347688       0.002
   0.02173844 -0.06521533 -0.02173844       0.002
   0.00000000 -0.04347688  0.00000000       0.002
   0.00000000 -0.04347688  0.04347688       0.002
  -0.02173844 -0.02173844  0.06521533       0.002
  -0.04347688  0.00000000  0.08695377       0.002
  -0.06521533  0.02173844  0.10869221       0.002
  -0.08695377  0.04347688  0.13043065       0.002
   0.06521533 -0.10869221 -0.02173844       0.002
   0.04347688 -0.08695377  0.00000000       0.002
   0.02173844 -0.06521533  0.02173844       0.002
   0.02173844 -0.06521533  0.06521533       0.002
   0.00000000 -0.04347688  0.08695377       0.002
  -0.02173844 -0.02173844  0.10869221       0.002
  -0.04347688  0.00000000  0.13043065       0.002
  -0.06521533  0.02173844  0.15216910       0.002
   0.08695377 -0.13043065 -0.00000000       0.002
   0.06521533 -0.10869221  0.02173844       0.002
   0.04347688 -0.08695377  0.04347688       0.002
   0.04347688 -0.08695377  0.08695377       0.002
   0.02173844 -0.06521533  0.10869221       0.002
   0.00000000 -0.04347688  0.13043065       0.002
  -0.02173844 -0.02173844  0.15216910       0.002
  -0.04347688 -0.00000000  0.17390754       0.002
   0.10869221 -0.15216910  0.02173844       0.002
   0.08695377 -0.13043065  0.04347688       0.002
   0.06521533 -0.10869221  0.06521533       0.002
   0.06521533 -0.10869221  0.10869221       0.002
   0.04347688 -0.08695377  0.13043065       0.002
   0.02173844 -0.06521533  0.15216910       0.002
  -0.00000000 -0.04347688  0.17390754       0.002
  -0.02173844 -0.02173844  0.19564598       0.002
   0.13043065 -0.17390754  0.04347688       0.002
   0.10869221 -0.15216910  0.06521533       0.002
   0.08695377 -0.13043065  0.08695377       0.002
  -0.08695377  0.04347688 -0.04347688       0.002
  -0.10869221  0.06521533 -0.02173844       0.002
  -0.13043065  0.08695377 -0.00000000       0.002
  -0.15216910  0.10869221  0.02173844       0.002
  -0.17390754  0.13043065  0.04347688       0.002
  -0.02173844 -0.02173844 -0.10869221       0.002
  -0.04347688  0.00000000 -0.08695377       0.002
  -0.06521533  0.02173844 -0.06521533       0.002
  -0.06521533  0.02173844 -0.02173844       0.002
  -0.08695377  0.04347688  0.00000000       0.002
  -0.10869221  0.06521533  0.02173844       0.002
  -0.13043065  0.08695377  0.04347688       0.002
  -0.15216910  0.10869221  0.06521533       0.002
   0.00000000 -0.04347688 -0.08695377       0.002
  -0.02173844 -0.02173844 -0.06521533       0.002
  -0.04347688  0.00000000 -0.04347688       0.002
  -0.04347688  0.00000000  0.00000000       0.002
  -0.06521533  0.02173844  0.02173844       0.002
  -0.08695377  0.04347688  0.04347688       0.002
  -0.10869221  0.06521533  0.06521533       0.002
  -0.13043065  0.08695377  0.08695377       0.002
   0.02173844 -0.06521533 -0.06521533       0.002
   0.00000000 -0.04347688 -0.04347688       0.002
  -0.02173844 -0.02173844 -0.02173844       0.002
   0.00000000  0.00000000  0.00000000       0.000
   0.00000000  0.00263496  0.00000000       0.000
   0.00000000  0.00526993  0.00000000       0.000
   0.00000000  0.00790489  0.00000000       0.000
   0.00000000  0.01053985  0.00000000       0.000
   0.00000000  0.01317481  0.00000000       0.000
   0.00000000  0.01580978  0.00000000       0.000
   0.00000000  0.01844474  0.00000000       0.000
   0.00000000  0.02107970  0.00000000       0.000
   0.00000000  0.02371466  0.00000000       0.000
   0.00000000  0.02634963  0.00000000       0.000
   0.00000000  0.02898459  0.00000000       0.000
   0.00000000  0.03161955  0.00000000       0.000
   0.00000000  0.03425452  0.00000000       0.000
   0.00000000  0.03688948  0.00000000       0.000
   0.00000000  0.03952444  0.00000000       0.000
   0.00000000  0.04215940  0.00000000       0.000
   0.00000000  0.04479437  0.00000000       0.000
   0.00000000  0.04742933  0.00000000       0.000
   0.00000000  0.05006429  0.00000000       0.000
   0.00000000  0.05269925  0.00000000       0.000
   0.00000000  0.05533422  0.00000000       0.000
   0.00000000  0.05796918  0.00000000       0.000
   0.00000000  0.06060414  0.00000000       0.000
   0.00000000  0.06323911  0.00000000       0.000
   0.00000000  0.06587407  0.00000000       0.000
   0.00000000  0.06850903  0.00000000       0.000
   0.00000000  0.07114399  0.00000000       0.000
   0.00000000  0.07377896  0.00000000       0.000
   0.00000000  0.07641392  0.00000000       0.000
   0.00000000  0.07904888  0.00000000       0.000
   0.00000000  0.08168384  0.00000000       0.000
   0.00000000  0.08431881  0.00000000       0.000
   0.00000000  0.08695377  0.00000000       0.000
   0.00000000  0.08958873  0.00000000       0.000
   0.00000000  0.09222369  0.00000000       0.000
   0.00000000  0.09485866  0.00000000       0.000
   0.00000000  0.09749362  0.00000000       0.000
   0.00000000  0.10012858  0.00000000       0.000
   0.00000000  0.10276355  0.00000000       0.000
   0.00000000  0.10539851  0.00000000       0.000
   0.00000000  0.10803347  0.00000000       0.000
   0.00000000  0.11066843  0.00000000       0.000
   0.00000000  0.11330340  0.00000000       0.000
   0.00000000  0.11593836  0.00000000       0.000
   0.00000000  0.11857332  0.00000000       0.000
   0.00000000  0.12120828  0.00000000       0.000
   0.00000000  0.12384325  0.00000000       0.000
   0.00000000  0.12647821  0.00000000       0.000
   0.00000000  0.12911317  0.00000000       0.000
   0.00000000  0.13174814  0.00000000       0.000
   0.00000000  0.13438310  0.00000000       0.000
   0.00000000  0.13701806  0.00000000       0.000
   0.00000000  0.13965302  0.00000000       0.000
   0.00000000  0.14228799  0.00000000       0.000
   0.00000000  0.14492295  0.00000000       0.000
   0.00000000  0.14755791  0.00000000       0.000
   0.00000000  0.15019287  0.00000000       0.000
   0.00000000  0.15282784  0.00000000       0.000
   0.00000000  0.15546280  0.00000000       0.000
   0.00000000  0.15809776  0.00000000       0.000
   0.00000000  0.16073273  0.00000000       0.000
   0.00000000  0.16336769  0.00000000       0.000
   0.00000000  0.16600265  0.00000000       0.000
   0.00000000  0.16863761  0.00000000       0.000
   0.00000000  0.17127258  0.00000000       0.000
   0.00000000  0.17390754  0.00000000       0.000
   0.00263496  0.17390754  0.00000000       0.000
   0.00526993  0.17390754  0.00000000       0.000
   0.00790489  0.17390754  0.00000000       0.000
   0.01053985  0.17390754  0.00000000       0.000
   0.01317481  0.17390754  0.00000000       0.000
   0.01580978  0.17390754  0.00000000       0.000
   0.01844474  0.17390754  0.00000000       0.000
   0.02107970  0.17390754  0.00000000       0.000
   0.02371466  0.17390754  0.00000000       0.000
   0.02634963  0.17390754  0.00000000       0.000
   0.02898459  0.17390754  0.00000000       0.000
   0.03161955  0.17390754  0.00000000       0.000
   0.03425452  0.17390754 -0.00000000       0.000
   0.03688948  0.17390754  0.00000000       0.000
   0.03952444  0.17390754  0.00000000       0.000
   0.04215940  0.17390754  0.00000000       0.000
   0.04479437  0.17390754  0.00000000       0.000
   0.04742933  0.17390754 -0.00000000       0.000
   0.05006429  0.17390754  0.00000000       0.000
   0.05269925  0.17390754  0.00000000       0.000
   0.05533422  0.17390754  0.00000000       0.000
   0.05796918  0.17390754  0.00000000       0.000
   0.06060414  0.17390754  0.00000000       0.000
   0.06323911  0.17390754  0.00000000       0.000
   0.06587407  0.17390754  0.00000000       0.000
   0.06850903  0.17390754  0.00000000       0.000
   0.07114399  0.17390754  0.00000000       0.000
   0.07377896  0.17390754 -0.00000000       0.000
   0.07641392  0.17390754  0.00000000       0.000
   0.07904888  0.17390754  0.00000000       0.000
   0.08168384  0.17390754  0.00000000       0.000
   0.08431881  0.17390754  0.00000000       0.000
   0.08695377  0.17390754  0.00000000       0.000
   0.08876531  0.17209600  0.00000000       0.000
   0.09057684  0.17028447  0.00000000       0.000
   0.09238838  0.16847293  0.00000000       0.000
   0.09419992  0.16666139  0.00000000       0.000
   0.09601145  0.16484985  0.00000000       0.000
   0.09782299  0.16303832  0.00000000       0.000
   0.09963453  0.16122678  0.00000000       0.000
   0.10144606  0.15941524 -0.00000000       0.000
   0.10325760  0.15760371  0.00000000       0.000
   0.10506914  0.15579217  0.00000000       0.000
   0.10688067  0.15398063  0.00000000       0.000
   0.10869221  0.15216910  0.00000000       0.000
   0.11050375  0.15035756  0.00000000       0.000
   0.11231529  0.14854602  0.00000000       0.000
   0.11412682  0.14673449  0.00000000       0.000
   0.11593836  0.14492295 -0.00000000       0.000
   0.11774990  0.14311141  0.00000000       0.000
   0.11956143  0.14129988 -0.00000000       0.000
   0.12137297  0.13948834  0.00000000       0.000
   0.12318451  0.13767680  0.00000000       0.000
   0.12499604  0.13586526  0.00000000       0.000
   0.12680758  0.13405373  0.00000000       0.000
   0.12861912  0.13224219  0.00000000       0.000
   0.13043065  0.13043065  0.00000000       0.000
   0.12856736  0.12856736  0.00000000       0.000
   0.12670406  0.12670406  0.00000000       0.000
   0.12484077  0.12484077  0.00000000       0.000
   0.12297747  0.12297747  0.00000000       0.000
   0.12111418  0.12111418  0.00000000       0.000
   0.11925088  0.11925088  0.00000000       0.000
   0.11738759  0.11738759  0.00000000       0.000
   0.11552429  0.11552429  0.00000000       0.000
   0.11366100  0.11366100  0.00000000       0.000
   0.11179770  0.11179770  0.00000000       0.000
   0.10993441  0.10993441  0.00000000       0.000
   0.10807111  0.10807111  0.00000000       0.000
   0.10620782  0.10620782  0.00000000       0.000
   0.10434452  0.10434452  0.00000000       0.000
   0.10248123  0.10248123  0.00000000       0.000
   0.10061793  0.10061793  0.00000000       0.000
   0.09875464  0.09875464  0.00000000       0.000
   0.09689134  0.09689134  0.00000000       0.000
   0.09502805  0.09502805  0.00000000       0.000
   0.09316475  0.09316475  0.00000000       0.000
   0.09130146  0.09130146  0.00000000       0.000
   0.08943816  0.08943816  0.00000000       0.000
   0.08757487  0.08757487  0.00000000       0.000
   0.08571157  0.08571157  0.00000000       0.000
   0.08384828  0.08384828  0.00000000       0.000
   0.08198498  0.08198498  0.00000000       0.000
   0.08012169  0.08012169  0.00000000       0.000
   0.07825839  0.07825839  0.00000000       0.000
   0.07639510  0.07639510  0.00000000       0.000
   0.07453180  0.07453180  0.00000000       0.000
   0.07266851  0.07266851  0.00000000       0.000
   0.07080521  0.07080521  0.00000000       0.000
   0.06894192  0.06894192  0.00000000       0.000
   0.06707862  0.06707862  0.00000000       0.000
   0.06521533  0.06521533  0.00000000       0.000
   0.06335203  0.06335203  0.00000000       0.000
   0.06148874  0.06148874  0.00000000       0.000
   0.05962544  0.05962544  0.00000000       0.000
   0.05776215  0.05776215  0.00000000       0.000
   0.05589885  0.05589885  0.00000000       0.000
   0.05403556  0.05403556  0.00000000       0.000
   0.05217226  0.05217226  0.00000000       0.000
   0.05030897  0.05030897  0.00000000       0.000
   0.04844567  0.04844567  0.00000000       0.000
   0.04658238  0.04658238  0.00000000       0.000
   0.04471908  0.04471908  0.00000000       0.000
   0.04285579  0.04285579  0.00000000       0.000
   0.04099249  0.04099249  0.00000000       0.000
   0.03912920  0.03912920  0.00000000       0.000
   0.03726590  0.03726590  0.00000000       0.000
   0.03540261  0.03540261  0.00000000       0.000
   0.03353931  0.03353931  0.00000000       0.000
   0.03167602  0.03167602  0.00000000       0.000
   0.02981272  0.02981272  0.00000000       0.000
   0.02794943  0.02794943  0.00000000       0.000
   0.02608613  0.02608613  0.00000000       0.000
   0.02422284  0.02422284  0.00000000       0.000
   0.02235954  0.02235954  0.00000000       0.000
   0.02049625  0.02049625  0.00000000       0.000
   0.01863295  0.01863295  0.00000000       0.000
   0.01676966  0.01676966  0.00000000       0.000
   0.01490636  0.01490636  0.00000000       0.000
   0.01304307  0.01304307  0.00000000       0.000
   0.01117977  0.01117977  0.00000000       0.000
   0.00931648  0.00931648  0.00000000       0.000
   0.00745318  0.00745318  0.00000000       0.000
   0.00558989  0.00558989  0.00000000       0.000
   0.00372659  0.00372659  0.00000000       0.000
   0.00186330  0.00186330  0.00000000       0.000
   0.00000000  0.00000000  0.00000000       0.000
   0.00152550  0.00152550  0.00152550       0.000
   0.00305101  0.00305101  0.00305101       0.000
   0.00457651  0.00457651  0.00457651       0.000
   0.00610202  0.00610202  0.00610202       0.000
   0.00762752  0.00762752  0.00762752       0.000
   0.00915303  0.00915303  0.00915303       0.000
   0.01067853  0.01067853  0.01067853       0.000
   0.01220404  0.01220404  0.01220404       0.000
   0.01372954  0.01372954  0.01372954       0.000
   0.01525505  0.01525505  0.01525505       0.000
   0.01678055  0.01678055  0.01678055       0.000
   0.01830606  0.01830606  0.01830606       0.000
   0.01983156  0.01983156  0.01983156       0.000
   0.02135707  0.02135707  0.02135707       0.000
   0.02288257  0.02288257  0.02288257       0.000
   0.02440808  0.02440808  0.02440808       0.000
   0.02593358  0.02593358  0.02593358       0.000
   0.02745909  0.02745909  0.02745909       0.000
   0.02898459  0.02898459  0.02898459       0.000
   0.03051009  0.03051009  0.03051009       0.000
   0.03203560  0.03203560  0.03203560       0.000
   0.03356110  0.03356110  0.03356110       0.000
   0.03508661  0.03508661  0.03508661       0.000
   0.03661211  0.03661211  0.03661211       0.000
   0.03813762  0.03813762  0.03813762       0.000
   0.03966312  0.03966312  0.03966312       0.000
   0.04118863  0.04118863  0.04118863       0.000
   0.04271413  0.04271413  0.04271413       0.000
   0.04423964  0.04423964  0.04423964       0.000
   0.04576514  0.04576514  0.04576514       0.000
   0.04729065  0.04729065  0.04729065       0.000
   0.04881615  0.04881615  0.04881615       0.000
   0.05034166  0.05034166  0.05034166       0.000
   0.05186716  0.05186716  0.05186716       0.000
   0.05339267  0.05339267  0.05339267       0.000
   0.05491817  0.05491817  0.05491817       0.000
   0.05644367  0.05644367  0.05644367       0.000
   0.05796918  0.05796918  0.05796918       0.000
   0.05949468  0.05949468  0.05949468       0.000
   0.06102019  0.06102019  0.06102019       0.000
   0.06254569  0.06254569  0.06254569       0.000
   0.06407120  0.06407120  0.06407120       0.000
   0.06559670  0.06559670  0.06559670       0.000
   0.06712221  0.06712221  0.06712221       0.000
   0.06864771  0.06864771  0.06864771       0.000
   0.07017322  0.07017322  0.07017322       0.000
   0.07169872  0.07169872  0.07169872       0.000
   0.07322423  0.07322423  0.07322423       0.000
   0.07474973  0.07474973  0.07474973       0.000
   0.07627524  0.07627524  0.07627524       0.000
   0.07780074  0.07780074  0.07780074       0.000
   0.07932625  0.07932625  0.07932625       0.000
   0.08085175  0.08085175  0.08085175       0.000
   0.08237726  0.08237726  0.08237726       0.000
   0.08390276  0.08390276  0.08390276       0.000
   0.08542826  0.08542826  0.08542826       0.000
   0.08695377  0.08695377  0.08695377       0.000
   0.08589336  0.08907459  0.08589336       0.000
   0.08483295  0.09119542  0.08483295       0.000
   0.08377253  0.09331624  0.08377253       0.000
   0.08271212  0.09543706  0.08271212       0.000
   0.08165171  0.09755789  0.08165171       0.000
   0.08059130  0.09967871  0.08059130       0.000
   0.07953089  0.10179953  0.07953089       0.000
   0.07847047  0.10392036  0.07847047       0.000
   0.07741006  0.10604118  0.07741006       0.000
   0.07634965  0.10816201  0.07634965       0.000
   0.07528924  0.11028283  0.07528924       0.000
   0.07422883  0.11240365  0.07422883       0.000
   0.07316842  0.11452448  0.07316842       0.000
   0.07210800  0.11664530  0.07210800       0.000
   0.07104759  0.11876612  0.07104759       0.000
   0.06998718  0.12088695  0.06998718       0.000
   0.06892677  0.12300777  0.06892677       0.000
   0.06786636  0.12512860  0.06786636       0.000
   0.06680594  0.12724942  0.06680594       0.000
   0.06574553  0.12937024  0.06574553       0.000
   0.06468512  0.13149107  0.06468512       0.000
   0.06362471  0.13361189  0.06362471       0.000
   0.06256430  0.13573271  0.06256430       0.000
   0.06150389  0.13785354  0.06150389       0.000
   0.06044347  0.13997436  0.06044347       0.000
   0.05938306  0.14209518  0.05938306       0.000
   0.05832265  0.14421601  0.05832265       0.000
   0.05726224  0.14633683  0.05726224       0.000
   0.05620183  0.14845766  0.05620183       0.000
   0.05514141  0.15057848  0.05514141       0.000
   0.05408100  0.15269930  0.05408100       0.000
   0.05302059  0.15482013  0.05302059       0.000
   0.05196018  0.15694095  0.05196018       0.000
   0.05089977  0.15906177  0.05089977       0.000
   0.04983936  0.16118260  0.04983936       0.000
   0.04877894  0.16330342  0.04877894       0.000
   0.04771853  0.16542424  0.04771853       0.000
   0.04665812  0.16754507  0.04665812       0.000
   0.04559771  0.16966589  0.04559771       0.000
   0.04453730  0.17178672  0.04453730       0.000
   0.04347688  0.17390754  0.04347688       0.000
   0.04528842  0.17390754  0.04166535       0.000
   0.04709996  0.17390754  0.03985381       0.000
   0.04891150  0.17390754  0.03804227       0.000
   0.05072303  0.17390754  0.03623074       0.000
   0.05253457  0.17390754  0.03441920       0.000
   0.05434611  0.17390754  0.03260766       0.000
   0.05615764  0.17390754  0.03079613       0.000
   0.05796918  0.17390754  0.02898459       0.000
   0.05978072  0.17390754  0.02717305       0.000
   0.06159225  0.17390754  0.02536152       0.000
   0.06340379  0.17390754  0.02354998       0.000
   0.06521533  0.17390754  0.02173844       0.000
   0.06702686  0.17390754  0.01992691       0.000
   0.06883840  0.17390754  0.01811537       0.000
   0.07064994  0.17390754  0.01630383       0.000
   0.07246147  0.17390754  0.01449229       0.000
   0.07427301  0.17390754  0.01268076       0.000
   0.07608455  0.17390754  0.01086922       0.000
   0.07789609  0.17390754  0.00905768       0.000
   0.07970762  0.17390754  0.00724615       0.000
   0.08151916  0.17390754  0.00543461       0.000
   0.08333070  0.17390754  0.00362307       0.000
   0.08514223  0.17390754  0.00181154       0.000
   0.08695377  0.17390754  0.00000000       0.000
   0.08695377  0.17205746  0.00185008       0.000
   0.08695377  0.17020738  0.00370016       0.000
   0.08695377  0.16835730  0.00555024       0.000
   0.08695377  0.16650722  0.00740032       0.000
   0.08695377  0.16465714  0.00925040       0.000
   0.08695377  0.16280706  0.01110048       0.000
   0.08695377  0.16095698  0.01295056       0.000
   0.08695377  0.15910690  0.01480064       0.000
   0.08695377  0.15725682  0.01665072       0.000
   0.08695377  0.15540674  0.01850080       0.000
   0.08695377  0.15355666  0.02035088       0.000
   0.08695377  0.15170658  0.02220096       0.000
   0.08695377  0.14985650  0.02405104       0.000
   0.08695377  0.14800642  0.02590112       0.000
   0.08695377  0.14615634  0.02775120       0.000
   0.08695377  0.14430626  0.02960128       0.000
   0.08695377  0.14245618  0.03145136       0.000
   0.08695377  0.14060610  0.03330144       0.000
   0.08695377  0.13875602  0.03515152       0.000
   0.08695377  0.13690593  0.03700160       0.000
   0.08695377  0.13505585  0.03885168       0.000
   0.08695377  0.13320577  0.04070176       0.000
   0.08695377  0.13135569  0.04255184       0.000
   0.08695377  0.12950561  0.04440192       0.000
   0.08695377  0.12765553  0.04625201       0.000
   0.08695377  0.12580545  0.04810209       0.000
   0.08695377  0.12395537  0.04995217       0.000
   0.08695377  0.12210529  0.05180225       0.000
   0.08695377  0.12025521  0.05365233       0.000
   0.08695377  0.11840513  0.05550241       0.000
   0.08695377  0.11655505  0.05735249       0.000
   0.08695377  0.11470497  0.05920257       0.000
   0.08695377  0.11285489  0.06105265       0.000
   0.08695377  0.11100481  0.06290273       0.000
   0.08695377  0.10915473  0.06475281       0.000
   0.08695377  0.10730465  0.06660289       0.000
   0.08695377  0.10545457  0.06845297       0.000
   0.08695377  0.10360449  0.07030305       0.000
   0.08695377  0.10175441  0.07215313       0.000
   0.08695377  0.09990433  0.07400321       0.000
   0.08695377  0.09805425  0.07585329       0.000
   0.08695377  0.09620417  0.07770337       0.000
   0.08695377  0.09435409  0.07955345       0.000
   0.08695377  0.09250401  0.08140353       0.000
   0.08695377  0.09065393  0.08325361       0.000
   0.08695377  0.08880385  0.08510369       0.000
   0.08695377  0.08695377  0.08695377       0.000
   0.08801418  0.08801418  0.08483295       0.000
   0.08907459  0.08907459  0.08271212       0.000
   0.09013500  0.09013500  0.08059130       0.000
   0.09119542  0.09119542  0.07847047       0.000
   0.09225583  0.09225583  0.07634965       0.000
   0.09331624  0.09331624  0.07422883       0.000
   0.09437665  0.09437665  0.07210800       0.000
   0.09543706  0.09543706  0.06998718       0.000
   0.09649748  0.09649748  0.06786636       0.000
   0.09755789  0.09755789  0.06574553       0.000
   0.09861830  0.09861830  0.06362471       0.000
   0.09967871  0.09967871  0.06150389       0.000
   0.10073912  0.10073912  0.05938306       0.000
   0.10179953  0.10179953  0.05726224       0.000
   0.10285995  0.10285995  0.05514141       0.000
   0.10392036  0.10392036  0.05302059       0.000
   0.10498077  0.10498077  0.05089977       0.000
   0.10604118  0.10604118  0.04877894       0.000
   0.10710159  0.10710159  0.04665812       0.000
   0.10816201  0.10816201  0.04453730       0.000
   0.10922242  0.10922242  0.04241647       0.000
   0.11028283  0.11028283  0.04029565       0.000
   0.11134324  0.11134324  0.03817483       0.000
   0.11240365  0.11240365  0.03605400       0.000
   0.11346407  0.11346407  0.03393318       0.000
   0.11452448  0.11452448  0.03181235       0.000
   0.11558489  0.11558489  0.02969153       0.000
   0.11664530  0.11664530  0.02757071       0.000
   0.11770571  0.11770571  0.02544988       0.000
   0.11876612  0.11876612  0.02332906       0.000
   0.11982654  0.11982654  0.02120824       0.000
   0.12088695  0.12088695  0.01908741       0.000
   0.12194736  0.12194736  0.01696659       0.000
   0.12300777  0.12300777  0.01484577       0.000
   0.12406818  0.12406818  0.01272494       0.000
   0.12512860  0.12512860  0.01060412       0.000
   0.12618901  0.12618901  0.00848329       0.000
   0.12724942  0.12724942  0.00636247       0.000
   0.12830983  0.12830983  0.00424165       0.000
   0.12937024  0.12937024  0.00212082       0.000
   0.13043065  0.13043065  0.00000000       0.000
   0.04347688  0.17390754  0.04347688       0.000
   0.04166535  0.17390754  0.04166535       0.000
   0.03985381  0.17390754  0.03985381       0.000
   0.03804227  0.17390754  0.03804227       0.000
   0.03623074  0.17390754  0.03623074       0.000
   0.03441920  0.17390754  0.03441920       0.000
   0.03260766  0.17390754  0.03260766       0.000
   0.03079613  0.17390754  0.03079613       0.000
   0.02898459  0.17390754  0.02898459       0.000
   0.02717305  0.17390754  0.02717305       0.000
   0.02536152  0.17390754  0.02536152       0.000
   0.02354998  0.17390754  0.02354998       0.000
   0.02173844  0.17390754  0.02173844       0.000
   0.01992691  0.17390754  0.01992691       0.000
   0.01811537  0.17390754  0.01811537       0.000
   0.01630383  0.17390754  0.01630383       0.000
   0.01449229  0.17390754  0.01449229       0.000
   0.01268076  0.17390754  0.01268076       0.000
   0.01086922  0.17390754  0.01086922       0.000
   0.00905768  0.17390754  0.00905768       0.000
   0.00724615  0.17390754  0.00724615       0.000
   0.00543461  0.17390754  0.00543461       0.000
   0.00362307  0.17390754  0.00362307       0.000
   0.00181154  0.17390754  0.00181154       0.000
   0.00000000  0.17390754  0.00000000       0.000

 k-points in reciprocal lattice and weights: \Gamma -> X -> W -> K -> \Gamma -> L ->
   0.00000000  0.00000000  0.00000000       0.002
   0.12500000  0.00000000  0.00000000       0.002
   0.25000000  0.00000000  0.00000000       0.002
   0.37500000  0.00000000  0.00000000       0.002
   0.50000000  0.00000000  0.00000000       0.002
  -0.37500000  0.00000000  0.00000000       0.002
  -0.25000000  0.00000000  0.00000000       0.002
  -0.12500000  0.00000000  0.00000000       0.002
   0.00000000  0.12500000  0.00000000       0.002
   0.12500000  0.12500000  0.00000000       0.002
   0.25000000  0.12500000  0.00000000       0.002
   0.37500000  0.12500000  0.00000000       0.002
   0.50000000  0.12500000  0.00000000       0.002
  -0.37500000  0.12500000  0.00000000       0.002
  -0.25000000  0.12500000  0.00000000       0.002
  -0.12500000  0.12500000  0.00000000       0.002
   0.00000000  0.25000000  0.00000000       0.002
   0.12500000  0.25000000  0.00000000       0.002
   0.25000000  0.25000000  0.00000000       0.002
   0.37500000  0.25000000  0.00000000       0.002
   0.50000000  0.25000000  0.00000000       0.002
  -0.37500000  0.25000000  0.00000000       0.002
  -0.25000000  0.25000000  0.00000000       0.002
  -0.12500000  0.25000000  0.00000000       0.002
   0.00000000  0.37500000  0.00000000       0.002
   0.12500000  0.37500000  0.00000000       0.002
   0.25000000  0.37500000  0.00000000       0.002
   0.37500000  0.37500000  0.00000000       0.002
   0.50000000  0.37500000  0.00000000       0.002
  -0.37500000  0.37500000  0.00000000       0.002
  -0.25000000  0.37500000  0.00000000       0.002
  -0.12500000  0.37500000  0.00000000       0.002
   0.00000000  0.50000000  0.00000000       0.002
   0.12500000  0.50000000  0.00000000       0.002
   0.25000000  0.50000000  0.00000000       0.002
   0.37500000  0.50000000  0.00000000       0.002
   0.50000000  0.50000000  0.00000000       0.002
  -0.37500000  0.50000000  0.00000000       0.002
  -0.25000000  0.50000000  0.00000000       0.002
  -0.12500000  0.50000000  0.00000000       0.002
   0.00000000 -0.37500000  0.00000000       0.002
   0.12500000 -0.37500000  0.00000000       0.002
   0.25000000 -0.37500000  0.00000000       0.002
   0.37500000 -0.37500000  0.00000000       0.002
   0.50000000 -0.37500000  0.00000000       0.002
  -0.37500000 -0.37500000  0.00000000       0.002
  -0.25000000 -0.37500000  0.00000000       0.002
  -0.12500000 -0.37500000  0.00000000       0.002
   0.00000000 -0.25000000  0.00000000       0.002
   0.12500000 -0.25000000  0.00000000       0.002
   0.25000000 -0.25000000  0.00000000       0.002
   0.37500000 -0.25000000  0.00000000       0.002
   0.50000000 -0.25000000  0.00000000       0.002
  -0.37500000 -0.25000000  0.00000000       0.002
  -0.25000000 -0.25000000  0.00000000       0.002
  -0.12500000 -0.25000000  0.00000000       0.002
   0.00000000 -0.12500000  0.00000000       0.002
   0.12500000 -0.12500000  0.00000000       0.002
   0.25000000 -0.12500000  0.00000000       0.002
   0.37500000 -0.12500000  0.00000000       0.002
   0.50000000 -0.12500000  0.00000000       0.002
  -0.37500000 -0.12500000  0.00000000       0.002
  -0.25000000 -0.12500000  0.00000000       0.002
  -0.12500000 -0.12500000  0.00000000       0.002
   0.00000000  0.00000000  0.12500000       0.002
   0.12500000  0.00000000  0.12500000       0.002
   0.25000000  0.00000000  0.12500000       0.002
   0.37500000  0.00000000  0.12500000       0.002
   0.50000000  0.00000000  0.12500000       0.002
  -0.37500000  0.00000000  0.12500000       0.002
  -0.25000000  0.00000000  0.12500000       0.002
  -0.12500000  0.00000000  0.12500000       0.002
   0.00000000  0.12500000  0.12500000       0.002
   0.12500000  0.12500000  0.12500000       0.002
   0.25000000  0.12500000  0.12500000       0.002
   0.37500000  0.12500000  0.12500000       0.002
   0.50000000  0.12500000  0.12500000       0.002
  -0.37500000  0.12500000  0.12500000       0.002
  -0.25000000  0.12500000  0.12500000       0.002
  -0.12500000  0.12500000  0.12500000       0.002
   0.00000000  0.25000000  0.12500000       0.002
   0.12500000  0.25000000  0.12500000       0.002
   0.25000000  0.25000000  0.12500000       0.002
   0.37500000  0.25000000  0.12500000       0.002
   0.50000000  0.25000000  0.12500000       0.002
  -0.37500000  0.25000000  0.12500000       0.002
  -0.25000000  0.25000000  0.12500000       0.002
  -0.12500000  0.25000000  0.12500000       0.002
   0.00000000  0.37500000  0.12500000       0.002
   0.12500000  0.37500000  0.12500000       0.002
   0.25000000  0.37500000  0.12500000       0.002
   0.37500000  0.37500000  0.12500000       0.002
   0.50000000  0.37500000  0.12500000       0.002
  -0.37500000  0.37500000  0.12500000       0.002
  -0.25000000  0.37500000  0.12500000       0.002
  -0.12500000  0.37500000  0.12500000       0.002
   0.00000000  0.50000000  0.12500000       0.002
   0.12500000  0.50000000  0.12500000       0.002
   0.25000000  0.50000000  0.12500000       0.002
   0.37500000  0.50000000  0.12500000       0.002
   0.50000000  0.50000000  0.12500000       0.002
  -0.37500000  0.50000000  0.12500000       0.002
  -0.25000000  0.50000000  0.12500000       0.002
  -0.12500000  0.50000000  0.12500000       0.002
   0.00000000 -0.37500000  0.12500000       0.002
   0.12500000 -0.37500000  0.12500000       0.002
   0.25000000 -0.37500000  0.12500000       0.002
   0.37500000 -0.37500000  0.12500000       0.002
   0.50000000 -0.37500000  0.12500000       0.002
  -0.37500000 -0.37500000  0.12500000       0.002
  -0.25000000 -0.37500000  0.12500000       0.002
  -0.12500000 -0.37500000  0.12500000       0.002
   0.00000000 -0.25000000  0.12500000       0.002
   0.12500000 -0.25000000  0.12500000       0.002
   0.25000000 -0.25000000  0.12500000       0.002
   0.37500000 -0.25000000  0.12500000       0.002
   0.50000000 -0.25000000  0.12500000       0.002
  -0.37500000 -0.25000000  0.12500000       0.002
  -0.25000000 -0.25000000  0.12500000       0.002
  -0.12500000 -0.25000000  0.12500000       0.002
   0.00000000 -0.12500000  0.12500000       0.002
   0.12500000 -0.12500000  0.12500000       0.002
   0.25000000 -0.12500000  0.12500000       0.002
   0.37500000 -0.12500000  0.12500000       0.002
   0.50000000 -0.12500000  0.12500000       0.002
  -0.37500000 -0.12500000  0.12500000       0.002
  -0.25000000 -0.12500000  0.12500000       0.002
  -0.12500000 -0.12500000  0.12500000       0.002
   0.00000000  0.00000000  0.25000000       0.002
   0.12500000  0.00000000  0.25000000       0.002
   0.25000000  0.00000000  0.25000000       0.002
   0.37500000  0.00000000  0.25000000       0.002
   0.50000000  0.00000000  0.25000000       0.002
  -0.37500000  0.00000000  0.25000000       0.002
  -0.25000000  0.00000000  0.25000000       0.002
  -0.12500000  0.00000000  0.25000000       0.002
   0.00000000  0.12500000  0.25000000       0.002
   0.12500000  0.12500000  0.25000000       0.002
   0.25000000  0.12500000  0.25000000       0.002
   0.37500000  0.12500000  0.25000000       0.002
   0.50000000  0.12500000  0.25000000       0.002
  -0.37500000  0.12500000  0.25000000       0.002
  -0.25000000  0.12500000  0.25000000       0.002
  -0.12500000  0.12500000  0.25000000       0.002
   0.00000000  0.25000000  0.25000000       0.002
   0.12500000  0.25000000  0.25000000       0.002
   0.25000000  0.25000000  0.25000000       0.002
   0.37500000  0.25000000  0.25000000       0.002
   0.50000000  0.25000000  0.25000000       0.002
  -0.37500000  0.25000000  0.25000000       0.002
  -0.25000000  0.25000000  0.25000000       0.002
  -0.12500000  0.25000000  0.25000000       0.002
   0.00000000  0.37500000  0.25000000       0.002
   0.12500000  0.37500000  0.25000000       0.002
   0.25000000  0.37500000  0.25000000       0.002
   0.37500000  0.37500000  0.25000000       0.002
   0.50000000  0.37500000  0.25000000       0.002
  -0.37500000  0.37500000  0.25000000       0.002
  -0.25000000  0.37500000  0.25000000       0.002
  -0.12500000  0.37500000  0.25000000       0.002
   0.00000000  0.50000000  0.25000000       0.002
   0.12500000  0.50000000  0.25000000       0.002
   0.25000000  0.50000000  0.25000000       0.002
   0.37500000  0.50000000  0.25000000       0.002
   0.50000000  0.50000000  0.25000000       0.002
  -0.37500000  0.50000000  0.25000000       0.002
  -0.25000000  0.50000000  0.25000000       0.002
  -0.12500000  0.50000000  0.25000000       0.002
   0.00000000 -0.37500000  0.25000000       0.002
   0.12500000 -0.37500000  0.25000000       0.002
   0.25000000 -0.37500000  0.25000000       0.002
   0.37500000 -0.37500000  0.25000000       0.002
   0.50000000 -0.37500000  0.25000000       0.002
  -0.37500000 -0.37500000  0.25000000       0.002
  -0.25000000 -0.37500000  0.25000000       0.002
  -0.12500000 -0.37500000  0.25000000       0.002
   0.00000000 -0.25000000  0.25000000       0.002
   0.12500000 -0.25000000  0.25000000       0.002
   0.25000000 -0.25000000  0.25000000       0.002
   0.37500000 -0.25000000  0.25000000       0.002
   0.50000000 -0.25000000  0.25000000       0.002
  -0.37500000 -0.25000000  0.25000000       0.002
  -0.25000000 -0.25000000  0.25000000       0.002
  -0.12500000 -0.25000000  0.25000000       0.002
   0.00000000 -0.12500000  0.25000000       0.002
   0.12500000 -0.12500000  0.25000000       0.002
   0.25000000 -0.12500000  0.25000000       0.002
   0.37500000 -0.12500000  0.25000000       0.002
   0.50000000 -0.12500000  0.25000000       0.002
  -0.37500000 -0.12500000  0.25000000       0.002
  -0.25000000 -0.12500000  0.25000000       0.002
  -0.12500000 -0.12500000  0.25000000       0.002
   0.00000000  0.00000000  0.37500000       0.002
   0.12500000  0.00000000  0.37500000       0.002
   0.25000000  0.00000000  0.37500000       0.002
   0.37500000  0.00000000  0.37500000       0.002
   0.50000000  0.00000000  0.37500000       0.002
  -0.37500000  0.00000000  0.37500000       0.002
  -0.25000000  0.00000000  0.37500000       0.002
  -0.12500000  0.00000000  0.37500000       0.002
   0.00000000  0.12500000  0.37500000       0.002
   0.12500000  0.12500000  0.37500000       0.002
   0.25000000  0.12500000  0.37500000       0.002
   0.37500000  0.12500000  0.37500000       0.002
   0.50000000  0.12500000  0.37500000       0.002
  -0.37500000  0.12500000  0.37500000       0.002
  -0.25000000  0.12500000  0.37500000       0.002
  -0.12500000  0.12500000  0.37500000       0.002
   0.00000000  0.25000000  0.37500000       0.002
   0.12500000  0.25000000  0.37500000       0.002
   0.25000000  0.25000000  0.37500000       0.002
   0.37500000  0.25000000  0.37500000       0.002
   0.50000000  0.25000000  0.37500000       0.002
  -0.37500000  0.25000000  0.37500000       0.002
  -0.25000000  0.25000000  0.37500000       0.002
  -0.12500000  0.25000000  0.37500000       0.002
   0.00000000  0.37500000  0.37500000       0.002
   0.12500000  0.37500000  0.37500000       0.002
   0.25000000  0.37500000  0.37500000       0.002
   0.37500000  0.37500000  0.37500000       0.002
   0.50000000  0.37500000  0.37500000       0.002
  -0.37500000  0.37500000  0.37500000       0.002
  -0.25000000  0.37500000  0.37500000       0.002
  -0.12500000  0.37500000  0.37500000       0.002
   0.00000000  0.50000000  0.37500000       0.002
   0.12500000  0.50000000  0.37500000       0.002
   0.25000000  0.50000000  0.37500000       0.002
   0.37500000  0.50000000  0.37500000       0.002
   0.50000000  0.50000000  0.37500000       0.002
  -0.37500000  0.50000000  0.37500000       0.002
  -0.25000000  0.50000000  0.37500000       0.002
  -0.12500000  0.50000000  0.37500000       0.002
   0.00000000 -0.37500000  0.37500000       0.002
   0.12500000 -0.37500000  0.37500000       0.002
   0.25000000 -0.37500000  0.37500000       0.002
   0.37500000 -0.37500000  0.37500000       0.002
   0.50000000 -0.37500000  0.37500000       0.002
  -0.37500000 -0.37500000  0.37500000       0.002
  -0.25000000 -0.37500000  0.37500000       0.002
  -0.12500000 -0.37500000  0.37500000       0.002
   0.00000000 -0.25000000  0.37500000       0.002
   0.12500000 -0.25000000  0.37500000       0.002
   0.25000000 -0.25000000  0.37500000       0.002
   0.37500000 -0.25000000  0.37500000       0.002
   0.50000000 -0.25000000  0.37500000       0.002
  -0.37500000 -0.25000000  0.37500000       0.002
  -0.25000000 -0.25000000  0.37500000       0.002
  -0.12500000 -0.25000000  0.37500000       0.002
   0.00000000 -0.12500000  0.37500000       0.002
   0.12500000 -0.12500000  0.37500000       0.002
   0.25000000 -0.12500000  0.37500000       0.002
   0.37500000 -0.12500000  0.37500000       0.002
   0.50000000 -0.12500000  0.37500000       0.002
  -0.37500000 -0.12500000  0.37500000       0.002
  -0.25000000 -0.12500000  0.37500000       0.002
  -0.12500000 -0.12500000  0.37500000       0.002
   0.00000000  0.00000000  0.50000000       0.002
   0.12500000  0.00000000  0.50000000       0.002
   0.25000000  0.00000000  0.50000000       0.002
   0.37500000  0.00000000  0.50000000       0.002
   0.50000000  0.00000000  0.50000000       0.002
  -0.37500000  0.00000000  0.50000000       0.002
  -0.25000000  0.00000000  0.50000000       0.002
  -0.12500000  0.00000000  0.50000000       0.002
   0.00000000  0.12500000  0.50000000       0.002
   0.12500000  0.12500000  0.50000000       0.002
   0.25000000  0.12500000  0.50000000       0.002
   0.37500000  0.12500000  0.50000000       0.002
   0.50000000  0.12500000  0.50000000       0.002
  -0.37500000  0.12500000  0.50000000       0.002
  -0.25000000  0.12500000  0.50000000       0.002
  -0.12500000  0.12500000  0.50000000       0.002
   0.00000000  0.25000000  0.50000000       0.002
   0.12500000  0.25000000  0.50000000       0.002
   0.25000000  0.25000000  0.50000000       0.002
   0.37500000  0.25000000  0.50000000       0.002
   0.50000000  0.25000000  0.50000000       0.002
  -0.37500000  0.25000000  0.50000000       0.002
  -0.25000000  0.25000000  0.50000000       0.002
  -0.12500000  0.25000000  0.50000000       0.002
   0.00000000  0.37500000  0.50000000       0.002
   0.12500000  0.37500000  0.50000000       0.002
   0.25000000  0.37500000  0.50000000       0.002
   0.37500000  0.37500000  0.50000000       0.002
   0.50000000  0.37500000  0.50000000       0.002
  -0.37500000  0.37500000  0.50000000       0.002
  -0.25000000  0.37500000  0.50000000       0.002
  -0.12500000  0.37500000  0.50000000       0.002
   0.00000000  0.50000000  0.50000000       0.002
   0.12500000  0.50000000  0.50000000       0.002
   0.25000000  0.50000000  0.50000000       0.002
   0.37500000  0.50000000  0.50000000       0.002
   0.50000000  0.50000000  0.50000000       0.002
  -0.37500000  0.50000000  0.50000000       0.002
  -0.25000000  0.50000000  0.50000000       0.002
  -0.12500000  0.50000000  0.50000000       0.002
   0.00000000 -0.37500000  0.50000000       0.002
   0.12500000 -0.37500000  0.50000000       0.002
   0.25000000 -0.37500000  0.50000000       0.002
   0.37500000 -0.37500000  0.50000000       0.002
   0.50000000 -0.37500000  0.50000000       0.002
  -0.37500000 -0.37500000  0.50000000       0.002
  -0.25000000 -0.37500000  0.50000000       0.002
  -0.12500000 -0.37500000  0.50000000       0.002
   0.00000000 -0.25000000  0.50000000       0.002
   0.12500000 -0.25000000  0.50000000       0.002
   0.25000000 -0.25000000  0.50000000       0.002
   0.37500000 -0.25000000  0.50000000       0.002
   0.50000000 -0.25000000  0.50000000       0.002
  -0.37500000 -0.25000000  0.50000000       0.002
  -0.25000000 -0.25000000  0.50000000       0.002
  -0.12500000 -0.25000000  0.50000000       0.002
   0.00000000 -0.12500000  0.50000000       0.002
   0.12500000 -0.12500000  0.50000000       0.002
   0.25000000 -0.12500000  0.50000000       0.002
   0.37500000 -0.12500000  0.50000000       0.002
   0.50000000 -0.12500000  0.50000000       0.002
  -0.37500000 -0.12500000  0.50000000       0.002
  -0.25000000 -0.12500000  0.50000000       0.002
  -0.12500000 -0.12500000  0.50000000       0.002
   0.00000000  0.00000000 -0.37500000       0.002
   0.12500000  0.00000000 -0.37500000       0.002
   0.25000000  0.00000000 -0.37500000       0.002
   0.37500000  0.00000000 -0.37500000       0.002
   0.50000000  0.00000000 -0.37500000       0.002
  -0.37500000  0.00000000 -0.37500000       0.002
  -0.25000000  0.00000000 -0.37500000       0.002
  -0.12500000  0.00000000 -0.37500000       0.002
   0.00000000  0.12500000 -0.37500000       0.002
   0.12500000  0.12500000 -0.37500000       0.002
   0.25000000  0.12500000 -0.37500000       0.002
   0.37500000  0.12500000 -0.37500000       0.002
   0.50000000  0.12500000 -0.37500000       0.002
  -0.37500000  0.12500000 -0.37500000       0.002
  -0.25000000  0.12500000 -0.37500000       0.002
  -0.12500000  0.12500000 -0.37500000       0.002
   0.00000000  0.25000000 -0.37500000       0.002
   0.12500000  0.25000000 -0.37500000       0.002
   0.25000000  0.25000000 -0.37500000       0.002
   0.37500000  0.25000000 -0.37500000       0.002
   0.50000000  0.25000000 -0.37500000       0.002
  -0.37500000  0.25000000 -0.37500000       0.002
  -0.25000000  0.25000000 -0.37500000       0.002
  -0.12500000  0.25000000 -0.37500000       0.002
   0.00000000  0.37500000 -0.37500000       0.002
   0.12500000  0.37500000 -0.37500000       0.002
   0.25000000  0.37500000 -0.37500000       0.002
   0.37500000  0.37500000 -0.37500000       0.002
   0.50000000  0.37500000 -0.37500000       0.002
  -0.37500000  0.37500000 -0.37500000       0.002
  -0.25000000  0.37500000 -0.37500000       0.002
  -0.12500000  0.37500000 -0.37500000       0.002
   0.00000000  0.50000000 -0.37500000       0.002
   0.12500000  0.50000000 -0.37500000       0.002
   0.25000000  0.50000000 -0.37500000       0.002
[...]
     11       5.5415      0.00000
     12      12.7228      0.00000
     13      12.8972      0.00000
     14      13.8016      0.00000
     15      15.7687      0.00000
     16      16.0219      0.00000
     17      17.3524      0.00000
     18      17.5578      0.00000
     19      19.1062      0.00000
     20      21.4231      0.00000
     21      21.7603      0.00000
     22      22.8926      0.00000
     23      23.0127      0.00000
     24      23.4395      0.00000
     25      23.4893      0.00000
     26      24.5459      0.00000
     27      25.0937      0.00000
     28      29.2039      0.00000
     29      31.8070      0.00000
     30      31.8491      0.00000
     31      33.6905      0.00000
     32      34.5163      0.00000

 k-point   934 :       0.5365    0.0729    0.5365
  band No.  band energies     occupation
      1     -11.3487      2.00000
      2     -11.2178      2.00000
      3     -11.2167      2.00000
      4     -11.2096      2.00000
      5     -11.1800      2.00000
      6      -6.6128      2.00000
      7      -3.1059      2.00000
      8       0.7681      2.00000
      9       0.9989      2.00000
     10       5.1042      0.00000
     11       5.4440      0.00000
     12      12.8189      0.00000
     13      12.9698      0.00000
     14      13.8702      0.00000
     15      15.8836      0.00000
     16      16.0003      0.00000
     17      17.2497      0.00000
     18      17.4044      0.00000
     19      19.0102      0.00000
     20      21.5605      0.00000
     21      21.9112      0.00000
     22      22.8579      0.00000
     23      22.9832      0.00000
     24      23.3680      0.00000
     25      23.4485      0.00000
     26      24.3678      0.00000
     27      24.9764      0.00000
     28      29.4658      0.00000
     29      31.8568      0.00000
     30      31.8796      0.00000
     31      33.8596      0.00000
     32      34.3539      0.00000

 k-point   935 :       0.5312    0.0625    0.5312
  band No.  band energies     occupation
      1     -11.3489      2.00000
      2     -11.2174      2.00000
      3     -11.2166      2.00000
      4     -11.2099      2.00000
      5     -11.1799      2.00000
      6      -6.6138      2.00000
      7      -3.1100      2.00000
      8       0.8162      2.00000
      9       0.9897      2.00000
     10       5.0920      0.00000
     11       5.3582      0.00000
     12      12.9104      0.00000
     13      13.0351      0.00000
     14      13.9238      0.00000
     15      15.9958      0.00000
     16      15.9969      0.00000
     17      17.1508      0.00000
     18      17.2532      0.00000
     19      18.9216      0.00000
     20      21.6967      0.00000
     21      22.0637      0.00000
     22      22.8279      0.00000
     23      22.9579      0.00000
     24      23.2916      0.00000
     25      23.4134      0.00000
     26      24.1907      0.00000
     27      24.8732      0.00000
     28      29.7207      0.00000
     29      31.8634      0.00000
     30      31.9267      0.00000
     31      33.9489      0.00000
     32      34.2884      0.00000

 k-point   936 :       0.5260    0.0521    0.5260
  band No.  band energies     occupation
      1     -11.3492      2.00000
      2     -11.2171      2.00000
      3     -11.2164      2.00000
      4     -11.2101      2.00000
      5     -11.1798      2.00000
      6      -6.6147      2.00000
      7      -3.1134      2.00000
      8       0.8590      2.00000
      9       0.9819      2.00000
     10       5.0796      0.00000
     11       5.2858      0.00000
     12      12.9954      0.00000
     13      13.0924      0.00000
     14      13.9619      0.00000
     15      16.0129      0.00000
     16      16.1048      0.00000
     17      17.0553      0.00000
     18      17.1054      0.00000
     19      18.8421      0.00000
     20      21.8302      0.00000
     21      22.2167      0.00000
     22      22.8027      0.00000
     23      22.9375      0.00000
     24      23.2102      0.00000
     25      23.3839      0.00000
     26      24.0155      0.00000
     27      24.7850      0.00000
     28      29.9648      0.00000
     29      31.8688      0.00000
     30      31.9511      0.00000
     31      33.8574      0.00000
     32      34.4194      0.00000

 k-point   937 :       0.5208    0.0417    0.5208
  band No.  band energies     occupation
      1     -11.3493      2.00000
      2     -11.2168      2.00000
      3     -11.2163      2.00000
      4     -11.2104      2.00000
      5     -11.1797      2.00000
      6      -6.6154      2.00000
      7      -3.1163      2.00000
      8       0.8956      2.00000
      9       0.9755      2.00000
     10       5.0662      0.00000
     11       5.2283      0.00000
     12      13.0718      0.00000
     13      13.1408      0.00000
     14      13.9855      0.00000
     15      16.0480      0.00000
     16      16.2103      0.00000
     17      16.9628      0.00000
     18      16.9628      0.00000
     19      18.7734      0.00000
     20      21.9590      0.00000
     21      22.3679      0.00000
     22      22.7821      0.00000
     23      22.9232      0.00000
     24      23.1250      0.00000
     25      23.3599      0.00000
     26      23.8431      0.00000
     27      24.7125      0.00000
     28      30.1928      0.00000
     29      31.8733      0.00000
     30      31.9551      0.00000
     31      33.7126      0.00000
     32      34.6185      0.00000

 k-point   938 :       0.5156    0.0313    0.5156
  band No.  band energies     occupation
      1     -11.3495      2.00000
      2     -11.2165      2.00000
      3     -11.2163      2.00000
      4     -11.2106      2.00000
      5     -11.1796      2.00000
      6      -6.6161      2.00000
      7      -3.1185      2.00000
      8       0.9249      2.00000
      9       0.9705      2.00000
     10       5.0516      0.00000
     11       5.1867      0.00000
     12      13.1368      0.00000
     13      13.1794      0.00000
     14      13.9971      0.00000
     15      16.1004      0.00000
     16      16.3119      0.00000
     17      16.8276      0.00000
     18      16.8728      0.00000
     19      18.7174      0.00000
     20      22.0795      0.00000
     21      22.5127      0.00000
     22      22.7661      0.00000
     23      22.9175      0.00000
     24      23.0393      0.00000
     25      23.3413      0.00000
     26      23.6756      0.00000
     27      24.6561      0.00000
     28      30.3966      0.00000
     29      31.8766      0.00000
     30      31.9417      0.00000
     31      33.5773      0.00000
     32      34.8217      0.00000

 k-point   939 :       0.5104    0.0208    0.5104
  band No.  band energies     occupation
      1     -11.3496      2.00000
      2     -11.2163      2.00000
      3     -11.2162      2.00000
      4     -11.2107      2.00000
      5     -11.1795      2.00000
      6      -6.6166      2.00000
      7      -3.1201      2.00000
      8       0.9465      2.00000
      9       0.9670      2.00000
     10       5.0374      0.00000
     11       5.1604      0.00000
     12      13.1872      0.00000
     13      13.2075      0.00000
     14      14.0007      0.00000
     15      16.1652      0.00000
     16      16.4091      0.00000
     17      16.7044      0.00000
     18      16.7848      0.00000
     19      18.6759      0.00000
     20      22.1852      0.00000
     21      22.6388      0.00000
     22      22.7547      0.00000
     23      22.9251      0.00000
     24      22.9626      0.00000
     25      23.3280      0.00000
     26      23.5174      0.00000
     27      24.6159      0.00000
     28      30.5639      0.00000
     29      31.8790      0.00000
     30      31.9169      0.00000
     31      33.4701      0.00000
     32      35.0314      0.00000

 k-point   940 :       0.5052    0.0104    0.5052
  band No.  band energies     occupation
      1     -11.3497      2.00000
      2     -11.2162      2.00000
      3     -11.2162      2.00000
      4     -11.2108      2.00000
      5     -11.1795      2.00000
      6      -6.6169      2.00000
      7      -3.1210      2.00000
      8       0.9597      2.00000
      9       0.9648      2.00000
     10       5.0266      0.00000
     11       5.1465      0.00000
     12      13.2193      0.00000
     13      13.2247      0.00000
     14      14.0004      0.00000
     15      16.2303      0.00000
     16      16.5002      0.00000
     17      16.6048      0.00000
     18      16.6997      0.00000
     19      18.6503      0.00000
     20      22.2632      0.00000
     21      22.7210      0.00000
     22      22.7478      0.00000
     23      22.8927      0.00000
     24      22.9728      0.00000
     25      23.3200      0.00000
     26      23.3820      0.00000
     27      24.5918      0.00000
     28      30.6774      0.00000
     29      31.8805      0.00000
     30      31.8918      0.00000
     31      33.4017      0.00000
     32      35.1722      0.00000

 k-point   941 :       0.5000    0.0000    0.5000
  band No.  band energies     occupation
      1     -11.3497      2.00000
      2     -11.2162      2.00000
      3     -11.2162      2.00000
      4     -11.2109      2.00000
      5     -11.1795      2.00000
      6      -6.6170      2.00000
      7      -3.1214      2.00000
      8       0.9641      2.00000
      9       0.9641      2.00000
     10       5.0227      0.00000
     11       5.1422      0.00000
     12      13.2304      0.00000
     13      13.2304      0.00000
     14      13.9999      0.00000
     15      16.2628      0.00000
     16      16.5608      0.00000
     17      16.5608      0.00000
     18      16.6411      0.00000
     19      18.6416      0.00000
     20      22.2934      0.00000
     21      22.7455      0.00000
     22      22.7455      0.00000
     23      22.8696      0.00000
     24      23.0066      0.00000
     25      23.3174      0.00000
     26      23.3174      0.00000
     27      24.5838      0.00000
     28      30.7182      0.00000
     29      31.8809      0.00000
     30      31.8809      0.00000
     31      33.3782      0.00000
     32      35.1741      0.00000


--------------------------------------------------------------------------------------------------------


 soft charge-density along one line, spin component           1
         0         1         2         3         4         5         6         7         8         9
 total charge-density along one line

 pseudopotential strength for first ion, spin component:           1
-14.358  -0.000  -0.000  -0.000  -0.000   2.241  -0.000   0.000
 -0.000 -14.358   0.000  -0.000  -0.000  -0.000   2.241  -0.000
 -0.000   0.000 -14.357   0.000   0.000   0.000  -0.000   2.242
 -0.000  -0.000   0.000 -14.358   0.000  -0.000  -0.000  -0.000
 -0.000  -0.000   0.000   0.000 -14.357   0.000   0.000  -0.000
  2.241  -0.000   0.000  -0.000   0.000   3.890   0.000   0.000
 -0.000   2.241  -0.000  -0.000   0.000   0.000   3.890  -0.000
  0.000  -0.000   2.242  -0.000  -0.000   0.000  -0.000   3.888
 -0.000  -0.000  -0.000   2.241  -0.000   0.000   0.000  -0.000
  0.000   0.000  -0.000  -0.000   2.242   0.000   0.000   0.000
  0.000   0.000  -0.000   0.000   0.000  -0.000  -0.000   0.000
 -0.000  -0.000   0.000  -0.000  -0.000   0.000   0.000  -0.000
 -0.000  -0.000  -0.000   0.002  -0.000   0.000   0.000   0.000
  0.002  -0.000   0.000  -0.000   0.000  -0.001   0.000  -0.000
 -0.000   0.002  -0.000  -0.000   0.000   0.000  -0.001   0.000
  0.000   0.000   0.000  -0.001   0.000  -0.000  -0.000  -0.000
 -0.001   0.000  -0.000   0.000  -0.000   0.001  -0.000   0.000
  0.000  -0.001   0.000   0.000  -0.000  -0.000   0.001  -0.000
 total augmentation occupancy for first ion, spin component:           1
  2.003  -0.000  -0.000  -0.000  -0.000   0.014  -0.000  -0.000  -0.000  -0.000   0.000   0.000   0.000  -0.016   0.000  -0.000
 -0.000   2.003   0.000  -0.000  -0.000  -0.000   0.014   0.000  -0.000  -0.000   0.000   0.000   0.000   0.000  -0.016  -0.000
 -0.000   0.000   2.001   0.000   0.000  -0.000   0.000   0.006   0.000   0.000   0.000  -0.000   0.000  -0.000   0.000  -0.000
 -0.000  -0.000   0.000   2.003   0.000  -0.000  -0.000   0.000   0.014   0.000   0.000   0.000  -0.016   0.000   0.000  -0.001
 -0.000  -0.000   0.000   0.000   2.001  -0.000  -0.000   0.000   0.000   0.006  -0.000   0.000   0.000  -0.000  -0.000  -0.000
  0.014  -0.000  -0.000  -0.000  -0.000   0.038   0.000  -0.000   0.000  -0.000   0.000   0.000  -0.000  -0.139  -0.000  -0.000
 -0.000   0.014   0.000  -0.000  -0.000   0.000   0.038   0.000   0.000  -0.000   0.000   0.000  -0.000  -0.000  -0.139  -0.000
 -0.000   0.000   0.006   0.000   0.000  -0.000   0.000   0.011   0.000  -0.000   0.000   0.000  -0.000   0.000  -0.000  -0.000
 -0.000  -0.000   0.000   0.014   0.000   0.000   0.000   0.000   0.038   0.000   0.000   0.000  -0.139  -0.000  -0.000  -0.002
 -0.000  -0.000   0.000   0.000   0.006  -0.000  -0.000  -0.000   0.000   0.011  -0.000  -0.000  -0.000  -0.000   0.000  -0.000
  0.000   0.000   0.000   0.000  -0.000   0.000   0.000   0.000   0.000  -0.000   1.484   0.023  -0.000  -0.000  -0.000   0.000
  0.000   0.000  -0.000   0.000   0.000   0.000   0.000   0.000   0.000  -0.000   0.023   0.001   0.000   0.000   0.000   0.000
  0.000   0.000   0.000  -0.016   0.000  -0.000  -0.000  -0.000  -0.139  -0.000  -0.000   0.000   0.888   0.000   0.000   0.013
 -0.016   0.000  -0.000   0.000  -0.000  -0.139  -0.000   0.000  -0.000  -0.000  -0.000   0.000   0.000   0.888   0.000   0.000
  0.000  -0.016   0.000   0.000  -0.000  -0.000  -0.139  -0.000  -0.000   0.000  -0.000   0.000   0.000   0.000   0.888   0.000
 -0.000  -0.000  -0.000  -0.001  -0.000  -0.000  -0.000  -0.000  -0.002  -0.000   0.000   0.000   0.013   0.000   0.000   0.000
 -0.001  -0.000   0.000  -0.000  -0.000  -0.002  -0.000   0.000  -0.000  -0.000   0.000   0.000   0.000   0.013   0.000   0.000
 -0.000  -0.001  -0.000  -0.000   0.000  -0.000  -0.002  -0.000  -0.000   0.000   0.000   0.000   0.000   0.000   0.013   0.000


------------------------ aborting loop because EDIFF is reached ----------------------------------------





 total charge

# of ion     s       p       d       tot
----------------------------------------
  1        0.883   0.753   9.985  11.621
  2        1.214   1.562   0.028   2.804
------------------------------------------------
tot        2.096   2.315  10.013  14.425

    CHARGE:  cpu time    0.7031: real time    0.7055
    FORLOC:  cpu time    0.0009: real time    0.0009
    FORNL :  cpu time    4.9103: real time    4.9145
    STRESS:  cpu time   12.1711: real time   12.1843
    FORCOR:  cpu time    0.0724: real time    0.0725
    FORHAR:  cpu time    0.0253: real time    0.0253
    MIXING:  cpu time    0.0398: real time    0.0398
    OFIELD:  cpu time    0.0000: real time    0.0000

  FORCE on cell =-STRESS in cart. coord.  units (eV):
  Direction    XX          YY          ZZ          XY          YZ          ZX
  --------------------------------------------------------------------------------------
  Alpha Z    57.30386    57.30386    57.30386
  Ewald    -414.74885  -414.74885  -414.74885    -0.00000     0.00000     0.00000
  Hartree   244.71533   244.71533   244.71533     0.00001     0.00001     0.00001
  E(xc)     -97.33697   -97.33697   -97.33697     0.00001     0.00001     0.00001
  Local     -68.33786   -68.33786   -68.33786     0.00008     0.00008     0.00008
  n-local    46.96052    46.96052    46.96052     0.00000     0.00000     0.00000
  augment   121.08804   121.08804   121.08804    -0.00009    -0.00009    -0.00009
  Kinetic   110.36489   110.36489   110.36489     0.00000     0.00000     0.00000
  Fock        0.00000     0.00000     0.00000     0.00000     0.00000     0.00000
  -------------------------------------------------------------------------------------
  Total       0.00896     0.00896     0.00896     0.00002     0.00002     0.00002
  in kB       0.30209     0.30209     0.30209     0.00057     0.00057     0.00057
  external pressure =        0.30 kB  Pullay stress =        0.00 kB


 VOLUME and BASIS-vectors are now :
 -----------------------------------------------------------------------------
  energy-cutoff  :      520.00
  volume of cell :       47.53
      direct lattice vectors                 reciprocal lattice vectors
     0.000000000  2.875091000  2.875091000    -0.173907539  0.173907539  0.173907539
     2.875091000  0.000000000  2.875091000     0.173907539 -0.173907539  0.173907539
     2.875091000  2.875091000  0.000000000     0.173907539  0.173907539 -0.173907539

  length of vectors
     4.065992685  4.065992685  4.065992685     0.301216693  0.301216693  0.301216693


 FORCES acting on ions
    electron-ion (+dipol)            ewald-force                    non-local-force                 convergence-correction
 -----------------------------------------------------------------------------------------------
   -.919E-05 -.920E-05 -.915E-05   0.127E-13 0.274E-13 -.335E-13   0.968E-05 0.968E-05 0.966E-05   0.302E-08 0.220E-07 0.130E-07
   -.808E-06 -.809E-06 -.824E-06   -.122E-13 -.274E-13 0.316E-13   0.165E-06 0.165E-06 0.166E-06   -.715E-09 -.371E-09 0.765E-09
 -----------------------------------------------------------------------------------------------
   -.100E-04 -.100E-04 -.998E-05   0.553E-15 0.336E-17 -.185E-14   0.985E-05 0.984E-05 0.983E-05   0.230E-08 0.217E-07 0.138E-07


 POSITION                                       TOTAL-FORCE (eV/Angst)
 -----------------------------------------------------------------------------------
      0.00000      0.00000      0.00000         0.000001      0.000001      0.000001
      4.31264      4.31264      4.31264        -0.000001     -0.000001     -0.000001
 -----------------------------------------------------------------------------------
    total drift:                               -0.000000     -0.000000     -0.000000


--------------------------------------------------------------------------------------------------------



  FREE ENERGIE OF THE ION-ELECTRON SYSTEM (eV)
  ---------------------------------------------------
  free  energy   TOTEN  =        -8.26847536 eV

  energy  without entropy=       -8.26825461  energy(sigma->0) =       -8.26836499



--------------------------------------------------------------------------------------------------------


    POTLOK:  cpu time    0.1122: real time    0.1123


--------------------------------------------------------------------------------------------------------


 writing wavefunctions
     LOOP+:  cpu time  691.9914: real time  713.1053
    4ORBIT:  cpu time    0.0000: real time    0.0000



 total charge

# of ion     s       p       d       tot
----------------------------------------
  1        0.883   0.753   9.985  11.621
  2        1.214   1.562   0.028   2.804
------------------------------------------------
tot        2.096   2.315  10.013  14.425


 total amount of memory used by VASP on root node   100675. kBytes
========================================================================

   base      :      30000. kBytes
   nonl-proj :      46618. kBytes
   fftplans  :        358. kBytes
   grid      :        558. kBytes
   one-center:         15. kBytes
   wavefun   :      23126. kBytes



 General timing and accounting informations for this job:
 ========================================================

                  Total CPU time used (sec):      837.881
                            User time (sec):      298.462
                          System time (sec):      539.419
                         Elapsed time (sec):      880.459

                   Maximum memory used (kb):      110124.
                   Average memory used (kb):           0.

                          Minor page faults:       142558
                          Major page faults:          111
                 Voluntary context switches:         1312
