
Running Job 1 of 1 mol.qcinp
qchem mol.qcinp_11384.0 /scratch2/scratchdirs/xhqu/qc_scratch/qchem11384/ 1
aprun -b -n1 -d24 -cc none /global/project/projectdirs/jcesr/qchem/qc41/exe/qcprog.exe_s mol.qcinp_11384.0 /scratch2/scratchdirs/xhqu/qc_scratch/qchem11384/
aprun -b -n1 -d24 -cc none /global/project/projectdirs/jcesr/qchem/qc41/exe/qcprog.exe_s mol.qcinp_11384.0 /scratch2/scratchdirs/xhqu/qc_scratch/qchem11384/

                  Welcome to Q-Chem
     A Quantum Leap Into The Future Of Chemistry

 Y. Shao, L. Fusti-Molnar, Y. Jung, J. Kussmann, C. Ochsenfeld, S. T. Brown, 
 A. T. B. Gilbert, L. V. Slipchenko, S. V. Levchenko, D. P. O'Neill, 
 R. A. DiStasio Jr., R. C. Lochan, T. Wang, G. J. O. Beran, N. A. Besley, 
 J. M. Herbert, C. Y. Lin, T. Van Voorhis, S. H. Chien, A. Sodt, R. P. Steele, 
 V. A. Rassolov, P. E. Maslen, P. P. Korambath, R. D. Adamson, B. Austin, 
 J. Baker, E. F. C. Byrd, H. Dachsel, R. J. Doerksen, A. Dreuw, B. D. Dunietz, 
 A. D. Dutoi, T. R. Furlani, S. R. Gwaltney, A. Heyden, S. Hirata, C.-P. Hsu, 
 G. Kedziora, R. Z. Khaliullin, P. Klunzinger, A. M. Lee, M. S. Lee, W. Liang, 
 I. Lotan, N. Nair, B. Peters, E. I. Proynov, P. A. Pieniazek, Y. M. Rhee, 
 J. Ritchie, E. Rosta, C. D. Sherrill, A. C. Simmonett, J. E. Subotnik, 
 H. L. Woodcock III, W. Zhang, A. T. Bell, A. K. Chakraborty, D. M. Chipman, 
 F. J. Keil, A. Warshel, W. J. Hehre, H. F. Schaefer III, J. Kong, 
 A. I. Krylov, P. M. W. Gill, M. Head-Gordon

 Additional authors for Version 3.1: 
 Z. Gan, Y. Zhao, N. E. SchultzD. Truhlar, E. Epifanovsky, M. Oana

 Additional authors for Version 3.2: 
 R. Baer, B. R. Brooks, D. Casanova, J.-D. Chai, C.-L. Cheng, C. Cramer, 
 D. Crittenden, A. Ghysels, G. Hawkins, E. G. Hohenstein, C. Kelley, 
 W. Kurlancheek, D. Liotard, E. Livshits, P. Manohar, A. Marenich, 
 D. Neuhauser, R. Olson, M. A. Rohrdanz, K. S. Thanthiriwatte, A. J. W. Thom, 
 V. Vanovschi, C. F. Williams, Q. Wu, Z.-Q. You

 Additional authors for Version 4.0: 
 A. Aspuru-Guzik, Y. Bernard, C. Chang, J. Deng, A. Dreuw, M. Diedenhofen, 
 R. G. Edgar, D. Ghosh, W. A. Goddard III, M. Goldey, L. D. Jacobson, 
 M. Gordon, B. Kaduk, I. Kaliman, K. Khistyaev, R. King, A. Klamt, 
 D. Kosenkov, T. Kus, D. Lambrecht, A. Landau, A. W. Lange, K. Lawler, F. Liu, 
 J. Liu, R. Olivares-Amaya, S. P. Mao, J. Parkhill, N. Russ, M. Schmidt, 
 N. Shenvi, D. Small, Y. C. Su, E. Sundstrom, L. Vogt, O. Vydrov, M. Watson, 
 M. Wormit, X. Xu, S. Yeganeh, I. Y. Zhang, D. Zuev

 Additional authors for Version 4.1: 
 X. Feng, M. W. D. Hanson-Heine, P. Horn, H. Ji, A. Laurent, R. Peverati, 
 N. Mardirossian, N. Sergueev, S. Sharada, P. Zimmerman


 Q-Chem, Version 4.1, Q-Chem, Inc., Pittsburgh, PA (2013).

 Intel X86 Linux Version 4.1.1

 Q-chem begins on Sat Mar  7 09:02:09 2015  

 Host: nid05611

 Scratch files written to /scratch2/scratchdirs/xhqu/qc_scratch/qchem11384//
 Dec313 .. -1
Processing $rem in /global/project/projectdirs/jcesr/qchem/qc41/config/preferences.
 mem_total = 4000
Finally everything over in PARseQInput

--------------------------------------------------------------
User input:
--------------------------------------------------------------
$comment
1_3_dihydro_2_1_3_benzothiadiazole_1_4_diol singlet neutral
B3lYP/6-31+G* geometry optimization
$end


$molecule
0  1
C          -1.60840000        4.26030000        0.26110000
C          -0.70070000        3.22130000        0.54610000
C          -2.60010000        4.08940000       -0.72680000
C          -0.79210000        2.00840000       -0.16530000
C          -2.69690000        2.87660000       -1.44190000
C          -1.78650000        1.84190000       -1.15240000
N          -1.76030000        0.63590000       -1.75060000
N           0.00230000        0.92390000       -0.00890000
O          -3.64820000        2.70120000       -2.39340000
O           0.97660000        0.79440000        0.84840000
S          -0.49790000       -0.30080000       -1.08920000
H          -1.54770000        5.14280000        0.77370000
H           0.01620000        3.35110000        1.26320000
H          -3.25210000        4.85210000       -0.92340000
H          -2.36650000        0.34310000       -2.44940000
H          -4.15930000        3.53710000       -2.41770000
H           1.65880000        0.26870000        0.37970000
$end


$rem
jobtype = opt
exchange = b3lyp
basis = 6-31+g*
mem_static = 3000
mem_total = 28000
$end

--------------------------------------------------------------
 ----------------------------------------------------
       Standard Nuclear Orientation (Angstroms)
    I     Atom         X            Y            Z
 ----------------------------------------------------
    1      C       1.783993    -1.933586     0.000921
    2      C       0.375339    -1.915419     0.006369
    3      C       2.512387    -0.726098    -0.005209
    4      C      -0.300507    -0.678972     0.005477
    5      C       1.840907     0.515167    -0.005339
    6      C       0.432687     0.526563     0.000003
    7      N      -0.338451     1.630333     0.001901
    8      N      -1.641590    -0.496873     0.008638
    9      O       2.532077     1.682794    -0.009769
   10      O      -2.550294    -1.431792     0.042936
   11      S      -1.982434     1.176733     0.010749
   12      H       2.280566    -2.827266     0.001708
   13      H      -0.147272    -2.793989     0.010597
   14      H       3.534470    -0.754289    -0.009379
   15      H      -0.010644     2.543608    -0.000044
   16      H       3.479657     1.432527    -0.008479
   17      H      -3.280654    -1.096485    -0.518829
 ----------------------------------------------------
 Molecular Point Group                 C1    NOp =  1
 Largest Abelian Subgroup              C1    NOp =  1
 Nuclear Repulsion Energy =   707.6516900058 hartrees
 There are       44 alpha and       44 beta electrons
 Requested basis set is 6-31+G(d)
 There are 68 shells and 225 basis functions

Total QAlloc Memory Limit  28000 MB
Mega-Array Size      2933 MB
MEM_STATIC part      3000 MB
 A cutoff of  1.0D-11 yielded   2087 shell pairs
 There are     24133 function pairs
 Smallest overlap matrix eigenvalue = 1.27E-06

 Q-Chem warning in module ../qchem/stvman/mkSTV.C, line 251:

 Overlap eigenvalue is smaller than square root of threshold


  Scale SEOQF with 1.000000e-01/1.000000e-01/1.000000e-01

 Standard Electronic Orientation quadrupole field applied
 Nucleus-field energy     =     0.0000000224 hartrees
 Guess from superposition of atomic densities
 Warning:  Energy on first SCF cycle will be non-variational
 A restricted hybrid HF-DFT SCF calculation will be
 performed using Pulay DIIS extrapolation
 Exchange:     0.2000 Hartree-Fock + 0.0800 Slater + 0.7200 Becke88
 Correlation:  0.8100 LYP + 0.1900 VWN1RPA
 Using SG-1 standard quadrature grid
 SCF converges when DIIS error is below 1.0E-08
 using 24 threads for integral computing 
 reading int configure file ... done
 
 -------------------------------------------------------
 OpenMP Integral Computing Module                       
 Release: version 1.0, May 2013, Q-Chem Inc. Pittsburgh 
 -------------------------------------------------------
 Integral Job Info:
 Integral screening is                        1
 Integral computing path is                   2
 max size of driver memory is            800000
 size of driver memory is                593606
 size of scratch memory is              4374840
 max col of scratch BK array               1296
 max len of scratch array in speh3          155
 max len of scratch index in speh4           18
 max int batch size is                       50
 min int batch size is                       15
 fixed nKL is                                15
 max L of basis functions is                  2
 order of int derivative is                   0
 number of shells is                         68
 number of basis is                         225
 number of cartesian basis is               225
 number of contracted shell pairs          2087
 number of primitive shell pairs           7358
 maxK2 (contraction) of shell pair           36
 max number of K2 of shell pair               1
 max number of CS2 of shell pair            296
 max number of PS2 of shell pair           1776
 -------------------------------------------------------
         cpu   7.32 wall   0.32
 -------------------------------------------------------
 OpenMP BLAS3 based DFT computing Module                
 Release: version 1.0, May 2013, Q-Chem Inc. Pittsburgh 
 -------------------------------------------------------
in dftxc.C, eleTot sum is:88.001348, tauTot is:0.000000
 ---------------------------------------
  Cycle       Energy         DIIS Error
 ---------------------------------------
    1    -893.3166352658      5.06E-02
         cpu  22.11 wall   0.92
in dftxc.C, eleTot sum is:88.000240, tauTot is:0.000000
    2    -890.0072495482      5.63E-03
         cpu  22.03 wall   0.92
in dftxc.C, eleTot sum is:87.999926, tauTot is:0.000000
    3    -888.6901639036      1.24E-02
         cpu  22.57 wall   0.94
in dftxc.C, eleTot sum is:88.000003, tauTot is:0.000000
    4    -890.1302951582      3.31E-03
         cpu  21.57 wall   0.90
in dftxc.C, eleTot sum is:88.000098, tauTot is:0.000000
    5    -890.2122576762      1.10E-03
         cpu  21.79 wall   0.91
in dftxc.C, eleTot sum is:88.000116, tauTot is:0.000000
    6    -890.2167923815      7.23E-04
         cpu  21.01 wall   0.88
in dftxc.C, eleTot sum is:88.000124, tauTot is:0.000000
    7    -890.2198518627      2.34E-04
         cpu  20.53 wall   0.86
in dftxc.C, eleTot sum is:88.000114, tauTot is:0.000000
    8    -890.2201600901      6.94E-05
         cpu  19.78 wall   0.82
in dftxc.C, eleTot sum is:88.000119, tauTot is:0.000000
    9    -890.2201877327      2.25E-05
         cpu  19.03 wall   0.79
in dftxc.C, eleTot sum is:88.000119, tauTot is:0.000000
   10    -890.2201906269      1.06E-05
         cpu  18.44 wall   0.77
in dftxc.C, eleTot sum is:88.000119, tauTot is:0.000000
   11    -890.2201913495      3.57E-06
         cpu  17.55 wall   0.73
in dftxc.C, eleTot sum is:88.000119, tauTot is:0.000000
   12    -890.2201914142      1.79E-06
         cpu  16.78 wall   0.70
in dftxc.C, eleTot sum is:88.000119, tauTot is:0.000000
   13    -890.2201914355      2.77E-07
         cpu  15.62 wall   0.65
in dftxc.C, eleTot sum is:88.000119, tauTot is:0.000000
   14    -890.2201914357      1.39E-07
         cpu  14.58 wall   0.61
in dftxc.C, eleTot sum is:88.000119, tauTot is:0.000000
   15    -890.2201914360      3.26E-08
         cpu  22.01 wall   0.92
in dftxc.C, eleTot sum is:88.000119, tauTot is:0.000000
   16    -890.2201914358      5.50E-09 Convergence criterion met
 ---------------------------------------
 SCF time:  CPU 449.46 s  wall 18.78 s
 SCF   energy in the final basis set = -890.2201914358
 Total energy in the final basis set = -890.2201914358
 Analysis of SCF Wavefunction
 
 --------------------------------------------------------------
                    Orbital Energies (a.u.)
 --------------------------------------------------------------
 
 Alpha MOs
 -- Occupied --
-88.960 -19.246 -19.196 -14.432 -14.381 -10.250 -10.240 -10.236
-10.180 -10.177 -10.175  -8.014  -5.981  -5.977  -5.966  -1.174
 -1.077  -1.005  -0.894  -0.839  -0.765  -0.735  -0.700  -0.650
 -0.628  -0.591  -0.569  -0.545  -0.500  -0.498  -0.483  -0.461
 -0.439  -0.426  -0.414  -0.389  -0.375  -0.375  -0.360  -0.332
 -0.296  -0.262  -0.209  -0.148
 -- Virtual --
 -0.054  -0.009  -0.008   0.009   0.012   0.016   0.024   0.033
  0.047   0.053   0.060   0.067   0.073   0.079   0.091   0.099
  0.110   0.113   0.120   0.122   0.127   0.142   0.148   0.149
  0.152   0.164   0.173   0.176   0.182   0.186   0.188   0.194
  0.205   0.213   0.218   0.223   0.231   0.236   0.240   0.249
  0.255   0.259   0.263   0.268   0.270   0.284   0.290   0.300
  0.306   0.310   0.317   0.324   0.334   0.335   0.363   0.376
  0.389   0.399   0.414   0.428   0.430   0.461   0.476   0.501
  0.508   0.564   0.611   0.641   0.658   0.662   0.671   0.691
  0.702   0.714   0.731   0.737   0.739   0.754   0.766   0.782
  0.794   0.846   0.850   0.920   0.926   0.949   0.970   0.979
  0.986   1.003   1.017   1.041   1.046   1.057   1.063   1.094
  1.113   1.121   1.136   1.140   1.159   1.166   1.205   1.211
  1.224   1.232   1.240   1.249   1.289   1.296   1.310   1.344
  1.361   1.376   1.411   1.429   1.450   1.476   1.478   1.479
  1.532   1.592   1.624   1.698   1.710   1.752   1.755   1.795
  1.811   1.821   1.843   1.870   1.901   1.926   1.957   1.967
  2.028   2.052   2.078   2.095   2.099   2.135   2.175   2.214
  2.254   2.265   2.314   2.331   2.348   2.359   2.449   2.454
  2.494   2.526   2.551   2.612   2.618   2.640   2.678   2.705
  2.738   2.792   2.848   2.858   2.913   2.995   3.053   3.106
  3.306   3.469   3.968   4.088   4.242   4.271   4.318   4.365
  4.379   4.478   4.514   4.589   4.953
 --------------------------------------------------------------
 
          Ground-State Mulliken Net Atomic Charges

     Atom                 Charge (a.u.)
  ----------------------------------------
      1 C                    -0.250149
      2 C                    -1.150187
      3 C                    -0.090706
      4 C                     1.069363
      5 C                    -1.402791
      6 C                     1.694236
      7 N                    -0.827965
      8 N                    -0.800431
      9 O                    -0.684313
     10 O                     0.022984
     11 S                     0.549219
     12 H                     0.165556
     13 H                     0.174095
     14 H                     0.139398
     15 H                     0.468087
     16 H                     0.483478
     17 H                     0.440126
  ----------------------------------------
  Sum of atomic charges =     0.000000

 -----------------------------------------------------------------
                    Cartesian Multipole Moments
 -----------------------------------------------------------------
    Charge (ESU x 10^10)
                -0.0000
    Dipole Moment (Debye)
         X      -0.1865      Y       1.0475      Z      -0.8235
       Tot       1.3455
    Quadrupole Moments (Debye-Ang)
        XX     -55.2752     XY       1.3648     YY     -67.9422
        XZ       3.1731     YZ       1.0106     ZZ     -76.6048
    Octapole Moments (Debye-Ang^2)
       XXX       7.9483    XXY      -0.2332    XYY      -2.1756
       YYY      16.1728    XXZ     -11.1776    XYZ      -3.8898
       YYZ      -1.1721    XZZ      -5.5156    YZZ       2.6745
       ZZZ      -0.0316
    Hexadecapole Moments (Debye-Ang^3)
      XXXX   -1128.9700   XXXY     111.2022   XXYY    -387.5175
      XYYY      -4.1941   YYYY    -757.0912   XXXZ      37.7731
      XXYZ      14.0154   XYYZ       5.0771   YYYZ       0.0597
      XXZZ    -285.5162   XYZZ      23.0898   YYZZ    -171.3836
      XZZZ       1.0298   YZZZ       0.5337   ZZZZ     -97.5159
 -----------------------------------------------------------------
 Calculating analytic gradient of the SCF energy
         cpu  69.82 wall   4.79
 Gradient of Coulomb and Exchange Energy
            1           2           3           4           5           6
    1  -7.5588699  -6.1176923 -13.5205030  -0.0122426 -15.1998222  16.7529398
    2  16.3044194  17.2859016   3.1391763 -26.2531504   3.3173894   5.6320269
    3   0.1191338   1.6543999  -0.1923974   0.5852058   0.4025277  -2.5474630
            7           8           9          10          11          12
    1  -1.5036594   9.9523489  -9.2179401  12.5822785  22.3681004  -2.7555500
    2 -15.9295860  10.1477033 -14.4389922  15.0356613 -17.6784086   4.7545992
    3   0.0302956  -1.1441662   0.0543935  -1.5420140   0.0961326  -0.0031226
           13          14          15          16          17
    1   2.2896418  -5.3896208  -2.4883757  -4.9212669   4.7402335
    2   5.3842102   0.8626284  -6.8966812   0.1403492  -0.8072466
    3  -0.0124957   0.0346873   0.0538491  -0.0009168   2.4119502
in dftxc.C, eleTot sum is:88.000119, tauTot is:0.000000
 Gradient of SCF Energy
            1           2           3           4           5           6
    1   0.0257583  -0.0273462   0.0622441  -0.0411552   0.0174000  -0.0462548
    2  -0.0619388  -0.0449096   0.0105408   0.0348165   0.0330751   0.0292165
    3   0.0004875  -0.0002831  -0.0004112   0.0019868   0.0000003   0.0017333
            7           8           9          10          11          12
    1   0.0236280  -0.0675894  -0.0125096   0.0548791   0.0605315  -0.0252122
    2   0.0190462  -0.0477785  -0.0125489   0.0340622  -0.0469481   0.0458117
    3   0.0007457   0.0021504   0.0002142  -0.0077199  -0.0056928   0.0000581
           13          14          15          16          17
    1   0.0282983  -0.0542871  -0.0072267   0.0080483   0.0007934
    2   0.0434741   0.0000700  -0.0384470  -0.0089712   0.0114290
    3  -0.0004397  -0.0000420  -0.0007489   0.0000775   0.0078837
 Max gradient component =       6.759E-02
 RMS gradient           =       3.036E-02
 Gradient time:  CPU 84.18 s  wall 5.98 s
 Geometry Optimization Parameters
   NAtoms,    NIC,     NZ,  NCons,   NDum,   NFix, NCnnct, MaxDiis
       17     119       0       0       0       0       0       0


** GEOMETRY OPTIMIZATION IN DELOCALIZED INTERNAL COORDINATES **
   Searching for a Minimum

   Optimization Cycle:   1

                       Coordinates (Angstroms)
     ATOM              X           Y           Z
      1  C         1.783993   -1.933586    0.000921
      2  C         0.375339   -1.915419    0.006369
      3  C         2.512387   -0.726098   -0.005209
      4  C        -0.300507   -0.678972    0.005477
      5  C         1.840907    0.515167   -0.005339
      6  C         0.432687    0.526563    0.000003
      7  N        -0.338451    1.630333    0.001901
      8  N        -1.641590   -0.496873    0.008638
      9  O         2.532077    1.682794   -0.009769
     10  O        -2.550294   -1.431792    0.042936
     11  S        -1.982434    1.176733    0.010749
     12  H         2.280566   -2.827266    0.001708
     13  H        -0.147272   -2.793989    0.010597
     14  H         3.534470   -0.754289   -0.009379
     15  H        -0.010644    2.543608   -0.000044
     16  H         3.479657    1.432527   -0.008479
     17  H        -3.280654   -1.096485   -0.518829
   Point Group: c1    Number of degrees of freedom:    45


   Energy is   -890.220191436


 Attempting to Generate Delocalized Internal Coordinates
 GETINT wrote B to file, NVib is           45
 calling HSSCONV
 HCONV 3*NATOMS:           51
 wrote HINT to file
  writing hessian 

 45 Hessian modes will be used to form the next step
  Hessian Eigenvalues:
     0.012451    0.016474    0.017806    0.020970    0.020987    0.021061
     0.021142    0.021171    0.021210    0.021224    0.021337    0.021351
     0.021734    0.021776    0.160000    0.160000    0.160000    0.160000
     0.160000    0.160000    0.220954    0.235299    0.237146    0.249232
     0.249852    0.249990    0.250000    0.338779    0.341340    0.391793
     0.405449    0.432480    0.439229    0.439446    0.439614    0.439786
     0.441024    0.442390    0.508920    0.512822    0.513707    0.533105
     0.535858    0.545705    0.660342

 Minimum Search - Taking Simple RFO Step
 Searching for Lamda that Minimizes Along All modes
 Value Taken    Lamda =  -0.05901012
 Calculated Step too Large.  Step scaled by  0.741543
 Step Taken.  Stepsize is  0.300000

                             Maximum     Tolerance    Cnvgd?
         Gradient           0.077659      0.000300      NO
         Displacement       0.114904      0.001200      NO
         Energy change     *********      0.000001      NO


 New Cartesian Coordinates Obtained by Inverse Iteration

 Displacement from previous Coordinates is:  0.361706
 ----------------------------------------------------
       Standard Nuclear Orientation (Angstroms)
    I     Atom         X            Y            Z
 ----------------------------------------------------
    1      C       1.786795    -1.947137     0.002272
    2      C       0.381389    -1.929152     0.012721
    3      C       2.517290    -0.751058    -0.007881
    4      C      -0.272199    -0.688234     0.011711
    5      C       1.847990     0.489401    -0.008211
    6      C       0.453443     0.510539     0.001896
    7      N      -0.351323     1.632218     0.009056
    8      N      -1.621165    -0.447041     0.013729
    9      O       2.507479     1.690848    -0.017081
   10      O      -2.564300    -1.402686     0.050026
   11      S      -2.033874     1.247155     0.028555
   12      H       2.300166    -2.878555     0.002679
   13      H      -0.175297    -2.834750     0.020164
   14      H       3.582101    -0.779017    -0.014862
   15      H      -0.017962     2.570696     0.010580
   16      H       3.464170     1.512488    -0.019240
   17      H      -3.284467    -1.142760    -0.563863
 ----------------------------------------------------
 Molecular Point Group                 C1    NOp =  1
 Largest Abelian Subgroup              C1    NOp =  1
 Nuclear Repulsion Energy =   701.5448090993 hartrees
 There are       44 alpha and       44 beta electrons
 Applying Cartesian multipole field
    Component          Value
    ---------          -----
     (2,0,0)        1.00000E-11
     (0,2,0)        2.00000E-11
     (0,0,2)       -3.00000E-11
 Nucleus-field energy     =     0.0000000228 hartrees
 Requested basis set is 6-31+G(d)
 There are 68 shells and 225 basis functions
 A cutoff of  1.0D-11 yielded   2086 shell pairs
 There are     24132 function pairs
 Smallest overlap matrix eigenvalue = 1.20E-06

 Q-Chem warning in module ../qchem/stvman/mkSTV.C, line 251:

 Overlap eigenvalue is smaller than square root of threshold

 Guess MOs from SCF MO coefficient file
Reading MOs from coefficient file
Reading MOs from coefficient file
 A restricted hybrid HF-DFT SCF calculation will be
 performed using Pulay DIIS extrapolation
 Exchange:     0.2000 Hartree-Fock + 0.0800 Slater + 0.7200 Becke88
 Correlation:  0.8100 LYP + 0.1900 VWN1RPA
 Using SG-1 standard quadrature grid
 SCF converges when DIIS error is below 1.0E-08
Geometry optimization detected.  Setting ReadMinima to 0
Setting SaveMinima to 0
 using 24 threads for integral computing 
 reading int configure file ... done
         cpu  23.19 wall   0.97
 -------------------------------------------------------
 OpenMP BLAS3 based DFT computing Module                
 Release: version 1.0, May 2013, Q-Chem Inc. Pittsburgh 
 -------------------------------------------------------
in dftxc.C, eleTot sum is:87.991254, tauTot is:0.000000
 ---------------------------------------
  Cycle       Energy         DIIS Error
 ---------------------------------------
    1    -890.1761249768      2.30E-03
         cpu  23.10 wall   0.96
in dftxc.C, eleTot sum is:88.000054, tauTot is:0.000000
    2    -890.2456884528      7.53E-04
         cpu  21.64 wall   0.90
in dftxc.C, eleTot sum is:88.000160, tauTot is:0.000000
    3    -890.2443329046      9.37E-04
         cpu  21.18 wall   0.88
in dftxc.C, eleTot sum is:88.000115, tauTot is:0.000000
    4    -890.2491070181      1.22E-04
         cpu  20.07 wall   0.84
in dftxc.C, eleTot sum is:88.000112, tauTot is:0.000000
    5    -890.2491794804      3.17E-05
         cpu  19.39 wall   0.81
in dftxc.C, eleTot sum is:88.000113, tauTot is:0.000000
    6    -890.2491843073      1.25E-05
         cpu  18.55 wall   0.77
in dftxc.C, eleTot sum is:88.000113, tauTot is:0.000000
    7    -890.2491852076      4.08E-06
         cpu  17.74 wall   0.74
in dftxc.C, eleTot sum is:88.000113, tauTot is:0.000000
    8    -890.2491853066      1.69E-06
         cpu  17.07 wall   0.71
in dftxc.C, eleTot sum is:88.000113, tauTot is:0.000000
    9    -890.2491853241      3.78E-07
         cpu  15.63 wall   0.65
in dftxc.C, eleTot sum is:88.000113, tauTot is:0.000000
   10    -890.2491853251      1.54E-07
         cpu  14.92 wall   0.62
in dftxc.C, eleTot sum is:88.000113, tauTot is:0.000000
   11    -890.2491853253      4.71E-08
         cpu  14.10 wall   0.59
in dftxc.C, eleTot sum is:88.000113, tauTot is:0.000000
   12    -890.2491853255      2.49E-08
         cpu  14.25 wall   0.59
in dftxc.C, eleTot sum is:88.000113, tauTot is:0.000000
   13    -890.2491853254      4.88E-08
         cpu  13.56 wall   0.56
in dftxc.C, eleTot sum is:88.000113, tauTot is:0.000000
   14    -890.2491853255      4.61E-09 Convergence criterion met
 ---------------------------------------
 SCF time:  CPU 387.36 s  wall 16.71 s
 SCF   energy in the final basis set = -890.2491853255
 Total energy in the final basis set = -890.2491853255
 Analysis of SCF Wavefunction
 
 --------------------------------------------------------------
                    Orbital Energies (a.u.)
 --------------------------------------------------------------
 
 Alpha MOs
 -- Occupied --
-88.963 -19.238 -19.195 -14.430 -14.381 -10.251 -10.242 -10.235
-10.186 -10.184 -10.181  -8.016  -5.983  -5.979  -5.968  -1.145
 -1.071  -0.988  -0.880  -0.842  -0.765  -0.735  -0.690  -0.648
 -0.622  -0.582  -0.550  -0.537  -0.496  -0.482  -0.480  -0.457
 -0.432  -0.423  -0.407  -0.389  -0.376  -0.369  -0.360  -0.334
 -0.292  -0.265  -0.212  -0.153
 -- Virtual --
 -0.064  -0.011  -0.007   0.008   0.013   0.016   0.022   0.030
  0.047   0.054   0.063   0.066   0.071   0.079   0.090   0.099
  0.108   0.114   0.119   0.121   0.127   0.139   0.147   0.148
  0.152   0.162   0.171   0.173   0.177   0.186   0.188   0.192
  0.205   0.208   0.217   0.220   0.228   0.236   0.238   0.247
  0.252   0.254   0.265   0.266   0.267   0.282   0.285   0.296
  0.306   0.309   0.314   0.323   0.332   0.333   0.360   0.374
  0.387   0.401   0.403   0.422   0.431   0.458   0.478   0.496
  0.509   0.563   0.610   0.641   0.658   0.662   0.668   0.696
  0.706   0.711   0.731   0.732   0.737   0.755   0.766   0.775
  0.794   0.845   0.849   0.905   0.914   0.943   0.961   0.981
  0.983   1.008   1.009   1.029   1.037   1.040   1.059   1.090
  1.111   1.116   1.135   1.145   1.153   1.165   1.203   1.211
  1.215   1.230   1.241   1.254   1.289   1.306   1.315   1.344
  1.358   1.384   1.413   1.419   1.457   1.476   1.479   1.480
  1.511   1.595   1.614   1.705   1.724   1.745   1.753   1.794
  1.802   1.831   1.840   1.857   1.893   1.923   1.940   1.962
  1.997   2.019   2.054   2.077   2.094   2.122   2.167   2.209
  2.242   2.248   2.315   2.320   2.339   2.350   2.397   2.433
  2.475   2.533   2.541   2.578   2.602   2.610   2.676   2.696
  2.729   2.774   2.820   2.848   2.915   2.983   3.061   3.084
  3.292   3.467   3.955   4.082   4.237   4.264   4.304   4.363
  4.382   4.459   4.499   4.574   4.925
 --------------------------------------------------------------
 
          Ground-State Mulliken Net Atomic Charges

     Atom                 Charge (a.u.)
  ----------------------------------------
      1 C                    -0.279241
      2 C                    -1.038057
      3 C                    -0.059021
      4 C                     1.098194
      5 C                    -1.385251
      6 C                     1.543538
      7 N                    -0.832910
      8 N                    -0.787045
      9 O                    -0.703043
     10 O                    -0.026481
     11 S                     0.554124
     12 H                     0.173184
     13 H                     0.185845
     14 H                     0.152967
     15 H                     0.468271
     16 H                     0.490419
     17 H                     0.444508
  ----------------------------------------
  Sum of atomic charges =    -0.000000

 -----------------------------------------------------------------
                    Cartesian Multipole Moments
 -----------------------------------------------------------------
    Charge (ESU x 10^10)
                 0.0000
    Dipole Moment (Debye)
         X      -0.0765      Y       1.0686      Z      -0.9370
       Tot       1.4233
    Quadrupole Moments (Debye-Ang)
        XX     -54.7887     XY       1.2268     YY     -67.2926
        XZ       3.5449     YZ       1.2478     ZZ     -76.6688
    Octapole Moments (Debye-Ang^2)
       XXX       9.1125    XXY       1.7324    XYY      -1.8744
       YYY      14.4451    XXZ     -13.0688    XYZ      -4.6232
       YYZ      -1.5957    XZZ      -5.3907    YZZ       1.6117
       ZZZ      -1.3378
    Hexadecapole Moments (Debye-Ang^3)
      XXXX   -1141.0026   XXXY     127.7080   XXYY    -383.5722
      XYYY      10.9470   YYYY    -770.4359   XXXZ      43.9473
      XXYZ      15.9917   XYYZ       6.6246   YYYZ       0.4381
      XXZZ    -287.6330   XYZZ      28.2907   YYZZ    -175.3549
      XZZZ       4.1437   YZZZ       0.0827   ZZZZ     -96.8758
 -----------------------------------------------------------------
 Calculating analytic gradient of the SCF energy
         cpu  67.10 wall   4.75
 Gradient of Coulomb and Exchange Energy
            1           2           3           4           5           6
    1  -7.6039509  -5.6192264 -13.6037242  -0.3484217 -18.3456303  19.8566517
    2  16.3910970  17.2821193   1.9095713 -27.4044897   5.8011501   7.0488224
    3   0.1822339   1.4916730  -0.1027206   0.8861033   0.2907298  -2.6690532
            7           8           9          10          11          12
    1  -1.6996442   8.8965731  -8.8579037  12.1801875  23.4060246  -2.7467722
    2 -15.3033016   9.1893743 -14.5565479  14.2965121 -18.3119279   4.8144490
    3   0.1632747  -1.0346822   0.1219962  -2.0325564  -0.0413871  -0.0006098
           13          14          15          16          17
    1   2.4618523  -5.4675090  -2.2769865  -4.9342443   4.7027240
    2   5.3749113   0.8041275  -6.7686632  -0.2565936  -0.3106105
    3  -0.0317398   0.0461251   0.0191916   0.0187934   2.6926281
in dftxc.C, eleTot sum is:88.000113, tauTot is:0.000000
 Gradient of SCF Energy
            1           2           3           4           5           6
    1   0.0076181  -0.0062841   0.0200781  -0.0132893   0.0058677  -0.0176796
    2  -0.0232180  -0.0136828   0.0047631   0.0180502   0.0130432   0.0049501
    3   0.0004048  -0.0003582  -0.0001961   0.0017330  -0.0000525   0.0009085
            7           8           9          10          11          12
    1   0.0038228  -0.0232461  -0.0048718   0.0269532   0.0210893  -0.0077533
    2   0.0054393  -0.0205313  -0.0054983   0.0165408  -0.0153869   0.0143299
    3   0.0012431   0.0058044   0.0001799  -0.0103658  -0.0053136   0.0000753
           13          14          15          16          17
    1   0.0093144  -0.0168043  -0.0017854   0.0034771  -0.0065068
    2   0.0126053  -0.0006878  -0.0114381  -0.0030141   0.0037353
    3  -0.0002794  -0.0001147  -0.0006407   0.0000610   0.0069111
 Max gradient component =       2.695E-02
 RMS gradient           =       1.108E-02
 Gradient time:  CPU 81.70 s  wall 5.94 s
 Geometry Optimization Parameters
   NAtoms,    NIC,     NZ,  NCons,   NDum,   NFix, NCnnct, MaxDiis
       17     119       0       0       0       0       0       0

 Cartesian Hessian Update
 Hessian Updated using BFGS Update


** GEOMETRY OPTIMIZATION IN DELOCALIZED INTERNAL COORDINATES **
   Searching for a Minimum

   Optimization Cycle:   2

                       Coordinates (Angstroms)
     ATOM              X           Y           Z
      1  C         1.786795   -1.947137    0.002272
      2  C         0.381389   -1.929152    0.012721
      3  C         2.517290   -0.751058   -0.007881
      4  C        -0.272199   -0.688234    0.011711
      5  C         1.847990    0.489401   -0.008211
      6  C         0.453443    0.510539    0.001896
      7  N        -0.351323    1.632218    0.009056
      8  N        -1.621165   -0.447041    0.013729
      9  O         2.507479    1.690848   -0.017081
     10  O        -2.564300   -1.402686    0.050026
     11  S        -2.033874    1.247155    0.028555
     12  H         2.300166   -2.878555    0.002679
     13  H        -0.175297   -2.834750    0.020164
     14  H         3.582101   -0.779017   -0.014862
     15  H        -0.017962    2.570696    0.010580
     16  H         3.464170    1.512488   -0.019240
     17  H        -3.284467   -1.142760   -0.563863
   Point Group: c1    Number of degrees of freedom:    45


   Energy is   -890.249185325

 GETINT wrote B to file, NVib is           45
 Hessian Updated using BFGS Update

 44 Hessian modes will be used to form the next step
  Hessian Eigenvalues:
     0.012447    0.016475    0.017799    0.020971    0.020987    0.021062
     0.021142    0.021171    0.021210    0.021224    0.021337    0.021351
     0.021495    0.021734    0.158726    0.160000    0.160000    0.160000
     0.164898    0.220258    0.235189    0.241085    0.249155    0.249542
     0.249938    0.262591    0.339204    0.340743    0.390294    0.405409
     0.428140    0.436400    0.439472    0.439521    0.439737    0.442257
     0.456742    0.509780    0.512509    0.513703    0.533670    0.535390
     0.548640    0.640038

 Minimum Search - Taking Simple RFO Step
 Searching for Lamda that Minimizes Along All modes
 Value Taken    Lamda =  -0.01267058
 Calculated Step too Large.  Step scaled by  0.710160
 Step Taken.  Stepsize is  0.300000

                             Maximum     Tolerance    Cnvgd?
         Gradient           0.025783      0.000300      NO
         Displacement       0.109162      0.001200      NO
         Energy change     -0.028994      0.000001      NO


 New Cartesian Coordinates Obtained by Inverse Iteration

 Displacement from previous Coordinates is:  0.337287
 ----------------------------------------------------
       Standard Nuclear Orientation (Angstroms)
    I     Atom         X            Y            Z
 ----------------------------------------------------
    1      C       1.775349    -1.948332     0.005515
    2      C       0.370203    -1.933195     0.027909
    3      C       2.512054    -0.761672    -0.014477
    4      C      -0.268887    -0.691782     0.026886
    5      C       1.848828     0.479130    -0.014743
    6      C       0.461389     0.506534     0.007171
    7      N      -0.349882     1.637298     0.021139
    8      N      -1.620381    -0.424186     0.027189
    9      O       2.496013     1.694504    -0.035129
   10      O      -2.580152    -1.390291     0.069858
   11      S      -2.049300     1.280559     0.077594
   12      H       2.292569    -2.894099     0.004647
   13      H      -0.202936    -2.844547     0.042327
   14      H       3.591615    -0.789860    -0.028649
   15      H      -0.012388     2.583169     0.026312
   16      H       3.454145     1.544505    -0.046383
   17      H      -3.198001    -1.194780    -0.664915
 ----------------------------------------------------
 Molecular Point Group                 C1    NOp =  1
 Largest Abelian Subgroup              C1    NOp =  1
 Nuclear Repulsion Energy =   699.3069828578 hartrees
 There are       44 alpha and       44 beta electrons
 Applying Cartesian multipole field
    Component          Value
    ---------          -----
     (2,0,0)        1.00000E-11
     (0,2,0)        2.00000E-11
     (0,0,2)       -3.00000E-11
 Nucleus-field energy     =     0.0000000229 hartrees
 Requested basis set is 6-31+G(d)
 There are 68 shells and 225 basis functions
 A cutoff of  1.0D-11 yielded   2086 shell pairs
 There are     24132 function pairs
 Smallest overlap matrix eigenvalue = 1.18E-06

 Q-Chem warning in module ../qchem/stvman/mkSTV.C, line 251:

 Overlap eigenvalue is smaller than square root of threshold

 Guess MOs from SCF MO coefficient file
Reading MOs from coefficient file
Reading MOs from coefficient file
 A restricted hybrid HF-DFT SCF calculation will be
 performed using Pulay DIIS extrapolation
 Exchange:     0.2000 Hartree-Fock + 0.0800 Slater + 0.7200 Becke88
 Correlation:  0.8100 LYP + 0.1900 VWN1RPA
 Using SG-1 standard quadrature grid
 SCF converges when DIIS error is below 1.0E-08
Geometry optimization detected.  Setting ReadMinima to 0
Setting SaveMinima to 0
 using 24 threads for integral computing 
 reading int configure file ... done
         cpu  22.76 wall   0.95
 -------------------------------------------------------
 OpenMP BLAS3 based DFT computing Module                
 Release: version 1.0, May 2013, Q-Chem Inc. Pittsburgh 
 -------------------------------------------------------
in dftxc.C, eleTot sum is:88.015822, tauTot is:0.000000
 ---------------------------------------
  Cycle       Energy         DIIS Error
 ---------------------------------------
    1    -890.2425702595      1.43E-03
         cpu  22.45 wall   0.94
in dftxc.C, eleTot sum is:87.999936, tauTot is:0.000000
    2    -890.2556110258      2.65E-04
         cpu  21.24 wall   0.89
in dftxc.C, eleTot sum is:87.999975, tauTot is:0.000000
    3    -890.2553643163      3.52E-04
         cpu  20.54 wall   0.86
in dftxc.C, eleTot sum is:87.999954, tauTot is:0.000000
    4    -890.2560654265      6.98E-05
         cpu  19.60 wall   0.81
in dftxc.C, eleTot sum is:87.999955, tauTot is:0.000000
    5    -890.2560884477      2.42E-05
         cpu  19.20 wall   0.80
in dftxc.C, eleTot sum is:87.999954, tauTot is:0.000000
    6    -890.2560913623      1.19E-05
         cpu  18.22 wall   0.76
in dftxc.C, eleTot sum is:87.999955, tauTot is:0.000000
    7    -890.2560922450      2.89E-06
         cpu  17.47 wall   0.73
in dftxc.C, eleTot sum is:87.999955, tauTot is:0.000000
    8    -890.2560922909      9.84E-07
         cpu  16.33 wall   0.68
in dftxc.C, eleTot sum is:87.999955, tauTot is:0.000000
    9    -890.2560922969      3.08E-07
         cpu  15.46 wall   0.64
in dftxc.C, eleTot sum is:87.999955, tauTot is:0.000000
   10    -890.2560922975      1.40E-07
         cpu  14.94 wall   0.62
in dftxc.C, eleTot sum is:87.999955, tauTot is:0.000000
   11    -890.2560922977      3.21E-08
         cpu  14.66 wall   0.61
in dftxc.C, eleTot sum is:87.999955, tauTot is:0.000000
   12    -890.2560922977      2.06E-08
         cpu  13.82 wall   0.57
in dftxc.C, eleTot sum is:87.999955, tauTot is:0.000000
   13    -890.2560922975      6.71E-09 Convergence criterion met
 ---------------------------------------
 SCF time:  CPU 355.39 s  wall 14.82 s
 SCF   energy in the final basis set = -890.2560922975
 Total energy in the final basis set = -890.2560922975
 Analysis of SCF Wavefunction
 
 --------------------------------------------------------------
                    Orbital Energies (a.u.)
 --------------------------------------------------------------
 
 Alpha MOs
 -- Occupied --
-88.964 -19.237 -19.194 -14.429 -14.381 -10.251 -10.242 -10.236
-10.189 -10.187 -10.184  -8.016  -5.983  -5.979  -5.968  -1.134
 -1.069  -0.981  -0.875  -0.843  -0.765  -0.737  -0.684  -0.647
 -0.620  -0.579  -0.542  -0.534  -0.495  -0.479  -0.479  -0.455
 -0.431  -0.422  -0.404  -0.388  -0.376  -0.364  -0.357  -0.335
 -0.295  -0.266  -0.215  -0.157
 -- Virtual --
 -0.066  -0.013  -0.007   0.008   0.012   0.015   0.021   0.029
  0.046   0.054   0.065   0.066   0.070   0.078   0.091   0.098
  0.107   0.115   0.118   0.120   0.126   0.137   0.145   0.148
  0.152   0.159   0.169   0.171   0.177   0.185   0.188   0.192
  0.204   0.208   0.216   0.219   0.226   0.236   0.237   0.246
  0.249   0.253   0.265   0.265   0.269   0.281   0.284   0.296
  0.306   0.308   0.313   0.324   0.329   0.333   0.359   0.373
  0.386   0.397   0.405   0.420   0.433   0.455   0.477   0.495
  0.509   0.564   0.609   0.639   0.660   0.662   0.669   0.698
  0.706   0.711   0.729   0.731   0.736   0.756   0.765   0.773
  0.794   0.843   0.849   0.899   0.910   0.940   0.962   0.982
  0.986   1.002   1.010   1.030   1.031   1.036   1.061   1.089
  1.110   1.115   1.133   1.148   1.151   1.167   1.204   1.210
  1.211   1.229   1.242   1.256   1.289   1.307   1.317   1.339
  1.355   1.382   1.412   1.415   1.459   1.474   1.480   1.482
  1.501   1.598   1.608   1.707   1.730   1.740   1.753   1.791
  1.798   1.827   1.840   1.849   1.893   1.917   1.937   1.961
  1.984   2.009   2.040   2.067   2.087   2.120   2.164   2.209
  2.234   2.244   2.308   2.319   2.339   2.346   2.380   2.436
  2.460   2.529   2.543   2.565   2.596   2.602   2.676   2.695
  2.724   2.769   2.810   2.847   2.916   2.979   3.064   3.077
  3.285   3.468   3.949   4.079   4.235   4.261   4.298   4.362
  4.383   4.451   4.490   4.570   4.914
 --------------------------------------------------------------
 
          Ground-State Mulliken Net Atomic Charges

     Atom                 Charge (a.u.)
  ----------------------------------------
      1 C                    -0.280597
      2 C                    -0.978950
      3 C                    -0.034595
      4 C                     1.114412
      5 C                    -1.397291
      6 C                     1.452156
      7 N                    -0.825449
      8 N                    -0.776431
      9 O                    -0.711421
     10 O                    -0.052991
     11 S                     0.559087
     12 H                     0.174513
     13 H                     0.189792
     14 H                     0.157397
     15 H                     0.467532
     16 H                     0.493875
     17 H                     0.448962
  ----------------------------------------
  Sum of atomic charges =     0.000000

 -----------------------------------------------------------------
                    Cartesian Multipole Moments
 -----------------------------------------------------------------
    Charge (ESU x 10^10)
                 0.0000
    Dipole Moment (Debye)
         X       0.1421      Y       0.9750      Z      -1.1146
       Tot       1.4877
    Quadrupole Moments (Debye-Ang)
        XX     -55.7234     XY       1.3386     YY     -66.8337
        XZ       3.9857     YZ       1.6489     ZZ     -76.3573
    Octapole Moments (Debye-Ang^2)
       XXX      16.2020    XXY       2.8351    XYY      -2.1303
       YYY      12.9451    XXZ     -15.9146    XYZ      -5.8013
       YYZ      -2.5275    XZZ      -5.9450    YZZ       0.5804
       ZZZ      -4.5560
    Hexadecapole Moments (Debye-Ang^3)
      XXXX   -1168.0150   XXXY     128.3628   XXYY    -380.9779
      XYYY      17.9496   YYYY    -776.1370   XXXZ      51.9572
      XXYZ      18.2836   XYYZ       9.5199   YYYZ       0.8639
      XXZZ    -284.8772   XYZZ      30.9959   YYZZ    -176.5720
      XZZZ      11.9288   YZZZ      -1.1121   ZZZZ     -97.0122
 -----------------------------------------------------------------
 Calculating analytic gradient of the SCF energy
         cpu  67.53 wall   4.78
 Gradient of Coulomb and Exchange Energy
            1           2           3           4           5           6
    1  -7.4238257  -4.9594336 -13.7845457  -0.1841010 -19.8902835  20.8919958
    2  16.3131951  17.4658862   1.4206997 -27.6920285   6.9206390   7.3180516
    3   0.2764163   1.1012837   0.0512675   1.3844106   0.2972784  -2.8821597
            7           8           9          10          11          12
    1  -1.6889130   8.3434608  -8.7420337  12.6980616  23.5619676  -2.7238092
    2 -15.0586845   8.7457083 -14.5714783  14.0055169 -18.4689671   4.8313472
    3   0.4602912  -0.8247115   0.2767401  -3.0693614  -0.6619340   0.0091359
           13          14          15          16          17
    1   2.5640089  -5.4844985  -2.2156227  -4.9234398   3.9610118
    2   5.3373750   0.7609668  -6.7150350  -0.4120839  -0.2011086
    3  -0.0588174   0.0753360  -0.0093303   0.0714155   3.5027392
in dftxc.C, eleTot sum is:87.999955, tauTot is:0.000000
 Gradient of SCF Energy
            1           2           3           4           5           6
    1   0.0016701  -0.0016341   0.0067295  -0.0056910   0.0015026  -0.0046993
    2  -0.0079283  -0.0049071   0.0023758   0.0063268   0.0039354   0.0006643
    3   0.0003134  -0.0001597  -0.0000100   0.0010996  -0.0000382  -0.0003996
            7           8           9          10          11          12
    1  -0.0003297  -0.0097430  -0.0013656   0.0138336   0.0085138  -0.0027222
    2   0.0017860  -0.0059393  -0.0021217   0.0017204  -0.0056130   0.0050304
    3   0.0023545   0.0051000   0.0000383  -0.0071199  -0.0053771   0.0000218
           13          14          15          16          17
    1   0.0030776  -0.0056947  -0.0005127   0.0007574  -0.0036925
    2   0.0041565  -0.0001837  -0.0034730  -0.0008822   0.0050527
    3  -0.0002806  -0.0000625  -0.0007264   0.0000460   0.0052004
 Max gradient component =       1.383E-02
 RMS gradient           =       4.382E-03
 Gradient time:  CPU 81.88 s  wall 5.98 s
 Geometry Optimization Parameters
   NAtoms,    NIC,     NZ,  NCons,   NDum,   NFix, NCnnct, MaxDiis
       17     119       0       0       0       0       0       0

 Cartesian Hessian Update
 Hessian Updated using BFGS Update


** GEOMETRY OPTIMIZATION IN DELOCALIZED INTERNAL COORDINATES **
   Searching for a Minimum

   Optimization Cycle:   3

                       Coordinates (Angstroms)
     ATOM              X           Y           Z
      1  C         1.775349   -1.948332    0.005515
      2  C         0.370203   -1.933195    0.027909
      3  C         2.512054   -0.761672   -0.014477
      4  C        -0.268887   -0.691782    0.026886
      5  C         1.848828    0.479130   -0.014743
      6  C         0.461389    0.506534    0.007171
      7  N        -0.349882    1.637298    0.021139
      8  N        -1.620381   -0.424186    0.027189
      9  O         2.496013    1.694504   -0.035129
     10  O        -2.580152   -1.390291    0.069858
     11  S        -2.049300    1.280559    0.077594
     12  H         2.292569   -2.894099    0.004647
     13  H        -0.202936   -2.844547    0.042327
     14  H         3.591615   -0.789860   -0.028649
     15  H        -0.012388    2.583169    0.026312
     16  H         3.454145    1.544505   -0.046383
     17  H        -3.198001   -1.194780   -0.664915
   Point Group: c1    Number of degrees of freedom:    45


   Energy is   -890.256092298

 GETINT wrote B to file, NVib is           45
 Hessian Updated using BFGS Update

 45 Hessian modes will be used to form the next step
  Hessian Eigenvalues:
     0.011976    0.014907    0.016483    0.018786    0.020978    0.020995
     0.021073    0.021142    0.021173    0.021213    0.021226    0.021340
     0.021351    0.021735    0.159963    0.160000    0.160000    0.160000
     0.161035    0.172537    0.221635    0.235448    0.241283    0.249049
     0.249654    0.251590    0.266949    0.336670    0.340677    0.389583
     0.405564    0.429952    0.438186    0.439514    0.439588    0.439935
     0.443881    0.462605    0.509769    0.513498    0.515085    0.534451
     0.537484    0.558277    0.632654

 Minimum Search - Taking Simple RFO Step
 Searching for Lamda that Minimizes Along All modes
 Value Taken    Lamda =  -0.00733944
 Calculated Step too Large.  Step scaled by  0.545222
 Step Taken.  Stepsize is  0.300000

                             Maximum     Tolerance    Cnvgd?
         Gradient           0.009280      0.000300      NO
         Displacement       0.126449      0.001200      NO
         Energy change     -0.006907      0.000001      NO


 New Cartesian Coordinates Obtained by Inverse Iteration

 Displacement from previous Coordinates is:  0.293572
 ----------------------------------------------------
       Standard Nuclear Orientation (Angstroms)
    I     Atom         X            Y            Z
 ----------------------------------------------------
    1      C       1.765189    -1.947814     0.006730
    2      C       0.359423    -1.929200     0.034748
    3      C       2.507062    -0.767288    -0.019005
    4      C      -0.271404    -0.686506     0.031630
    5      C       1.849460     0.476287    -0.019219
    6      C       0.463950     0.510367     0.008245
    7      N      -0.346532     1.646720     0.022241
    8      N      -1.624865    -0.404832     0.024578
    9      O       2.495958     1.695290    -0.044781
   10      O      -2.599448    -1.369248     0.088537
   11      S      -2.053151     1.305186     0.130791
   12      H       2.281513    -2.901305     0.006740
   13      H      -0.222530    -2.841538     0.053879
   14      H       3.592771    -0.798863    -0.035967
   15      H      -0.004120     2.594091     0.036619
   16      H       3.454211     1.552720    -0.060912
   17      H      -3.127249    -1.281112    -0.732602
 ----------------------------------------------------
 Molecular Point Group                 C1    NOp =  1
 Largest Abelian Subgroup              C1    NOp =  1
 Nuclear Repulsion Energy =   697.9703047181 hartrees
 There are       44 alpha and       44 beta electrons
 Applying Cartesian multipole field
    Component          Value
    ---------          -----
     (2,0,0)        1.00000E-11
     (0,2,0)        2.00000E-11
     (0,0,2)       -3.00000E-11
 Nucleus-field energy     =     0.0000000229 hartrees
 Requested basis set is 6-31+G(d)
 There are 68 shells and 225 basis functions
 A cutoff of  1.0D-11 yielded   2085 shell pairs
 There are     24116 function pairs
 Smallest overlap matrix eigenvalue = 1.19E-06

 Q-Chem warning in module ../qchem/stvman/mkSTV.C, line 251:

 Overlap eigenvalue is smaller than square root of threshold

 Guess MOs from SCF MO coefficient file
Reading MOs from coefficient file
Reading MOs from coefficient file
 A restricted hybrid HF-DFT SCF calculation will be
 performed using Pulay DIIS extrapolation
 Exchange:     0.2000 Hartree-Fock + 0.0800 Slater + 0.7200 Becke88
 Correlation:  0.8100 LYP + 0.1900 VWN1RPA
 Using SG-1 standard quadrature grid
 SCF converges when DIIS error is below 1.0E-08
Geometry optimization detected.  Setting ReadMinima to 0
Setting SaveMinima to 0
 using 24 threads for integral computing 
 reading int configure file ... done
         cpu  22.97 wall   0.96
 -------------------------------------------------------
 OpenMP BLAS3 based DFT computing Module                
 Release: version 1.0, May 2013, Q-Chem Inc. Pittsburgh 
 -------------------------------------------------------
in dftxc.C, eleTot sum is:87.992876, tauTot is:0.000000
 ---------------------------------------
  Cycle       Energy         DIIS Error
 ---------------------------------------
    1    -890.2442861973      1.30E-03
         cpu  22.27 wall   0.93
in dftxc.C, eleTot sum is:87.999851, tauTot is:0.000000
    2    -890.2592661738      1.67E-04
         cpu  20.78 wall   0.87
in dftxc.C, eleTot sum is:87.999864, tauTot is:0.000000
    3    -890.2590920631      2.57E-04
         cpu  20.07 wall   0.84
in dftxc.C, eleTot sum is:87.999853, tauTot is:0.000000
    4    -890.2594491875      4.33E-05
         cpu  19.23 wall   0.80
in dftxc.C, eleTot sum is:87.999853, tauTot is:0.000000
    5    -890.2594574387      2.23E-05
         cpu  18.90 wall   0.79
in dftxc.C, eleTot sum is:87.999853, tauTot is:0.000000
    6    -890.2594604157      7.64E-06
         cpu  18.40 wall   0.77
in dftxc.C, eleTot sum is:87.999853, tauTot is:0.000000
    7    -890.2594607999      2.01E-06
         cpu  17.19 wall   0.72
in dftxc.C, eleTot sum is:87.999853, tauTot is:0.000000
    8    -890.2594608308      8.93E-07
         cpu  16.55 wall   0.69
in dftxc.C, eleTot sum is:87.999853, tauTot is:0.000000
    9    -890.2594608382      3.71E-07
         cpu  16.53 wall   0.69
in dftxc.C, eleTot sum is:87.999853, tauTot is:0.000000
   10    -890.2594608404      1.71E-07
         cpu  15.70 wall   0.65
in dftxc.C, eleTot sum is:87.999853, tauTot is:0.000000
   11    -890.2594608406      7.41E-08
         cpu  14.86 wall   0.62
in dftxc.C, eleTot sum is:87.999853, tauTot is:0.000000
   12    -890.2594608407      3.26E-08
         cpu  13.74 wall   0.57
in dftxc.C, eleTot sum is:87.999853, tauTot is:0.000000
   13    -890.2594608406      9.55E-09 Convergence criterion met
 ---------------------------------------
 SCF time:  CPU 356.55 s  wall 14.88 s
 SCF   energy in the final basis set = -890.2594608406
 Total energy in the final basis set = -890.2594608406
 Analysis of SCF Wavefunction
 
 --------------------------------------------------------------
                    Orbital Energies (a.u.)
 --------------------------------------------------------------
 
 Alpha MOs
 -- Occupied --
-88.962 -19.236 -19.194 -14.429 -14.380 -10.252 -10.243 -10.236
-10.190 -10.188 -10.186  -8.014  -5.982  -5.978  -5.966  -1.128
 -1.068  -0.977  -0.872  -0.843  -0.764  -0.737  -0.681  -0.646
 -0.619  -0.579  -0.539  -0.530  -0.495  -0.479  -0.477  -0.454
 -0.431  -0.421  -0.402  -0.387  -0.376  -0.363  -0.351  -0.336
 -0.299  -0.266  -0.216  -0.158
 -- Virtual --
 -0.066  -0.014  -0.007   0.007   0.012   0.014   0.020   0.028
  0.045   0.055   0.066   0.066   0.070   0.078   0.091   0.096
  0.106   0.116   0.118   0.120   0.126   0.136   0.144   0.148
  0.152   0.158   0.168   0.171   0.179   0.184   0.188   0.192
  0.204   0.208   0.215   0.218   0.226   0.235   0.237   0.245
  0.248   0.252   0.264   0.265   0.270   0.282   0.284   0.297
  0.306   0.307   0.311   0.324   0.329   0.334   0.359   0.373
  0.385   0.396   0.405   0.419   0.433   0.453   0.476   0.494
  0.511   0.564   0.608   0.637   0.660   0.662   0.670   0.700
  0.705   0.713   0.728   0.730   0.737   0.756   0.765   0.773
  0.794   0.841   0.851   0.896   0.909   0.939   0.964   0.982
  0.989   1.000   1.016   1.029   1.031   1.032   1.060   1.088
  1.109   1.115   1.132   1.146   1.154   1.166   1.204   1.208
  1.210   1.230   1.243   1.258   1.289   1.305   1.318   1.340
  1.351   1.384   1.411   1.412   1.456   1.471   1.479   1.484
  1.492   1.586   1.625   1.708   1.732   1.735   1.759   1.783
  1.795   1.817   1.842   1.845   1.894   1.912   1.936   1.964
  1.979   2.005   2.029   2.062   2.083   2.120   2.161   2.204
  2.229   2.242   2.302   2.318   2.339   2.344   2.374   2.431
  2.460   2.527   2.544   2.559   2.592   2.596   2.675   2.694
  2.722   2.767   2.805   2.847   2.914   2.977   3.063   3.074
  3.280   3.467   3.947   4.077   4.233   4.260   4.295   4.361
  4.382   4.446   4.485   4.567   4.909
 --------------------------------------------------------------
 
          Ground-State Mulliken Net Atomic Charges

     Atom                 Charge (a.u.)
  ----------------------------------------
      1 C                    -0.274856
      2 C                    -0.931309
      3 C                    -0.018682
      4 C                     1.101456
      5 C                    -1.387662
      6 C                     1.375494
      7 N                    -0.815787
      8 N                    -0.757959
      9 O                    -0.714209
     10 O                    -0.088028
     11 S                     0.564966
     12 H                     0.175045
     13 H                     0.191060
     14 H                     0.159288
     15 H                     0.466560
     16 H                     0.494973
     17 H                     0.459648
  ----------------------------------------
  Sum of atomic charges =     0.000000

 -----------------------------------------------------------------
                    Cartesian Multipole Moments
 -----------------------------------------------------------------
    Charge (ESU x 10^10)
                 0.0000
    Dipole Moment (Debye)
         X       0.3048      Y       0.7911      Z      -1.2380
       Tot       1.5004
    Quadrupole Moments (Debye-Ang)
        XX     -56.5134     XY       1.7202     YY     -66.3442
        XZ       4.3166     YZ       2.1228     ZZ     -76.0980
    Octapole Moments (Debye-Ang^2)
       XXX      21.7452    XXY       1.9680    XYY      -3.1661
       YYY      10.5917    XXZ     -17.7867    XYZ      -7.0430
       YYZ      -3.4279    XZZ      -6.4606    YZZ      -0.4748
       ZZZ      -7.4365
    Hexadecapole Moments (Debye-Ang^3)
      XXXX   -1188.3008   XXXY     129.9625   XXYY    -377.7075
      XYYY      23.4739   YYYY    -778.2412   XXXZ      58.3838
      XXYZ      20.4508   XYYZ      12.5907   YYYZ       1.2427
      XXZZ    -282.6912   XYZZ      32.8728   YYZZ    -176.9552
      XZZZ      19.3880   YZZZ      -3.2596   ZZZZ     -97.8333
 -----------------------------------------------------------------
 Calculating analytic gradient of the SCF energy
         cpu  68.65 wall   4.74
 Gradient of Coulomb and Exchange Energy
            1           2           3           4           5           6
    1  -7.2575628  -4.2485214 -13.8311934  -0.0539255 -20.5290012  20.9254042
    2  16.2557484  17.4606424   1.2264546 -27.6215947   7.2832415   7.4730994
    3   0.2899123   0.6785405   0.1381546   1.7958477   0.4230341  -2.9345435
            7           8           9          10          11          12
    1  -1.6286366   7.8403443  -8.7340265  13.2826784  23.5819076  -2.7018019
    2 -14.9610203   8.5638968 -14.5466187  13.3843314 -18.4980034   4.8427026
    3   0.8983020  -0.4583501   0.3490463  -3.9067314  -1.3622410   0.0076201
           13          14          15          16          17
    1   2.6125457  -5.4866919  -2.2054463  -4.9158909   3.3498185
    2   5.3099394   0.7610341  -6.6807885  -0.4545799   0.2015148
    3  -0.0652924   0.0836335  -0.0701229   0.0998072   4.0333830
in dftxc.C, eleTot sum is:87.999853, tauTot is:0.000000
 Gradient of SCF Energy
            1           2           3           4           5           6
    1  -0.0000638  -0.0000353   0.0016906  -0.0031507  -0.0000499   0.0001516
    2  -0.0015516  -0.0015229   0.0006360   0.0019604   0.0007556  -0.0006894
    3   0.0002432   0.0001422   0.0001518  -0.0002779  -0.0000852  -0.0018762
            7           8           9          10          11          12
    1  -0.0014134  -0.0010354  -0.0001042   0.0061809   0.0032850  -0.0006001
    2   0.0006021   0.0007657  -0.0004438  -0.0034037  -0.0016674   0.0011705
    3   0.0040177   0.0078756  -0.0000765  -0.0058182  -0.0055217  -0.0000363
           13          14          15          16          17
    1   0.0006297  -0.0012752  -0.0001343  -0.0000287  -0.0040467
    2   0.0009463  -0.0000554  -0.0005547  -0.0001679   0.0032201
    3  -0.0002913  -0.0000242  -0.0010973   0.0000229   0.0026515
 Max gradient component =       7.876E-03
 RMS gradient           =       2.329E-03
 Gradient time:  CPU 81.75 s  wall 5.87 s
 Geometry Optimization Parameters
   NAtoms,    NIC,     NZ,  NCons,   NDum,   NFix, NCnnct, MaxDiis
       17     119       0       0       0       0       0       0

 Cartesian Hessian Update
 Hessian Updated using BFGS Update


** GEOMETRY OPTIMIZATION IN DELOCALIZED INTERNAL COORDINATES **
   Searching for a Minimum

   Optimization Cycle:   4

                       Coordinates (Angstroms)
     ATOM              X           Y           Z
      1  C         1.765189   -1.947814    0.006730
      2  C         0.359423   -1.929200    0.034748
      3  C         2.507062   -0.767288   -0.019005
      4  C        -0.271404   -0.686506    0.031630
      5  C         1.849460    0.476287   -0.019219
      6  C         0.463950    0.510367    0.008245
      7  N        -0.346532    1.646720    0.022241
      8  N        -1.624865   -0.404832    0.024578
      9  O         2.495958    1.695290   -0.044781
     10  O        -2.599448   -1.369248    0.088537
     11  S        -2.053151    1.305186    0.130791
     12  H         2.281513   -2.901305    0.006740
     13  H        -0.222530   -2.841538    0.053879
     14  H         3.592771   -0.798863   -0.035967
     15  H        -0.004120    2.594091    0.036619
     16  H         3.454211    1.552720   -0.060912
     17  H        -3.127249   -1.281112   -0.732602
   Point Group: c1    Number of degrees of freedom:    45


   Energy is   -890.259460841

 GETINT wrote B to file, NVib is           45
 Hessian Updated using BFGS Update

 45 Hessian modes will be used to form the next step
  Hessian Eigenvalues:
     0.007159    0.013187    0.016482    0.020934    0.020982    0.021043
     0.021141    0.021170    0.021195    0.021220    0.021316    0.021351
     0.021726    0.024208    0.159996    0.160000    0.160000    0.160092
     0.161327    0.174150    0.222199    0.235434    0.241591    0.249061
     0.249574    0.251042    0.270538    0.340178    0.340675    0.391795
     0.405530    0.432825    0.439513    0.439549    0.439705    0.440766
     0.444027    0.473934    0.509028    0.514050    0.515033    0.535153
     0.538314    0.584048    0.704057

 Minimum Search - Taking Simple RFO Step
 Searching for Lamda that Minimizes Along All modes
 Value Taken    Lamda =  -0.00599101
 Calculated Step too Large.  Step scaled by  0.450634
 Step Taken.  Stepsize is  0.300000

                             Maximum     Tolerance    Cnvgd?
         Gradient           0.004356      0.000300      NO
         Displacement       0.155051      0.001200      NO
         Energy change     -0.003369      0.000001      NO


 New Cartesian Coordinates Obtained by Inverse Iteration

 Displacement from previous Coordinates is:  0.247644
 ----------------------------------------------------
       Standard Nuclear Orientation (Angstroms)
    I     Atom         X            Y            Z
 ----------------------------------------------------
    1      C       1.756273    -1.947357     0.006515
    2      C       0.349994    -1.924387     0.030706
    3      C       2.501961    -0.770798    -0.019334
    4      C      -0.274397    -0.680408     0.021489
    5      C       1.849141     0.475265    -0.021540
    6      C       0.464387     0.515045     0.001617
    7      N      -0.344493     1.654858     0.005718
    8      N      -1.629494    -0.388227    -0.001279
    9      O       2.497197     1.695294    -0.045877
   10      O      -2.612112    -1.346482     0.112022
   11      S      -2.051569     1.321858     0.186548
   12      H       2.270809    -2.906043     0.010839
   13      H      -0.238116    -2.836711     0.051474
   14      H       3.591327    -0.805394    -0.032677
   15      H       0.003158     2.601693     0.040585
   16      H       3.455450     1.555352    -0.060101
   17      H      -3.069280    -1.360604    -0.754453
 ----------------------------------------------------
 Molecular Point Group                 C1    NOp =  1
 Largest Abelian Subgroup              C1    NOp =  1
 Nuclear Repulsion Energy =   697.3300390862 hartrees
 There are       44 alpha and       44 beta electrons
 Applying Cartesian multipole field
    Component          Value
    ---------          -----
     (2,0,0)        1.00000E-11
     (0,2,0)        2.00000E-11
     (0,0,2)       -3.00000E-11
 Nucleus-field energy     =     0.0000000229 hartrees
 Requested basis set is 6-31+G(d)
 There are 68 shells and 225 basis functions
 A cutoff of  1.0D-11 yielded   2084 shell pairs
 There are     24112 function pairs
 Smallest overlap matrix eigenvalue = 1.22E-06

 Q-Chem warning in module ../qchem/stvman/mkSTV.C, line 251:

 Overlap eigenvalue is smaller than square root of threshold

 Guess MOs from SCF MO coefficient file
Reading MOs from coefficient file
Reading MOs from coefficient file
 A restricted hybrid HF-DFT SCF calculation will be
 performed using Pulay DIIS extrapolation
 Exchange:     0.2000 Hartree-Fock + 0.0800 Slater + 0.7200 Becke88
 Correlation:  0.8100 LYP + 0.1900 VWN1RPA
 Using SG-1 standard quadrature grid
 SCF converges when DIIS error is below 1.0E-08
Geometry optimization detected.  Setting ReadMinima to 0
Setting SaveMinima to 0
 using 24 threads for integral computing 
 reading int configure file ... done
         cpu  22.31 wall   0.93
 -------------------------------------------------------
 OpenMP BLAS3 based DFT computing Module                
 Release: version 1.0, May 2013, Q-Chem Inc. Pittsburgh 
 -------------------------------------------------------
in dftxc.C, eleTot sum is:87.992825, tauTot is:0.000000
 ---------------------------------------
  Cycle       Energy         DIIS Error
 ---------------------------------------
    1    -890.2526120300      1.58E-03
         cpu  22.68 wall   0.95
in dftxc.C, eleTot sum is:87.999693, tauTot is:0.000000
    2    -890.2618690430      1.54E-04
         cpu  20.38 wall   0.85
in dftxc.C, eleTot sum is:87.999699, tauTot is:0.000000
    3    -890.2618037867      2.02E-04
         cpu  20.19 wall   0.84
in dftxc.C, eleTot sum is:87.999690, tauTot is:0.000000
    4    -890.2620129003      5.53E-05
         cpu  19.34 wall   0.80
in dftxc.C, eleTot sum is:87.999691, tauTot is:0.000000
    5    -890.2620290348      1.94E-05
         cpu  18.65 wall   0.78
in dftxc.C, eleTot sum is:87.999690, tauTot is:0.000000
    6    -890.2620313504      6.36E-06
         cpu  17.00 wall   0.74
in dftxc.C, eleTot sum is:87.999690, tauTot is:0.000000
    7    -890.2620316527      1.98E-06
         cpu  17.03 wall   0.71
in dftxc.C, eleTot sum is:87.999690, tauTot is:0.000000
    8    -890.2620316895      8.14E-07
         cpu  16.87 wall   0.70
in dftxc.C, eleTot sum is:87.999690, tauTot is:0.000000
    9    -890.2620316984      4.84E-07
         cpu  16.54 wall   0.69
in dftxc.C, eleTot sum is:87.999690, tauTot is:0.000000
   10    -890.2620317014      1.99E-07
         cpu  15.66 wall   0.65
in dftxc.C, eleTot sum is:87.999690, tauTot is:0.000000
   11    -890.2620317019      6.76E-08
         cpu  14.72 wall   0.61
in dftxc.C, eleTot sum is:87.999690, tauTot is:0.000000
   12    -890.2620317019      3.37E-08
         cpu  13.72 wall   0.57
in dftxc.C, eleTot sum is:87.999690, tauTot is:0.000000
   13    -890.2620317017      8.51E-09 Convergence criterion met
 ---------------------------------------
 SCF time:  CPU 355.60 s  wall 14.88 s
 SCF   energy in the final basis set = -890.2620317017
 Total energy in the final basis set = -890.2620317017
 Analysis of SCF Wavefunction
 
 --------------------------------------------------------------
                    Orbital Energies (a.u.)
 --------------------------------------------------------------
 
 Alpha MOs
 -- Occupied --
-88.960 -19.235 -19.194 -14.428 -14.380 -10.252 -10.242 -10.236
-10.191 -10.189 -10.187  -8.012  -5.980  -5.976  -5.964  -1.125
 -1.068  -0.975  -0.871  -0.843  -0.763  -0.738  -0.679  -0.646
 -0.619  -0.579  -0.538  -0.527  -0.494  -0.479  -0.477  -0.454
 -0.431  -0.421  -0.401  -0.386  -0.377  -0.363  -0.345  -0.336
 -0.302  -0.265  -0.217  -0.160
 -- Virtual --
 -0.065  -0.014  -0.007   0.006   0.013   0.013   0.019   0.028
  0.045   0.056   0.066   0.067   0.071   0.078   0.092   0.094
  0.106   0.116   0.118   0.120   0.126   0.136   0.143   0.148
  0.153   0.157   0.167   0.172   0.180   0.184   0.187   0.192
  0.204   0.208   0.214   0.218   0.226   0.235   0.237   0.244
  0.247   0.252   0.264   0.265   0.271   0.281   0.285   0.297
  0.305   0.307   0.310   0.323   0.330   0.335   0.360   0.374
  0.384   0.395   0.404   0.418   0.433   0.451   0.475   0.490
  0.516   0.560   0.607   0.633   0.659   0.661   0.670   0.688
  0.710   0.716   0.726   0.729   0.738   0.757   0.766   0.776
  0.794   0.840   0.853   0.894   0.907   0.937   0.966   0.983
  0.988   0.997   1.020   1.027   1.033   1.036   1.058   1.085
  1.107   1.114   1.130   1.142   1.155   1.164   1.203   1.204
  1.209   1.231   1.244   1.258   1.286   1.300   1.318   1.343
  1.345   1.386   1.407   1.411   1.443   1.468   1.477   1.485
  1.486   1.572   1.635   1.709   1.727   1.731   1.772   1.783
  1.794   1.810   1.841   1.844   1.897   1.908   1.933   1.966
  1.977   2.004   2.024   2.056   2.082   2.124   2.157   2.205
  2.225   2.243   2.294   2.318   2.338   2.344   2.371   2.423
  2.462   2.527   2.544   2.556   2.591   2.592   2.673   2.695
  2.720   2.766   2.802   2.846   2.912   2.976   3.061   3.072
  3.276   3.466   3.945   4.076   4.229   4.258   4.292   4.358
  4.380   4.438   4.479   4.566   4.905
 --------------------------------------------------------------
 
          Ground-State Mulliken Net Atomic Charges

     Atom                 Charge (a.u.)
  ----------------------------------------
      1 C                    -0.273006
      2 C                    -0.900502
      3 C                    -0.001799
      4 C                     1.070768
      5 C                    -1.319233
      6 C                     1.271650
      7 N                    -0.802169
      8 N                    -0.723093
      9 O                    -0.716684
     10 O                    -0.129420
     11 S                     0.565283
     12 H                     0.175478
     13 H                     0.191605
     14 H                     0.160402
     15 H                     0.464628
     16 H                     0.495345
     17 H                     0.470746
  ----------------------------------------
  Sum of atomic charges =     0.000000

 -----------------------------------------------------------------
                    Cartesian Multipole Moments
 -----------------------------------------------------------------
    Charge (ESU x 10^10)
                 0.0000
    Dipole Moment (Debye)
         X       0.4447      Y       0.5954      Z      -1.2601
       Tot       1.4629
    Quadrupole Moments (Debye-Ang)
        XX     -57.0559     XY       2.1433     YY     -65.8395
        XZ       4.4797     YZ       2.5843     ZZ     -75.9931
    Octapole Moments (Debye-Ang^2)
       XXX      25.7128    XXY       0.7402    XYY      -4.3274
       YYY       8.1865    XXZ     -18.3685    XYZ      -8.0233
       YYZ      -3.9732    XZZ      -6.6301    YZZ      -1.2102
       ZZZ      -9.6060
    Hexadecapole Moments (Debye-Ang^3)
      XXXX   -1200.0745   XXXY     131.9793   XXYY    -373.8085
      XYYY      28.4422   YYYY    -778.1981   XXXZ      63.0683
      XXYZ      21.8438   XYYZ      15.2816   YYYZ       1.6195
      XXZZ    -281.3359   XYZZ      33.7581   YYZZ    -176.9860
      XZZZ      25.9345   YZZZ      -5.9831   ZZZZ     -99.3686
 -----------------------------------------------------------------
 Calculating analytic gradient of the SCF energy
         cpu  68.25 wall   4.78
 Gradient of Coulomb and Exchange Energy
            1           2           3           4           5           6
    1  -7.2463809  -3.8403642 -13.8222123  -0.0487996 -20.9918577  21.1286949
    2  16.1342727  17.3110590   0.9887217 -27.0978649   6.9608721   8.0362377
    3   0.0780677  -0.0199224   0.1045711   1.9736521   0.7643730  -2.4001742
            7           8           9          10          11          12
    1  -1.6241477   7.6588824  -8.7476664  13.6297252  23.6498704  -2.6818350
    2 -14.9357349   8.6393945 -14.5280594  12.6682223 -18.5536988   4.8540641
    3   1.5314231   0.2114855   0.3428157  -4.6402193  -2.1942055  -0.0119123
           13          14          15          16          17
    1   2.6416672  -5.4871086  -2.1986023  -4.9142544   2.8943891
    2   5.2914445   0.7654486  -6.6484871  -0.4680598   0.5821676
    3  -0.0463999   0.0618836  -0.1887948   0.0927836   4.3405730
in dftxc.C, eleTot sum is:87.999690, tauTot is:0.000000
 Gradient of SCF Energy
            1           2           3           4           5           6
    1  -0.0008799   0.0009352  -0.0012354  -0.0014162  -0.0008995   0.0022139
    2   0.0019503   0.0005435  -0.0003999  -0.0006910  -0.0009678  -0.0013153
    3   0.0002026   0.0004819   0.0002780  -0.0033110   0.0000061  -0.0033956
            7           8           9          10          11          12
    1  -0.0014781   0.0026337   0.0004995   0.0022018  -0.0002587   0.0005738
    2  -0.0002757   0.0027216   0.0005730  -0.0039155   0.0006427  -0.0010757
    3   0.0065439   0.0131545  -0.0001758  -0.0050077  -0.0065319  -0.0000625
           13          14          15          16          17
    1  -0.0007673   0.0012351   0.0000008  -0.0003876  -0.0029711
    2  -0.0008682  -0.0000023   0.0010280   0.0001844   0.0018680
    3  -0.0003182   0.0000057  -0.0019849  -0.0000342   0.0001492
 Max gradient component =       1.315E-02
 RMS gradient           =       2.746E-03
 Gradient time:  CPU 82.58 s  wall 5.97 s
 Geometry Optimization Parameters
   NAtoms,    NIC,     NZ,  NCons,   NDum,   NFix, NCnnct, MaxDiis
       17     119       0       0       0       0       0       0

 Cartesian Hessian Update
 Hessian Updated using BFGS Update


** GEOMETRY OPTIMIZATION IN DELOCALIZED INTERNAL COORDINATES **
   Searching for a Minimum

   Optimization Cycle:   5

                       Coordinates (Angstroms)
     ATOM              X           Y           Z
      1  C         1.756273   -1.947357    0.006515
      2  C         0.349994   -1.924387    0.030706
      3  C         2.501961   -0.770798   -0.019334
      4  C        -0.274397   -0.680408    0.021489
      5  C         1.849141    0.475265   -0.021540
      6  C         0.464387    0.515045    0.001617
      7  N        -0.344493    1.654858    0.005718
      8  N        -1.629494   -0.388227   -0.001279
      9  O         2.497197    1.695294   -0.045877
     10  O        -2.612112   -1.346482    0.112022
     11  S        -2.051569    1.321858    0.186548
     12  H         2.270809   -2.906043    0.010839
     13  H        -0.238116   -2.836711    0.051474
     14  H         3.591327   -0.805394   -0.032677
     15  H         0.003158    2.601693    0.040585
     16  H         3.455450    1.555352   -0.060101
     17  H        -3.069280   -1.360604   -0.754453
   Point Group: c1    Number of degrees of freedom:    45


   Energy is   -890.262031702

 GETINT wrote B to file, NVib is           45
 Hessian Updated using BFGS Update

 45 Hessian modes will be used to form the next step
  Hessian Eigenvalues:
     0.000632    0.012985    0.016482    0.020981    0.021028    0.021119
     0.021143    0.021172    0.021214    0.021225    0.021328    0.021352
     0.021731    0.073942    0.159996    0.160000    0.160024    0.160095
     0.162108    0.177474    0.222463    0.235449    0.241575    0.249507
     0.250248    0.251953    0.279032    0.340672    0.348050    0.393193
     0.405544    0.433561    0.439513    0.439582    0.439819    0.442588
     0.444191    0.490728    0.508267    0.514775    0.516837    0.535433
     0.539015    0.616338    0.868741

 Minimum Search - Taking Simple RFO Step
 Searching for Lamda that Minimizes Along All modes
 Value Taken    Lamda =  -0.00830395
 Calculated Step too Large.  Step scaled by  0.312964
 Step Taken.  Stepsize is  0.300000

                             Maximum     Tolerance    Cnvgd?
         Gradient           0.005044      0.000300      NO
         Displacement       0.163433      0.001200      NO
         Energy change     -0.002571      0.000001      NO


 New Cartesian Coordinates Obtained by Inverse Iteration

 Displacement from previous Coordinates is:  0.244697
 ----------------------------------------------------
       Standard Nuclear Orientation (Angstroms)
    I     Atom         X            Y            Z
 ----------------------------------------------------
    1      C       1.747734    -1.946345     0.005518
    2      C       0.340869    -1.918907     0.020437
    3      C       2.497188    -0.773520    -0.017477
    4      C      -0.277218    -0.673747     0.002375
    5      C       1.849180     0.474999    -0.023783
    6      C       0.464950     0.520314    -0.010672
    7      N      -0.342413     1.662780    -0.018107
    8      N      -1.634133    -0.371927    -0.041656
    9      O       2.499281     1.695650    -0.042748
   10      O      -2.619976    -1.323436     0.137041
   11      S      -2.045503     1.333970     0.237965
   12      H       2.260296    -2.909858     0.016328
   13      H      -0.253079    -2.831066     0.040715
   14      H       3.589868    -0.811145    -0.022722
   15      H       0.010954     2.607708     0.045824
   16      H       3.457558     1.557700    -0.050294
   17      H      -3.025317    -1.440215    -0.746491
 ----------------------------------------------------
 Molecular Point Group                 C1    NOp =  1
 Largest Abelian Subgroup              C1    NOp =  1
 Nuclear Repulsion Energy =   696.9255522003 hartrees
 There are       44 alpha and       44 beta electrons
 Applying Cartesian multipole field
    Component          Value
    ---------          -----
     (2,0,0)        1.00000E-11
     (0,2,0)        2.00000E-11
     (0,0,2)       -3.00000E-11
 Nucleus-field energy     =     0.0000000229 hartrees
 Requested basis set is 6-31+G(d)
 There are 68 shells and 225 basis functions
 A cutoff of  1.0D-11 yielded   2085 shell pairs
 There are     24113 function pairs
 Smallest overlap matrix eigenvalue = 1.29E-06

 Q-Chem warning in module ../qchem/stvman/mkSTV.C, line 251:

 Overlap eigenvalue is smaller than square root of threshold

 Guess MOs from SCF MO coefficient file
Reading MOs from coefficient file
Reading MOs from coefficient file
 A restricted hybrid HF-DFT SCF calculation will be
 performed using Pulay DIIS extrapolation
 Exchange:     0.2000 Hartree-Fock + 0.0800 Slater + 0.7200 Becke88
 Correlation:  0.8100 LYP + 0.1900 VWN1RPA
 Using SG-1 standard quadrature grid
 SCF converges when DIIS error is below 1.0E-08
Geometry optimization detected.  Setting ReadMinima to 0
Setting SaveMinima to 0
 using 24 threads for integral computing 
 reading int configure file ... done
         cpu  22.16 wall   0.92
 -------------------------------------------------------
 OpenMP BLAS3 based DFT computing Module                
 Release: version 1.0, May 2013, Q-Chem Inc. Pittsburgh 
 -------------------------------------------------------
in dftxc.C, eleTot sum is:87.997450, tauTot is:0.000000
 ---------------------------------------
  Cycle       Energy         DIIS Error
 ---------------------------------------
    1    -890.2570024386      1.75E-03
         cpu  21.97 wall   0.92
in dftxc.C, eleTot sum is:87.999513, tauTot is:0.000000
    2    -890.2645208926      1.74E-04
         cpu  21.05 wall   0.88
in dftxc.C, eleTot sum is:87.999523, tauTot is:0.000000
    3    -890.2644113697      2.39E-04
         cpu  20.13 wall   0.84
in dftxc.C, eleTot sum is:87.999513, tauTot is:0.000000
    4    -890.2646985962      5.96E-05
         cpu  19.39 wall   0.81
in dftxc.C, eleTot sum is:87.999514, tauTot is:0.000000
    5    -890.2647165288      2.39E-05
         cpu  19.01 wall   0.79
in dftxc.C, eleTot sum is:87.999513, tauTot is:0.000000
    6    -890.2647201363      6.51E-06
         cpu  17.95 wall   0.75
in dftxc.C, eleTot sum is:87.999514, tauTot is:0.000000
    7    -890.2647204424      2.44E-06
         cpu  17.17 wall   0.71
in dftxc.C, eleTot sum is:87.999513, tauTot is:0.000000
    8    -890.2647204922      9.45E-07
         cpu  16.93 wall   0.71
in dftxc.C, eleTot sum is:87.999513, tauTot is:0.000000
    9    -890.2647205021      4.67E-07
         cpu  16.67 wall   0.69
in dftxc.C, eleTot sum is:87.999513, tauTot is:0.000000
   10    -890.2647205052      2.03E-07
         cpu  15.60 wall   0.65
in dftxc.C, eleTot sum is:87.999513, tauTot is:0.000000
   11    -890.2647205057      7.01E-08
         cpu  14.80 wall   0.62
in dftxc.C, eleTot sum is:87.999513, tauTot is:0.000000
   12    -890.2647205056      3.62E-08
         cpu  13.61 wall   0.57
in dftxc.C, eleTot sum is:87.999513, tauTot is:0.000000
   13    -890.2647205055      1.01E-08
         cpu  12.78 wall   0.53
in dftxc.C, eleTot sum is:87.999513, tauTot is:0.000000
   14    -890.2647205056      2.12E-09 Convergence criterion met
 ---------------------------------------
 SCF time:  CPU 377.98 s  wall 15.77 s
 SCF   energy in the final basis set = -890.2647205056
 Total energy in the final basis set = -890.2647205056
 Analysis of SCF Wavefunction
 
 --------------------------------------------------------------
                    Orbital Energies (a.u.)
[...]
    5    -890.3007821851      2.11E-05
         cpu  18.64 wall   0.78
in dftxc.C, eleTot sum is:88.000616, tauTot is:0.000000
    6    -890.3007845872      8.46E-06
         cpu  18.08 wall   0.75
in dftxc.C, eleTot sum is:88.000616, tauTot is:0.000000
    7    -890.3007850050      2.40E-06
         cpu  16.99 wall   0.71
in dftxc.C, eleTot sum is:88.000616, tauTot is:0.000000
    8    -890.3007850367      9.89E-07
         cpu  16.35 wall   0.68
in dftxc.C, eleTot sum is:88.000616, tauTot is:0.000000
    9    -890.3007850430      2.81E-07
         cpu  15.44 wall   0.64
in dftxc.C, eleTot sum is:88.000616, tauTot is:0.000000
   10    -890.3007850433      1.15E-07
         cpu  14.71 wall   0.61
in dftxc.C, eleTot sum is:88.000616, tauTot is:0.000000
   11    -890.3007850433      3.11E-08
         cpu  13.59 wall   0.57
in dftxc.C, eleTot sum is:88.000616, tauTot is:0.000000
   12    -890.3007850438      1.30E-08
         cpu  12.88 wall   0.54
in dftxc.C, eleTot sum is:88.000616, tauTot is:0.000000
   13    -890.3007850438      3.05E-09 Convergence criterion met
 ---------------------------------------
 SCF time:  CPU 354.55 s  wall 14.79 s
 SCF   energy in the final basis set = -890.3007850438
 Total energy in the final basis set = -890.3007850438
 Analysis of SCF Wavefunction
 
 --------------------------------------------------------------
                    Orbital Energies (a.u.)
 --------------------------------------------------------------
 
 Alpha MOs
 -- Occupied --
-88.939 -19.205 -19.196 -14.429 -14.384 -10.271 -10.245 -10.240
-10.209 -10.207 -10.204  -7.993  -5.960  -5.955  -5.946  -1.082
 -1.078  -0.966  -0.869  -0.850  -0.760  -0.749  -0.666  -0.642
 -0.621  -0.561  -0.534  -0.519  -0.497  -0.484  -0.476  -0.450
 -0.430  -0.422  -0.395  -0.386  -0.375  -0.366  -0.341  -0.324
 -0.291  -0.261  -0.236  -0.211
 -- Virtual --
 -0.036  -0.026  -0.015  -0.009   0.008   0.011   0.015   0.030
  0.045   0.052   0.060   0.067   0.072   0.076   0.090   0.097
  0.100   0.106   0.114   0.117   0.122   0.135   0.138   0.144
  0.149   0.159   0.161   0.171   0.180   0.182   0.186   0.188
  0.202   0.205   0.211   0.221   0.228   0.235   0.238   0.243
  0.245   0.252   0.260   0.261   0.268   0.273   0.276   0.290
  0.297   0.300   0.310   0.317   0.321   0.328   0.355   0.360
  0.387   0.391   0.393   0.403   0.414   0.431   0.443   0.477
  0.527   0.554   0.603   0.623   0.637   0.654   0.661   0.665
  0.696   0.700   0.715   0.726   0.739   0.740   0.777   0.780
  0.790   0.839   0.856   0.879   0.890   0.917   0.943   0.963
  0.988   0.999   1.015   1.027   1.034   1.047   1.052   1.070
  1.091   1.097   1.109   1.122   1.129   1.161   1.172   1.195
  1.199   1.214   1.235   1.247   1.255   1.280   1.289   1.296
  1.356   1.374   1.379   1.396   1.433   1.463   1.466   1.475
  1.489   1.541   1.587   1.707   1.711   1.739   1.751   1.784
  1.790   1.810   1.854   1.868   1.891   1.920   1.936   1.952
  1.964   1.991   2.011   2.021   2.121   2.135   2.161   2.204
  2.228   2.238   2.262   2.301   2.312   2.343   2.360   2.399
  2.463   2.479   2.534   2.542   2.549   2.601   2.655   2.663
  2.702   2.763   2.772   2.813   2.902   2.925   3.019   3.062
  3.176   3.441   3.912   4.040   4.150   4.238   4.254   4.331
  4.351   4.375   4.452   4.563   4.891
 --------------------------------------------------------------
 
          Ground-State Mulliken Net Atomic Charges

     Atom                 Charge (a.u.)
  ----------------------------------------
      1 C                    -0.487212
      2 C                    -1.556036
      3 C                    -0.045327
      4 C                     1.018599
      5 C                    -0.924159
      6 C                     1.566694
      7 N                    -0.710347
      8 N                    -0.278745
      9 O                    -0.698587
     10 O                    -0.413866
     11 S                     0.585325
     12 H                     0.183488
     13 H                     0.191639
     14 H                     0.168413
     15 H                     0.427781
     16 H                     0.494155
     17 H                     0.478186
  ----------------------------------------
  Sum of atomic charges =    -0.000000

 -----------------------------------------------------------------
                    Cartesian Multipole Moments
 -----------------------------------------------------------------
    Charge (ESU x 10^10)
                 0.0000
    Dipole Moment (Debye)
         X       1.8116      Y      -0.9679      Z       1.0366
       Tot       2.3007
    Quadrupole Moments (Debye-Ang)
        XX     -55.0978     XY       2.1943     YY     -66.4551
        XZ       2.8852     YZ       3.7840     ZZ     -77.3182
    Octapole Moments (Debye-Ang^2)
       XXX      21.5759    XXY      -9.9397    XYY     -11.6642
       YYY     -18.9596    XXZ      18.1346    XYZ       1.9999
       YYZ      19.0534    XZZ      -0.3305    YZZ       2.0497
       ZZZ      40.7511
    Hexadecapole Moments (Debye-Ang^3)
      XXXX   -1075.8427   XXXY     156.3016   XXYY    -328.6480
      XYYY      42.1009   YYYY    -773.2908   XXXZ      -5.3751
      XXYZ       9.9380   XYYZ     -10.1275   YYYZ      48.9458
      XXZZ    -284.1436   XYZZ      24.3365   YYZZ    -179.2080
      XZZZ     -44.6069   YZZZ      33.0198   ZZZZ    -175.3561
 -----------------------------------------------------------------
 Calculating analytic gradient of the SCF energy
         cpu  67.67 wall   4.77
 Gradient of Coulomb and Exchange Energy
            1           2           3           4           5           6
    1  -9.9370859  -2.8870055 -14.3258416  -4.5553577 -17.4320570  26.8752526
    2  16.8124732  12.8416017   2.2441540 -25.9954669   2.7966101  13.3145299
    3  -0.8579018  -0.5674046  -1.9846790   0.1107718  -0.8207996   1.2364956
            7           8           9          10          11          12
    1  -5.9221693  10.2535141  -9.4417009   8.4683610  24.6317225  -2.6498945
    2 -16.2948309  12.3771725 -14.4456594   5.2242063 -18.5217833   4.9120008
    3   7.8256550  11.3210763  -2.1701261 -14.8538450   6.2386593  -0.2344274
           13          14          15          16          17
    1   2.7111784  -5.4633942   0.2350522  -4.7675444   4.2069701
    2   5.3315699   0.8472677  -3.6962233  -0.4907908   2.7431683
    3   0.5293321  -0.7919363  -5.3046004  -1.0250828   1.3488131
in dftxc.C, eleTot sum is:88.000616, tauTot is:0.000000
 Gradient of SCF Energy
            1           2           3           4           5           6
    1  -0.0007028   0.0032938  -0.0032039  -0.0021333  -0.0013501   0.0019662
    2   0.0036072   0.0016788  -0.0015166  -0.0001176  -0.0019202  -0.0047625
    3  -0.0001160   0.0009459  -0.0008399   0.0043532  -0.0001561   0.0001641
            7           8           9          10          11          12
    1  -0.0020946  -0.0005253   0.0023699   0.0096248  -0.0060578   0.0022064
    2  -0.0023572   0.0002538   0.0017158   0.0043202   0.0045704  -0.0036616
    3  -0.0051502   0.0005422   0.0005313  -0.0020551   0.0048980   0.0002856
           13          14          15          16          17
    1  -0.0017906   0.0035762  -0.0005472  -0.0011673  -0.0034646
    2  -0.0027474  -0.0005920   0.0037436   0.0000638  -0.0022785
    3   0.0001735   0.0006392   0.0008857  -0.0001110  -0.0049905
 Max gradient component =       9.625E-03
 RMS gradient           =       2.942E-03
 Gradient time:  CPU 82.15 s  wall 5.97 s
 Geometry Optimization Parameters
   NAtoms,    NIC,     NZ,  NCons,   NDum,   NFix, NCnnct, MaxDiis
       17     119       0       0       0       0       0       0

 Cartesian Hessian Update
 Hessian Updated using BFGS Update


** GEOMETRY OPTIMIZATION IN DELOCALIZED INTERNAL COORDINATES **
   Searching for a Minimum

   Optimization Cycle:  22

                       Coordinates (Angstroms)
     ATOM              X           Y           Z
      1  C         1.719121   -1.944689   -0.102724
      2  C         0.341529   -1.896040   -0.300544
      3  C         2.465146   -0.766088    0.042652
      4  C        -0.278703   -0.641543   -0.359280
      5  C         1.838305    0.479265   -0.010062
      6  C         0.453791    0.539406   -0.234486
      7  N        -0.293843    1.740032   -0.320071
      8  N        -1.700882   -0.464030   -0.478598
      9  O         2.487920    1.677207    0.168926
     10  O        -2.267466   -0.993230    0.756322
     11  S        -1.957190    1.281420   -0.665468
     12  H         2.230990   -2.908654   -0.056353
     13  H        -0.254696   -2.803982   -0.383300
     14  H         3.545996   -0.821191    0.202306
     15  H        -0.194148    2.344159    0.501647
     16  H         3.422975    1.515666    0.363331
     17  H        -3.038608   -1.484751    0.407953
   Point Group: c1    Number of degrees of freedom:    45


   Energy is   -890.300785044

 GETINT wrote B to file, NVib is           45
 Hessian Updated using BFGS Update

 45 Hessian modes will be used to form the next step
  Hessian Eigenvalues:
     0.003353    0.011787    0.019480    0.020723    0.020983    0.021090
     0.021153    0.021164    0.021215    0.021329    0.021430    0.021775
     0.032211    0.076556    0.159415    0.159984    0.160022    0.161347
     0.161838    0.189134    0.221220    0.231200    0.235939    0.247459
     0.248135    0.257668    0.272485    0.312475    0.338053    0.347964
     0.393263    0.405790    0.431911    0.438942    0.439538    0.440258
     0.441271    0.446278    0.486133    0.513920    0.521037    0.526774
     0.540526    0.547136    0.676859

 Minimum Search - Taking Simple RFO Step
 Searching for Lamda that Minimizes Along All modes
 Value Taken    Lamda =  -0.00623474
 Calculated Step too Large.  Step scaled by  0.442664
 Step Taken.  Stepsize is  0.300000

                             Maximum     Tolerance    Cnvgd?
         Gradient           0.008457      0.000300      NO
         Displacement       0.237123      0.001200      NO
         Energy change     -0.003319      0.000001      NO


 New Cartesian Coordinates Obtained by Inverse Iteration

 Displacement from previous Coordinates is:  0.430538
 ----------------------------------------------------
       Standard Nuclear Orientation (Angstroms)
    I     Atom         X            Y            Z
 ----------------------------------------------------
    1      C       1.723932    -1.946316    -0.119435
    2      C       0.348455    -1.903046    -0.327303
    3      C       2.465070    -0.765014     0.045095
    4      C      -0.275087    -0.650706    -0.380696
    5      C       1.835837     0.478167    -0.001036
    6      C       0.453155     0.533113    -0.239671
    7      N      -0.300585     1.728384    -0.316439
    8      N      -1.701283    -0.478414    -0.485020
    9      O       2.478305     1.674761     0.193516
   10      O      -2.247482    -0.926323     0.802070
   11      S      -1.921103     1.245485    -0.782218
   12      H       2.239125    -2.905163    -0.081140
   13      H      -0.242464    -2.809940    -0.425661
   14      H       3.542280    -0.817592     0.210432
   15      H      -0.252586     2.298050     0.532792
   16      H       3.413246     1.515911     0.394061
   17      H      -3.038578    -1.418401     0.512901
 ----------------------------------------------------
 Molecular Point Group                 C1    NOp =  1
 Largest Abelian Subgroup              C1    NOp =  1
 Nuclear Repulsion Energy =   701.0448220989 hartrees
 There are       44 alpha and       44 beta electrons
 Applying Cartesian multipole field
    Component          Value
    ---------          -----
     (2,0,0)        1.00000E-11
     (0,2,0)        2.00000E-11
     (0,0,2)       -3.00000E-11
 Nucleus-field energy     =     0.0000000192 hartrees
 Requested basis set is 6-31+G(d)
 There are 68 shells and 225 basis functions
 A cutoff of  1.0D-11 yielded   2101 shell pairs
 There are     24320 function pairs
 Smallest overlap matrix eigenvalue = 1.47E-06

 Q-Chem warning in module ../qchem/stvman/mkSTV.C, line 251:

 Overlap eigenvalue is smaller than square root of threshold

 Guess MOs from SCF MO coefficient file
Reading MOs from coefficient file
Reading MOs from coefficient file
 A restricted hybrid HF-DFT SCF calculation will be
 performed using Pulay DIIS extrapolation
 Exchange:     0.2000 Hartree-Fock + 0.0800 Slater + 0.7200 Becke88
 Correlation:  0.8100 LYP + 0.1900 VWN1RPA
 Using SG-1 standard quadrature grid
 SCF converges when DIIS error is below 1.0E-08
Geometry optimization detected.  Setting ReadMinima to 0
Setting SaveMinima to 0
 using 24 threads for integral computing 
 reading int configure file ... done
         cpu  22.85 wall   0.95
 -------------------------------------------------------
 OpenMP BLAS3 based DFT computing Module                
 Release: version 1.0, May 2013, Q-Chem Inc. Pittsburgh 
 -------------------------------------------------------
in dftxc.C, eleTot sum is:88.024028, tauTot is:0.000000
 ---------------------------------------
  Cycle       Energy         DIIS Error
 ---------------------------------------
    1    -890.3063270284      1.97E-03
         cpu  22.99 wall   0.96
in dftxc.C, eleTot sum is:88.000708, tauTot is:0.000000
    2    -890.3028168543      1.56E-04
         cpu  20.77 wall   0.87
in dftxc.C, eleTot sum is:88.000702, tauTot is:0.000000
    3    -890.3027831842      2.03E-04
         cpu  20.37 wall   0.85
in dftxc.C, eleTot sum is:88.000704, tauTot is:0.000000
    4    -890.3030076541      5.23E-05
         cpu  19.37 wall   0.81
in dftxc.C, eleTot sum is:88.000705, tauTot is:0.000000
    5    -890.3030211989      2.18E-05
         cpu  19.32 wall   0.81
in dftxc.C, eleTot sum is:88.000705, tauTot is:0.000000
    6    -890.3030238079      9.28E-06
         cpu  18.33 wall   0.77
in dftxc.C, eleTot sum is:88.000705, tauTot is:0.000000
    7    -890.3030243253      2.68E-06
         cpu  17.04 wall   0.71
in dftxc.C, eleTot sum is:88.000705, tauTot is:0.000000
    8    -890.3030243634      7.76E-07
         cpu  16.18 wall   0.67
in dftxc.C, eleTot sum is:194.667466, tauTot is:0.000000
    9    -927.3619157247      3.06E+01
         cpu  10.93 wall   0.46
in dftxc.C, eleTot sum is:194.666845, tauTot is:0.000000
   10    -927.3616388609      3.06E+01
         cpu  24.44 wall   1.02
in dftxc.C, eleTot sum is:1709829.900749, tauTot is:0.000000
   11-10572210.8783244640      1.17E+01
         cpu  23.59 wall   0.98
in dftxc.C, eleTot sum is:1709976.932210, tauTot is:0.000000
   12-10572739.1818130687      9.69E-02
         cpu  23.02 wall   0.96
in dftxc.C, eleTot sum is:1709975.837803, tauTot is:0.000000
   13-10572728.9078145288      3.95E-02
         cpu  22.82 wall   0.95
in dftxc.C, eleTot sum is:1709976.021497, tauTot is:0.000000
   14-10572739.0217132755      3.49E-02
         cpu  23.23 wall   0.97
in dftxc.C, eleTot sum is:1709972.212331, tauTot is:0.000000
   15-10572741.2206975669      2.19E-02
         cpu  23.81 wall   0.99
in dftxc.C, eleTot sum is:1709975.582343, tauTot is:0.000000
   16-10572739.4891664535      3.90E-02
         cpu  22.84 wall   0.95
in dftxc.C, eleTot sum is:1709975.524628, tauTot is:0.000000
   17-26066046.7400928512      5.10E+03
         cpu  18.91 wall   0.79
in dftxc.C, eleTot sum is:1709975.525532, tauTot is:0.000000
   18-26066045.5077939369      5.10E+03
         cpu  21.94 wall   0.91
in dftxc.C, eleTot sum is:1709975.379391, tauTot is:0.000000
   19-26066038.6528953947      5.10E+03
         cpu  23.36 wall   0.97
in dftxc.C, eleTot sum is:1709355.388322, tauTot is:0.000000
   20-26058957.4657941908      7.82E+03
         cpu  20.58 wall   0.86
in dftxc.C, eleTot sum is:1709355.289319, tauTot is:0.000000
   21-26058957.7628708705      7.82E+03
         cpu  20.07 wall   0.84
in dftxc.C, eleTot sum is:1709355.263630, tauTot is:0.000000
   22-26058957.9947336726      7.82E+03
         cpu  21.31 wall   0.89
in dftxc.C, eleTot sum is:1709355.141261, tauTot is:0.000000
   23-26058958.4848947078      7.82E+03
         cpu  23.89 wall   1.00
in dftxc.C, eleTot sum is:1532180.568858, tauTot is:0.000000
   24-28558592.1687500477      7.86E+02
         cpu  23.59 wall   0.98
in dftxc.C, eleTot sum is:1519728.406138, tauTot is:0.000000
   25-28556580.0074689090      7.40E+01
         cpu  23.18 wall   0.97
in dftxc.C, eleTot sum is:1518665.486703, tauTot is:0.000000
   26-28556251.9662886076      3.90E-01
         cpu  20.33 wall   0.85
in dftxc.C, eleTot sum is:1518671.293825, tauTot is:0.000000
   27-28556254.0113485679      6.85E-03
         cpu  16.35 wall   0.68
in dftxc.C, eleTot sum is:1518671.416387, tauTot is:0.000000
   28-28556254.0674960725      7.89E-06
         cpu  11.34 wall   0.47
in dftxc.C, eleTot sum is:1518671.416341, tauTot is:0.000000
   29-28556254.0674714558      8.79E-06
         cpu   7.18 wall   0.30
in dftxc.C, eleTot sum is:1518671.416340, tauTot is:0.000000
   30-28556254.0674705245      6.76E-06
         cpu  23.92 wall   1.00
in dftxc.C, eleTot sum is:1518671.416340, tauTot is:0.000000
   31-28556254.0673111752      1.05E-05
         cpu   7.62 wall   0.32
in dftxc.C, eleTot sum is:1518671.416337, tauTot is:0.000000
   32-28556254.0673063919      6.82E-06
         cpu   7.46 wall   0.31
in dftxc.C, eleTot sum is:1518671.416335, tauTot is:0.000000
   33-28556254.0673024058      1.35E-05
         cpu   6.52 wall   0.27
in dftxc.C, eleTot sum is:1518671.416336, tauTot is:0.000000
   34-28556254.0673038252      5.98E-06
         cpu   6.74 wall   0.28
in dftxc.C, eleTot sum is:1518671.416335, tauTot is:0.000000
   35-28556254.0673017688      1.03E-05
         cpu   6.09 wall   0.25
in dftxc.C, eleTot sum is:1518671.416335, tauTot is:0.000000
   36-28556254.0673024617      1.11E-05
         cpu   6.70 wall   0.28
in dftxc.C, eleTot sum is:1518671.416335, tauTot is:0.000000
   37-28556254.0673010051      7.31E-06
         cpu   7.56 wall   0.32
in dftxc.C, eleTot sum is:1518671.416332, tauTot is:0.000000
   38-28556254.0672971457      1.14E-05
         cpu   8.00 wall   0.33
in dftxc.C, eleTot sum is:1518671.416335, tauTot is:0.000000
   39-28556254.0673011206      8.96E-06
         cpu   7.59 wall   0.31
in dftxc.C, eleTot sum is:1518671.416337, tauTot is:0.000000
   40-28556254.0673048124      4.99E-06
         cpu   5.92 wall   0.25
in dftxc.C, eleTot sum is:1518671.416337, tauTot is:0.000000
   41-28556254.0673040673      7.34E-06
         cpu   7.28 wall   0.30
in dftxc.C, eleTot sum is:1518671.416338, tauTot is:0.000000
   42-28556254.0673066452      8.24E-06
         cpu  23.66 wall   0.99
in dftxc.C, eleTot sum is:1551381.157673, tauTot is:0.000000
   43-27844881.2660983615      7.71E+03
         cpu  24.15 wall   1.01
in dftxc.C, eleTot sum is:1521392.021887, tauTot is:0.000000
   44-28557251.4794436395      1.70E+02
         cpu  22.31 wall   0.93
in dftxc.C, eleTot sum is:1518879.269432, tauTot is:0.000000
   45-28556321.7600157335      1.23E+01
         cpu  23.55 wall   0.98
in dftxc.C, eleTot sum is:1518672.650317, tauTot is:0.000000
   46-28556254.2885398418      9.06E-02
         cpu  17.57 wall   0.73
in dftxc.C, eleTot sum is:1518671.403692, tauTot is:0.000000
   47-28556254.0630198978      6.97E-04
         cpu  14.10 wall   0.59
in dftxc.C, eleTot sum is:1518671.416322, tauTot is:0.000000
   48-28556254.0673758611      6.49E-06
         cpu   9.05 wall   0.38
in dftxc.C, eleTot sum is:1518671.416332, tauTot is:0.000000
   49-28556254.0673827268      9.45E-06
         cpu   3.52 wall   0.15
in dftxc.C, eleTot sum is:1518671.416332, tauTot is:0.000000
   50-28556254.0673828647      6.14E-06    Convergence failure

 Q-Chem fatal error occurred in module ../qchem/scfman/scfman.C, line 3849:

 SCF failed to converge

Application 47160124 exit codes: 1
Application 47160124 resources: utime ~12232s, stime ~388s, Rss ~356224, inblocks ~14693802, outblocks ~3336352
