
Running Job 1 of 1 mol.qcinp
qchem mol.qcinp_11594.0 /scratch3/scratchdirs/xhqu/qc_scratch/qchem11594/ 24
aprun -n 24 /global/project/projectdirs/jcesr/qchem/qc41/exe/qcprog.exe mol.qcinp_11594.0 /scratch3/scratchdirs/xhqu/qc_scratch/qchem11594/

Process 0 of 24 is on nid03198 - thread support 0
Process 1 of 24 is on nid03198 - thread support 0
Process 2 of 24 is on nid03198 - thread support 0
Process 4 of 24 is on nid03198 - thread support 0
Process 3 of 24 is on nid03198 - thread support 0
Process 5 of 24 is on nid03198 - thread support 0
Process 6 of 24 is on nid03198 - thread support 0
Process 23 of 24 is on nid03198 - thread support 0
initial socket setup ...start 0 nproc 24 
initial socket setup ...done 0 nproc 24 
now start server 0 ... 
                  Welcome to Q-Chem
     A Quantum Leap Into The Future Of Chemistry

 Y. Shao, L. Fusti-Molnar, Y. Jung, J. Kussmann, C. Ochsenfeld, S. T. Brown, 
 A. T. B. Gilbert, L. V. Slipchenko, S. V. Levchenko, D. P. O'Neill, 
 R. A. DiStasio Jr., R. C. Lochan, T. Wang, G. J. O. Beran, N. A. Besley, 
 J. M. Herbert, C. Y. Lin, T. Van Voorhis, S. H. Chien, A. Sodt, R. P. Steele, 
 V. A. Rassolov, P. E. Maslen, P. P. Korambath, R. D. Adamson, B. Austin, 
 J. Baker, E. F. C. Byrd, H. Dachsel, R. J. Doerksen, A. Dreuw, B. D. Dunietz, 
 A. D. Dutoi, T. R. Furlani, S. R. Gwaltney, A. Heyden, S. Hirata, C.-P. Hsu, 
 G. Kedziora, R. Z. Khaliullin, P. Klunzinger, A. M. Lee, M. S. Lee, W. Liang, 
 I. Lotan, N. Nair, B. Peters, E. I. Proynov, P. A. Pieniazek, Y. M. Rhee, 
 J. Ritchie, E. Rosta, C. D. Sherrill, A. C. Simmonett, J. E. Subotnik, 
 H. L. Woodcock III, W. Zhang, A. T. Bell, A. K. Chakraborty, D. M. Chipman, 
 F. J. Keil, A. Warshel, W. J. Hehre, H. F. Schaefer III, J. Kong, 
 A. I. Krylov, P. M. W. Gill, M. Head-Gordon

 Additional authors for Version 3.1: 
 Z. Gan, Y. Zhao, N. E. SchultzD. Truhlar, E. Epifanovsky, M. Oana

 Additional authors for Version 3.2: 
 R. Baer, B. R. Brooks, D. Casanova, J.-D. Chai, C.-L. Cheng, C. Cramer, 
 D. Crittenden, A. Ghysels, G. Hawkins, E. G. Hohenstein, C. Kelley, 
 W. Kurlancheek, D. Liotard, E. Livshits, P. Manohar, A. Marenich, 
 D. Neuhauser, R. Olson, M. A. Rohrdanz, K. S. Thanthiriwatte, A. J. W. Thom, 
 V. Vanovschi, C. F. Williams, Q. Wu, Z.-Q. You

 Additional authors for Version 4.0: 
 A. Aspuru-Guzik, Y. Bernard, C. Chang, J. Deng, A. Dreuw, M. Diedenhofen, 
 R. G. Edgar, D. Ghosh, W. A. Goddard III, M. Goldey, L. D. Jacobson, 
 M. Gordon, B. Kaduk, I. Kaliman, K. Khistyaev, R. King, A. Klamt, 
 D. Kosenkov, T. Kus, D. Lambrecht, A. Landau, A. W. Lange, K. Lawler, F. Liu, 
 J. Liu, R. Olivares-Amaya, S. P. Mao, J. Parkhill, N. Russ, M. Schmidt, 
 N. Shenvi, D. Small, Y. C. Su, E. Sundstrom, L. Vogt, O. Vydrov, M. Watson, 
 M. Wormit, X. Xu, S. Yeganeh, I. Y. Zhang, D. Zuev

 Additional authors for Version 4.1: 
 X. Feng, M. W. D. Hanson-Heine, P. Horn, H. Ji, A. Laurent, R. Peverati, 
 N. Mardirossian, N. Sergueev, S. Sharada, P. Zimmerman


 Q-Chem, Version 4.1, Q-Chem, Inc., Pittsburgh, PA (2013).

 Intel X86 Linux Version 4.1.1

 Q-chem begins on Fri Aug 15 23:29:07 2014  

 Host: nid00897

 Scratch files written to /scratch3/scratchdirs/xhqu/qc_scratch/qchem11594.0//
 Nov1913 .. -1
 Parallel job on  24  processors

Processing $rem in /global/project/projectdirs/jcesr/qchem/qc41/config/preferences.
 MEM_TOTAL  4000 
Finally everything over in PARseQInput

--------------------------------------------------------------
User input:
--------------------------------------------------------------
$comment
Li(DME)12 singlet cation BLYP-D3/3-21+G* atomic charge
Gas Phase
<SCF Fix Strategy>{
"current_method_id": 1,
"methods": [
"increase_iter",
"rca_diis",
"gwh",
"gdm",
"rca",
"core+rca"
]
}</SCF Fix Strategy>
$end


$molecule
1  1
C          -0.54928600       -1.40863500        1.81308000
O           0.31229700       -0.29210100        1.93107100
C           1.55762200       -0.45079800        1.27809600
C           1.44299300       -0.08334600       -0.19889400
O           1.17229500        1.31383900       -0.19717700
C           1.25501800        1.89588500       -1.48502400
H          -1.44962400       -1.10344700        2.36880300
H          -0.10469200       -2.28703700        2.29883400
H          -0.77418600       -1.63256000        0.76442500
H           1.94762100       -1.47860200        1.41116900
H           2.22268800        0.24669100        1.83528700
H           0.62440400       -0.61897300       -0.71589900
H           2.38876400       -0.28499000       -0.73963700
H           2.29474700        1.88091100       -1.83638600
H           0.91183900        2.92940700       -1.33666100
H           0.60259400        1.38361200       -2.20385400
Li         -0.53392900        1.60783200        1.23819100
O          -2.35826100        1.24034400       -0.21503800
O          -2.42876400        1.21899300        2.57218300
C          -3.35808200        0.56264700        0.53290100
C          -3.57845700        1.43923600        1.76642200
C          -2.52465800        1.81542600        3.85070600
C          -2.11862500        0.65154300       -1.48008300
H          -3.00340800       -0.45196900        0.79317000
H          -4.28918200        0.48936400       -0.06337400
H          -4.49235000        1.14093200        2.31069000
H          -3.65324300        2.51288500        1.51001700
H          -1.54341500        1.60503000        4.30869300
H          -3.31134300        1.33216800        4.44011100
H          -2.69471400        2.89336800        3.78059900
H          -1.41535100        1.35475700       -1.96225700
H          -3.03747400        0.58990200       -2.06990500
H          -1.65856100       -0.33737100       -1.37680300
C          -1.38906400        4.12141200       -3.35642500
O          -0.68204700        2.93692000       -3.66909200
C          -1.34878100        2.11920400       -4.62174200
C          -0.38893500        0.94860300       -4.85049600
O          -0.74141400       -0.00962400       -3.86063400
C           0.16090600       -1.09843000       -3.80936700
H          -0.76496300        4.58308900       -2.57923200
H          -2.38619100        3.89656600       -2.95869600
H          -1.46104900        4.77454000       -4.23037300
H          -1.52531700        2.69074700       -5.54867500
H          -2.31611500        1.77972700       -4.20757100
H           0.66351600        1.26141300       -4.71986000
H          -0.52260000        0.49931400       -5.84984000
H           0.19015300       -1.63315000       -4.76301600
H          -0.26967400       -1.74210900       -3.02809500
H           1.16213500       -0.76336100       -3.51710900
C          -1.59463100       -3.57308100       -0.92201000
O          -0.29522600       -3.07210900       -1.17202400
C           0.73031900       -3.87441600       -0.59459700
C           2.02085700       -3.38247600       -1.25933000
O           2.83377300       -2.68832600       -0.33395100
C           3.61170500       -3.52318100        0.50283200
H          -2.24813000       -2.79904700       -1.34292700
H          -1.77588100       -3.69225100        0.15187600
H          -1.74646500       -4.52380600       -1.44395700
H           0.53708200       -4.94074600       -0.79222400
H           0.73447600       -3.69729000        0.49895200
H           1.80191900       -2.59749800       -2.01504300
H           2.58149100       -4.19723800       -1.74363200
H           3.00109900       -4.27416300        1.00975100
H           4.02675800       -2.82153500        1.24343800
H           4.41240800       -3.99576000       -0.07366000
C           1.83209200        2.28418300        3.55727900
O           0.50093900        2.60871800        3.19671100
C           0.32131300        3.97136000        2.85172000
C           0.70096600        4.21166900        1.39442400
O          -0.30054400        3.69891600        0.53392700
C          -1.37079100        4.59038300        0.28793500
H           1.80605100        1.19432700        3.70306900
H           2.10447400        2.79227100        4.48721500
H           2.54520100        2.53347000        2.76101200
H           0.87978400        4.63261500        3.53827500
H          -0.76073400        4.13402600        3.03712700
H           1.60593900        3.64156000        1.08633700
H           0.88360500        5.28586900        1.19143900
H          -1.94075900        4.79015900        1.19978700
H          -1.97912800        4.05783500       -0.45675900
H          -0.99495000        5.53593600       -0.12679300
C           2.37539900        4.03292700       -4.14330800
O           3.42302700        3.31617900       -3.51676600
C           3.71256700        2.08316000       -4.16289700
C           4.70736100        1.38624200       -3.22940100
O           4.01735100        0.22094200       -2.79005200
C           4.83642100       -0.64909600       -2.03443100
H           2.27938100        4.93575900       -3.52300900
H           1.43822600        3.46316800       -4.11445900
H           2.64106600        4.29985500       -5.16901500
H           4.14233100        2.29249600       -5.15633400
H           2.79027800        1.48215300       -4.28036100
H           4.95100400        2.01818000       -2.35432300
H           5.63646500        1.10282700       -3.74941400
H           5.65531500       -1.04393900       -2.64280400
H           4.14848100       -1.46131500       -1.75348200
H           5.21966600       -0.15288500       -1.13826400
C           0.98569400       -5.27910800        2.80608200
O          -0.34051500       -4.81723800        2.63502200
C          -0.93541500       -4.41154100        3.86466600
C          -2.37975000       -4.06125200        3.49864500
O          -2.45255700       -2.65296700        3.68571600
C          -3.75779500       -2.13155100        3.54080300
H           1.25453900       -5.65278500        1.81089100
H           1.03394300       -6.09532100        3.53510800
H           1.64299500       -4.45511700        3.10495000
H          -0.39092600       -3.52849000        4.26325900
H          -0.88117900       -5.23610800        4.59426500
H          -3.10899200       -4.56656500        4.15278500
H          -2.60087300       -4.30449300        2.44256800
H          -4.17637400       -2.36833800        2.55883500
H          -3.59951900       -1.04692300        3.63992300
H          -4.41047700       -2.49296500        4.34156800
C           3.20213900       -1.92967000        4.33609900
O           3.68097100       -1.39494600        3.11675500
C           4.76825200       -0.49478100        3.28850500
C           4.99538100        0.10342500        1.89660100
O           4.53164800        1.44310900        2.00887500
C           4.39221100        2.09021900        0.75851500
H           2.31665200       -2.50449600        4.03165000
H           2.89699300       -1.14011000        5.03124400
H           3.95006800       -2.58299000        4.79286900
H           5.64481100       -1.05608200        3.65160600
H           4.50287700        0.29120400        4.02097200
H           4.42270400       -0.44687100        1.12512200
H           6.06243400        0.12374400        1.61934400
H           5.34087800        2.11782800        0.21805800
H           4.08047900        3.10763900        1.03781900
H           3.60635300        1.61409400        0.15718500
C           3.87893400        5.61650500        2.56360200
O           3.31177500        5.35683300        1.29430700
C           4.13760100        5.78320300        0.21521400
C           3.34886900        5.39281900       -1.03927200
O           2.81603200        6.53927100       -1.67356100
C           3.73691600        7.21494500       -2.51012200
H           3.12721700        5.22424400        3.26035500
H           4.01679000        6.69091000        2.71902900
H           4.82479100        5.07885900        2.68911700
H           5.11272400        5.27242600        0.27690600
H           4.28983200        6.87535200        0.27688400
H           2.43239400        4.81961700       -0.77790400
H           3.94895600        4.78836600       -1.74189000
H           4.57811100        7.61043000       -1.93453100
H           3.14016000        8.03666600       -2.92575200
H           4.09263900        6.55911400       -3.31210700
C          -0.20461600       -2.48817400        6.85190900
O           0.55637200       -1.92682100        5.79732200
C          -0.06431400       -0.81532200        5.17911700
C           0.04479600        0.42836200        6.06279900
O          -1.27039400        0.61866100        6.57646100
C          -1.35531000        1.70199600        7.48033100
H           0.45608800       -3.26070600        7.26027400
H          -1.12986900       -2.92618600        6.46280800
H          -0.43945100       -1.73620400        7.61335300
H          -1.11808600       -1.04299200        4.92274500
H           0.51694200       -0.71301400        4.23929600
H           0.33798300        1.32451200        5.48646500
H           0.75715800        0.27291500        6.89163900
H          -0.72579700        1.53020200        8.35938800
H          -2.41343700        1.70505600        7.77074800
H          -1.08924800        2.64422100        6.99188600
C          -5.06847500        5.58891900       -2.15655000
O          -4.55159300        4.27102000       -2.15969800
C          -4.64852900        3.60534600       -0.91944700
C          -6.05480000        3.00725900       -0.76222800
O          -5.95312800        2.19344900        0.40085000
C          -7.18393900        1.59254500        0.75614600
H          -4.90226200        5.92000400       -3.19035600
H          -4.51521000        6.22431300       -1.45786800
H          -6.13719900        5.59680000       -1.92697500
H          -4.38776200        4.26357900       -0.07552800
H          -3.88054800        2.80681900       -1.01389900
H          -6.32762900        2.38507600       -1.63201000
H          -6.82218400        3.78400900       -0.61289100
H          -7.93634000        2.35209700        0.99354700
H          -6.93407100        1.01441600        1.65408500
H          -7.53949900        0.92909000       -0.03904900
C           0.90507200        7.78757800        0.17134000
O          -0.17271700        7.48642300        1.03869200
C           0.10517200        7.80593500        2.39601400
C          -1.19146700        7.47092400        3.13925900
O          -0.86050400        6.34298100        3.94338300
C          -1.90924800        5.95443500        4.80876600
H           0.56468200        7.40844000       -0.80138300
H           1.82003000        7.26095900        0.47080200
H           1.07305600        8.86659300        0.12263400
H           0.36802200        8.87405300        2.47908800
H           0.95043000        7.19006800        2.75843200
H          -1.99867300        7.19460500        2.43456600
H          -1.52762500        8.30186500        3.78117800
H          -2.15479800        6.75647300        5.51298900
H          -1.48531700        5.09806100        5.34873900
H          -2.79486100        5.65231000        4.24139600
$end


$rem
jobtype = sp
exchange = b
basis = 3-21+g*
correlation = lyp
dft_d = empirical_grimme3
dft_d3_3body = True
dft_d3_rs6 = 1094
dft_d3_s6 = 1000
dft_d3_s8 = 1682
max_scf_cycles = 300
mem_static = 100
mem_total = 2500
nbo = 1
scf_algorithm = rca_diis
scf_guess = sad
$end

--------------------------------------------------------------
 ----------------------------------------------------
       Standard Nuclear Orientation (Angstroms)
    I     Atom         X            Y            Z
 ----------------------------------------------------
    1      C      -3.003715    -0.127690     0.723434
    2      O      -2.027849     0.094670    -0.277134
    3      C      -1.762151     1.460877    -0.532628
    4      C      -0.732846     2.004119     0.454833
    5      O       0.464974     1.302608     0.140957
    6      C       1.603234     1.827604     0.798919
    7      H      -3.070447    -1.225187     0.783632
    8      H      -3.973980     0.276981     0.407144
    9      H      -2.705420     0.315404     1.680036
   10      H      -2.695190     2.056954    -0.514757
   11      H      -1.378416     1.449729    -1.577563
   12      H      -1.005760     1.817832     1.510813
   13      H      -0.579982     3.093196     0.320336
   14      H       1.833382     2.827214     0.408372
   15      H       2.407884     1.121050     0.551391
   16      H       1.460263     1.867164     1.886481
   17      Li     -0.094870    -0.874803     0.082927
   18      O       0.163054    -1.423885     2.364833
   19      O      -1.213710    -2.908536     0.447971
   20      C      -0.860469    -2.354363     2.688776
   21      C      -0.710859    -3.469416     1.653005
   22      C      -1.321395    -3.851396    -0.600346
   23      C       0.280884    -0.378217     3.312010
   24      H      -1.846238    -1.856108     2.634182
   25      H      -0.699851    -2.749563     3.711458
   26      H      -1.298881    -4.360437     1.937128
   27      H       0.344022    -3.771406     1.511281
   28      H      -1.658578    -3.246417    -1.458928
   29      H      -2.083623    -4.601474    -0.363277
   30      H      -0.359875    -4.325452    -0.816089
   31      H       1.176903     0.174371     2.975270
   32      H       0.449370    -0.771236     4.318549
   33      H      -0.598907     0.274413     3.294166
   34      C       4.266587    -0.054393     2.992300
   35      O       3.435556     1.074272     3.182449
   36      C       3.138935     1.330068     4.548949
   37      C       2.296923     2.608360     4.518535
   38      O       0.956684     2.157636     4.367291
   39      C       0.045980     3.217945     4.146677
   40      H       4.335153    -0.128491     1.898460
   41      H       3.807915    -0.960670     3.406169
   42      H       5.255034     0.111336     3.429394
   43      H       4.074709     1.469887     5.116231
   44      H       2.574466     0.478728     4.972166
   45      H       2.579586     3.254724     3.667134
   46      H       2.381258     3.176249     5.461299
   47      H       0.045058     3.919591     4.985676
   48      H      -0.924332     2.703610     4.082938
   49      H       0.265993     3.733132     3.205230
   50      C      -3.634964     1.222173     4.045735
   51      O      -2.986274     2.192099     3.245499
   52      C      -3.894166     2.977271     2.478623
   53      C      -3.052614     4.157234     1.979784
   54      O      -2.840224     4.073073     0.584503
   55      C      -3.919692     4.542250    -0.200984
   56      H      -2.801717     0.657200     4.481471
   57      H      -4.272856     0.568456     3.440730
   58      H      -4.220649     1.705186     4.835058
   59      H      -4.740947     3.301147     3.104341
   60      H      -4.270455     2.354753     1.643088
   61      H      -2.016936     4.100930     2.379067
   62      H      -3.488341     5.130519     2.254656
   63      H      -4.862880     4.066100     0.077328
   64      H      -3.638844     4.239538    -1.222044
   65      H      -3.995705     5.631098    -0.127288
   66      C      -0.466201    -0.456518    -3.251863
   67      O      -0.101285    -1.425343    -2.284643
   68      C       1.241123    -1.864786    -2.398249
   69      C       2.184587    -0.900607    -1.687031
   70      O       2.085602    -1.060878    -0.283140
   71      C       2.907153    -2.083086     0.246763
   72      H      -1.488541    -0.170690    -2.964042
   73      H      -0.455911    -0.900701    -4.251724
   74      H       0.187433     0.424533    -3.216901
   75      H       1.523031    -2.013323    -3.456063
   76      H       1.217297    -2.863616    -1.915099
   77      H       1.900550     0.165545    -1.833872
   78      H       3.231989    -1.028986    -2.026049
   79      H       2.598726    -3.068905    -0.112795
   80      H       2.762150    -1.988614     1.332259
   81      H       3.958743    -1.906171    -0.018162
   82      C       4.834401     3.326624     1.247447
   83      O       3.978764     4.073807     0.402811
   84      C       3.238192     5.064844     1.103564
   85      C       2.247116     5.605512     0.068107
   86      O       0.970138     5.247070     0.585708
   87      C      -0.097712     5.802578    -0.155853
   88      H       5.313291     2.615806     0.558609
   89      H       4.258441     2.778110     2.003195
   90      H       5.583558     3.969825     1.715378
   91      H       3.932954     5.839909     1.466905
   92      H       2.707079     4.614340     1.964139
   93      H       2.389960     5.123796    -0.917801
   94      H       2.317493     6.699479    -0.042598
   95      H      -0.089233     6.894889    -0.097633
   96      H      -0.989953     5.403870     0.350932
   97      H      -0.073635     5.466672    -1.196432
   98      C      -6.751508     1.915286     0.402382
   99      O      -6.358578     0.804569     1.185536
  100      C      -6.643592    -0.436647     0.546261
  101      C      -6.261490    -1.500198     1.578556
  102      O      -5.130170    -2.146373     1.007472
  103      C      -4.696580    -3.275004     1.738712
  104      H      -6.575191     2.769399     1.067003
  105      H      -7.813368     1.862774     0.138362
  106      H      -6.132658     1.986980    -0.498845
  107      H      -6.029570    -0.525268    -0.375828
  108      H      -7.712592    -0.481847     0.281001
  109      H      -7.070356    -2.231004     1.741935
  110      H      -5.976160    -1.043564     2.544699
  111      H      -4.455395    -3.013276     2.772572
  112      H      -3.788468    -3.581841     1.197900
  113      H      -5.445889    -4.071875     1.701702
  114      C      -4.420756     1.688034    -3.201541
  115      O      -3.329333     2.504087    -2.820935
  116      C      -2.552357     2.950972    -3.924827
  117      C      -1.339409     3.636907    -3.288364
  118      O      -0.258855     2.747537    -3.541010
  119      C       0.902389     3.056676    -2.794326
  120      H      -4.835701     1.353555    -2.240737
  121      H      -4.091517     0.814695    -3.774801
  122      H      -5.159622     2.266142    -3.762553
  123      H      -3.156574     3.645780    -4.530980
  124      H      -2.241577     2.090749    -4.547834
  125      H      -1.484384     3.779290    -2.199937
  126      H      -1.112576     4.607334    -3.760281
  127      H       1.255096     4.067652    -3.009622
  128      H       1.631630     2.312845    -3.148238
  129      H       0.724554     2.918644    -1.719530
  130      C       3.063081     0.490679    -4.963094
  131      O       3.413449     0.792338    -3.626512
  132      C       4.366587     1.845399    -3.522527
  133      C       4.580384     2.011857    -2.014278
  134      O       5.850190     1.520950    -1.630622
  135      C       6.909466     2.436085    -1.842425
  136      H       2.330474    -0.319234    -4.854746
  137      H       3.933521     0.142419    -5.527504
  138      H       2.599669     1.353901    -5.452543
  139      H       3.959620     2.755013    -3.994272
  140      H       5.299013     1.550510    -4.035742
  141      H       3.889979     1.360860    -1.434327
  142      H       4.436679     3.054964    -1.681989
  143      H       7.033390     2.658886    -2.905592
  144      H       7.785664     1.896081    -1.461947
  145      H       6.752167     3.357271    -1.271017
  146      C      -6.366818    -2.078174    -2.676442
  147      O      -5.312477    -1.135693    -2.596014
  148      C      -4.087074    -1.691373    -2.157305
  149      C      -3.424704    -2.496810    -3.276272
  150      O      -3.600103    -3.856896    -2.890023
  151      C      -3.100818    -4.768389    -3.847990
  152      H      -7.192158    -1.501619    -3.108293
  153      H      -6.624215    -2.447986    -1.678278
  154      H      -6.097615    -2.917547    -3.327124
  155      H      -4.234588    -2.303738    -1.245579
  156      H      -3.501032    -0.788010    -1.888827
  157      H      -2.343475    -2.283938    -3.358940
  158      H      -3.912834    -2.312559    -4.249092
  159      H      -3.633360    -4.669109    -4.799349
  160      H      -3.313044    -5.746800    -3.398928
  161      H      -2.024003    -4.638167    -3.991754
  162      C       4.705929    -4.064352     3.918880
  163      O       3.595088    -3.197295     4.054083
  164      C       2.406068    -3.679605     3.467272
  165      C       1.710339    -4.651293     4.432574
  166      O       0.443566    -4.886640     3.828198
  167      C      -0.338534    -5.822227     4.545982
  168      H       5.507982    -3.517212     4.432054
  169      H       4.959049    -4.214164     2.864617
  170      H       4.526704    -5.021370     4.415803
  171      H       2.588151    -4.141064     2.483722
  172      H       1.809690    -2.750816     3.332937
  173      H       1.571386    -4.198549     5.429461
  174      H       2.261134    -5.600292     4.535275
  175      H       0.155563    -6.798891     4.583142
  176      H      -1.260850    -5.887437     3.956030
  177      H      -0.555444    -5.458203     5.555620
  178      C       5.908838    -1.361665    -2.179065
  179      O       5.150025    -2.546448    -2.020589
  180      C       4.788866    -3.140681    -3.260784
  181      C       4.045523    -4.420806    -2.867543
  182      O       2.695292    -4.181831    -3.252476
  183      C       1.863308    -5.312302    -3.080553
  184      H       6.026944    -0.993737    -1.151212
  185      H       5.368424    -0.616149    -2.775984
  186      H       6.884508    -1.582732    -2.619590
  187      H       5.697683    -3.351676    -3.849341
  188      H       4.135244    -2.450909    -3.828317
  189      H       4.090498    -4.592161    -1.775233
  190      H       4.434499    -5.305440    -3.398246
  191      H       2.203174    -6.148074    -3.701412
  192      H       0.884472    -4.959453    -3.429902
  193      H       1.813647    -5.606751    -2.027780
 ----------------------------------------------------
 Molecular Point Group                 C1    NOp =  1
 Largest Abelian Subgroup              C1    NOp =  1
 Nuclear Repulsion Energy = 16258.7016623609 hartrees
 There are      301 alpha and      301 beta electrons
 Requested basis set is 3-21+G(d)
 There are 532 shells and 1189 basis functions

Total QAlloc Memory Limit   2500 MB
Mega-Array Size        98 MB
MEM_STATIC part       100 MB
 A cutoff of  1.0D-09 yielded  55602 shell pairs
 There are    366690 function pairs
 Smallest overlap matrix eigenvalue = 1.13E-06

 Q-Chem warning in module ../qchem/stvman/mkSTV.C, line 251:

 Overlap eigenvalue is smaller than square root of threshold


  Scale SEOQF with 1.000000e-02/1.000000e-02/1.000000e-02

 Standard Electronic Orientation quadrupole field applied
 Nucleus-field energy     =     0.0000000188 hartrees
 Guess from superposition of atomic densities
 Warning:  Energy on first SCF cycle will be non-variational
 A restricted Kohn-Sham SCF calculation will be
 performed using Relaxed Constraint Minimization + Pulay DIIS
 Exchange:  Becke88      Correlation:  LYP
 Using SG-1 standard quadrature grid
 SCF converges when DIIS error is below 1.0E-05
 Requested basis set is 3-21+G(d)
 There are 532 shells and 1189 basis functions
 A cutoff of  1.0D-09 yielded  55602 shell pairs
 There are    366690 function pairs
 Inaccurate integrated density:
   Number of electrons =   602
   Numerical integral  =   603.020674157653
   Relative error      =     0.1695472023 %
 Inaccurate integrated density:
   Number of electrons =   602
   Numerical integral  =   603.020674157653
   Relative error      =     0.1695472023 %
 ---------------------------------------
  Cycle       Energy         DIIS Error
 ---------------------------------------
    1   -3701.1257773396      2.24E-02
    2   -3691.6203996627      2.51E-03
    3   -3692.0710369461      6.85E-04 Done RCA. Switching to DIIS
    4   -3692.7121872781      6.61E-04
    5   -3692.7811089244      2.20E-04
    6   -3692.7884502702      3.13E-05
    7   -3692.7886114672      1.62E-05
    8   -3692.7886369036      4.91E-06 Convergence criterion met
 ---------------------------------------
 SCF time:  CPU 194.40 s  wall 232.56 s
 SCF   energy in the final basis set = -3692.7886369036
 Total energy in the final basis set = -3692.7886369036
 Analysis of SCF Wavefunction
 
 --------------------------------------------------------------
                    Orbital Energies (a.u.)
 --------------------------------------------------------------
 
 Alpha MOs
 -- Occupied --
-18.794 -18.793 -18.791 -18.789 -18.787 -18.784 -18.784 -18.784
-18.783 -18.783 -18.783 -18.782 -18.780 -18.779 -18.778 -18.777
-18.776 -18.776 -18.775 -18.774 -18.774 -18.774 -18.773 -18.769
 -9.986  -9.985  -9.984  -9.983  -9.982  -9.981  -9.981  -9.981
 -9.981  -9.981  -9.979  -9.978  -9.978  -9.977  -9.977  -9.977
 -9.977  -9.977  -9.976  -9.976  -9.975  -9.975  -9.974  -9.974
 -9.971  -9.971  -9.970  -9.969  -9.969  -9.968  -9.968  -9.965
 -9.965  -9.965  -9.964  -9.963  -9.962  -9.961  -9.960  -9.960
 -9.959  -9.958  -9.957  -9.956  -9.954  -9.952  -9.952  -9.941
 -1.865  -1.046  -1.041  -1.039  -1.038  -1.037  -1.036  -1.034
 -1.032  -1.031  -1.030  -1.030  -1.029  -1.028  -1.027  -1.027
 -1.025  -1.023  -1.023  -1.019  -1.019  -1.016  -1.016  -1.013
 -1.012  -0.772  -0.770  -0.769  -0.767  -0.767  -0.766  -0.765
 -0.763  -0.762  -0.756  -0.753  -0.749  -0.711  -0.707  -0.706
 -0.704  -0.702  -0.698  -0.697  -0.696  -0.694  -0.690  -0.689
 -0.687  -0.658  -0.658  -0.657  -0.657  -0.655  -0.652  -0.645
 -0.645  -0.644  -0.643  -0.641  -0.640  -0.618  -0.615  -0.613
 -0.612  -0.611  -0.610  -0.609  -0.607  -0.604  -0.596  -0.593
 -0.588  -0.533  -0.531  -0.528  -0.528  -0.527  -0.526  -0.525
 -0.525  -0.524  -0.524  -0.523  -0.521  -0.521  -0.519  -0.519
 -0.518  -0.517  -0.517  -0.516  -0.515  -0.514  -0.510  -0.510
 -0.506  -0.503  -0.502  -0.500  -0.499  -0.499  -0.498  -0.495
 -0.492  -0.490  -0.490  -0.489  -0.487  -0.486  -0.484  -0.483
 -0.483  -0.481  -0.481  -0.480  -0.479  -0.478  -0.477  -0.476
 -0.473  -0.473  -0.472  -0.471  -0.470  -0.470  -0.468  -0.468
 -0.467  -0.466  -0.463  -0.461  -0.459  -0.457  -0.456  -0.455
 -0.452  -0.449  -0.445  -0.442  -0.442  -0.439  -0.438  -0.437
 -0.435  -0.433  -0.427  -0.427  -0.426  -0.423  -0.422  -0.422
 -0.421  -0.419  -0.418  -0.416  -0.415  -0.412  -0.411  -0.410
 -0.410  -0.407  -0.406  -0.404  -0.401  -0.401  -0.400  -0.398
 -0.394  -0.391  -0.389  -0.388  -0.387  -0.385  -0.383  -0.382
 -0.380  -0.379  -0.378  -0.375  -0.369  -0.358  -0.353  -0.352
 -0.349  -0.348  -0.347  -0.345  -0.344  -0.343  -0.342  -0.341
 -0.339  -0.339  -0.336  -0.336  -0.335  -0.332  -0.332  -0.329
 -0.328  -0.326  -0.323  -0.323  -0.316  -0.301  -0.298  -0.291
 -0.290  -0.289  -0.286  -0.285  -0.285  -0.284  -0.282  -0.281
 -0.280  -0.279  -0.278  -0.276  -0.275  -0.274  -0.271  -0.269
 -0.268  -0.267  -0.265  -0.262  -0.261
 -- Virtual --
 -0.092  -0.085  -0.082  -0.079  -0.075  -0.071  -0.069  -0.068
 -0.066  -0.065  -0.063  -0.061  -0.059  -0.059  -0.057  -0.056
 -0.054  -0.053  -0.051  -0.050  -0.048  -0.047  -0.046  -0.046
 -0.044  -0.044  -0.042  -0.039  -0.039  -0.037  -0.036  -0.036
 -0.033  -0.033  -0.032  -0.030  -0.029  -0.029  -0.027  -0.026
 -0.025  -0.024  -0.023  -0.022  -0.020  -0.020  -0.018  -0.016
 -0.015  -0.015  -0.014  -0.012  -0.011  -0.009  -0.009  -0.006
 -0.006  -0.005  -0.004  -0.003  -0.002   0.000   0.000   0.001
  0.001   0.003   0.004   0.004   0.006   0.007   0.008   0.008
  0.009   0.010   0.012   0.013   0.013   0.015   0.016   0.018
  0.018   0.019   0.020   0.021   0.022   0.023   0.023   0.024
  0.025   0.027   0.027   0.029   0.030   0.031   0.032   0.034
  0.034   0.035   0.036   0.038   0.039   0.041   0.041   0.042
  0.043   0.045   0.046   0.047   0.048   0.049   0.049   0.052
  0.053   0.053   0.055   0.056   0.057   0.058   0.060   0.061
  0.062   0.062   0.063   0.065   0.065   0.066   0.068   0.068
  0.069   0.070   0.071   0.073   0.075   0.076   0.077   0.078
  0.079   0.080   0.080   0.082   0.084   0.084   0.086   0.088
  0.088   0.089   0.091   0.091   0.092   0.094   0.095   0.097
  0.099   0.101   0.101   0.103   0.104   0.104   0.105   0.106
  0.107   0.108   0.108   0.109   0.110   0.110   0.111   0.113
  0.113   0.114   0.115   0.115   0.117   0.119   0.119   0.120
  0.121   0.121   0.122   0.123   0.124   0.125   0.126   0.127
  0.127   0.128   0.129   0.130   0.130   0.132   0.132   0.134
  0.135   0.135   0.137   0.137   0.138   0.139   0.140   0.140
  0.141   0.141   0.143   0.144   0.145   0.145   0.147   0.148
  0.149   0.149   0.150   0.151   0.151   0.152   0.153   0.154
  0.154   0.155   0.155   0.156   0.158   0.159   0.160   0.161
  0.162   0.162   0.163   0.163   0.165   0.166   0.166   0.167
  0.168   0.168   0.170   0.172   0.172   0.173   0.173   0.174
  0.176   0.177   0.178   0.179   0.179   0.180   0.180   0.181
  0.182   0.183   0.184   0.186   0.187   0.188   0.190   0.190
  0.191   0.192   0.193   0.195   0.195   0.196   0.196   0.197
  0.198   0.200   0.200   0.202   0.203   0.204   0.205   0.206
  0.206   0.208   0.209   0.210   0.210   0.211   0.212   0.213
  0.215   0.215   0.216   0.217   0.219   0.220   0.220   0.221
  0.223   0.224   0.226   0.226   0.228   0.229   0.230   0.232
  0.234   0.235   0.235   0.237   0.237   0.237   0.239   0.241
  0.242   0.243   0.244   0.244   0.247   0.247   0.248   0.250
  0.251   0.253   0.254   0.256   0.256   0.257   0.259   0.261
  0.262   0.264   0.266   0.267   0.268   0.270   0.271   0.273
  0.274   0.275   0.277   0.278   0.280   0.282   0.283   0.284
  0.285   0.286   0.288   0.288   0.290   0.290   0.292   0.293
  0.294   0.296   0.298   0.299   0.299   0.301   0.302   0.305
  0.306   0.307   0.309   0.310   0.312   0.313   0.314   0.317
  0.318   0.320   0.322   0.324   0.324   0.326   0.327   0.329
  0.330   0.333   0.335   0.337   0.339   0.341   0.342   0.342
  0.344   0.346   0.347   0.348   0.351   0.353   0.355   0.357
  0.358   0.359   0.361   0.362   0.363   0.364   0.365   0.367
  0.369   0.370   0.371   0.374   0.375   0.379   0.380   0.381
  0.382   0.384   0.385   0.387   0.389   0.391   0.394   0.397
  0.398   0.400   0.401   0.403   0.407   0.407   0.412   0.413
  0.415   0.417   0.418   0.421   0.423   0.424   0.426   0.427
  0.428   0.434   0.436   0.438   0.440   0.441   0.445   0.448
  0.449   0.454   0.457   0.460   0.461   0.462   0.466   0.470
  0.472   0.474   0.476   0.478   0.484   0.486   0.489   0.492
  0.497   0.499   0.502   0.502   0.507   0.508   0.515   0.518
  0.524   0.527   0.529   0.533   0.540   0.542   0.550   0.553
  0.555   0.564   0.570   0.576   0.580   0.591   0.596   0.605
  0.610   0.618   0.628   0.653   0.667   0.688   0.714   0.722
  0.723   0.731   0.734   0.738   0.742   0.743   0.749   0.753
  0.757   0.761   0.762   0.764   0.769   0.770   0.773   0.775
  0.777   0.780   0.782   0.785   0.790   0.793   0.795   0.797
  0.799   0.800   0.804   0.806   0.807   0.808   0.813   0.816
  0.817   0.820   0.821   0.824   0.827   0.832   0.832   0.833
  0.837   0.840   0.840   0.842   0.843   0.847   0.851   0.853
  0.854   0.855   0.859   0.860   0.862   0.864   0.867   0.869
  0.870   0.874   0.876   0.880   0.882   0.885   0.886   0.889
  0.892   0.895   0.896   0.899   0.900   0.902   0.904   0.904
  0.907   0.909   0.915   0.918   0.919   0.922   0.927   0.929
  0.931   0.933   0.938   0.940   0.942   0.945   0.948   0.952
  0.954   0.955   0.958   0.960   0.963   0.965   0.969   0.971
  0.973   0.977   0.981   0.984   0.985   0.987   0.990   0.992
  0.995   0.997   1.000   1.004   1.008   1.010   1.013   1.016
  1.020   1.022   1.027   1.027   1.030   1.032   1.034   1.037
  1.039   1.043   1.045   1.047   1.049   1.051   1.056   1.058
  1.063   1.066   1.066   1.067   1.069   1.071   1.074   1.076
  1.080   1.084   1.088   1.090   1.091   1.093   1.098   1.098
  1.103   1.106   1.110   1.112   1.113   1.115   1.116   1.118
  1.120   1.123   1.127   1.129   1.130   1.133   1.136   1.138
  1.139   1.144   1.146   1.148   1.153   1.155   1.157   1.160
  1.161   1.166   1.166   1.167   1.170   1.173   1.177   1.179
  1.181   1.184   1.187   1.189   1.189   1.194   1.196   1.198
  1.201   1.205   1.207   1.209   1.212   1.213   1.218   1.220
  1.223   1.224   1.229   1.231   1.233   1.236   1.237   1.240
  1.244   1.244   1.252   1.253   1.254   1.262   1.265   1.269
  1.273   1.276   1.280   1.281   1.288   1.291   1.292   1.296
  1.302   1.305   1.308   1.314   1.317   1.322   1.326   1.330
  1.338   1.343   1.344   1.348   1.357   1.358   1.363   1.365
  1.366   1.375   1.379   1.384   1.388   1.394   1.400   1.405
  1.409   1.415   1.429   1.431   1.436   1.437   1.453   1.458
  1.464   1.468   1.479   1.486   1.490   1.499   1.512   1.528
  1.534   1.542   1.557   1.565   1.568   1.597   1.603   1.658
  1.668   1.680   1.686   1.688   1.695   1.700   1.704   1.707
  1.708   1.709   1.719   1.723   1.733   1.734   1.737   1.746
  1.751   1.757   1.764   1.767   1.773   1.781   1.783   1.790
  1.796   1.797   1.802   1.808   1.811   1.815   1.818   1.821
  1.822   1.829   1.830   1.832   1.841   1.842   1.844   1.852
  1.854   1.859   1.864   1.866   1.869   1.873   1.873   1.876
  1.884   1.887   1.892   1.894   1.905   1.907   1.917   1.929
  1.934   1.944   1.952   1.959   1.961   1.966   1.968   1.972
  1.985   1.989   1.993   2.000   2.007   2.023   2.024   2.026
  2.032   2.040   2.042   2.048   2.053   2.056   2.059   2.061
  2.075   2.079   2.084   2.094   2.096   2.099   2.107   2.124
  2.129   2.137   2.145   2.159   2.162   2.176   2.176   2.188
  2.191   2.204   2.212   2.215   2.221   2.241   2.253   2.259
  2.275   2.295   2.299   2.316   2.324   2.335   2.341   2.360
  2.382   2.391   2.407   2.419   2.464   2.497   2.558   2.620
  3.137   3.149   3.168   3.177   3.181   3.187   3.191   3.195
  3.209   3.217   3.236   3.239   3.256   3.263   3.284   3.310
  3.323   3.329   3.346   3.357   3.404   3.467   3.490   3.510
 --------------------------------------------------------------
 
          Ground-State Mulliken Net Atomic Charges

     Atom                 Charge (a.u.)
  ----------------------------------------
      1 C                    -0.918710
      2 O                     1.727232
      3 C                    -2.803142
      4 C                    -2.504968
      5 O                     1.830303
      6 C                    -0.762285
      7 H                     0.337913
      8 H                     0.277998
      9 H                     0.279030
     10 H                     0.307117
     11 H                     0.340273
     12 H                     0.324556
     13 H                     0.302895
     14 H                     0.290748
     15 H                     0.298194
     16 H                     0.284545
     17 Li                   -2.888030
     18 O                     1.022887
     19 O                     1.005079
     20 C                    -0.272544
     21 C                    -1.239666
     22 C                    -0.672768
     23 C                    -1.217450
     24 H                     0.299629
     25 H                     0.272177
     26 H                     0.254110
     27 H                     0.309910
     28 H                     0.322314
     29 H                     0.254474
     30 H                     0.235843
     31 H                     0.323147
     32 H                     0.248184
     33 H                     0.280178
     34 C                    -0.983490
     35 O                     0.429136
     36 C                    -0.556742
     37 C                    -0.707389
     38 O                     0.281594
     39 C                    -0.827147
     40 H                     0.275986
     41 H                     0.298414
     42 H                     0.242810
     43 H                     0.246624
     44 H                     0.283237
     45 H                     0.248355
     46 H                     0.243747
     47 H                     0.229166
     48 H                     0.316002
     49 H                     0.260126
     50 C                    -0.570674
     51 O                     0.473564
     52 C                    -0.994129
     53 C                    -0.960036
     54 O                     0.527195
     55 C                    -0.756041
     56 H                     0.252220
     57 H                     0.270823
     58 H                     0.239088
     59 H                     0.248064
     60 H                     0.304358
     61 H                     0.302728
     62 H                     0.257029
     63 H                     0.234893
     64 H                     0.312038
     65 H                     0.243304
     66 C                    -0.279042
     67 O                     1.291202
     68 C                    -3.130070
     69 C                    -1.647924
     70 O                     1.523682
     71 C                    -0.159815
     72 H                     0.293657
     73 H                     0.247015
     74 H                     0.305222
     75 H                     0.280363
     76 H                     0.306755
     77 H                     0.346611
     78 H                     0.330844
     79 H                     0.237221
     80 H                     0.296035
     81 H                     0.299169
     82 C                    -0.778574
     83 O                     0.341413
     84 C                    -0.432895
     85 C                    -1.093466
     86 O                     0.361099
     87 C                    -0.801122
     88 H                     0.295340
     89 H                     0.308867
     90 H                     0.228101
     91 H                     0.239995
     92 H                     0.259129
     93 H                     0.272953
     94 H                     0.247923
     95 H                     0.232289
     96 H                     0.315351
     97 H                     0.242213
     98 C                    -0.536974
     99 O                     0.343420
    100 C                    -0.823784
    101 C                    -0.889851
    102 O                     0.351260
    103 C                    -0.682575
    104 H                     0.248908
    105 H                     0.236575
    106 H                     0.238107
    107 H                     0.325217
    108 H                     0.245602
    109 H                     0.248736
    110 H                     0.271274
    111 H                     0.232232
    112 H                     0.275151
    113 H                     0.241511
    114 C                    -0.810568
    115 O                     0.586875
    116 C                    -0.931858
    117 C                    -0.046005
    118 O                     0.341118
    119 C                    -1.328491
    120 H                     0.272104
    121 H                     0.256200
    122 H                     0.237933
    123 H                     0.249765
    124 H                     0.269084
    125 H                     0.295980
    126 H                     0.242992
    127 H                     0.235296
    128 H                     0.303045
    129 H                     0.322445
    130 C                    -0.788773
    131 O                     0.623970
    132 C                    -1.446276
    133 C                    -0.778712
    134 O                     0.492460
    135 C                    -0.434340
    136 H                     0.282984
    137 H                     0.241498
    138 H                     0.246060
    139 H                     0.258636
    140 H                     0.254103
    141 H                     0.317609
    142 H                     0.295904
    143 H                     0.231489
    144 H                     0.255765
    145 H                     0.242452
    146 C                    -0.436044
    147 O                     0.587267
    148 C                    -0.635393
    149 C                    -1.936681
    150 O                     0.306083
    151 C                    -0.489062
    152 H                     0.243717
    153 H                     0.248365
    154 H                     0.245615
    155 H                     0.313302
    156 H                     0.306977
    157 H                     0.286388
    158 H                     0.266471
    159 H                     0.227471
    160 H                     0.239763
    161 H                     0.224650
    162 C                    -0.516692
    163 O                     0.310973
    164 C                    -0.268775
    165 C                    -1.972127
    166 O                     0.316118
    167 C                    -0.524040
    168 H                     0.253167
    169 H                     0.246847
    170 H                     0.223566
    171 H                     0.263313
    172 H                     0.344943
    173 H                     0.267611
    174 H                     0.240575
    175 H                     0.233329
    176 H                     0.256970
    177 H                     0.234160
    178 C                    -0.693320
    179 O                     0.371483
    180 C                    -0.705498
    181 C                    -0.875502
    182 O                     0.402423
    183 C                    -0.663393
    184 H                     0.267672
    185 H                     0.275810
    186 H                     0.228091
    187 H                     0.246798
    188 H                     0.282851
    189 H                     0.272720
    190 H                     0.246753
    191 H                     0.239217
    192 H                     0.255197
    193 H                     0.230752
  ----------------------------------------
  Sum of atomic charges =     1.000000

 -----------------------------------------------------------------
                    Cartesian Multipole Moments
 -----------------------------------------------------------------
    Charge (ESU x 10^10)
                 4.8032
    Dipole Moment (Debye)
         X      -0.2537      Y      -2.4171      Z       0.4666
       Tot       2.4748
    Quadrupole Moments (Debye-Ang)
        XX    -370.2208     XY      -4.4290     YY    -368.7107
        XZ     -10.1979     YZ     -11.3313     ZZ    -401.1486
    Octapole Moments (Debye-Ang^2)
       XXX     -66.4641    XXY      41.4049    XYY      34.5337
       YYY    -105.6183    XXZ     -30.6964    XYZ      -7.3720
       YYZ      60.5702    XZZ      67.4002    YZZ    -106.4280
       ZZZ       6.9437
    Hexadecapole Moments (Debye-Ang^3)
      XXXX  -32645.0166   XXXY     150.2520   XXYY   -9468.3428
      XYYY    -317.9090   YYYY  -24200.8728   XXXZ    -245.6843
      XXYZ     -66.6126   XYYZ      51.0518   YYYZ    -307.1233
      XXZZ   -8707.3942   XYZZ      25.8015   YYZZ   -6941.9022
      XZZZ     -22.0977   YZZZ    -173.4465   ZZZZ  -20781.0065
 -----------------------------------------------------------------

 Begin NBO analysis for the ground state 


 *********************************** NBO 5.0 ***********************************
             N A T U R A L   A T O M I C   O R B I T A L   A N D
          N A T U R A L   B O N D   O R B I T A L   A N A L Y S I S
 *******************************************************************************
  (c) Copyright 1996-2002 Board of Regents of the University of Wisconsin System
      on behalf of the Theoretical Chemistry Institute.  All Rights Reserved.

          Cite this program as:

          NBO 5.0.  E. D. Glendening, J. K. Badenhoop, A. E. Reed,
          J. E. Carpenter, J. A. Bohmann, C. M. Morales, and F. Weinhold
          (Theoretical Chemistry Institute, University of Wisconsin,
          Madison, WI, 2001); http://www.chem.wisc.edu/~nbo5

       /PRINT  / : Print level set to  1
  This is a closed-shell NBO calculation

 Job title: Starting NBO analysis.                                          

 Storage needed:     7073445 in NPA,     5695713 in NBO (    11766523 available)


 NATURAL POPULATIONS:  Natural atomic orbital occupancies 
                                                          
  NAO Atom No lang   Type(AO)    Occupancy      Energy    
 ---------------------------------------------------------
   1    C  1  s      Cor( 1s)     1.99856      -9.83067
   2    C  1  s      Val( 2s)     1.09466      -0.30764
   3    C  1  s      Ryd( 3s)     0.00214       1.26112
   4    C  1  s      Ryd( 4s)     0.00069       1.51316
   5    C  1  px     Val( 2p)     0.98859      -0.13703
   6    C  1  px     Ryd( 3p)     0.00314       0.69639
   7    C  1  px     Ryd( 4p)     0.00111       0.99427
   8    C  1  py     Val( 2p)     1.25428      -0.14673
   9    C  1  py     Ryd( 3p)     0.00208       0.71299
  10    C  1  py     Ryd( 4p)     0.00115       0.91718
  11    C  1  pz     Val( 2p)     0.98927      -0.13439
  12    C  1  pz     Ryd( 3p)     0.00204       0.64930
  13    C  1  pz     Ryd( 4p)     0.00145       0.75775
 
  14    O  2  s      Cor( 1s)     1.99969     -18.53480
  15    O  2  s      Val( 2s)     1.62538      -0.90484
  16    O  2  s      Ryd( 3s)     0.00488       1.09440
  17    O  2  s      Ryd( 4s)     0.00009       3.28466
  18    O  2  px     Val( 2p)     1.71933      -0.32638
  19    O  2  px     Ryd( 3p)     0.00832       0.76247
  20    O  2  px     Ryd( 4p)     0.00031       1.88235
  21    O  2  py     Val( 2p)     1.54207      -0.33279
  22    O  2  py     Ryd( 3p)     0.00727       0.61526
  23    O  2  py     Ryd( 4p)     0.00030       1.89175
  24    O  2  pz     Val( 2p)     1.69330      -0.31866
  25    O  2  pz     Ryd( 3p)     0.00914       0.69817
  26    O  2  pz     Ryd( 4p)     0.00032       1.83949
 
  27    C  3  s      Cor( 1s)     1.99845      -9.82528
  28    C  3  s      Val( 2s)     1.03951      -0.30715
  29    C  3  s      Ryd( 4s)     0.00205       1.56751
  30    C  3  s      Ryd( 3s)     0.00092       1.31440
  31    C  3  px     Val( 2p)     1.17204      -0.14717
  32    C  3  px     Ryd( 3p)     0.00465       0.78140
  33    C  3  px     Ryd( 4p)     0.00143       0.79107
  34    C  3  py     Val( 2p)     0.76700      -0.12973
  35    C  3  py     Ryd( 3p)     0.00540       0.67540
  36    C  3  py     Ryd( 4p)     0.00222       1.00280
  37    C  3  pz     Val( 2p)     1.15930      -0.14527
  38    C  3  pz     Ryd( 3p)     0.00409       0.70991
  39    C  3  pz     Ryd( 4p)     0.00208       0.98153
 
  40    C  4  s      Cor( 1s)     1.99842      -9.83010
  41    C  4  s      Val( 2s)     1.04512      -0.31232
  42    C  4  s      Ryd( 4s)     0.00267       1.63855
  43    C  4  s      Ryd( 3s)     0.00096       1.28266
  44    C  4  px     Val( 2p)     0.82162      -0.14472
  45    C  4  px     Ryd( 3p)     0.00387       0.71087
  46    C  4  px     Ryd( 4p)     0.00192       1.03001
  47    C  4  py     Val( 2p)     1.12046      -0.14596
  48    C  4  py     Ryd( 3p)     0.00363       0.67363
  49    C  4  py     Ryd( 4p)     0.00169       1.00672
  50    C  4  pz     Val( 2p)     1.17348      -0.14555
  51    C  4  pz     Ryd( 3p)     0.00196       0.56885
  52    C  4  pz     Ryd( 4p)     0.00171       1.02710
 
  53    O  5  s      Cor( 1s)     1.99969     -18.53088
  54    O  5  s      Val( 2s)     1.63154      -0.90217
  55    O  5  s      Ryd( 3s)     0.00562       1.01093
  56    O  5  s      Ryd( 4s)     0.00009       3.32404
  57    O  5  px     Val( 2p)     1.36086      -0.32216
  58    O  5  px     Ryd( 3p)     0.00859       0.83663
  59    O  5  px     Ryd( 4p)     0.00023       1.89427
  60    O  5  py     Val( 2p)     1.77962      -0.32767
  61    O  5  py     Ryd( 3p)     0.00863       0.71876
  62    O  5  py     Ryd( 4p)     0.00037       1.84932
  63    O  5  pz     Val( 2p)     1.81312      -0.31194
  64    O  5  pz     Ryd( 3p)     0.00946       0.61694
  65    O  5  pz     Ryd( 4p)     0.00036       1.82221
 
  66    C  6  s      Cor( 1s)     1.99856      -9.82038
  67    C  6  s      Val( 2s)     1.09521      -0.29698
  68    C  6  s      Ryd( 4s)     0.00205       1.39743
  69    C  6  s      Ryd( 3s)     0.00091       1.38777
  70    C  6  px     Val( 2p)     0.90454      -0.13172
  71    C  6  px     Ryd( 3p)     0.00333       0.71341
  72    C  6  px     Ryd( 4p)     0.00124       0.85329
  73    C  6  py     Val( 2p)     1.18487      -0.12484
  74    C  6  py     Ryd( 3p)     0.00173       0.65067
  75    C  6  py     Ryd( 4p)     0.00136       0.96860
  76    C  6  pz     Val( 2p)     1.13831      -0.12344
  77    C  6  pz     Ryd( 3p)     0.00176       0.61218
  78    C  6  pz     Ryd( 4p)     0.00185       0.93287
 
  79    H  7  s      Val( 1s)     0.75104       0.01823
  80    H  7  s      Ryd( 2s)     0.00225       1.13115
 
  81    H  8  s      Val( 1s)     0.79774      -0.00581
  82    H  8  s      Ryd( 2s)     0.00284       1.13203
 
  83    H  9  s      Val( 1s)     0.80388      -0.00932
  84    H  9  s      Ryd( 2s)     0.00287       1.10709
 
  85    H 10  s      Val( 1s)     0.76152       0.00037
  86    H 10  s      Ryd( 2s)     0.00228       1.15533
 
  87    H 11  s      Val( 1s)     0.75718       0.00257
  88    H 11  s      Ryd( 2s)     0.00300       1.14901
 
  89    H 12  s      Val( 1s)     0.77783      -0.00622
  90    H 12  s      Ryd( 2s)     0.00232       1.14597
 
  91    H 13  s      Val( 1s)     0.76695      -0.00493
  92    H 13  s      Ryd( 2s)     0.00255       1.12404
 
  93    H 14  s      Val( 1s)     0.79190       0.01166
  94    H 14  s      Ryd( 2s)     0.00366       1.13239
 
  95    H 15  s      Val( 1s)     0.76667       0.01951
  96    H 15  s      Ryd( 2s)     0.00154       1.12768
 
  97    H 16  s      Val( 1s)     0.79230       0.00985
  98    H 16  s      Ryd( 2s)     0.00279       1.16947
 
  99   Li 17  s      Cor( 1s)     1.99863      -1.86117
 100   Li 17  s      Ryd( 3s)     0.11847       0.24134
 101   Li 17  s      Val( 2s)     0.00052       0.10865
 102   Li 17  s      Ryd( 4s)     0.00040       1.02186
 103   Li 17  px     Ryd( 3p)     0.00545       0.57489
 104   Li 17  px     Ryd( 4p)     0.00177       0.62696
 105   Li 17  px     Ryd( 2p)     0.00032       0.21490
 106   Li 17  py     Ryd( 4p)     0.00561       0.59372
 107   Li 17  py     Ryd( 3p)     0.00191       0.59278
 108   Li 17  py     Ryd( 2p)     0.00031       0.16940
 109   Li 17  pz     Ryd( 3p)     0.00502       0.56145
 110   Li 17  pz     Ryd( 4p)     0.00161       0.65449
 111   Li 17  pz     Ryd( 2p)     0.00032       0.22440
 
 112    O 18  s      Cor( 1s)     1.99967     -18.54794
 113    O 18  s      Val( 2s)     1.63552      -0.92223
 114    O 18  s      Ryd( 3s)     0.00554       1.07357
 115    O 18  s      Ryd( 4s)     0.00010       3.14503
 116    O 18  px     Val( 2p)     1.68460      -0.33192
 117    O 18  px     Ryd( 3p)     0.00791       0.57731
 118    O 18  px     Ryd( 4p)     0.00031       1.77567
 119    O 18  py     Val( 2p)     1.51787      -0.33415
 120    O 18  py     Ryd( 3p)     0.00847       0.67523
 121    O 18  py     Ryd( 4p)     0.00021       1.84506
 122    O 18  pz     Val( 2p)     1.72834      -0.34706
 123    O 18  pz     Ryd( 3p)     0.00769       0.64409
 124    O 18  pz     Ryd( 4p)     0.00032       1.76390
 
 125    O 19  s      Cor( 1s)     1.99967     -18.54927
 126    O 19  s      Val( 2s)     1.63359      -0.92200
 127    O 19  s      Ryd( 3s)     0.00641       0.93673
 128    O 19  s      Ryd( 4s)     0.00009       3.13513
 129    O 19  px     Val( 2p)     1.85391      -0.32246
 130    O 19  px     Ryd( 3p)     0.01013       0.55126
 131    O 19  px     Ryd( 4p)     0.00026       1.76340
 132    O 19  py     Val( 2p)     1.68412      -0.35217
 133    O 19  py     Ryd( 3p)     0.00655       0.66987
 134    O 19  py     Ryd( 4p)     0.00032       1.76510
 135    O 19  pz     Val( 2p)     1.39205      -0.33945
 136    O 19  pz     Ryd( 3p)     0.00830       0.72432
 137    O 19  pz     Ryd( 4p)     0.00022       1.84112
 
 138    C 20  s      Cor( 1s)     1.99848      -9.85531
 139    C 20  s      Val( 2s)     1.04320      -0.33801
 140    C 20  s      Ryd( 4s)     0.00271       1.57058
 141    C 20  s      Ryd( 3s)     0.00033       0.88479
 142    C 20  px     Val( 2p)     0.99061      -0.16011
 143    C 20  px     Ryd( 4p)     0.00235       0.78884
 144    C 20  px     Ryd( 3p)     0.00078       0.43825
 145    C 20  py     Val( 2p)     0.94171      -0.16760
 146    C 20  py     Ryd( 4p)     0.00169       0.78627
 147    C 20  py     Ryd( 3p)     0.00060       0.40486
 148    C 20  pz     Val( 2p)     1.16174      -0.17285
 149    C 20  pz     Ryd( 4p)     0.00259       0.81128
 150    C 20  pz     Ryd( 3p)     0.00108       0.25939
 
 151    C 21  s      Cor( 1s)     1.99854      -9.85660
 152    C 21  s      Val( 2s)     1.04582      -0.33773
 153    C 21  s      Ryd( 4s)     0.00268       1.67703
 154    C 21  s      Ryd( 3s)     0.00044       0.81289
 155    C 21  px     Val( 2p)     1.18464      -0.16501
 156    C 21  px     Ryd( 4p)     0.00251       0.83150
 157    C 21  px     Ryd( 3p)     0.00095       0.44706
 158    C 21  py     Val( 2p)     1.08985      -0.16725
 159    C 21  py     Ryd( 4p)     0.00335       0.76416
 160    C 21  py     Ryd( 3p)     0.00094       0.33957
 161    C 21  pz     Val( 2p)     0.80474      -0.16281
 162    C 21  pz     Ryd( 4p)     0.00313       0.79121
 163    C 21  pz     Ryd( 3p)     0.00100       0.59992
 
 164    C 22  s      Cor( 1s)     1.99865      -9.85112
 165    C 22  s      Val( 2s)     1.09738      -0.32761
 166    C 22  s      Ryd( 4s)     0.00209       1.31042
 167    C 22  s      Ryd( 3s)     0.00031       1.07461
 168    C 22  px     Val( 2p)     1.21981      -0.15352
 169    C 22  px     Ryd( 4p)     0.00142       0.80519
 170    C 22  px     Ryd( 3p)     0.00069       0.37751
 171    C 22  py     Val( 2p)     1.03324      -0.14877
 172    C 22  py     Ryd( 4p)     0.00282       0.75050
 173    C 22  py     Ryd( 3p)     0.00073       0.21436
 174    C 22  pz     Val( 2p)     0.96741      -0.15897
 175    C 22  pz     Ryd( 4p)     0.00186       0.79859
 176    C 22  pz     Ryd( 3p)     0.00071       0.39559
 
 177    C 23  s      Cor( 1s)     1.99864      -9.84320
 178    C 23  s      Val( 2s)     1.09937      -0.32094
 179    C 23  s      Ryd( 4s)     0.00192       1.44167
 180    C 23  s      Ryd( 3s)     0.00047       1.04744
 181    C 23  px     Val( 2p)     1.25725      -0.15181
 182    C 23  px     Ryd( 4p)     0.00130       0.77165
 183    C 23  px     Ryd( 3p)     0.00101       0.53263
 184    C 23  py     Val( 2p)     0.94921      -0.14731
 185    C 23  py     Ryd( 4p)     0.00292       0.82020
 186    C 23  py     Ryd( 3p)     0.00076       0.55520
 187    C 23  pz     Val( 2p)     1.01681      -0.14341
 188    C 23  pz     Ryd( 4p)     0.00314       0.77978
 189    C 23  pz     Ryd( 3p)     0.00078       0.24606
 
 190    H 24  s      Val( 1s)     0.78153      -0.03126
 191    H 24  s      Ryd( 2s)     0.00245       0.98889
 
 192    H 25  s      Val( 1s)     0.77373      -0.03296
 193    H 25  s      Ryd( 2s)     0.00244       0.96389
 
 194    H 26  s      Val( 1s)     0.78574      -0.03813
 195    H 26  s      Ryd( 2s)     0.00196       0.90774
 
 196    H 27  s      Val( 1s)     0.77007      -0.02105
 197    H 27  s      Ryd( 2s)     0.00234       0.99801
 
 198    H 28  s      Val( 1s)     0.74677       0.01235
 199    H 28  s      Ryd( 2s)     0.00253       1.08256
 
 200    H 29  s      Val( 1s)     0.79676      -0.02314
 201    H 29  s      Ryd( 2s)     0.00226       0.87230
 
 202    H 30  s      Val( 1s)     0.81126      -0.03140
 203    H 30  s      Ryd( 2s)     0.00243       0.91439
 
 204    H 31  s      Val( 1s)     0.74774       0.01585
 205    H 31  s      Ryd( 2s)     0.00282       1.13791
 
 206    H 32  s      Val( 1s)     0.80081      -0.02143
 207    H 32  s      Ryd( 2s)     0.00210       0.90699
 
 208    H 33  s      Val( 1s)     0.79513      -0.00903
 209    H 33  s      Ryd( 2s)     0.00213       1.02415
 
 210    C 34  s      Cor( 1s)     1.99872      -9.84205
 211    C 34  s      Val( 2s)     1.10452      -0.32332
 212    C 34  s      Ryd( 4s)     0.00176       1.52942
 213    C 34  s      Ryd( 3s)     0.00044       0.76876
 214    C 34  px     Val( 2p)     1.06611      -0.14470
 215    C 34  px     Ryd( 4p)     0.00168       0.73124
 216    C 34  px     Ryd( 3p)     0.00092       0.24048
 217    C 34  py     Val( 2p)     0.93139      -0.14182
 218    C 34  py     Ryd( 4p)     0.00201       0.75970
 219    C 34  py     Ryd( 3p)     0.00049       0.32471
 220    C 34  pz     Val( 2p)     1.23805      -0.15307
 221    C 34  pz     Ryd( 4p)     0.00146       0.82745
 222    C 34  pz     Ryd( 3p)     0.00075       0.22273
 
 223    O 35  s      Cor( 1s)     1.99968     -18.53149
 224    O 35  s      Val( 2s)     1.64222      -0.90835
 225    O 35  s      Ryd( 3s)     0.00770       0.86816
 226    O 35  s      Ryd( 4s)     0.00007       3.06593
 227    O 35  px     Val( 2p)     1.74143      -0.30978
 228    O 35  px     Ryd( 3p)     0.00942       0.49435
 229    O 35  px     Ryd( 4p)     0.00023       1.72413
 230    O 35  py     Val( 2p)     1.63575      -0.31870
 231    O 35  py     Ryd( 3p)     0.00836       0.66682
 232    O 35  py     Ryd( 4p)     0.00026       1.70156
 233    O 35  pz     Val( 2p)     1.51035      -0.32725
 234    O 35  pz     Ryd( 3p)     0.00734       0.53265
 235    O 35  pz     Ryd( 4p)     0.00024       1.76526
 
 236    C 36  s      Cor( 1s)     1.99860      -9.85034
 237    C 36  s      Val( 2s)     1.04932      -0.33298
 238    C 36  s      Ryd( 4s)     0.00258       1.61735
 239    C 36  s      Ryd( 3s)     0.00025       0.65703
 240    C 36  px     Val( 2p)     1.17311      -0.16135
 241    C 36  px     Ryd( 4p)     0.00228       0.83115
 242    C 36  px     Ryd( 3p)     0.00084       0.26197
 243    C 36  py     Val( 2p)     1.11958      -0.16532
 244    C 36  py     Ryd( 4p)     0.00122       0.81148
 245    C 36  py     Ryd( 3p)     0.00054       0.26091
 246    C 36  pz     Val( 2p)     0.79460      -0.14857
 247    C 36  pz     Ryd( 4p)     0.00238       0.72593
 248    C 36  pz     Ryd( 3p)     0.00043       0.18957
 
 249    C 37  s      Cor( 1s)     1.99857      -9.84965
 250    C 37  s      Val( 2s)     1.04711      -0.33031
 251    C 37  s      Ryd( 4s)     0.00276       1.57981
 252    C 37  s      Ryd( 3s)     0.00041       0.71317
 253    C 37  px     Val( 2p)     0.76003      -0.15476
 254    C 37  px     Ryd( 4p)     0.00185       0.75937
 255    C 37  px     Ryd( 3p)     0.00056       0.24213
 256    C 37  py     Val( 2p)     1.09289      -0.16146
 257    C 37  py     Ryd( 4p)     0.00208       0.76453
 258    C 37  py     Ryd( 3p)     0.00079       0.17875
 259    C 37  pz     Val( 2p)     1.23318      -0.15774
 260    C 37  pz     Ryd( 4p)     0.00227       0.84817
 261    C 37  pz     Ryd( 3p)     0.00061       0.26004
 
 262    O 38  s      Cor( 1s)     1.99969     -18.52779
 263    O 38  s      Val( 2s)     1.64448      -0.90660
 264    O 38  s      Ryd( 3s)     0.00787       0.91792
 265    O 38  s      Ryd( 4s)     0.00008       3.02734
 266    O 38  px     Val( 2p)     1.35846      -0.32138
 267    O 38  px     Ryd( 3p)     0.00611       0.61566
 268    O 38  px     Ryd( 4p)     0.00018       1.74722
 269    O 38  py     Val( 2p)     1.63768      -0.32710
 270    O 38  py     Ryd( 3p)     0.00522       0.59381
 271    O 38  py     Ryd( 4p)     0.00039       1.67031
 272    O 38  pz     Val( 2p)     1.88904      -0.29814
 273    O 38  pz     Ryd( 3p)     0.00912       0.41580
 274    O 38  pz     Ryd( 4p)     0.00035       1.64090
 
 275    C 39  s      Cor( 1s)     1.99871      -9.83841
 276    C 39  s      Val( 2s)     1.10441      -0.32068
 277    C 39  s      Ryd( 4s)     0.00202       1.36328
 278    C 39  s      Ryd( 3s)     0.00037       0.81702
 279    C 39  px     Val( 2p)     1.04318      -0.15153
 280    C 39  px     Ryd( 4p)     0.00145       0.82316
 281    C 39  px     Ryd( 3p)     0.00057       0.29435
 282    C 39  py     Val( 2p)     0.98315      -0.13812
 283    C 39  py     Ryd( 4p)     0.00305       0.72222
 284    C 39  py     Ryd( 3p)     0.00056       0.20496
 285    C 39  pz     Val( 2p)     1.21794      -0.14364
 286    C 39  pz     Ryd( 4p)     0.00106       0.76137
 287    C 39  pz     Ryd( 3p)     0.00073       0.22932
 
 288    H 40  s      Val( 1s)     0.77199      -0.00769
 289    H 40  s      Ryd( 2s)     0.00106       0.94705
 
 290    H 41  s      Val( 1s)     0.77744       0.00363
 291    H 41  s      Ryd( 2s)     0.00272       1.00754
 
 292    H 42  s      Val( 1s)     0.80139      -0.02084
 293    H 42  s      Ryd( 2s)     0.00231       0.82968
 
 294    H 43  s      Val( 1s)     0.78778      -0.03253
 295    H 43  s      Ryd( 2s)     0.00246       0.82634
 
 296    H 44  s      Val( 1s)     0.77457      -0.02662
 297    H 44  s      Ryd( 2s)     0.00245       0.88722
 
 298    H 45  s      Val( 1s)     0.78870      -0.02508
 299    H 45  s      Ryd( 2s)     0.00255       0.97775
 
 300    H 46  s      Val( 1s)     0.78670      -0.03052
 301    H 46  s      Ryd( 2s)     0.00249       0.81764
 
 302    H 47  s      Val( 1s)     0.80182      -0.01829
 303    H 47  s      Ryd( 2s)     0.00232       0.81460
 
 304    H 48  s      Val( 1s)     0.75102       0.01712
 305    H 48  s      Ryd( 2s)     0.00190       1.04129
 
 306    H 49  s      Val( 1s)     0.79680      -0.01300
 307    H 49  s      Ryd( 2s)     0.00253       0.98199
 
 308    C 50  s      Cor( 1s)     1.99872      -9.85776
 309    C 50  s      Val( 2s)     1.10303      -0.33602
 310    C 50  s      Ryd( 4s)     0.00179       1.44909
 311    C 50  s      Ryd( 3s)     0.00027       0.75541
 312    C 50  px     Val( 2p)     1.15573      -0.15691
 313    C 50  px     Ryd( 4p)     0.00244       0.75832
 314    C 50  px     Ryd( 3p)     0.00050       0.21619
 315    C 50  py     Val( 2p)     1.00206      -0.16146
 316    C 50  py     Ryd( 4p)     0.00125       0.72873
 317    C 50  py     Ryd( 3p)     0.00043       0.24662
 318    C 50  pz     Val( 2p)     1.07461      -0.16073
 319    C 50  pz     Ryd( 4p)     0.00111       0.74461
 320    C 50  pz     Ryd( 3p)     0.00093       0.14724
 
 321    O 51  s      Cor( 1s)     1.99968     -18.54183
 322    O 51  s      Val( 2s)     1.64367      -0.91794
 323    O 51  s      Ryd( 3s)     0.00696       0.93708
 324    O 51  s      Ryd( 4s)     0.00005       3.03280
 325    O 51  px     Val( 2p)     1.65011      -0.33905
 326    O 51  px     Ryd( 3p)     0.00535       0.61532
 327    O 51  px     Ryd( 4p)     0.00038       1.72787
 328    O 51  py     Val( 2p)     1.58222      -0.32487
 329    O 51  py     Ryd( 3p)     0.00836       0.56075
 330    O 51  py     Ryd( 4p)     0.00020       1.72884
 331    O 51  pz     Val( 2p)     1.65211      -0.32019
 332    O 51  pz     Ryd( 3p)     0.00865       0.50424
 333    O 51  pz     Ryd( 4p)     0.00018       1.67270
 
 334    C 52  s      Cor( 1s)     1.99854      -9.85315
 335    C 52  s      Val( 2s)     1.05439      -0.33766
 336    C 52  s      Ryd( 4s)     0.00268       1.59630
 337    C 52  s      Ryd( 3s)     0.00065       0.81391
 338    C 52  px     Val( 2p)     1.00739      -0.16072
 339    C 52  px     Ryd( 4p)     0.00291       0.75899
 340    C 52  px     Ryd( 3p)     0.00070       0.21603
 341    C 52  py     Val( 2p)     1.00462      -0.16795
 342    C 52  py     Ryd( 4p)     0.00123       0.79818
 343    C 52  py     Ryd( 3p)     0.00088       0.31327
 344    C 52  pz     Val( 2p)     1.09114      -0.16568
 345    C 52  pz     Ryd( 4p)     0.00190       0.83726
 346    C 52  pz     Ryd( 3p)     0.00101       0.25683
 
 347    C 53  s      Cor( 1s)     1.99858      -9.85389
 348    C 53  s      Val( 2s)     1.04459      -0.33453
 349    C 53  s      Ryd( 4s)     0.00196       1.52245
 350    C 53  s      Ryd( 3s)     0.00042       0.81454
 351    C 53  px     Val( 2p)     1.20489      -0.16936
 352    C 53  px     Ryd( 4p)     0.00344       0.84403
 353    C 53  px     Ryd( 3p)     0.00069       0.27116
 354    C 53  py     Val( 2p)     1.14470      -0.16384
 355    C 53  py     Ryd( 4p)     0.00229       0.80017
 356    C 53  py     Ryd( 3p)     0.00120       0.16864
 357    C 53  pz     Val( 2p)     0.74928      -0.15507
 358    C 53  pz     Ryd( 4p)     0.00370       0.76166
 359    C 53  pz     Ryd( 3p)     0.00035       0.26716
 
 360    O 54  s      Cor( 1s)     1.99969     -18.53682
 361    O 54  s      Val( 2s)     1.63329      -0.91103
 362    O 54  s      Ryd( 3s)     0.00727       0.93444
 363    O 54  s      Ryd( 4s)     0.00005       3.11214
 364    O 54  px     Val( 2p)     1.66056      -0.33167
 365    O 54  px     Ryd( 3p)     0.00830       0.61289
 366    O 54  px     Ryd( 4p)     0.00031       1.76238
 367    O 54  py     Val( 2p)     1.85409      -0.31092
 368    O 54  py     Ryd( 3p)     0.01047       0.50050
 369    O 54  py     Ryd( 4p)     0.00017       1.65618
 370    O 54  pz     Val( 2p)     1.38258      -0.33213
 371    O 54  pz     Ryd( 3p)     0.00772       0.59190
 372    O 54  pz     Ryd( 4p)     0.00014       1.80099
 
 373    C 55  s      Cor( 1s)     1.99869      -9.85030
 374    C 55  s      Val( 2s)     1.10187      -0.33064
 375    C 55  s      Ryd( 4s)     0.00151       1.49098
 376    C 55  s      Ryd( 3s)     0.00022       0.75070
 377    C 55  px     Val( 2p)     0.95571      -0.14664
 378    C 55  px     Ryd( 4p)     0.00275       0.74834
 379    C 55  px     Ryd( 3p)     0.00040       0.20422
 380    C 55  py     Val( 2p)     1.17970      -0.15367
 381    C 55  py     Ryd( 4p)     0.00126       0.73256
 382    C 55  py     Ryd( 3p)     0.00092       0.26172
 383    C 55  pz     Val( 2p)     1.10217      -0.16408
 384    C 55  pz     Ryd( 4p)     0.00128       0.80490
 385    C 55  pz     Ryd( 3p)     0.00047       0.18831
 
 386    H 56  s      Val( 1s)     0.77314      -0.02096
 387    H 56  s      Ryd( 2s)     0.00131       0.84962
 
 388    H 57  s      Val( 1s)     0.79335      -0.02224
 389    H 57  s      Ryd( 2s)     0.00247       0.94117
 
 390    H 58  s      Val( 1s)     0.79157      -0.02578
 391    H 58  s      Ryd( 2s)     0.00243       0.79298
 
 392    H 59  s      Val( 1s)     0.78953      -0.03981
 393    H 59  s      Ryd( 2s)     0.00222       0.85179
 
 394    H 60  s      Val( 1s)     0.77294      -0.02545
 395    H 60  s      Ryd( 2s)     0.00298       1.02585
 
 396    H 61  s      Val( 1s)     0.74445      -0.01739
 397    H 61  s      Ryd( 2s)     0.00141       0.96470
 
 398    H 62  s      Val( 1s)     0.78811      -0.03813
 399    H 62  s      Ryd( 2s)     0.00212       0.84613
 
 400    H 63  s      Val( 1s)     0.80822      -0.03079
 401    H 63  s      Ryd( 2s)     0.00202       0.88240
 
 402    H 64  s      Val( 1s)     0.75128       0.00190
 403    H 64  s      Ryd( 2s)     0.00225       1.00594
 
 404    H 65  s      Val( 1s)     0.79841      -0.02637
 405    H 65  s      Ryd( 2s)     0.00230       0.81709
 
 406    C 66  s      Cor( 1s)     1.99862      -9.84569
 407    C 66  s      Val( 2s)     1.09787      -0.32194
 408    C 66  s      Ryd( 4s)     0.00191       1.35624
 409    C 66  s      Ryd( 3s)     0.00041       1.15928
 410    C 66  px     Val( 2p)     1.21812      -0.15778
 411    C 66  px     Ryd( 4p)     0.00187       0.79609
 412    C 66  px     Ryd( 3p)     0.00062       0.45343
 413    C 66  py     Val( 2p)     1.00938      -0.14547
 414    C 66  py     Ryd( 4p)     0.00202       0.78023
 415    C 66  py     Ryd( 3p)     0.00063       0.42061
 416    C 66  pz     Val( 2p)     1.00135      -0.14650
 417    C 66  pz     Ryd( 4p)     0.00226       0.75270
 418    C 66  pz     Ryd( 3p)     0.00100       0.22876
 
 419    O 67  s      Cor( 1s)     1.99968     -18.53947
 420    O 67  s      Val( 2s)     1.62874      -0.90834
 421    O 67  s      Ryd( 3s)     0.00552       0.99727
 422    O 67  s      Ryd( 4s)     0.00010       3.18629
 423    O 67  px     Val( 2p)     1.52735      -0.33098
 424    O 67  px     Ryd( 3p)     0.00731       0.66694
 425    O 67  px     Ryd( 4p)     0.00029       1.87751
 426    O 67  py     Val( 2p)     1.67943      -0.31942
 427    O 67  py     Ryd( 3p)     0.00897       0.63571
 428    O 67  py     Ryd( 4p)     0.00026       1.77349
 429    O 67  pz     Val( 2p)     1.72789      -0.33191
 430    O 67  pz     Ryd( 3p)     0.00818       0.56709
 431    O 67  pz     Ryd( 4p)     0.00023       1.79697
 
 432    C 68  s      Cor( 1s)     1.99847      -9.84098
 433    C 68  s      Val( 2s)     1.04134      -0.32223
 434    C 68  s      Ryd( 4s)     0.00223       1.66462
 435    C 68  s      Ryd( 3s)     0.00063       0.94545
 436    C 68  px     Val( 2p)     0.76038      -0.14520
 437    C 68  px     Ryd( 4p)     0.00561       0.74836
 438    C 68  px     Ryd( 3p)     0.00110       0.58477
 439    C 68  py     Val( 2p)     1.12367      -0.15765
 440    C 68  py     Ryd( 4p)     0.00284       0.78113
 441    C 68  py     Ryd( 3p)     0.00082       0.75954
 442    C 68  pz     Val( 2p)     1.21785      -0.16208
 443    C 68  pz     Ryd( 4p)     0.00407       0.85901
 444    C 68  pz     Ryd( 3p)     0.00083       0.36478
 
 445    C 69  s      Cor( 1s)     1.99842      -9.83313
 446    C 69  s      Val( 2s)     1.04362      -0.31720
 447    C 69  s      Ryd( 3s)     0.00279       1.35211
 448    C 69  s      Ryd( 4s)     0.00081       1.43392
 449    C 69  px     Val( 2p)     1.20086      -0.15520
 450    C 69  px     Ryd( 3p)     0.00407       0.78215
 451    C 69  px     Ryd( 4p)     0.00111       0.89088
 452    C 69  py     Val( 2p)     1.18922      -0.15586
 453    C 69  py     Ryd( 3p)     0.00351       0.74801
 454    C 69  py     Ryd( 4p)     0.00145       0.94636
 455    C 69  pz     Val( 2p)     0.72761      -0.14016
 456    C 69  pz     Ryd( 3p)     0.00510       0.73835
 457    C 69  pz     Ryd( 4p)     0.00168       0.92273
 
 458    O 70  s      Cor( 1s)     1.99968     -18.54118
 459    O 70  s      Val( 2s)     1.62646      -0.91043
 460    O 70  s      Ryd( 3s)     0.00557       1.03572
 461    O 70  s      Ryd( 4s)     0.00009       3.22738
 462    O 70  px     Val( 2p)     1.78824      -0.33329
 463    O 70  px     Ryd( 3p)     0.00940       0.66378
 464    O 70  px     Ryd( 4p)     0.00023       1.80068
 465    O 70  py     Val( 2p)     1.69078      -0.32517
 466    O 70  py     Ryd( 3p)     0.00956       0.71571
 467    O 70  py     Ryd( 4p)     0.00028       1.80695
 468    O 70  pz     Val( 2p)     1.46807      -0.33469
 469    O 70  pz     Ryd( 3p)     0.00784       0.66298
 470    O 70  pz     Ryd( 4p)     0.00025       1.88466
 
 471    C 71  s      Cor( 1s)     1.99860      -9.84603
 472    C 71  s      Val( 2s)     1.09546      -0.31969
 473    C 71  s      Ryd( 4s)     0.00197       1.39626
 474    C 71  s      Ryd( 3s)     0.00037       1.18495
 475    C 71  px     Val( 2p)     1.07896      -0.14815
 476    C 71  px     Ryd( 4p)     0.00173       0.74066
 477    C 71  px     Ryd( 3p)     0.00064       0.47295
 478    C 71  py     Val( 2p)     0.97574      -0.14347
 479    C 71  py     Ryd( 4p)     0.00234       0.70975
 480    C 71  py     Ryd( 3p)     0.00135       0.44795
 481    C 71  pz     Val( 2p)     1.16763      -0.15553
 482    C 71  pz     Ryd( 3p)     0.00201       0.78050
 483    C 71  pz     Ryd( 4p)     0.00063       0.79136
 
 484    H 72  s      Val( 1s)     0.76953      -0.00583
 485    H 72  s      Ryd( 2s)     0.00138       1.02384
 
 486    H 73  s      Val( 1s)     0.80421      -0.02547
 487    H 73  s      Ryd( 2s)     0.00231       0.88364
 
 488    H 74  s      Val( 1s)     0.77884       0.00247
 489    H 74  s      Ryd( 2s)     0.00245       1.05120
 
 490    H 75  s      Val( 1s)     0.77787      -0.02247
 491    H 75  s      Ryd( 2s)     0.00183       0.98136
 
 492    H 76  s      Val( 1s)     0.76316      -0.01376
 493    H 76  s      Ryd( 2s)     0.00166       1.03455
 
 494    H 77  s      Val( 1s)     0.74635      -0.00151
 495    H 77  s      Ryd( 2s)     0.00180       1.13947
 
 496    H 78  s      Val( 1s)     0.76200      -0.00605
 497    H 78  s      Ryd( 2s)     0.00277       1.11112
 
 498    H 79  s      Val( 1s)     0.81085      -0.02402
 499    H 79  s      Ryd( 2s)     0.00248       0.97960
 
 500    H 80  s      Val( 1s)     0.77113      -0.00231
 501    H 80  s      Ryd( 2s)     0.00150       1.03688
 
 502    H 81  s      Val( 1s)     0.77735      -0.00421
 503    H 81  s      Ryd( 2s)     0.00215       0.98268
 
 504    C 82  s      Cor( 1s)     1.99866      -9.83343
 505    C 82  s      Val( 2s)     1.10259      -0.31556
 506    C 82  s      Ryd( 4s)     0.00237       1.29563
 507    C 82  s      Ryd( 3s)     0.00039       0.97397
 508    C 82  px     Val( 2p)     1.05818      -0.14188
 509    C 82  px     Ryd( 4p)     0.00126       0.75691
 510    C 82  px     Ryd( 3p)     0.00101       0.17275
 511    C 82  py     Val( 2p)     1.09591      -0.14431
 512    C 82  py     Ryd( 4p)     0.00120       0.78601
 513    C 82  py     Ryd( 3p)     0.00083       0.27574
 514    C 82  pz     Val( 2p)     1.09323      -0.13717
 515    C 82  pz     Ryd( 4p)     0.00279       0.75416
 516    C 82  pz     Ryd( 3p)     0.00060       0.21872
 
 517    O 83  s      Cor( 1s)     1.99970     -18.52644
 518    O 83  s      Val( 2s)     1.64417      -0.90603
 519    O 83  s      Ryd( 3s)     0.00658       0.92459
 520    O 83  s      Ryd( 4s)     0.00006       2.99896
 521    O 83  px     Val( 2p)     1.64082      -0.30839
 522    O 83  px     Ryd( 3p)     0.00762       0.54654
 523    O 83  px     Ryd( 4p)     0.00018       1.70902
 524    O 83  py     Val( 2p)     1.58436      -0.31002
 525    O 83  py     Ryd( 3p)     0.00744       0.56986
 526    O 83  py     Ryd( 4p)     0.00021       1.73725
 527    O 83  pz     Val( 2p)     1.66533      -0.32646
 528    O 83  pz     Ryd( 3p)     0.00441       0.54473
 529    O 83  pz     Ryd( 4p)     0.00050       1.65680
 
 530    C 84  s      Cor( 1s)     1.99858      -9.84718
 531    C 84  s      Val( 2s)     1.04998      -0.32785
 532    C 84  s      Ryd( 4s)     0.00283       1.57328
 533    C 84  s      Ryd( 3s)     0.00045       0.70823
 534    C 84  px     Val( 2p)     1.04359      -0.15706
 535    C 84  px     Ryd( 4p)     0.00220       0.81584
 536    C 84  px     Ryd( 3p)     0.00061       0.25785
 537    C 84  py     Val( 2p)     0.97640      -0.15571
 538    C 84  py     Ryd( 4p)     0.00172       0.79361
 539    C 84  py     Ryd( 3p)     0.00065       0.22806
 540    C 84  pz     Val( 2p)     1.06550      -0.15536
 541    C 84  pz     Ryd( 4p)     0.00234       0.74982
 542    C 84  pz     Ryd( 3p)     0.00068       0.18234
 
 543    C 85  s      Cor( 1s)     1.99863      -9.84932
 544    C 85  s      Val( 2s)     1.05292      -0.33353
 545    C 85  s      Ryd( 4s)     0.00286       1.59982
 546    C 85  s      Ryd( 3s)     0.00039       0.64352
 547    C 85  px     Val( 2p)     0.77231      -0.15731
 548    C 85  px     Ryd( 4p)     0.00209       0.76729
 549    C 85  px     Ryd( 3p)     0.00049       0.27107
 550    C 85  py     Val( 2p)     1.19670      -0.15787
 551    C 85  py     Ryd( 4p)     0.00248       0.80738
 552    C 85  py     Ryd( 3p)     0.00080       0.24965
 553    C 85  pz     Val( 2p)     1.11677      -0.16052
 554    C 85  pz     Ryd( 4p)     0.00188       0.76330
 555    C 85  pz     Ryd( 3p)     0.00070       0.16821
 
 556    O 86  s      Cor( 1s)     1.99970     -18.53054
 557    O 86  s      Val( 2s)     1.64661      -0.91151
 558    O 86  s      Ryd( 3s)     0.00576       0.98808
[...]
               ( 39.03%)   0.6248* C164 s( 26.32%)p 2.80( 73.68%)
                                         0.0002  0.5127 -0.0170 -0.0030  0.1635
                                        -0.0099  0.0037 -0.3670  0.0139 -0.0102
                                        -0.7582 -0.0043 -0.0008
               ( 60.97%)  -0.7808* H171 s(100.00%)
                                         1.0000  0.0079
1167. (0.02553) BD*( 1) C164- H172       
               ( 37.10%)   0.6091* C164 s( 25.80%)p 2.88( 74.20%)
                                        -0.0001 -0.5079 -0.0006  0.0091  0.4832
                                        -0.0234 -0.0031 -0.7051  0.0115  0.0038
                                         0.1025  0.0062 -0.0055
               ( 62.90%)  -0.7931* H172 s(100.00%)
                                        -1.0000 -0.0067
1168. (0.02053) BD*( 1) C165- O166       
               ( 67.05%)   0.8189* C165 s( 20.23%)p 3.94( 79.77%)
                                        -0.0001 -0.4486 -0.0315  0.0044  0.8041
                                         0.0190 -0.0140  0.1826 -0.0054 -0.0031
                                         0.3417  0.0221 -0.0062
               ( 32.95%)  -0.5740* O166 s( 26.01%)p 2.84( 73.99%)
                                        -0.0000 -0.5094  0.0254  0.0002 -0.7617
                                         0.0299  0.0062 -0.1232  0.0159 -0.0005
                                        -0.3785 -0.0002  0.0062
1169. (0.03118) BD*( 1) C165- H173       
               ( 38.46%)   0.6201* C165 s( 26.48%)p 2.78( 73.52%)
                                        -0.0002 -0.5144  0.0140 -0.0011  0.1220
                                        -0.0062  0.0076 -0.3563  0.0061 -0.0000
                                        -0.7702 -0.0012 -0.0103
               ( 61.54%)  -0.7845* H173 s(100.00%)
                                        -1.0000 -0.0081
1170. (0.03144) BD*( 1) C165- H174       
               ( 38.97%)   0.6243* C165 s( 26.22%)p 2.81( 73.78%)
                                        -0.0002 -0.5119  0.0129  0.0004 -0.4243
                                         0.0011  0.0022  0.7435 -0.0027  0.0118
                                        -0.0691 -0.0074 -0.0009
               ( 61.03%)  -0.7812* H174 s(100.00%)
                                        -1.0000 -0.0077
1171. (0.00810) BD*( 1) O166- C167       
               ( 32.76%)   0.5724* O166 s( 26.21%)p 2.82( 73.79%)
                                         0.0001 -0.5107  0.0362  0.0008  0.4675
                                        -0.0291  0.0016  0.5701 -0.0160 -0.0045
                                        -0.4394 -0.0014  0.0091
               ( 67.24%)  -0.8200* C167 s( 20.93%)p 3.78( 79.07%)
                                        -0.0003 -0.4562 -0.0351  0.0032 -0.5252
                                         0.0007  0.0066 -0.5812 -0.0215  0.0156
                                         0.4183  0.0332 -0.0131
1172. (0.02532) BD*( 1) C167- H175       
               ( 38.99%)   0.6244* C167 s( 26.88%)p 2.72( 73.12%)
                                         0.0002  0.5183 -0.0106  0.0012  0.4037
                                        -0.0122  0.0026 -0.7533 -0.0077 -0.0049
                                         0.0243 -0.0005 -0.0019
               ( 61.01%)  -0.7811* H175 s(100.00%)
                                         1.0000  0.0072
1173. (0.01021) BD*( 1) C167- H176       
               ( 38.54%)   0.6208* C167 s( 25.44%)p 2.93( 74.56%)
                                        -0.0002 -0.5043 -0.0029 -0.0003  0.7324
                                        -0.0094  0.0067  0.0602  0.0018  0.0050
                                         0.4532 -0.0066 -0.0004
               ( 61.46%)  -0.7839* H176 s(100.00%)
                                        -1.0000 -0.0022
1174. (0.02623) BD*( 1) C167- H177       
               ( 39.13%)   0.6256* C167 s( 26.86%)p 2.72( 73.14%)
                                        -0.0003 -0.5181  0.0110 -0.0002  0.1543
                                         0.0125  0.0009 -0.2995  0.0071 -0.0024
                                        -0.7859 -0.0020 -0.0031
               ( 60.87%)  -0.7802* H177 s(100.00%)
                                        -1.0000 -0.0074
1175. (0.01313) BD*( 1) C178- O179       
               ( 67.59%)   0.8222* C178 s( 20.45%)p 3.89( 79.55%)
                                         0.0002  0.4510  0.0328  0.0041 -0.4739
                                        -0.0131  0.0106 -0.7523 -0.0339  0.0072
                                         0.0521  0.0293  0.0024
               ( 32.41%)  -0.5693* O179 s( 26.64%)p 2.75( 73.36%)
                                        -0.0001  0.5152 -0.0306 -0.0006  0.4663
                                        -0.0157 -0.0010  0.7103 -0.0230 -0.0066
                                        -0.1031 -0.0143  0.0101
1176. (0.01028) BD*( 1) C178- H184       
               ( 37.91%)   0.6157* C178 s( 25.59%)p 2.91( 74.41%)
                                        -0.0002 -0.5058 -0.0038 -0.0010 -0.1032
                                        -0.0019 -0.0076 -0.2939  0.0033  0.0044
                                        -0.8043  0.0112 -0.0046
               ( 62.09%)  -0.7879* H184 s(100.00%)
                                        -1.0000 -0.0024
1177. (0.03087) BD*( 1) C178- H185       
               ( 39.03%)   0.6248* C178 s( 27.42%)p 2.65( 72.58%)
                                         0.0002  0.5235 -0.0108 -0.0071 -0.4368
                                         0.0122  0.0043  0.5550  0.0121 -0.0082
                                        -0.4759  0.0088 -0.0013
               ( 60.97%)  -0.7808* H185 s(100.00%)
                                         1.0000  0.0084
1178. (0.02566) BD*( 1) C178- H186       
               ( 39.38%)   0.6276* C178 s( 26.61%)p 2.76( 73.39%)
                                        -0.0002 -0.5158  0.0100 -0.0038 -0.7571
                                        -0.0071 -0.0113  0.1924 -0.0068  0.0039
                                         0.3511 -0.0084  0.0033
               ( 60.62%)  -0.7786* H186 s(100.00%)
                                        -1.0000 -0.0070
1179. (0.02006) BD*( 1) O179- C180       
               ( 33.38%)   0.5778* O179 s( 25.25%)p 2.96( 74.75%)
                                        -0.0000  0.5018 -0.0252  0.0005 -0.2025
                                         0.0161  0.0005 -0.3422  0.0212 -0.0029
                                        -0.7670  0.0193  0.0096
               ( 66.62%)  -0.8162* C180 s( 20.21%)p 3.95( 79.79%)
                                         0.0002  0.4484  0.0317 -0.0005  0.2461
                                         0.0050  0.0032  0.4064 -0.0009 -0.0068
                                         0.7558  0.0282 -0.0060
1180. (0.01848) BD*( 1) C180- C181       
               ( 50.16%)   0.7082* C180 s( 27.42%)p 2.65( 72.58%)
                                        -0.0004 -0.5234 -0.0165 -0.0053  0.4055
                                        -0.0038 -0.0119  0.7197  0.0032 -0.0023
                                        -0.2077  0.0004  0.0085
               ( 49.84%)  -0.7060* C181 s( 27.71%)p 2.61( 72.29%)
                                        -0.0004 -0.5261 -0.0175 -0.0019 -0.4222
                                        -0.0006  0.0010 -0.7027  0.0032  0.0148
                                         0.2250  0.0040  0.0030
1181. (0.03130) BD*( 1) C180- H187       
               ( 38.73%)   0.6223* C180 s( 25.87%)p 2.87( 74.13%)
                                        -0.0000 -0.5083  0.0173 -0.0030 -0.7176
                                         0.0063 -0.0130  0.1636 -0.0030  0.0004
                                         0.4465  0.0026  0.0059
               ( 61.27%)  -0.7828* H187 s(100.00%)
                                        -1.0000 -0.0084
1182. (0.03349) BD*( 1) C180- H188       
               ( 38.30%)   0.6189* C180 s( 26.62%)p 2.76( 73.38%)
                                        -0.0003 -0.5157  0.0131  0.0067  0.5098
                                        -0.0098 -0.0042 -0.5384  0.0074 -0.0013
                                         0.4289  0.0044  0.0056
               ( 61.70%)  -0.7855* H188 s(100.00%)
                                        -1.0000 -0.0088
1183. (0.01996) BD*( 1) C181- O182       
               ( 67.09%)   0.8191* C181 s( 19.94%)p 4.01( 80.06%)
                                         0.0001  0.4455  0.0313 -0.0019 -0.8577
                                        -0.0199  0.0119  0.1078  0.0156 -0.0028
                                        -0.2286 -0.0129 -0.0013
               ( 32.91%)  -0.5737* O182 s( 25.56%)p 2.91( 74.44%)
                                        -0.0000  0.5049 -0.0253 -0.0001  0.8096
                                        -0.0313 -0.0060 -0.1749 -0.0108  0.0055
                                         0.2391 -0.0072 -0.0051
1184. (0.03172) BD*( 1) C181- H189       
               ( 38.12%)   0.6174* C181 s( 26.58%)p 2.76( 73.42%)
                                        -0.0003 -0.5153  0.0145  0.0025 -0.0251
                                        -0.0055  0.0023  0.1297  0.0052  0.0090
                                        -0.8465  0.0074 -0.0062
               ( 61.88%)  -0.7866* H189 s(100.00%)
                                        -1.0000 -0.0085
1185. (0.03015) BD*( 1) C181- H190       
               ( 38.76%)   0.6226* C181 s( 25.90%)p 2.86( 74.10%)
                                         0.0000  0.5086 -0.0164  0.0023  0.2897
                                         0.0025 -0.0013 -0.6905  0.0007 -0.0117
                                        -0.4243  0.0078 -0.0060
               ( 61.24%)  -0.7825* H190 s(100.00%)
                                         1.0000  0.0079
1186. (0.00877) BD*( 1) O182- C183       
               ( 33.13%)   0.5756* O182 s( 25.95%)p 2.85( 74.05%)
                                        -0.0001  0.5082 -0.0351 -0.0005 -0.4978
                                         0.0307 -0.0022 -0.6929  0.0128  0.0094
                                         0.1061  0.0041 -0.0058
               ( 66.87%)  -0.8177* C183 s( 21.01%)p 3.76( 78.99%)
                                         0.0002  0.4571  0.0343  0.0007  0.5592
                                         0.0017 -0.0045  0.6835  0.0355 -0.0182
                                        -0.0901 -0.0181 -0.0005
1187. (0.02567) BD*( 1) C183- H191       
               ( 38.86%)   0.6234* C183 s( 26.97%)p 2.71( 73.03%)
                                        -0.0002 -0.5192  0.0115 -0.0032 -0.2845
                                         0.0124 -0.0037  0.6434  0.0045  0.0071
                                         0.4849  0.0032  0.0055
               ( 61.14%)  -0.7819* H191 s(100.00%)
                                        -1.0000 -0.0074
1188. (0.01021) BD*( 1) C183- H192       
               ( 38.40%)   0.6197* C183 s( 25.42%)p 2.93( 74.58%)
                                        -0.0002 -0.5041 -0.0034  0.0009  0.7776
                                        -0.0130  0.0018 -0.2639  0.0057  0.0037
                                         0.2668  0.0015  0.0065
               ( 61.60%)  -0.7849* H192 s(100.00%)
                                        -1.0000 -0.0024
1189. (0.02831) BD*( 1) C183- H193       
               ( 39.55%)   0.6289* C183 s( 26.70%)p 2.75( 73.30%)
                                        -0.0002 -0.5166  0.0105  0.0025  0.0228
                                         0.0102 -0.0063  0.2166  0.0089  0.0027
                                        -0.8279  0.0004 -0.0001
               ( 60.45%)  -0.7775* H193 s(100.00%)
                                        -1.0000 -0.0080
 SVNBO: NDIM =         1189
 NBO state            0

 *******************************************************************************
Archival summary:
1\1\nid03198\SP\BLYP\BasisUnspecified\2448i1(1+,1)\\FriAug1523:37:542014FriAug1523:37:542014\0\\#,BLYP,BasisUnspecified,\\1,1\O\C,1,1.41569\H,2,1.0976,1,109.935\H,2,1.09763,1,111.663,3,-122.77,0\H,2,1.09907,1,104.216,3,118.552,0\C,1,1.42317,2,113.043,3,67.7601,0\H,6,1.10647,1,109.578,2,68.7692,0\H,6,1.10795,1,109.976,2,-50.272,0\C,6,1.52632,1,104.446,2,-169.875,0\H,9,1.10733,6,111.481,1,169.746,0\H,9,1.11322,6,112.233,1,48.2858,0\O,9,1.41506,6,110.698,1,-66.1545,0\C,12,1.41524,9,114.131,6,-84.5584,0\H,13,1.09563,12,111.47,9,59.3027,0\H,13,1.09782,12,110.354,9,-63.3225,0\H,13,1.10117,12,103.711,9,179.783,0\H,4,2.03256,2,121.259,1,-62.7693,0\C,17,1.10526,4,133.837,2,92.7939,0\H,18,1.09361,17,109.584,4,142.437,0\H,18,1.09557,17,110.379,4,20.322,0\O,18,1.41579,17,103.468,4,-98.7769,0\C,21,1.42068,18,113.026,17,-173.857,0\H,22,1.10588,21,109.624,18,-65.6863,0\H,22,1.10809,21,109.853,18,54.8038,0\C,22,1.52923,21,104.634,18,173.478,0\H,25,1.10472,22,111.213,21,-167.023,0\H,25,1.10637,22,112.276,21,-44.9987,0\O,25,1.42111,22,104.592,21,73.8425,0\C,28,1.41405,25,113.105,22,172.258,0\H,29,1.09352,28,111.614,25,57.4974,0\H,29,1.09536,28,110.434,25,-66.436,0\H,29,1.10311,28,103.569,25,176.588,0\H,11,2.13546,9,126.817,6,-132.24,0\C,33,1.09987,11,108.612,9,119.829,0\H,34,1.09413,33,110.694,11,152.742,0\H,34,1.09759,33,109.67,11,30.6247,0\O,34,1.41679,33,103.796,11,-89.1443,0\C,37,1.41707,34,113.661,33,175.208,0\H,38,1.10477,37,111.112,34,41.4388,0\H,38,1.1098,37,102.936,34,156.279,0\C,38,1.52499,37,110.648,34,-83.5607,0\H,41,1.10836,38,111.639,37,161.657,0\H,41,1.11307,38,112.718,37,39.6726,0\O,41,1.41647,38,110.332,37,-74.595,0\C,44,1.41444,41,114.361,38,-85.5561,0\H,45,1.09373,44,111.373,41,65.3015,0\H,45,1.09878,44,110.438,41,-56.7443,0\H,45,1.0992,44,103.37,41,-174.977,0\Li,12,2.19224,9,106.921,6,43.7625,0\H,32,2.2373,29,172.094,28,178.802,0\C,50,1.10508,32,98.8078,29,-83.0419,0\H,51,1.1039,50,109.546,32,166.191,0\O,51,1.42471,50,108.943,32,45.6879,0\C,53,1.41344,51,112.855,50,62.8163,0\H,54,1.09415,53,111.097,51,-61.5017,0\H,54,1.09478,53,111.018,51,62.17,0\H,54,1.09726,53,103.257,51,-179.965,0\C,51,1.52956,50,112.147,32,-69.543,0\H,58,1.10815,51,111.626,50,100.662,0\H,58,1.10977,51,112.144,50,-21.6303,0\O,58,1.41522,51,110.79,50,-135.212,0\C,61,1.41647,58,113.632,51,-75.6789,0\H,62,1.09515,61,110.358,58,-65.8746,0\H,62,1.09549,61,103.473,58,175.199,0\H,62,1.09563,61,111.136,58,56.3098,0\O,16,2.26741,13,117.734,12,139.075,0\C,66,1.41298,16,95.5577,13,149.713,0\H,67,1.09341,66,111.458,16,-75.0023,0\H,67,1.09446,66,110.731,16,160.995,0\H,67,1.10059,66,102.802,16,43.3089,0\C,66,1.42252,16,125.277,13,25.6547,0\H,71,1.10229,66,109.995,16,169.015,0\H,71,1.10606,66,109.454,16,48.6862,0\C,71,1.53061,66,104.088,16,-70.6249,0\H,74,1.10235,71,112.079,66,-128.908,0\H,74,1.11136,71,111.484,66,-5.83732,0\O,74,1.42496,71,104.64,66,112.24,0\C,77,1.41471,74,112.332,71,175.487,0\H,78,1.09545,77,111.408,74,-55.9281,0\H,78,1.09559,77,110.479,74,67.4725,0\H,78,1.0965,77,103.377,74,-173.822,0\H,80,2.26219,78,159.87,77,-29.2441,0\C,82,1.09873,80,143.574,78,-164.696,0\H,83,1.0931,82,110.765,80,39.9406,0\H,83,1.09533,82,109.175,80,162.301,0\O,83,1.41492,82,103.395,80,-78.741,0\C,86,1.42196,83,113.198,82,-174.248,0\H,87,1.10239,86,108.993,83,-67.3008,0\H,87,1.10666,86,110.255,83,52.9547,0\C,87,1.53194,86,104.526,83,172.398,0\H,90,1.10267,87,112.28,86,134.347,0\H,90,1.10723,87,111.242,86,11.1803,0\O,90,1.42211,87,104.346,86,-108.295,0\C,93,1.41478,90,113.157,87,167.473,0\H,94,1.09217,93,111.303,90,58.9865,0\H,94,1.09812,93,110.865,90,-65.3454,0\H,94,1.10015,93,103.094,90,177.32,0\O,10,2.3009,9,122.174,6,-10.8969,0\C,98,1.41386,10,122.215,9,81.2184,0\H,99,1.10122,98,111,10,157.094,0\H,99,1.11141,98,102.213,10,-86.9315,0\C,98,1.41505,10,94.21,9,-156.342,0\H,102,1.0926,98,111.878,10,-75.4115,0\H,102,1.09398,98,110.219,10,160.711,0\H,102,1.1014,98,103.236,10,42.4252,0\C,99,1.53276,98,110.967,10,31.2776,0\H,106,1.10157,99,112.369,98,130.199,0\H,106,1.10781,99,111.939,98,6.59654,0\O,106,1.42438,99,104.455,98,-110.281,0\C,109,1.4149,106,112.964,99,-166.269,0\H,110,1.09515,109,110.517,106,67.3061,0\H,110,1.09557,109,111.325,106,-55.8571,0\H,110,1.09698,109,103.266,106,-174.726,0\H,109,2.28354,106,130.505,99,-15.0643,0\C,114,1.10005,109,157.286,106,26.1879,0\H,115,1.09372,114,110.1,109,-107.205,0\H,115,1.09551,114,110.318,109,15.5923,0\O,115,1.41503,114,103.084,109,134.082,0\C,118,1.42206,115,112.684,114,178.441,0\H,119,1.10382,118,109.021,115,-67.851,0\H,119,1.1057,118,110.14,115,52.5822,0\C,119,1.53099,118,104.822,115,172.368,0\H,122,1.10319,119,111.772,118,152.929,0\H,122,1.10568,119,111.698,118,29.8512,0\O,122,1.42153,119,104.235,118,-88.4394,0\C,125,1.41445,122,113.292,119,-177.53,0\H,126,1.09341,125,110.882,122,64.9127,0\H,126,1.09682,125,111.279,122,-58.6876,0\H,126,1.09849,125,102.965,122,-176.775,0\H,121,2.18289,119,168.454,118,-26.7056,0\C,130,1.10708,121,152.613,119,165.481,0\H,131,1.10247,130,109.404,121,79.7213,0\O,131,1.42185,130,110.448,121,-40.1578,0\C,133,1.41556,131,112.871,130,52.5959,0\H,134,1.09266,133,111.054,131,61.9859,0\H,134,1.09716,133,110.952,131,-62.0403,0\H,134,1.09959,133,103.337,131,-179.53,0\C,131,1.5319,130,111.019,121,-155.556,0\H,138,1.1018,131,112.149,130,-115.893,0\H,138,1.10656,131,111.412,130,120.911,0\O,138,1.42375,131,104.222,130,3.18998,0\C,141,1.41379,138,112.82,131,-172.878,0\H,142,1.09372,141,111.207,138,-60.0811,0\H,142,1.09389,141,111.013,138,63.9348,0\H,142,1.10086,141,103.203,138,-178.16,0\H,42,2.30156,41,162.958,38,-132.249,0\C,146,1.09734,42,99.0929,41,-141.538,0\H,147,1.0931,146,110.962,42,-160.102,0\H,147,1.09809,146,109.543,42,77.7199,0\O,147,1.41585,146,111.436,42,-36.1879,0\C,150,1.42184,147,112.844,146,-57.7682,0\H,151,1.10312,150,109.636,147,-57.0834,0\H,151,1.10684,150,109.682,147,63.0591,0\C,151,1.53164,150,104.397,147,-177.402,0\H,154,1.10251,151,112.074,150,129.6,0\H,154,1.10658,151,111.293,150,6.38089,0\O,154,1.42422,151,104.506,150,-111.532,0\C,157,1.41411,154,113.003,151,-174.484,0\H,158,1.0943,157,111.024,154,-62.0776,0\H,158,1.09521,157,111.011,154,61.5658,0\H,158,1.09757,157,103.238,154,179.362,0\H,21,2.32581,18,94.8175,17,-79.2078,0\C,162,1.11192,21,155.037,18,-170.97,0\H,163,1.10158,162,109.311,21,-37.6316,0\O,163,1.41094,162,102.515,21,-156.649,0\C,165,1.41564,163,114.342,162,159.225,0\H,166,1.09313,165,111.355,163,61.992,0\H,166,1.09452,165,110.934,163,-61.9791,0\H,166,1.09818,165,102.904,163,179.894,0\C,163,1.53624,162,111.183,21,86.2392,0\H,170,1.10205,163,112.141,162,-176.925,0\H,170,1.10366,163,111.415,162,60.0788,0\O,170,1.42316,163,103.938,162,-58.1448,0\C,173,1.415,170,112.7,163,-177.217,0\H,174,1.09496,173,110.942,170,-61.7238,0\H,174,1.09516,173,110.946,170,61.8496,0\H,174,1.0968,173,103.371,170,179.902,0\H,39,2.34056,38,124.257,37,-86.0962,0\C,178,1.09746,39,145.431,38,-50.5681,0\H,179,1.09431,178,110.306,39,-97.1794,0\H,179,1.0952,178,110.08,39,140.106,0\O,179,1.41429,178,103.267,39,21.4876,0\C,182,1.42416,179,113.111,178,179.574,0\H,183,1.10253,182,109.376,179,-58.754,0\H,183,1.10443,182,109.492,179,61.1826,0\C,183,1.53239,182,104.215,179,-179.279,0\H,186,1.10415,183,112.375,182,127.038,0\H,186,1.11212,183,111.289,182,5.28133,0\O,186,1.41442,183,110.764,182,-107.791,0\C,189,1.41577,186,114.003,183,-82.1371,0\H,190,1.09331,189,111.224,186,63.4978,0\H,190,1.09537,189,110.985,186,-60.1157,0\H,190,1.09731,189,103.148,186,-178.277,0\\BLYP=-3692.78864\\@

 Total job time:  527.39s(wall), 450.45s(cpu) 
 Fri Aug 15 23:37:54 2014

        *************************************************************
        *                                                           *
        *  Thank you very much for using Q-Chem.  Have a nice day.  *
        *                                                           *
        *************************************************************


0 sent ACK to 0 
now end server 0 ... 
Application 6769789 resources: utime ~10290s, stime ~840s, Rss ~493748, inblocks ~150583598, outblocks ~271404628
cleanup process ... done
