===============================================
Execution sur noeud     : dnas-node31.univ-pau.fr
Job id = 1038990
Fichiers temporaire sur :  /scratch/1038990
===============================================
Debut execution du job  : jeu. mars  8 14:10:15 CET 2018
 Entering Gaussian System, Link 0=g09
 Initial command:
 /opt/g09-d01/g09/l1.exe "/scratch/1038990/Gau-56317.inp" -scrdir="/scratch/1038990/"
 Entering Link 1 = /opt/g09-d01/g09/l1.exe PID=     56318.
  
 Copyright (c) 1988,1990,1992,1993,1995,1998,2003,2009,2013,
            Gaussian, Inc.  All Rights Reserved.
  
 This is part of the Gaussian(R) 09 program.  It is based on
 the Gaussian(R) 03 system (copyright 2003, Gaussian, Inc.),
 the Gaussian(R) 98 system (copyright 1998, Gaussian, Inc.),
 the Gaussian(R) 94 system (copyright 1995, Gaussian, Inc.),
 the Gaussian 92(TM) system (copyright 1992, Gaussian, Inc.),
 the Gaussian 90(TM) system (copyright 1990, Gaussian, Inc.),
 the Gaussian 88(TM) system (copyright 1988, Gaussian, Inc.),
 the Gaussian 86(TM) system (copyright 1986, Carnegie Mellon
 University), and the Gaussian 82(TM) system (copyright 1983,
 Carnegie Mellon University). Gaussian is a federally registered
 trademark of Gaussian, Inc.
  
 This software contains proprietary and confidential information,
 including trade secrets, belonging to Gaussian, Inc.
  
 This software is provided under written license and may be
 used, copied, transmitted, or stored only in accord with that
 written license.
  
 The following legend is applicable only to US Government
 contracts under FAR:
  
                    RESTRICTED RIGHTS LEGEND
  
 Use, reproduction and disclosure by the US Government is
 subject to restrictions as set forth in subparagraphs (a)
 and (c) of the Commercial Computer Software - Restricted
 Rights clause in FAR 52.227-19.
  
 Gaussian, Inc.
 340 Quinnipiac St., Bldg. 40, Wallingford CT 06492
  
  
 ---------------------------------------------------------------
 Warning -- This program may not be used in any manner that
 competes with the business of Gaussian, Inc. or will provide
 assistance to any competitor of Gaussian, Inc.  The licensee
 of this program is prohibited from giving any competitor of
 Gaussian, Inc. access to this program.  By using this program,
 the user acknowledges that Gaussian, Inc. is engaged in the
 business of creating and licensing software in the field of
 computational chemistry and represents and warrants to the
 licensee that it is not a competitor of Gaussian, Inc. and that
 it will not use this program in any manner prohibited above.
 ---------------------------------------------------------------
  

 Cite this work as:
 Gaussian 09, Revision D.01,
 M. J. Frisch, G. W. Trucks, H. B. Schlegel, G. E. Scuseria, 
 M. A. Robb, J. R. Cheeseman, G. Scalmani, V. Barone, B. Mennucci, 
 G. A. Petersson, H. Nakatsuji, M. Caricato, X. Li, H. P. Hratchian, 
 A. F. Izmaylov, J. Bloino, G. Zheng, J. L. Sonnenberg, M. Hada, 
 M. Ehara, K. Toyota, R. Fukuda, J. Hasegawa, M. Ishida, T. Nakajima, 
 Y. Honda, O. Kitao, H. Nakai, T. Vreven, J. A. Montgomery, Jr., 
 J. E. Peralta, F. Ogliaro, M. Bearpark, J. J. Heyd, E. Brothers, 
 K. N. Kudin, V. N. Staroverov, T. Keith, R. Kobayashi, J. Normand, 
 K. Raghavachari, A. Rendell, J. C. Burant, S. S. Iyengar, J. Tomasi, 
 M. Cossi, N. Rega, J. M. Millam, M. Klene, J. E. Knox, J. B. Cross, 
 V. Bakken, C. Adamo, J. Jaramillo, R. Gomperts, R. E. Stratmann, 
 O. Yazyev, A. J. Austin, R. Cammi, C. Pomelli, J. W. Ochterski, 
 R. L. Martin, K. Morokuma, V. G. Zakrzewski, G. A. Voth, 
 P. Salvador, J. J. Dannenberg, S. Dapprich, A. D. Daniels, 
 O. Farkas, J. B. Foresman, J. V. Ortiz, J. Cioslowski, 
 and D. J. Fox, Gaussian, Inc., Wallingford CT, 2013.
 
 ******************************************
 Gaussian 09:  EM64L-G09RevD.01 24-Apr-2013
                 8-Mar-2018 
 ******************************************
 %chk=h2o.chk
 --------------------------------------------------
 #P B3LYP / 6-31+G* opt=tight freq form pop=NBOREAD
 --------------------------------------------------
 1/7=10,14=-1,18=20,19=15,26=3,38=1/1,3;
 2/9=110,12=2,17=6,18=5,40=1/2;
 3/5=1,6=6,7=11,11=2,16=1,25=1,30=1,71=1,74=-5/1,2,3;
 4//1;
 5/5=2,38=5/2;
 6/7=2,8=2,9=2,10=2,28=1,40=2/1,7;
 7//1,2,3,16;
 1/7=10,14=-1,18=20,19=15,26=3/3(2);
 2/9=110/2;
 99//99;
 2/9=110/2;
 3/5=1,6=6,7=11,11=2,16=1,25=1,30=1,71=1,74=-5/1,2,3;
 4/5=5,16=3,69=1/1;
 5/5=2,38=5/2;
 7//1,2,3,16;
 1/7=10,14=-1,18=20,19=15,26=3/3(-5);
 2/9=110/2;
 6/7=2,8=2,9=2,10=2,19=2,28=1,40=2/1,7;
 99/9=1/99;
 Leave Link    1 at Thu Mar  8 14:10:15 2018, MaxMem=           0 cpu:         0.1
 (Enter /opt/g09-d01/g09/l101.exe)
 -------
 vib H2O
 -------
 Symbolic Z-matrix:
 Charge =  0 Multiplicity = 1
 O                    -0.11106   0.0339    0.04317 
 H                     0.96606   0.95915  -1.08909 
 H                     0.79663  -1.49716   0.40399 
 
 Add virtual bond connecting atoms H3         and O1         Dist= 3.43D+00.
 Add virtual bond connecting atoms H2         and O1         Dist= 3.43D+00.
 NAtoms=      3 NQM=        3 NQMF=       0 NMMI=      0 NMMIF=      0
                NMic=       0 NMicF=      0.
                    Isotopes and Nuclear Properties:
 (Nuclear quadrupole moments (NQMom) in fm**2, nuclear magnetic moments (NMagM)
  in nuclear magnetons)

  Atom         1           2           3
 IAtWgt=          16           1           1
 AtmWgt=  15.9949146   1.0078250   1.0078250
 NucSpn=           0           1           1
 AtZEff=   0.0000000   0.0000000   0.0000000
 NQMom=    0.0000000   0.0000000   0.0000000
 NMagM=    0.0000000   2.7928460   2.7928460
 AtZNuc=   8.0000000   1.0000000   1.0000000
 Leave Link  101 at Thu Mar  8 14:10:15 2018, MaxMem=    33554432 cpu:         0.1
 (Enter /opt/g09-d01/g09/l103.exe)

 GradGradGradGradGradGradGradGradGradGradGradGradGradGradGradGradGradGrad
 Berny optimization.
 Initialization pass.
                           ----------------------------
                           !    Initial Parameters    !
                           ! (Angstroms and Degrees)  !
 --------------------------                            --------------------------
 ! Name  Definition              Value          Derivative Info.                !
 --------------------------------------------------------------------------------
 ! R1    R(1,2)                  1.8161         estimate D2E/DX2                !
 ! R2    R(1,3)                  1.8161         estimate D2E/DX2                !
 ! A1    A(2,1,3)              104.889          estimate D2E/DX2                !
 --------------------------------------------------------------------------------
 Trust Radius=3.00D-01 FncErr=1.00D-07 GrdErr=1.00D-06
 Number of steps in this run=     20 maximum allowed number of steps=    100.
 GradGradGradGradGradGradGradGradGradGradGradGradGradGradGradGradGradGrad

 Leave Link  103 at Thu Mar  8 14:10:15 2018, MaxMem=    33554432 cpu:         0.0
 (Enter /opt/g09-d01/g09/l202.exe)
                          Input orientation:                          
 ---------------------------------------------------------------------
 Center     Atomic      Atomic             Coordinates (Angstroms)
 Number     Number       Type             X           Y           Z
 ---------------------------------------------------------------------
      1          8           0       -0.111056    0.033897    0.043165
      2          1           0        0.966057    0.959148   -1.089095
      3          1           0        0.796629   -1.497157    0.403985
 ---------------------------------------------------------------------
                    Distance matrix (angstroms):
                    1          2          3
     1  O    0.000000
     2  H    1.816115   0.000000
     3  H    1.816097   2.879484   0.000000
 Stoichiometry    H2O
 Framework group  CS[SG(H2O)]
 Deg. of freedom     3
 Full point group                 CS      NOp   2
 Largest Abelian subgroup         CS      NOp   2
 Largest concise Abelian subgroup C1      NOp   1
                         Standard orientation:                         
 ---------------------------------------------------------------------
 Center     Atomic      Atomic             Coordinates (Angstroms)
 Number     Number       Type             X           Y           Z
 ---------------------------------------------------------------------
      1          8           0        0.000000    0.221394    0.000000
      2          1           0        1.439742   -0.885592    0.000000
      3          1           0       -1.439742   -0.885562    0.000000
 ---------------------------------------------------------------------
 Rotational constants (GHZ):    230.3959797    120.9574758     79.3164709
 Leave Link  202 at Thu Mar  8 14:10:15 2018, MaxMem=    33554432 cpu:         0.0
 (Enter /opt/g09-d01/g09/l301.exe)
 Standard basis: 6-31+G(d) (6D, 7F)
 Ernie: Thresh=  0.10000D-02 Tol=  0.10000D-05 Strict=F.
 There are    18 symmetry adapted cartesian basis functions of A'  symmetry.
 There are     5 symmetry adapted cartesian basis functions of A"  symmetry.
 There are    18 symmetry adapted basis functions of A'  symmetry.
 There are     5 symmetry adapted basis functions of A"  symmetry.
    23 basis functions,    40 primitive gaussians,    23 cartesian basis functions
     5 alpha electrons        5 beta electrons
       nuclear repulsion energy         4.8458564381 Hartrees.
 IExCor=  402 DFT=T Ex+Corr=B3LYP ExCW=0 ScaHFX=  0.200000
 ScaDFX=  0.800000  0.720000  1.000000  0.810000 ScalE2=  1.000000  1.000000
 IRadAn=      0 IRanWt=     -1 IRanGd=            0 ICorTp=0 IEmpDi=  4
 NAtoms=    3 NActive=    3 NUniq=    3 SFac= 1.00D+00 NAtFMM=   60 NAOKFM=F Big=F
 Integral buffers will be    131072 words long.
 Raffenetti 2 integral format.
 Two-electron integral symmetry is turned on.
 Leave Link  301 at Thu Mar  8 14:10:15 2018, MaxMem=    33554432 cpu:         0.1
 (Enter /opt/g09-d01/g09/l302.exe)
 NPDir=0 NMtPBC=     1 NCelOv=     1 NCel=       1 NClECP=     1 NCelD=      1
         NCelK=      1 NCelE2=     1 NClLst=     1 CellRange=     0.0.
 One-electron integrals computed using PRISM.
 NBasis=    23 RedAO= T EigKep=  3.03D-02  NBF=    18     5
 NBsUse=    23 1.00D-06 EigRej= -1.00D+00 NBFU=    18     5
 Precomputing XC quadrature grid using
 IXCGrd= 4 IRadAn=           0 IRanWt=          -1 IRanGd=           0 AccXCQ= 0.00D+00.
 Generated NRdTot=       0 NPtTot=           0 NUsed=           0 NTot=          32
 NSgBfM=    23    23    23    23    23 MxSgAt=     3 MxSgA2=     3.
 Leave Link  302 at Thu Mar  8 14:10:15 2018, MaxMem=    33554432 cpu:         0.2
 (Enter /opt/g09-d01/g09/l303.exe)
 DipDrv:  MaxL=1.
 Leave Link  303 at Thu Mar  8 14:10:15 2018, MaxMem=    33554432 cpu:         0.0
 (Enter /opt/g09-d01/g09/l401.exe)
 ExpMin= 8.45D-02 ExpMax= 5.48D+03 ExpMxC= 8.25D+02 IAcc=2 IRadAn=         4 AccDes= 0.00D+00
 Harris functional with IExCor=  402 and IRadAn=       4 diagonalized for initial guess.
 HarFok:  IExCor=  402 AccDes= 0.00D+00 IRadAn=         4 IDoV= 1 UseB2=F ITyADJ=14
 ICtDFT=  3500011 ScaDFX=  1.000000  1.000000  1.000000  1.000000
 FoFCou: FMM=F IPFlag=           0 FMFlag=      100000 FMFlg1=           0
         NFxFlg=           0 DoJE=T BraDBF=F KetDBF=T FulRan=T
         wScrn=  0.000000 ICntrl=     500 IOpCl=  0 I1Cent=   200000004 NGrid=           0
         NMat0=    1 NMatS0=      1 NMatT0=    0 NMatD0=    1 NMtDS0=    0 NMtDT0=    0
 Petite list used in FoFCou.
 Harris En= -76.1845027436366    
 JPrj=0 DoOrth=F DoCkMO=F.
 Initial guess orbital symmetries:
       Occupied  (A') (A') (A') (A') (A")
       Virtual   (A') (A') (A') (A") (A') (A') (A') (A') (A") (A')
                 (A') (A') (A') (A") (A") (A') (A') (A')
 The electronic state of the initial guess is 1-A'.
 Leave Link  401 at Thu Mar  8 14:10:16 2018, MaxMem=    33554432 cpu:         0.2
 (Enter /opt/g09-d01/g09/l502.exe)
 Closed shell SCF:
 Using DIIS extrapolation, IDIIS=  1040.
 Integral symmetry usage will be decided dynamically.
 Keep R1 ints in memory in symmetry-blocked form, NReq=919005.
 IVT=       20464 IEndB=       20464 NGot=    33554432 MDV=    33511632
 LenX=    33511632 LenY=    33510662
 Requested convergence on RMS density matrix=1.00D-08 within 128 cycles.
 Requested convergence on MAX density matrix=1.00D-06.
 Requested convergence on             energy=1.00D-06.
 No special actions if energy rises.
 FoFCou: FMM=F IPFlag=           0 FMFlag=           0 FMFlg1=           0
         NFxFlg=           0 DoJE=F BraDBF=F KetDBF=F FulRan=T
         wScrn=  0.000000 ICntrl=     600 IOpCl=  0 I1Cent=           0 NGrid=           0
         NMat0=    1 NMatS0=    276 NMatT0=    0 NMatD0=    1 NMtDS0=    0 NMtDT0=    0
 Petite list used in FoFCou.
 Integral accuracy reduced to 1.0D-05 until final iterations.

 Cycle   1  Pass 0  IDiag  1:
 E= -75.9356103046487    
 DIIS: error= 1.06D-01 at cycle   1 NSaved=   1.
 NSaved= 1 IEnMin= 1 EnMin= -75.9356103046487     IErMin= 1 ErrMin= 1.06D-01
 ErrMax= 1.06D-01  0.00D+00 EMaxC= 1.00D-01 BMatC= 1.57D-01 BMatP= 1.57D-01
 IDIUse=3 WtCom= 0.00D+00 WtEn= 1.00D+00
 Coeff-Com:  0.100D+01
 Coeff-En:   0.100D+01
 Coeff:      0.100D+01
 Gap=     0.046 Goal=   None    Shift=    0.000
 GapD=    0.046 DampG=0.250 DampE=0.250 DampFc=0.2500 IDamp=-1.
 Damping current iteration by 2.50D-01
 RMSDP=5.06D-02 MaxDP=3.64D-01              OVMax= 6.85D-01

 Cycle   2  Pass 0  IDiag  1:
 E= -75.9954437767750     Delta-E=       -0.059833472126 Rises=F Damp=T
 DIIS: error= 2.35D-02 at cycle   2 NSaved=   2.
 NSaved= 2 IEnMin= 2 EnMin= -75.9954437767750     IErMin= 2 ErrMin= 2.35D-02
 ErrMax= 2.35D-02  0.00D+00 EMaxC= 1.00D-01 BMatC= 6.62D-03 BMatP= 1.57D-01
 IDIUse=3 WtCom= 7.65D-01 WtEn= 2.35D-01
 Coeff-Com:  0.114D+00 0.886D+00
 Coeff-En:   0.332D+00 0.668D+00
 Coeff:      0.165D+00 0.835D+00
 Gap=     0.056 Goal=   None    Shift=    0.000
 RMSDP=1.07D-02 MaxDP=7.25D-02 DE=-5.98D-02 OVMax= 5.28D-01

 Cycle   3  Pass 0  IDiag  1:
 E= -76.0840875979956     Delta-E=       -0.088643821221 Rises=F Damp=F
 DIIS: error= 5.17D-02 at cycle   3 NSaved=   3.
 NSaved= 3 IEnMin= 3 EnMin= -76.0840875979956     IErMin= 2 ErrMin= 2.35D-02
 ErrMax= 5.17D-02  0.00D+00 EMaxC= 1.00D-01 BMatC= 4.14D-02 BMatP= 6.62D-03
 IDIUse=2 WtCom= 0.00D+00 WtEn= 1.00D+00
 Coeff-En:   0.274D+00 0.000D+00 0.726D+00
 Coeff:      0.274D+00 0.000D+00 0.726D+00
 Gap=     0.148 Goal=   None    Shift=    0.000
 RMSDP=9.28D-03 MaxDP=8.48D-02 DE=-8.86D-02 OVMax= 1.63D-01

 Cycle   4  Pass 0  IDiag  1:
 E= -76.1009425706340     Delta-E=       -0.016854972638 Rises=F Damp=F
 DIIS: error= 3.97D-02 at cycle   4 NSaved=   4.
 NSaved= 4 IEnMin= 4 EnMin= -76.1009425706340     IErMin= 2 ErrMin= 2.35D-02
 ErrMax= 3.97D-02  0.00D+00 EMaxC= 1.00D-01 BMatC= 2.49D-02 BMatP= 6.62D-03
 IDIUse=2 WtCom= 0.00D+00 WtEn= 1.00D+00
 Coeff-En:   0.000D+00 0.000D+00 0.421D+00 0.579D+00
 Coeff:      0.000D+00 0.000D+00 0.421D+00 0.579D+00
 Gap=     0.133 Goal=   None    Shift=    0.000
 RMSDP=4.55D-03 MaxDP=4.44D-02 DE=-1.69D-02 OVMax= 8.13D-02

 Cycle   5  Pass 0  IDiag  1:
 E= -76.1246996510674     Delta-E=       -0.023757080433 Rises=F Damp=F
 DIIS: error= 5.30D-03 at cycle   5 NSaved=   5.
 NSaved= 5 IEnMin= 5 EnMin= -76.1246996510674     IErMin= 5 ErrMin= 5.30D-03
 ErrMax= 5.30D-03  0.00D+00 EMaxC= 1.00D-01 BMatC= 5.27D-04 BMatP= 6.62D-03
 IDIUse=3 WtCom= 9.47D-01 WtEn= 5.30D-02
 Coeff-Com: -0.108D-01-0.150D-01 0.168D-01 0.166D+00 0.843D+00
 Coeff-En:   0.000D+00 0.000D+00 0.000D+00 0.426D-01 0.957D+00
 Coeff:     -0.102D-01-0.142D-01 0.159D-01 0.159D+00 0.849D+00
 Gap=     0.137 Goal=   None    Shift=    0.000
 RMSDP=5.79D-04 MaxDP=5.59D-03 DE=-2.38D-02 OVMax= 9.54D-03

 Cycle   6  Pass 0  IDiag  1:
 E= -76.1251567380065     Delta-E=       -0.000457086939 Rises=F Damp=F
 DIIS: error= 5.38D-04 at cycle   6 NSaved=   6.
 NSaved= 6 IEnMin= 6 EnMin= -76.1251567380065     IErMin= 6 ErrMin= 5.38D-04
 ErrMax= 5.38D-04  0.00D+00 EMaxC= 1.00D-01 BMatC= 6.13D-06 BMatP= 5.27D-04
 IDIUse=3 WtCom= 9.95D-01 WtEn= 5.38D-03
 Coeff-Com:  0.166D-02-0.142D-02-0.427D-02 0.302D-03 0.161D+00 0.843D+00
 Coeff-En:   0.000D+00 0.000D+00 0.000D+00 0.000D+00 0.609D-02 0.994D+00
 Coeff:      0.165D-02-0.141D-02-0.425D-02 0.301D-03 0.160D+00 0.844D+00
 Gap=     0.137 Goal=   None    Shift=    0.000
 RMSDP=6.63D-05 MaxDP=6.53D-04 DE=-4.57D-04 OVMax= 1.09D-03

 Cycle   7  Pass 0  IDiag  1:
 E= -76.1251615377783     Delta-E=       -0.000004799772 Rises=F Damp=F
 DIIS: error= 1.35D-04 at cycle   7 NSaved=   7.
 NSaved= 7 IEnMin= 7 EnMin= -76.1251615377783     IErMin= 7 ErrMin= 1.35D-04
 ErrMax= 1.35D-04  0.00D+00 EMaxC= 1.00D-01 BMatC= 2.72D-07 BMatP= 6.13D-06
 IDIUse=3 WtCom= 9.99D-01 WtEn= 1.35D-03
 Coeff-Com:  0.400D-04 0.344D-03-0.167D-02 0.969D-03 0.355D-02 0.375D-01
 Coeff-Com:  0.959D+00
 Coeff-En:   0.000D+00 0.000D+00 0.000D+00 0.000D+00 0.000D+00 0.117D+00
 Coeff-En:   0.883D+00
 Coeff:      0.399D-04 0.343D-03-0.166D-02 0.968D-03 0.355D-02 0.376D-01
 Coeff:      0.959D+00
 Gap=     0.137 Goal=   None    Shift=    0.000
 RMSDP=1.55D-05 MaxDP=1.46D-04 DE=-4.80D-06 OVMax= 2.92D-04

 Cycle   8  Pass 0  IDiag  1:
 E= -76.1251618175152     Delta-E=       -0.000000279737 Rises=F Damp=F
 DIIS: error= 1.25D-05 at cycle   8 NSaved=   8.
 NSaved= 8 IEnMin= 8 EnMin= -76.1251618175152     IErMin= 8 ErrMin= 1.25D-05
 ErrMax= 1.25D-05  0.00D+00 EMaxC= 1.00D-01 BMatC= 2.10D-09 BMatP= 2.72D-07
 IDIUse=1 WtCom= 1.00D+00 WtEn= 0.00D+00
 Coeff-Com: -0.773D-05-0.627D-05-0.387D-04 0.114D-03-0.294D-03-0.363D-02
 Coeff-Com:  0.118D+00 0.886D+00
 Coeff:     -0.773D-05-0.627D-05-0.387D-04 0.114D-03-0.294D-03-0.363D-02
 Coeff:      0.118D+00 0.886D+00
 Gap=     0.137 Goal=   None    Shift=    0.000
 RMSDP=1.30D-06 MaxDP=1.15D-05 DE=-2.80D-07 OVMax= 2.26D-05

 Initial convergence to 1.0D-05 achieved.  Increase integral accuracy.
 Cycle   9  Pass 1  IDiag  1:
 E= -76.1251855597237     Delta-E=       -0.000023742209 Rises=F Damp=F
 DIIS: error= 6.13D-06 at cycle   1 NSaved=   1.
 NSaved= 1 IEnMin= 1 EnMin= -76.1251855597237     IErMin= 1 ErrMin= 6.13D-06
 ErrMax= 6.13D-06  0.00D+00 EMaxC= 1.00D-01 BMatC= 9.39D-10 BMatP= 9.39D-10
 IDIUse=1 WtCom= 1.00D+00 WtEn= 0.00D+00
 Coeff-Com:  0.100D+01
 Coeff:      0.100D+01
 Gap=     0.137 Goal=   None    Shift=    0.000
 RMSDP=1.30D-06 MaxDP=1.15D-05 DE=-2.37D-05 OVMax= 2.36D-05

 Cycle  10  Pass 1  IDiag  1:
 E= -76.1251855599622     Delta-E=       -0.000000000238 Rises=F Damp=F
 DIIS: error= 7.92D-06 at cycle   2 NSaved=   2.
 NSaved= 2 IEnMin= 2 EnMin= -76.1251855599622     IErMin= 1 ErrMin= 6.13D-06
 ErrMax= 7.92D-06  0.00D+00 EMaxC= 1.00D-01 BMatC= 9.32D-10 BMatP= 9.39D-10
 IDIUse=1 WtCom= 1.00D+00 WtEn= 0.00D+00
 Coeff-Com:  0.499D+00 0.501D+00
 Coeff:      0.499D+00 0.501D+00
 Gap=     0.137 Goal=   None    Shift=    0.000
 RMSDP=2.44D-06 MaxDP=2.29D-05 DE=-2.38D-10 OVMax= 4.36D-05

 Cycle  11  Pass 1  IDiag  1:
 E= -76.1251855570714     Delta-E=        0.000000002891 Rises=F Damp=F
 DIIS: error= 1.60D-05 at cycle   3 NSaved=   3.
 NSaved= 3 IEnMin= 2 EnMin= -76.1251855599622     IErMin= 1 ErrMin= 6.13D-06
 ErrMax= 1.60D-05  0.00D+00 EMaxC= 1.00D-01 BMatC= 4.07D-09 BMatP= 9.32D-10
 IDIUse=1 WtCom= 1.00D+00 WtEn= 0.00D+00
 Coeff-Com: -0.182D-01 0.688D+00 0.330D+00
 Coeff:     -0.182D-01 0.688D+00 0.330D+00
 Gap=     0.137 Goal=   None    Shift=    0.000
 RMSDP=1.44D-06 MaxDP=1.41D-05 DE= 2.89D-09 OVMax= 2.54D-05

 Cycle  12  Pass 1  IDiag  1:
 E= -76.1251855609171     Delta-E=       -0.000000003846 Rises=F Damp=F
 DIIS: error= 1.28D-06 at cycle   4 NSaved=   4.
 NSaved= 4 IEnMin= 4 EnMin= -76.1251855609171     IErMin= 4 ErrMin= 1.28D-06
 ErrMax= 1.28D-06  0.00D+00 EMaxC= 1.00D-01 BMatC= 2.07D-11 BMatP= 9.32D-10
 IDIUse=1 WtCom= 1.00D+00 WtEn= 0.00D+00
 Coeff-Com: -0.112D-01 0.169D+00 0.241D-01 0.818D+00
 Coeff:     -0.112D-01 0.169D+00 0.241D-01 0.818D+00
 Gap=     0.137 Goal=   None    Shift=    0.000
 RMSDP=1.40D-07 MaxDP=1.14D-06 DE=-3.85D-09 OVMax= 2.41D-06

 Cycle  13  Pass 1  IDiag  1:
 E= -76.1251855609402     Delta-E=       -0.000000000023 Rises=F Damp=F
 DIIS: error= 5.48D-08 at cycle   5 NSaved=   5.
 NSaved= 5 IEnMin= 5 EnMin= -76.1251855609402     IErMin= 5 ErrMin= 5.48D-08
 ErrMax= 5.48D-08  0.00D+00 EMaxC= 1.00D-01 BMatC= 6.10D-14 BMatP= 2.07D-11
 IDIUse=1 WtCom= 1.00D+00 WtEn= 0.00D+00
 Coeff-Com: -0.113D-02 0.745D-02-0.143D-02 0.115D+00 0.880D+00
 Coeff:     -0.113D-02 0.745D-02-0.143D-02 0.115D+00 0.880D+00
 Gap=     0.137 Goal=   None    Shift=    0.000
 RMSDP=9.88D-09 MaxDP=7.50D-08 DE=-2.31D-11 OVMax= 1.67D-07

 SCF Done:  E(RB3LYP) =  -76.1251855609     A.U. after   13 cycles
            NFock= 13  Conv=0.99D-08     -V/T= 2.0169
 KE= 7.485901897578D+01 PE=-1.893264342216D+02 EE= 3.349637324671D+01
 Leave Link  502 at Thu Mar  8 14:10:17 2018, MaxMem=    33554432 cpu:         0.9
 (Enter /opt/g09-d01/g09/l601.exe)
 Copying SCF densities to generalized density rwf, IOpCl= 0 IROHF=0.

 **********************************************************************

            Population analysis using the SCF density.

 **********************************************************************

 Orbital symmetries:
       Occupied  (A') (A') (A') (A') (A")
       Virtual   (A') (A') (A') (A") (A') (A') (A') (A') (A") (A')
                 (A') (A') (A') (A") (A") (A') (A') (A')
 The electronic state is 1-A'.
 Alpha  occ. eigenvalues --  -19.23987  -0.89317  -0.36289  -0.34243  -0.30301
 Alpha virt. eigenvalues --   -0.16598  -0.13658   0.14648   0.16009   0.19528
 Alpha virt. eigenvalues --    0.20883   0.75927   0.78950   1.12890   1.14267
 Alpha virt. eigenvalues --    1.16046   1.22846   1.78656   1.80340   1.80743
 Alpha virt. eigenvalues --    1.82214   1.83843   3.66540
          Condensed to atoms (all electrons):
               1          2          3
     1  O    8.142208   0.175070   0.175071
     2  H    0.175070   0.579320  -0.000564
     3  H    0.175071  -0.000564   0.579318
 Mulliken charges:
               1
     1  O   -0.492349
     2  H    0.246174
     3  H    0.246175
 Sum of Mulliken charges =   0.00000
 Mulliken charges with hydrogens summed into heavy atoms:
               1
     1  O    0.000000
 Electronic spatial extent (au):  <R**2>=             34.9425
 Charge=              0.0000 electrons
 Dipole moment (field-independent basis, Debye):
    X=              0.0000    Y=             -2.2007    Z=              0.0000  Tot=              2.2007
 Quadrupole moment (field-independent basis, Debye-Ang):
   XX=             -2.5240   YY=             -6.0775   ZZ=             -9.0675
   XY=              0.0000   XZ=              0.0000   YZ=              0.0000
 Traceless Quadrupole moment (field-independent basis, Debye-Ang):
   XX=              3.3656   YY=             -0.1878   ZZ=             -3.1778
   XY=              0.0000   XZ=              0.0000   YZ=              0.0000
 Octapole moment (field-independent basis, Debye-Ang**2):
  XXX=              0.0000  YYY=             -0.4565  ZZZ=              0.0000  XYY=              0.0001
  XXY=             -4.8852  XXZ=              0.0000  XZZ=              0.0000  YZZ=              0.3393
  YYZ=              0.0000  XYZ=              0.0000
 Hexadecapole moment (field-independent basis, Debye-Ang**3):
 XXXX=            -16.4230 YYYY=            -16.1516 ZZZZ=             -9.7026 XXXY=              0.0000
 XXXZ=              0.0000 YYYX=              0.0000 YYYZ=              0.0000 ZZZX=              0.0000
 ZZZY=              0.0000 XXYY=             -2.7102 XXZZ=             -6.6911 YYZZ=             -4.7072
 XXYZ=              0.0000 YYXZ=              0.0000 ZZXY=              0.0000
 N-N= 4.845856438139D+00 E-N=-1.893264333241D+02  KE= 7.485901897578D+01
 Symmetry A'   KE= 7.012882137039D+01
 Symmetry A"   KE= 4.730197605395D+00
 No NMR shielding tensors so no spin-rotation constants.
 Leave Link  601 at Thu Mar  8 14:10:17 2018, MaxMem=    33554432 cpu:         0.2
 (Enter /opt/g09-d01/g09/l607.exe)
 ******************************Gaussian NBO Version 3.1******************************
             N A T U R A L   A T O M I C   O R B I T A L   A N D
          N A T U R A L   B O N D   O R B I T A L   A N A L Y S I S
 ******************************Gaussian NBO Version 3.1******************************

       /RESON  / : Allow strongly delocalized NBO set
       /BNDIDX / : Print bond indices based on the NAO density matrix

 Analyzing the SCF density

 Job title: vib H2O                                                         

 Storage needed:      1799 in NPA,      2273 in NBO (  33554369 available)


 NATURAL POPULATIONS:  Natural atomic orbital occupancies 
                                                          
   NAO  Atom  No  lang   Type(AO)    Occupancy      Energy
 ----------------------------------------------------------
     1    O    1  S      Cor( 1S)     2.00000     -19.15563
     2    O    1  S      Val( 2S)     1.97913      -0.96133
     3    O    1  S      Ryd( 3S)     0.00014       1.11408
     4    O    1  S      Ryd( 4S)     0.00000       1.18100
     5    O    1  S      Ryd( 5S)     0.00000       2.86471
     6    O    1  px     Val( 2p)     1.39483      -0.29011
     7    O    1  px     Ryd( 3p)     0.00004       0.25823
     8    O    1  px     Ryd( 4p)     0.00000       1.03791
     9    O    1  py     Val( 2p)     1.38159      -0.28637
    10    O    1  py     Ryd( 3p)     0.00007       0.23494
    11    O    1  py     Ryd( 4p)     0.00004       1.03876
    12    O    1  pz     Val( 2p)     1.99976      -0.30286
    13    O    1  pz     Ryd( 3p)     0.00012       0.23203
    14    O    1  pz     Ryd( 4p)     0.00000       1.05695
    15    O    1  dxy    Ryd( 3d)     0.00047       1.81981
    16    O    1  dxz    Ryd( 3d)     0.00000       1.80340
    17    O    1  dyz    Ryd( 3d)     0.00011       1.80728
    18    O    1  dx2y2  Ryd( 3d)     0.00003       1.78632
    19    O    1  dz2    Ryd( 3d)     0.00025       1.82967

    20    H    2  S      Val( 1S)     0.62155      -0.21334
    21    H    2  S      Ryd( 2S)     0.00016       0.77862

    22    H    3  S      Val( 1S)     0.62155      -0.21333
    23    H    3  S      Ryd( 2S)     0.00016       0.77862


 Summary of Natural Population Analysis:                  
                                                          
                                       Natural Population 
                Natural  -----------------------------------------------
    Atom  No    Charge         Core      Valence    Rydberg      Total
 -----------------------------------------------------------------------
      O    1   -0.75658      2.00000     6.75531    0.00127     8.75658
      H    2    0.37829      0.00000     0.62155    0.00016     0.62171
      H    3    0.37829      0.00000     0.62155    0.00016     0.62171
 =======================================================================
   * Total *    0.00000      2.00000     7.99841    0.00159    10.00000

                                 Natural Population      
 --------------------------------------------------------
   Core                       2.00000 ( 99.9998% of   2)
   Valence                    7.99841 ( 99.9802% of   8)
   Natural Minimal Basis      9.99841 ( 99.9841% of  10)
   Natural Rydberg Basis      0.00159 (  0.0159% of  10)
 --------------------------------------------------------

    Atom  No          Natural Electron Configuration
 ----------------------------------------------------------------------------
      O    1      [core]2S( 1.98)2p( 4.78)
      H    2            1S( 0.62)
      H    3            1S( 0.62)


 Wiberg bond index matrix in the NAO basis:                                    

     Atom    1       2       3
     ---- ------  ------  ------
   1.  O  0.0000  0.8567  0.8567
   2.  H  0.8567  0.0000  0.0004
   3.  H  0.8567  0.0004  0.0000


 Wiberg bond index, Totals by atom:                                            

     Atom    1
     ---- ------
   1.  O  1.7134
   2.  H  0.8571
   3.  H  0.8571


 Atom-atom overlap-weighted NAO bond order:                                    

     Atom    1       2       3
     ---- ------  ------  ------
   1.  O  0.0000  0.3673  0.3673
   2.  H  0.3673  0.0000  0.0022
   3.  H  0.3673  0.0022  0.0000


 Atom-atom overlap-weighted NAO bond order, Totals by atom:                    

     Atom    1
     ---- ------
   1.  O  0.7345
   2.  H  0.3694
   3.  H  0.3694


 MO bond order:                                                                

     Atom    1       2       3
     ---- ------  ------  ------
   1.  O  0.0000  0.1020 -1.1971
   2.  H  0.1020  0.0000  0.0029
   3.  H -1.1971  0.0029  0.0000


 MO atomic valencies:                                                          

     Atom    1
     ---- ------
   1.  O -1.0951
   2.  H  0.1049
   3.  H -1.1942


 NATURAL BOND ORBITAL ANALYSIS:

                       Occupancies       Lewis Structure    Low   High
           Occ.    -------------------  -----------------   occ   occ
  Cycle   Thresh.   Lewis   Non-Lewis     CR  BD  3C  LP    (L)   (NL)   Dev
 =============================================================================
   1(1)    1.90     9.99934   0.00066      1   2   0   2     0      0    0.00
 -----------------------------------------------------------------------------

 Structure accepted: No low occupancy Lewis orbitals

 --------------------------------------------------------
   Core                      2.00000 (100.000% of   2)
   Valence Lewis             7.99935 ( 99.992% of   8)
  ==================       ============================
   Total Lewis               9.99934 ( 99.993% of  10)
  -----------------------------------------------------
   Valence non-Lewis         0.00034 (  0.003% of  10)
   Rydberg non-Lewis         0.00032 (  0.003% of  10)
  ==================       ============================
   Total non-Lewis           0.00066 (  0.007% of  10)
 --------------------------------------------------------


       (Occupancy)   Bond orbital/ Coefficients/ Hybrids
 ---------------------------------------------------------------------------------
     1. (1.99975) BD ( 1) O   1 - H   2  
                ( 68.92%)   0.8302* O   1 s(  1.61%)p61.01( 98.36%)d 0.01(  0.02%)
                                            0.0000  0.1268  0.0072  0.0000  0.0000
                                            0.7070  0.0039  0.0013 -0.6956 -0.0035
                                           -0.0005  0.0000  0.0000  0.0000 -0.0130
                                            0.0000  0.0000 -0.0027 -0.0079
                ( 31.08%)   0.5575* H   2 s(100.00%)
                                            1.0000  0.0003
     2. (1.99975) BD ( 1) O   1 - H   3  
                ( 68.92%)   0.8302* O   1 s(  1.61%)p61.01( 98.36%)d 0.01(  0.02%)
                                            0.0000 -0.1268 -0.0072  0.0000  0.0000
                                            0.7070  0.0039  0.0013  0.6955  0.0035
                                            0.0005  0.0000  0.0000  0.0000 -0.0130
                                            0.0000  0.0000  0.0027  0.0079
                ( 31.08%)   0.5575* H   3 s(100.00%)
                                           -1.0000 -0.0003
     3. (2.00000) CR ( 1) O   1           s(100.00%)
                                            1.0000  0.0000  0.0000  0.0000  0.0000
                                            0.0000  0.0000  0.0000  0.0000  0.0000
                                            0.0000  0.0000  0.0000  0.0000  0.0000
                                            0.0000  0.0000  0.0000  0.0000
     4. (2.00000) LP ( 1) O   1           s(  0.00%)p 1.00( 99.99%)d 0.00(  0.01%)
                                            0.0000  0.0000  0.0000  0.0000  0.0000
                                            0.0000  0.0000  0.0000  0.0000  0.0000
                                            0.0000  0.9999 -0.0079 -0.0009  0.0000
                                            0.0000 -0.0074  0.0000  0.0000
     5. (1.99985) LP ( 2) O   1           s( 96.78%)p 0.03(  3.22%)d 0.00(  0.00%)
                                            0.0000  0.9837 -0.0013  0.0000  0.0000
                                            0.0000  0.0000  0.0000  0.1793  0.0040
                                           -0.0041  0.0000  0.0000  0.0000  0.0000
                                            0.0000  0.0000  0.0022 -0.0061
     6. (0.00000) RY*( 1) O   1           s( 99.99%)p 0.00(  0.01%)d 0.00(  0.00%)
     7. (0.00000) RY*( 2) O   1           s(100.00%)
     8. (0.00000) RY*( 3) O   1           s(100.00%)
     9. (0.00000) RY*( 4) O   1           s(  0.00%)p 1.00(100.00%)d 0.00(  0.00%)
    10. (0.00000) RY*( 5) O   1           s(  0.00%)p 1.00(100.00%)
    11. (0.00000) RY*( 6) O   1           s(  0.00%)p 1.00(100.00%)
    12. (0.00000) RY*( 7) O   1           s(  0.00%)p 1.00(100.00%)
    13. (0.00000) RY*( 8) O   1           s(  0.00%)p 1.00(100.00%)
    14. (0.00000) RY*( 9) O   1           s(  0.00%)p 1.00(100.00%)
    15. (0.00000) RY*(10) O   1           s(  0.00%)p 1.00(  0.03%)d99.99( 99.97%)
    16. (0.00000) RY*(11) O   1           s(  0.00%)p 0.00(  0.00%)d 1.00(100.00%)
    17. (0.00000) RY*(12) O   1           s(  0.00%)p 0.00(  0.01%)d 1.00( 99.99%)
    18. (0.00000) RY*(13) O   1           s(  0.00%)p 0.00(  0.00%)d 1.00(100.00%)
    19. (0.00000) RY*(14) O   1           s(  0.01%)p 0.00(  0.01%)d 1.00( 99.98%)
    20. (0.00016) RY*( 1) H   2           s(100.00%)
                                           -0.0003  1.0000
    21. (0.00016) RY*( 1) H   3           s(100.00%)
                                           -0.0003  1.0000
    22. (0.00017) BD*( 1) O   1 - H   2  
                ( 31.08%)   0.5575* O   1 s(  1.61%)p61.01( 98.36%)d 0.01(  0.02%)
                                            0.0000 -0.1268 -0.0072  0.0000  0.0000
                                           -0.7070 -0.0039 -0.0013  0.6956  0.0035
                                            0.0005  0.0000  0.0000  0.0000  0.0130
                                            0.0000  0.0000  0.0027  0.0079
                ( 68.92%)  -0.8302* H   2 s(100.00%)
                                           -1.0000 -0.0003
    23. (0.00017) BD*( 1) O   1 - H   3  
                ( 31.08%)   0.5575* O   1 s(  1.61%)p61.01( 98.36%)d 0.01(  0.02%)
                                            0.0000  0.1268  0.0072  0.0000  0.0000
                                           -0.7070 -0.0039 -0.0013 -0.6955 -0.0035
                                           -0.0005  0.0000  0.0000  0.0000  0.0130
                                            0.0000  0.0000 -0.0027 -0.0079
                ( 68.92%)  -0.8302* H   3 s(100.00%)
                                            1.0000  0.0003


 NHO Directionality and "Bond Bending" (deviations from line of nuclear centers)

         [Thresholds for printing:  angular deviation  >  1.0 degree]
                                    hybrid p-character > 25.0%
                                    orbital occupancy  >  0.10e

                                Line of Centers        Hybrid 1              Hybrid 2
                                ---------------  -------------------   ------------------
                NBO               Theta   Phi    Theta   Phi    Dev    Theta   Phi    Dev
 ========================================================================================
     1. BD (   1) O   1 - H   2    90.0  322.4    90.0  315.5   6.9      --     --    --
     2. BD (   1) O   1 - H   3    90.0  217.6    90.0  224.5   6.9      --     --    --
     4. LP (   1) O   1             --     --      0.0    0.0   --       --     --    --


 Second Order Perturbation Theory Analysis of Fock Matrix in NBO Basis

     Threshold for printing:   0.50 kcal/mol
                                                                              E(2)  E(j)-E(i) F(i,j)
         Donor NBO (i)                     Acceptor NBO (j)                 kcal/mol   a.u.    a.u. 
 ===================================================================================================

 within unit  1
       None above threshold


 Natural Bond Orbitals (Summary):

                                                            Principal Delocalizations
           NBO                        Occupancy    Energy   (geminal,vicinal,remote)
 ====================================================================================
 Molecular unit  1  (H2O)
     1. BD (   1) O   1 - H   2          1.99975    -0.37313   
     2. BD (   1) O   1 - H   3          1.99975    -0.37313   
     3. CR (   1) O   1                  2.00000   -19.15565   
     4. LP (   1) O   1                  2.00000    -0.30301   
     5. LP (   2) O   1                  1.99985    -0.93612   
     6. RY*(   1) O   1                  0.00000     1.11385   
     7. RY*(   2) O   1                  0.00000     1.18100   
     8. RY*(   3) O   1                  0.00000     2.86471   
     9. RY*(   4) O   1                  0.00000     0.25836   
    10. RY*(   5) O   1                  0.00000     1.03797   
    11. RY*(   6) O   1                  0.00000     0.23502   
    12. RY*(   7) O   1                  0.00000     1.03880   
    13. RY*(   8) O   1                  0.00000     0.23207   
    14. RY*(   9) O   1                  0.00000     1.05696   
    15. RY*(  10) O   1                  0.00000     1.81991   
    16. RY*(  11) O   1                  0.00000     1.80340   
    17. RY*(  12) O   1                  0.00000     1.80740   
    18. RY*(  13) O   1                  0.00000     1.78640   
    19. RY*(  14) O   1                  0.00000     1.82984   
    20. RY*(   1) H   2                  0.00016     0.77858   
    21. RY*(   1) H   3                  0.00016     0.77858   
    22. BD*(   1) O   1 - H   2          0.00017    -0.14122   
    23. BD*(   1) O   1 - H   3          0.00017    -0.14122   
       -------------------------------
              Total Lewis    9.99934  ( 99.9934%)
        Valence non-Lewis    0.00034  (  0.0034%)
        Rydberg non-Lewis    0.00032  (  0.0032%)
       -------------------------------
            Total unit  1   10.00000  (100.0000%)
           Charge unit  1    0.00000
 Leave Link  607 at Thu Mar  8 14:10:17 2018, MaxMem=    33554432 cpu:         0.2
 (Enter /opt/g09-d01/g09/l701.exe)
 Compute integral first derivatives.
 ... and contract with generalized density number  0.
 Leave Link  701 at Thu Mar  8 14:10:17 2018, MaxMem=    33554432 cpu:         0.2
 (Enter /opt/g09-d01/g09/l702.exe)
 L702 exits ... SP integral derivatives will be done elsewhere.
 Leave Link  702 at Thu Mar  8 14:10:18 2018, MaxMem=    33554432 cpu:         0.0
 (Enter /opt/g09-d01/g09/l703.exe)
 Compute integral first derivatives, UseDBF=F ICtDFT=           0.
 Integral derivatives from FoFJK, PRISM(SPDF).
 Calling FoFJK, ICntrl=      2127 FMM=F ISym2X=1 I1Cent= 0 IOpClX= 0 NMat=1 NMatS=1 NMatT=0.
 FoFJK:  IHMeth= 1 ICntrl=    2127 DoSepK=F KAlg= 0 I1Cent=   0 FoldK=F
 IRaf=         0 NMat=   1 IRICut=       1 DoRegI=T DoRafI=F ISym2E= 1.
 FoFCou: FMM=F IPFlag=           0 FMFlag=      100000 FMFlg1=         800
         NFxFlg=           0 DoJE=F BraDBF=F KetDBF=F FulRan=T
         wScrn=  0.000000 ICntrl=    2127 IOpCl=  0 I1Cent=           0 NGrid=           0
         NMat0=    1 NMatS0=      1 NMatT0=    0 NMatD0=    1 NMtDS0=    0 NMtDT0=    0
 Petite list used in FoFCou.
 Leave Link  703 at Thu Mar  8 14:10:18 2018, MaxMem=    33554432 cpu:         0.3
 (Enter /opt/g09-d01/g09/l716.exe)
 Dipole        =-4.17459808D-06-8.65831885D-01 8.91029224D-17
 ***** Axes restored to original set *****
 -------------------------------------------------------------------
 Center     Atomic                   Forces (Hartrees/Bohr)
 Number     Number              X              Y              Z
 -------------------------------------------------------------------
      1        8           0.083799259   -0.025578822   -0.032569773
      2        1          -0.045936997   -0.045751578    0.051869047
      3        1          -0.037862261    0.071330400   -0.019299274
 -------------------------------------------------------------------
 Cartesian Forces:  Max     0.083799259 RMS     0.050028029
 Leave Link  716 at Thu Mar  8 14:10:18 2018, MaxMem=    33554432 cpu:         0.0
 (Enter /opt/g09-d01/g09/l103.exe)

 GradGradGradGradGradGradGradGradGradGradGradGradGradGradGradGradGradGrad
 Berny optimization.
 FormGI is forming the generalized inverse of G from B-inverse, IUseBI=4.
 Internal  Forces:  Max     0.082892730 RMS     0.068340145
 Search for a local minimum.
 Step number   1 out of a maximum of   20
 All quantities printed in internal units (Hartrees-Bohrs-Radians)
 RMS Force = .68340D-01 SwitMx=.10000D-02 MixMth= 1
 Mixed Optimization -- RFO/linear search
 Second derivative matrix not updated -- first step.
 The second derivative matrix:
                          R1        R2        A1
           R1           0.05935
           R2           0.00000   0.05935
           A1           0.00000   0.00000   0.16000
 ITU=  0
     Eigenvalues ---    0.05935   0.05935   0.16000
 RFO step:  Lambda=-9.19156082D-02 EMin= 5.93490387D-02
 Linear search not attempted -- first point.
 Maximum step size (   0.300) exceeded in Quadratic search.
    -- Step size scaled by   0.386
 Iteration  1 RMS(Cart)=  0.15646966 RMS(Int)=  0.00957448
 Iteration  2 RMS(Cart)=  0.00757538 RMS(Int)=  0.00000335
 Iteration  3 RMS(Cart)=  0.00000605 RMS(Int)=  0.00000000
 Iteration  4 RMS(Cart)=  0.00000000 RMS(Int)=  0.00000000
 ITry= 1 IFail=0 DXMaxC= 1.73D-01 DCOld= 1.00D+10 DXMaxT= 3.00D-01 DXLimC= 3.00D+00 Rises=F
 ClnCor:  largest displacement from symmetrization is 3.65D-15 for atom     2.
 Variable       Old X    -DE/DX   Delta X   Delta X   Delta X     New X
                                 (Linear)    (Quad)   (Total)
    R1        3.43196  -0.08289   0.00000  -0.21139  -0.21139   3.22057
    R2        3.43193  -0.08289   0.00000  -0.21139  -0.21139   3.22054
    A1        1.83066  -0.01640   0.00000  -0.02511  -0.02511   1.80555
         Item               Value     Threshold  Converged?
 Maximum Force            0.082893     0.000015     NO 
 RMS     Force            0.068340     0.000010     NO 
 Maximum Displacement     0.172992     0.000060     NO 
 RMS     Displacement     0.163629     0.000040     NO 
 Predicted change in Energy=-3.275403D-02
 Lowest energy point so far.  Saving SCF results.
 GradGradGradGradGradGradGradGradGradGradGradGradGradGradGradGradGradGrad

 Leave Link  103 at Thu Mar  8 14:10:18 2018, MaxMem=    33554432 cpu:         0.0
 (Enter /opt/g09-d01/g09/l202.exe)
                          Input orientation:                          
 ---------------------------------------------------------------------
 Center     Atomic      Atomic             Coordinates (Angstroms)
 Number     Number       Type             X           Y           Z
 ---------------------------------------------------------------------
      1          8           0       -0.080395    0.024538    0.031248
      2          1           0        0.944735    0.876964   -1.030336
      3          1           0        0.787290   -1.405614    0.357143
 ---------------------------------------------------------------------
                    Distance matrix (angstroms):
                    1          2          3
     1  O    0.000000
     2  H    1.704254   0.000000
     3  H    1.704236   2.675826   0.000000
 Stoichiometry    H2O
 Framework group  CS[SG(H2O)]
 Deg. of freedom     3
 Full point group                 CS      NOp   2
 RotChk:  IX=0 Diff= 9.82D-07
 Largest Abelian subgroup         CS      NOp   2
 Largest concise Abelian subgroup C1      NOp   1
                         Standard orientation:                         
 ---------------------------------------------------------------------
 Center     Atomic      Atomic             Coordinates (Angstroms)
 Number     Number       Type             X           Y           Z
 ---------------------------------------------------------------------
      1          8           0        0.000000    0.211134    0.000000
      2          1           0        1.337913   -0.844551    0.000000
      3          1           0       -1.337913   -0.844521    0.000000
 ---------------------------------------------------------------------
 Rotational constants (GHZ):    253.3327068    140.0703470     90.1985885
 Leave Link  202 at Thu Mar  8 14:10:18 2018, MaxMem=    33554432 cpu:         0.0
 (Enter /opt/g09-d01/g09/l301.exe)
 Standard basis: 6-31+G(d) (6D, 7F)
 Ernie: Thresh=  0.10000D-02 Tol=  0.10000D-05 Strict=F.
 There are    18 symmetry adapted cartesian basis functions of A'  symmetry.
 There are     5 symmetry adapted cartesian basis functions of A"  symmetry.
 There are    18 symmetry adapted basis functions of A'  symmetry.
 There are     5 symmetry adapted basis functions of A"  symmetry.
    23 basis functions,    40 primitive gaussians,    23 cartesian basis functions
     5 alpha electrons        5 beta electrons
       nuclear repulsion energy         5.1658485017 Hartrees.
 IExCor=  402 DFT=T Ex+Corr=B3LYP ExCW=0 ScaHFX=  0.200000
 ScaDFX=  0.800000  0.720000  1.000000  0.810000 ScalE2=  1.000000  1.000000
 IRadAn=      0 IRanWt=     -1 IRanGd=            0 ICorTp=0 IEmpDi=  4
 NAtoms=    3 NActive=    3 NUniq=    3 SFac= 1.00D+00 NAtFMM=   60 NAOKFM=F Big=F
 Integral buffers will be    131072 words long.
 Raffenetti 2 integral format.
 Two-electron integral symmetry is turned on.
 Leave Link  301 at Thu Mar  8 14:10:18 2018, MaxMem=    33554432 cpu:         0.1
 (Enter /opt/g09-d01/g09/l302.exe)
 NPDir=0 NMtPBC=     1 NCelOv=     1 NCel=       1 NClECP=     1 NCelD=      1
         NCelK=      1 NCelE2=     1 NClLst=     1 CellRange=     0.0.
 One-electron integrals computed using PRISM.
 NBasis=    23 RedAO= T EigKep=  3.00D-02  NBF=    18     5
 NBsUse=    23 1.00D-06 EigRej= -1.00D+00 NBFU=    18     5
 Precomputing XC quadrature grid using
 IXCGrd= 4 IRadAn=           0 IRanWt=          -1 IRanGd=           0 AccXCQ= 0.00D+00.
 Generated NRdTot=       0 NPtTot=           0 NUsed=           0 NTot=          32
 NSgBfM=    23    23    23    23    23 MxSgAt=     3 MxSgA2=     3.
 Leave Link  302 at Thu Mar  8 14:10:19 2018, MaxMem=    33554432 cpu:         0.2
 (Enter /opt/g09-d01/g09/l303.exe)
 DipDrv:  MaxL=1.
 Leave Link  303 at Thu Mar  8 14:10:19 2018, MaxMem=    33554432 cpu:         0.0
 (Enter /opt/g09-d01/g09/l401.exe)
 Initial guess from the checkpoint file:  "h2o.chk"
 B after Tr=     0.000000    0.000000    0.000000
         Rot=    1.000000    0.000000    0.000000    0.000000 Ang=   0.00 deg.
 Guess basis will be translated and rotated to current coordinates.
 JPrj=2 DoOrth=T DoCkMO=T.
 Initial guess orbital symmetries:
       Occupied  (A') (A') (A') (A') (A")
       Virtual   (A') (A') (A') (A') (A') (A') (A') (A') (A') (A')
                 (A') (A') (A') (A') (A") (A") (A") (A")
 The electronic state of the initial guess is 1-A'.
 Generating alternative initial guess.
 ExpMin= 8.45D-02 ExpMax= 5.48D+03 ExpMxC= 8.25D+02 IAcc=2 IRadAn=         4 AccDes= 0.00D+00
 Harris functional with IExCor=  402 and IRadAn=       4 diagonalized for initial guess.
 HarFok:  IExCor=  402 AccDes= 0.00D+00 IRadAn=         4 IDoV= 1 UseB2=F ITyADJ=14
 ICtDFT=  3500011 ScaDFX=  1.000000  1.000000  1.000000  1.000000
 FoFCou: FMM=F IPFlag=           0 FMFlag=      100000 FMFlg1=           0
         NFxFlg=           0 DoJE=T BraDBF=F KetDBF=T FulRan=T
         wScrn=  0.000000 ICntrl=     500 IOpCl=  0 I1Cent=   200000004 NGrid=           0
         NMat0=    1 NMatS0=      1 NMatT0=    0 NMatD0=    1 NMtDS0=    0 NMtDT0=    0
 Petite list used in FoFCou.
 Harris En= -76.2137829489675    
 Leave Link  401 at Thu Mar  8 14:10:19 2018, MaxMem=    33554432 cpu:         0.3
 (Enter /opt/g09-d01/g09/l502.exe)
 Closed shell SCF:
 Using DIIS extrapolation, IDIIS=  1040.
 Integral symmetry usage will be decided dynamically.
 Keep R1 ints in memory in symmetry-blocked form, NReq=919005.
 IVT=       20464 IEndB=       20464 NGot=    33554432 MDV=    33511632
 LenX=    33511632 LenY=    33510662
 Requested convergence on RMS density matrix=1.00D-08 within 128 cycles.
 Requested convergence on MAX density matrix=1.00D-06.
 Requested convergence on             energy=1.00D-06.
 No special actions if energy rises.
 FoFCou: FMM=F IPFlag=           0 FMFlag=           0 FMFlg1=           0
         NFxFlg=           0 DoJE=F BraDBF=F KetDBF=F FulRan=T
         wScrn=  0.000000 ICntrl=     600 IOpCl=  0 I1Cent=           0 NGrid=           0
         NMat0=    1 NMatS0=    276 NMatT0=    0 NMatD0=    1 NMtDS0=    0 NMtDT0=    0
 Petite list used in FoFCou.
 Integral accuracy reduced to 1.0D-05 until final iterations.

 Cycle   1  Pass 0  IDiag  1:
 E= -76.1617398639271    
 DIIS: error= 5.09D-03 at cycle   1 NSaved=   1.
 NSaved= 1 IEnMin= 1 EnMin= -76.1617398639271     IErMin= 1 ErrMin= 5.09D-03
 ErrMax= 5.09D-03  0.00D+00 EMaxC= 1.00D-01 BMatC= 4.74D-04 BMatP= 4.74D-04
 IDIUse=3 WtCom= 9.49D-01 WtEn= 5.09D-02
 Coeff-Com:  0.100D+01
 Coeff-En:   0.100D+01
 Coeff:      0.100D+01
 Gap=     0.681 Goal=   None    Shift=    0.000
 GapD=    0.681 DampG=2.000 DampE=1.000 DampFc=2.0000 IDamp=-1.
 RMSDP=2.54D-03 MaxDP=2.32D-02              OVMax= 4.42D-02

 Cycle   2  Pass 0  IDiag  1:
 E= -76.1577996917329     Delta-E=        0.003940172194 Rises=F Damp=F
 DIIS: error= 1.71D-02 at cycle   2 NSaved=   2.
 NSaved= 2 IEnMin= 1 EnMin= -76.1617398639271     IErMin= 1 ErrMin= 5.09D-03
 ErrMax= 1.71D-02  0.00D+00 EMaxC= 1.00D-01 BMatC= 5.05D-03 BMatP= 4.74D-04
 IDIUse=2 WtCom= 0.00D+00 WtEn= 1.00D+00
 Coeff-En:   0.840D+00 0.160D+00
 Coeff:      0.840D+00 0.160D+00
 Gap=     0.156 Goal=   None    Shift=    0.000
 RMSDP=1.49D-03 MaxDP=1.41D-02 DE= 3.94D-03 OVMax= 2.52D-02

 Cycle   3  Pass 0  IDiag  1:
 E= -76.1623777794042     Delta-E=       -0.004578087671 Rises=F Damp=F
 DIIS: error= 2.72D-03 at cycle   3 NSaved=   3.
 NSaved= 3 IEnMin= 3 EnMin= -76.1623777794042     IErMin= 3 ErrMin= 2.72D-03
 ErrMax= 2.72D-03  0.00D+00 EMaxC= 1.00D-01 BMatC= 1.36D-04 BMatP= 4.74D-04
 IDIUse=3 WtCom= 9.73D-01 WtEn= 2.72D-02
 Coeff-Com:  0.257D-01-0.182D+00 0.116D+01
 Coeff-En:   0.000D+00 0.000D+00 0.100D+01
 Coeff:      0.250D-01-0.178D+00 0.115D+01
 Gap=     0.155 Goal=   None    Shift=    0.000
 RMSDP=3.28D-04 MaxDP=2.48D-03 DE=-4.58D-03 OVMax= 4.85D-03

 Cycle   4  Pass 0  IDiag  1:
 E= -76.1625057816154     Delta-E=       -0.000128002211 Rises=F Damp=F
 DIIS: error= 2.42D-04 at cycle   4 NSaved=   4.
 NSaved= 4 IEnMin= 4 EnMin= -76.1625057816154     IErMin= 4 ErrMin= 2.42D-04
 ErrMax= 2.42D-04  0.00D+00 EMaxC= 1.00D-01 BMatC= 1.58D-06 BMatP= 1.36D-04
 IDIUse=3 WtCom= 9.98D-01 WtEn= 2.42D-03
 Coeff-Com: -0.156D-01-0.305D-01 0.243D+00 0.803D+00
 Coeff-En:   0.000D+00 0.000D+00 0.000D+00 0.100D+01
 Coeff:     -0.155D-01-0.305D-01 0.242D+00 0.804D+00
 Gap=     0.155 Goal=   None    Shift=    0.000
 RMSDP=3.03D-05 MaxDP=2.89D-04 DE=-1.28D-04 OVMax= 5.19D-04

 Cycle   5  Pass 0  IDiag  1:
 E= -76.1625072120574     Delta-E=       -0.000001430442 Rises=F Damp=F
 DIIS: error= 5.73D-05 at cycle   5 NSaved=   5.
 NSaved= 5 IEnMin= 5 EnMin= -76.1625072120574     IErMin= 5 ErrMin= 5.73D-05
 ErrMax= 5.73D-05  0.00D+00 EMaxC= 1.00D-01 BMatC= 5.83D-08 BMatP= 1.58D-06
 IDIUse=1 WtCom= 1.00D+00 WtEn= 0.00D+00
 Coeff-Com: -0.598D-03 0.549D-02-0.113D-01 0.399D-01 0.966D+00
 Coeff:     -0.598D-03 0.549D-02-0.113D-01 0.399D-01 0.966D+00
 Gap=     0.155 Goal=   None    Shift=    0.000
 RMSDP=1.09D-05 MaxDP=1.21D-04 DE=-1.43D-06 OVMax= 2.33D-04

 Cycle   6  Pass 0  IDiag  1:
 E= -76.1625072766675     Delta-E=       -0.000000064610 Rises=F Damp=F
 DIIS: error= 1.99D-05 at cycle   6 NSaved=   6.
 NSaved= 6 IEnMin= 6 EnMin= -76.1625072766675     IErMin= 6 ErrMin= 1.99D-05
 ErrMax= 1.99D-05  0.00D+00 EMaxC= 1.00D-01 BMatC= 4.69D-09 BMatP= 5.83D-08
 IDIUse=1 WtCom= 1.00D+00 WtEn= 0.00D+00
 Coeff-Com:  0.251D-03-0.930D-04-0.607D-02-0.211D-01 0.365D-01 0.991D+00
 Coeff:      0.251D-03-0.930D-04-0.607D-02-0.211D-01 0.365D-01 0.991D+00
 Gap=     0.155 Goal=   None    Shift=    0.000
 RMSDP=2.48D-06 MaxDP=2.58D-05 DE=-6.46D-08 OVMax= 5.15D-05

 Initial convergence to 1.0D-05 achieved.  Increase integral accuracy.
 Cycle   7  Pass 1  IDiag  1:
 E= -76.1625055117898     Delta-E=        0.000001764878 Rises=F Damp=F
 DIIS: error= 6.18D-06 at cycle   1 NSaved=   1.
 NSaved= 1 IEnMin= 1 EnMin= -76.1625055117898     IErMin= 1 ErrMin= 6.18D-06
 ErrMax= 6.18D-06  0.00D+00 EMaxC= 1.00D-01 BMatC= 6.10D-10 BMatP= 6.10D-10
 IDIUse=1 WtCom= 1.00D+00 WtEn= 0.00D+00
 Coeff-Com:  0.100D+01
 Coeff:      0.100D+01
 Gap=     0.155 Goal=   None    Shift=    0.000
 RMSDP=2.48D-06 MaxDP=2.58D-05 DE= 1.76D-06 OVMax= 1.98D-05

 Cycle   8  Pass 1  IDiag  1:
 E= -76.1625055121185     Delta-E=       -0.000000000329 Rises=F Damp=F
 DIIS: error= 5.96D-06 at cycle   2 NSaved=   2.
 NSaved= 2 IEnMin= 2 EnMin= -76.1625055121185     IErMin= 2 ErrMin= 5.96D-06
 ErrMax= 5.96D-06  0.00D+00 EMaxC= 1.00D-01 BMatC= 4.70D-10 BMatP= 6.10D-10
 IDIUse=1 WtCom= 1.00D+00 WtEn= 0.00D+00
 Coeff-Com:  0.441D+00 0.559D+00
 Coeff:      0.441D+00 0.559D+00
 Gap=     0.155 Goal=   None    Shift=    0.000
 RMSDP=1.69D-06 MaxDP=1.51D-05 DE=-3.29D-10 OVMax= 2.78D-05

 Cycle   9  Pass 1  IDiag  1:
 E= -76.1625055108791     Delta-E=        0.000000001239 Rises=F Damp=F
 DIIS: error= 1.02D-05 at cycle   3 NSaved=   3.
 NSaved= 3 IEnMin= 2 EnMin= -76.1625055121185     IErMin= 2 ErrMin= 5.96D-06
 ErrMax= 1.02D-05  0.00D+00 EMaxC= 1.00D-01 BMatC= 1.86D-09 BMatP= 4.70D-10
 IDIUse=1 WtCom= 1.00D+00 WtEn= 0.00D+00
 Coeff-Com:  0.704D-01 0.622D+00 0.307D+00
 Coeff:      0.704D-01 0.622D+00 0.307D+00
 Gap=     0.155 Goal=   None    Shift=    0.000
 RMSDP=1.04D-06 MaxDP=1.03D-05 DE= 1.24D-09 OVMax= 1.83D-05

 Cycle  10  Pass 1  IDiag  1:
 E= -76.1625055126028     Delta-E=       -0.000000001724 Rises=F Damp=F
 DIIS: error= 3.37D-07 at cycle   4 NSaved=   4.
 NSaved= 4 IEnMin= 4 EnMin= -76.1625055126028     IErMin= 4 ErrMin= 3.37D-07
 ErrMax= 3.37D-07  0.00D+00 EMaxC= 1.00D-01 BMatC= 1.90D-12 BMatP= 4.70D-10
 IDIUse=1 WtCom= 1.00D+00 WtEn= 0.00D+00
 Coeff-Com: -0.173D-01 0.139D+00 0.600D-01 0.818D+00
 Coeff:     -0.173D-01 0.139D+00 0.600D-01 0.818D+00
 Gap=     0.155 Goal=   None    Shift=    0.000
 RMSDP=5.02D-08 MaxDP=3.37D-07 DE=-1.72D-09 OVMax= 8.14D-07

 Cycle  11  Pass 1  IDiag  1:
 E= -76.1625055126049     Delta-E=       -0.000000000002 Rises=F Damp=F
 DIIS: error= 4.83D-08 at cycle   5 NSaved=   5.
 NSaved= 5 IEnMin= 5 EnMin= -76.1625055126049     IErMin= 5 ErrMin= 4.83D-08
 ErrMax= 4.83D-08  0.00D+00 EMaxC= 1.00D-01 BMatC= 3.20D-14 BMatP= 1.90D-12
 IDIUse=1 WtCom= 1.00D+00 WtEn= 0.00D+00
 Coeff-Com:  0.998D-03-0.199D-01-0.131D-01-0.882D-01 0.112D+01
 Coeff:      0.998D-03-0.199D-01-0.131D-01-0.882D-01 0.112D+01
 Gap=     0.155 Goal=   None    Shift=    0.000
 RMSDP=1.42D-08 MaxDP=1.58D-07 DE=-2.10D-12 OVMax= 3.12D-07

 Cycle  12  Pass 1  IDiag  1:
 E= -76.1625055126051     Delta-E=        0.000000000000 Rises=F Damp=F
 DIIS: error= 2.82D-08 at cycle   6 NSaved=   6.
 NSaved= 6 IEnMin= 6 EnMin= -76.1625055126051     IErMin= 6 ErrMin= 2.82D-08
 ErrMax= 2.82D-08  0.00D+00 EMaxC= 1.00D-01 BMatC= 1.01D-14 BMatP= 3.20D-14
 IDIUse=1 WtCom= 1.00D+00 WtEn= 0.00D+00
 Coeff-Com:  0.807D-03-0.765D-02-0.202D-02-0.370D-01 0.167D+00 0.878D+00
 Coeff:      0.807D-03-0.765D-02-0.202D-02-0.370D-01 0.167D+00 0.878D+00
 Gap=     0.155 Goal=   None    Shift=    0.000
 RMSDP=3.44D-09 MaxDP=3.31D-08 DE=-2.70D-13 OVMax= 6.96D-08

 SCF Done:  E(RB3LYP) =  -76.1625055126     A.U. after   12 cycles
            NFock= 12  Conv=0.34D-08     -V/T= 2.0172
 KE= 7.487432186164D+01 PE=-1.900035995517D+02 EE= 3.380092367579D+01
 Leave Link  502 at Thu Mar  8 14:10:20 2018, MaxMem=    33554432 cpu:         1.0
 (Enter /opt/g09-d01/g09/l701.exe)
 Compute integral first derivatives.
 ... and contract with generalized density number  0.
 Leave Link  701 at Thu Mar  8 14:10:20 2018, MaxMem=    33554432 cpu:         0.2
 (Enter /opt/g09-d01/g09/l702.exe)
 L702 exits ... SP integral derivatives will be done elsewhere.
 Leave Link  702 at Thu Mar  8 14:10:20 2018, MaxMem=    33554432 cpu:         0.0
 (Enter /opt/g09-d01/g09/l703.exe)
 Compute integral first derivatives, UseDBF=F ICtDFT=           0.
 Integral derivatives from FoFJK, PRISM(SPDF).
 Calling FoFJK, ICntrl=      2127 FMM=F ISym2X=1 I1Cent= 0 IOpClX= 0 NMat=1 NMatS=1 NMatT=0.
 FoFJK:  IHMeth= 1 ICntrl=    2127 DoSepK=F KAlg= 0 I1Cent=   0 FoldK=F
 IRaf=         0 NMat=   1 IRICut=       1 DoRegI=T DoRafI=F ISym2E= 1.
 FoFCou: FMM=F IPFlag=           0 FMFlag=      100000 FMFlg1=         800
         NFxFlg=           0 DoJE=F BraDBF=F KetDBF=F FulRan=T
         wScrn=  0.000000 ICntrl=    2127 IOpCl=  0 I1Cent=           0 NGrid=           0
         NMat0=    1 NMatS0=      1 NMatT0=    0 NMatD0=    1 NMtDS0=    0 NMtDT0=    0
 Petite list used in FoFCou.
 Leave Link  703 at Thu Mar  8 14:10:21 2018, MaxMem=    33554432 cpu:         0.3
 (Enter /opt/g09-d01/g09/l716.exe)
 Dipole        =-5.33692804D-06-8.77416550D-01-1.76979879D-16
 ***** Axes restored to original set *****
 -------------------------------------------------------------------
 Center     Atomic                   Forces (Hartrees/Bohr)
 Number     Number              X              Y              Z
 -------------------------------------------------------------------
      1        8           0.094616451   -0.028880511   -0.036774109
      2        1          -0.051729914   -0.049673242    0.057358468
      3        1          -0.042886537    0.078553753   -0.020584359
 -------------------------------------------------------------------
 Cartesian Forces:  Max     0.094616451 RMS     0.055783076
 Leave Link  716 at Thu Mar  8 14:10:21 2018, MaxMem=    33554432 cpu:         0.0
 (Enter /opt/g09-d01/g09/l103.exe)

 GradGradGradGradGradGradGradGradGradGradGradGradGradGradGradGradGradGrad
 Berny optimization.
 Using GEDIIS/GDIIS optimizer.
 FormGI is forming the generalized inverse of G from B-inverse, IUseBI=4.
 Internal  Forces:  Max     0.091691628 RMS     0.075470354
 Search for a local minimum.
 Step number   2 out of a maximum of   20
 All quantities printed in internal units (Hartrees-Bohrs-Radians)
 RMS Force = .75470D-01 SwitMx=.10000D-02 MixMth= 1
 Mixed Optimization -- RFO/linear search
 Update second derivatives using D2CorX and points    1    2
 DE= -3.73D-02 DEPred=-3.28D-02 R= 1.14D+00
 TightC=F SS=  1.41D+00  RLast= 3.00D-01 DXNew= 5.0454D-01 9.0000D-01
 Trust test= 1.14D+00 RLast= 3.00D-01 DXMaxT set to 5.05D-01
 The second derivative matrix:
                          R1        R2        A1
           R1           0.00943
           R2          -0.04992   0.00943
           A1          -0.00961  -0.00961   0.15701
 ITU=  1  0
 Use linear search instead of GDIIS.
     Eigenvalues ---   -0.04141   0.05935   0.15794
 Eigenvalue     1 is  -4.14D-02 should be greater than     0.000000 Eigenvector:
                          R2        R1        A1
   1                    0.70546   0.70545   0.06832
 RFO step:  Lambda=-1.52914346D-01 EMin=-4.14135227D-02
 Skip linear search -- no minimum in search direction.
 Maximum step size (   0.505) exceeded in Quadratic search.
    -- Step size scaled by   0.504
 Iteration  1 RMS(Cart)=  0.16908595 RMS(Int)=  0.12751989
 Iteration  2 RMS(Cart)=  0.10735646 RMS(Int)=  0.00009722
 Iteration  3 RMS(Cart)=  0.00015437 RMS(Int)=  0.00000001
 Iteration  4 RMS(Cart)=  0.00000001 RMS(Int)=  0.00000000
 ITry= 1 IFail=0 DXMaxC= 2.89D-01 DCOld= 1.00D+10 DXMaxT= 5.05D-01 DXLimC= 3.00D+00 Rises=F
 ClnCor:  largest displacement from symmetrization is 1.33D-15 for atom     3.
 Variable       Old X    -DE/DX   Delta X   Delta X   Delta X     New X
                                 (Linear)    (Quad)   (Total)
    R1        3.22057  -0.09169   0.00000  -0.35522  -0.35522   2.86535
    R2        3.22054  -0.09169   0.00000  -0.35523  -0.35523   2.86531
    A1        1.80555  -0.01652   0.00000  -0.04680  -0.04680   1.75875
         Item               Value     Threshold  Converged?
 Maximum Force            0.091692     0.000015     NO 
 RMS     Force            0.075470     0.000010     NO 
 Maximum Displacement     0.289148     0.000060     NO 
 RMS     Displacement     0.273792     0.000040     NO 
 Predicted change in Energy=-7.117054D-02
 Lowest energy point so far.  Saving SCF results.
 GradGradGradGradGradGradGradGradGradGradGradGradGradGradGradGradGradGrad

 Leave Link  103 at Thu Mar  8 14:10:21 2018, MaxMem=    33554432 cpu:         0.0
 (Enter /opt/g09-d01/g09/l202.exe)
                          Input orientation:                          
 ---------------------------------------------------------------------
 Center     Atomic      Atomic             Coordinates (Angstroms)
 Number     Number       Type             X           Y           Z
 ---------------------------------------------------------------------
      1          8           0       -0.027294    0.008329    0.010610
      2          1           0        0.908190    0.740162   -0.931935
      3          1           0        0.770734   -1.252603    0.279380
 ---------------------------------------------------------------------
                    Distance matrix (angstroms):
                    1          2          3
     1  O    0.000000
     2  H    1.516278   0.000000
     3  H    1.516258   2.336085   0.000000
 Stoichiometry    H2O
 Framework group  CS[SG(H2O)]
 Deg. of freedom     3
 Full point group                 CS      NOp   2
 RotChk:  IX=0 Diff= 2.96D-06
 Largest Abelian subgroup         CS      NOp   2
 Largest concise Abelian subgroup C1      NOp   1
                         Standard orientation:                         
 ---------------------------------------------------------------------
 Center     Atomic      Atomic             Coordinates (Angstroms)
 Number     Number       Type             X           Y           Z
 ---------------------------------------------------------------------
      1          8           0        0.000000    0.193365    0.000000
      2          1           0        1.168043   -0.773474    0.000000
      3          1           0       -1.168043   -0.773442    0.000000
 ---------------------------------------------------------------------
 Rotational constants (GHZ):    302.0326252    183.7742853    114.2549203
 Leave Link  202 at Thu Mar  8 14:10:21 2018, MaxMem=    33554432 cpu:         0.0
 (Enter /opt/g09-d01/g09/l301.exe)
 Standard basis: 6-31+G(d) (6D, 7F)
 Ernie: Thresh=  0.10000D-02 Tol=  0.10000D-05 Strict=F.
 There are    18 symmetry adapted cartesian basis functions of A'  symmetry.
 There are     5 symmetry adapted cartesian basis functions of A"  symmetry.
 There are    18 symmetry adapted basis functions of A'  symmetry.
 There are     5 symmetry adapted basis functions of A"  symmetry.
    23 basis functions,    40 primitive gaussians,    23 cartesian basis functions
     5 alpha electrons        5 beta electrons
       nuclear repulsion energy         5.8105188470 Hartrees.
 IExCor=  402 DFT=T Ex+Corr=B3LYP ExCW=0 ScaHFX=  0.200000
 ScaDFX=  0.800000  0.720000  1.000000  0.810000 ScalE2=  1.000000  1.000000
 IRadAn=      0 IRanWt=     -1 IRanGd=            0 ICorTp=0 IEmpDi=  4
 NAtoms=    3 NActive=    3 NUniq=    3 SFac= 1.00D+00 NAtFMM=   60 NAOKFM=F Big=F
 Integral buffers will be    131072 words long.
 Raffenetti 2 integral format.
 Two-electron integral symmetry is turned on.
 Leave Link  301 at Thu Mar  8 14:10:21 2018, MaxMem=    33554432 cpu:         0.1
 (Enter /opt/g09-d01/g09/l302.exe)
 NPDir=0 NMtPBC=     1 NCelOv=     1 NCel=       1 NClECP=     1 NCelD=      1
         NCelK=      1 NCelE2=     1 NClLst=     1 CellRange=     0.0.
 One-electron integrals computed using PRISM.
 NBasis=    23 RedAO= T EigKep=  2.97D-02  NBF=    18     5
 NBsUse=    23 1.00D-06 EigRej= -1.00D+00 NBFU=    18     5
 Precomputing XC quadrature grid using
 IXCGrd= 4 IRadAn=           0 IRanWt=          -1 IRanGd=           0 AccXCQ= 0.00D+00.
 Generated NRdTot=       0 NPtTot=           0 NUsed=           0 NTot=          32
 NSgBfM=    23    23    23    23    23 MxSgAt=     3 MxSgA2=     3.
 Leave Link  302 at Thu Mar  8 14:10:21 2018, MaxMem=    33554432 cpu:         0.2
 (Enter /opt/g09-d01/g09/l303.exe)
 DipDrv:  MaxL=1.
 Leave Link  303 at Thu Mar  8 14:10:22 2018, MaxMem=    33554432 cpu:         0.0
 (Enter /opt/g09-d01/g09/l401.exe)
 Initial guess from the checkpoint file:  "h2o.chk"
 B after Tr=     0.000000    0.000000    0.000000
         Rot=    1.000000    0.000000    0.000000    0.000001 Ang=   0.00 deg.
 Guess basis will be translated and rotated to current coordinates.
 JPrj=2 DoOrth=T DoCkMO=T.
 Initial guess orbital symmetries:
       Occupied  (A') (A') (A') (A') (A")
       Virtual   (A') (A') (A') (A') (A') (A') (A') (A') (A') (A')
                 (A') (A') (A') (A') (A") (A") (A") (A")
 The electronic state of the initial guess is 1-A'.
 Generating alternative initial guess.
 ExpMin= 8.45D-02 ExpMax= 5.48D+03 ExpMxC= 8.25D+02 IAcc=2 IRadAn=         4 AccDes= 0.00D+00
 Harris functional with IExCor=  402 and IRadAn=       4 diagonalized for initial guess.
 HarFok:  IExCor=  402 AccDes= 0.00D+00 IRadAn=         4 IDoV= 1 UseB2=F ITyADJ=14
 ICtDFT=  3500011 ScaDFX=  1.000000  1.000000  1.000000  1.000000
 FoFCou: FMM=F IPFlag=           0 FMFlag=      100000 FMFlg1=           0
         NFxFlg=           0 DoJE=T BraDBF=F KetDBF=T FulRan=T
         wScrn=  0.000000 ICntrl=     500 IOpCl=  0 I1Cent=   200000004 NGrid=           0
         NMat0=    1 NMatS0=      1 NMatT0=    0 NMatD0=    1 NMtDS0=    0 NMtDT0=    0
 Petite list used in FoFCou.
 Harris En= -76.2730102303595    
 Leave Link  401 at Thu Mar  8 14:10:22 2018, MaxMem=    33554432 cpu:         0.4
 (Enter /opt/g09-d01/g09/l502.exe)
 Closed shell SCF:
 Using DIIS extrapolation, IDIIS=  1040.
 Integral symmetry usage will be decided dynamically.
 Keep R1 ints in memory in symmetry-blocked form, NReq=919005.
 IVT=       20464 IEndB=       20464 NGot=    33554432 MDV=    33511632
 LenX=    33511632 LenY=    33510662
 Requested convergence on RMS density matrix=1.00D-08 within 128 cycles.
 Requested convergence on MAX density matrix=1.00D-06.
 Requested convergence on             energy=1.00D-06.
 No special actions if energy rises.
 FoFCou: FMM=F IPFlag=           0 FMFlag=           0 FMFlg1=           0
         NFxFlg=           0 DoJE=F BraDBF=F KetDBF=F FulRan=T
         wScrn=  0.000000 ICntrl=     600 IOpCl=  0 I1Cent=           0 NGrid=           0
         NMat0=    1 NMatS0=    276 NMatT0=    0 NMatD0=    1 NMtDS0=    0 NMtDT0=    0
 Petite list used in FoFCou.
 Integral accuracy reduced to 1.0D-05 until final iterations.

 Cycle   1  Pass 0  IDiag  1:
 E= -76.2300560607013    
 DIIS: error= 1.19D-02 at cycle   1 NSaved=   1.
 NSaved= 1 IEnMin= 1 EnMin= -76.2300560607013     IErMin= 1 ErrMin= 1.19D-02
 ErrMax= 1.19D-02  0.00D+00 EMaxC= 1.00D-01 BMatC= 2.07D-03 BMatP= 2.07D-03
 IDIUse=3 WtCom= 8.81D-01 WtEn= 1.19D-01
 Coeff-Com:  0.100D+01
 Coeff-En:   0.100D+01
 Coeff:      0.100D+01
 Recover alternate guess density for next cycle.
 RMSDP=1.11D-02 MaxDP=9.80D-02              OVMax= 0.00D+00

 Cycle   2  Pass 0  IDiag  1:
 E= -76.1355233053296     Delta-E=        0.094532755372 Rises=F Damp=F
 Switch densities from cycles 1 and 2 for lowest energy.
 DIIS: error= 7.50D-02 at cycle   2 NSaved=   2.
 NSaved= 2 IEnMin= 1 EnMin= -76.2300560607013     IErMin= 1 ErrMin= 1.19D-02
 ErrMax= 7.50D-02  0.00D+00 EMaxC= 1.00D+00 BMatC= 9.23D-02 BMatP= 2.07D-03
 IDIUse=1 WtCom= 1.00D+00 WtEn= 0.00D+00
 Coeff-Com:  0.923D+00 0.770D-01
 Coeff:      0.923D+00 0.770D-01
 Gap=     0.676 Goal=   None    Shift=    0.000
 RMSDP=2.54D-03 MaxDP=1.65D-02 DE= 9.45D-02 OVMax= 3.84D-02

 Cycle   3  Pass 0  IDiag  1:
 E= -76.2331545897060     Delta-E=       -0.097631284376 Rises=F Damp=F
 DIIS: error= 3.70D-03 at cycle   3 NSaved=   3.
 NSaved= 3 IEnMin= 3 EnMin= -76.2331545897060     IErMin= 3 ErrMin= 3.70D-03
 ErrMax= 3.70D-03  0.00D+00 EMaxC= 1.00D+00 BMatC= 2.70D-04 BMatP= 2.07D-03
 IDIUse=1 WtCom= 1.00D+00 WtEn= 0.00D+00
 Coeff-Com:  0.117D+00-0.326D-01 0.916D+00
 Coeff:      0.117D+00-0.326D-01 0.916D+00
 Gap=     0.194 Goal=   None    Shift=    0.000
 RMSDP=4.04D-04 MaxDP=2.98D-03 DE=-9.76D-02 OVMax= 4.66D-03

 Cycle   4  Pass 0  IDiag  1:
 E= -76.2333886756238     Delta-E=       -0.000234085918 Rises=F Damp=F
 DIIS: error= 9.12D-04 at cycle   4 NSaved=   4.
 NSaved= 4 IEnMin= 4 EnMin= -76.2333886756238     IErMin= 4 ErrMin= 9.12D-04
 ErrMax= 9.12D-04  0.00D+00 EMaxC= 1.00D+00 BMatC= 1.29D-05 BMatP= 2.70D-04
 IDIUse=1 WtCom= 1.00D+00 WtEn= 0.00D+00
 Coeff-Com: -0.187D-01-0.158D-01 0.160D+00 0.875D+00
 Coeff:     -0.187D-01-0.158D-01 0.160D+00 0.875D+00
 Gap=     0.193 Goal=   None    Shift=    0.000
 RMSDP=1.28D-04 MaxDP=5.85D-04 DE=-2.34D-04 OVMax= 1.73D-03

 Cycle   5  Pass 0  IDiag  1:
 E= -76.2334012915885     Delta-E=       -0.000012615965 Rises=F Damp=F
 DIIS: error= 6.03D-05 at cycle   5 NSaved=   5.
 NSaved= 5 IEnMin= 5 EnMin= -76.2334012915885     IErMin= 5 ErrMin= 6.03D-05
 ErrMax= 6.03D-05  0.00D+00 EMaxC= 1.00D+00 BMatC= 4.74D-08 BMatP= 1.29D-05
 IDIUse=1 WtCom= 1.00D+00 WtEn= 0.00D+00
 Coeff-Com: -0.752D-03 0.795D-03-0.919D-02 0.125D-01 0.997D+00
 Coeff:     -0.752D-03 0.795D-03-0.919D-02 0.125D-01 0.997D+00
 Gap=     0.193 Goal=   None    Shift=    0.000
 RMSDP=1.67D-05 MaxDP=1.68D-04 DE=-1.26D-05 OVMax= 3.16D-04

 Cycle   6  Pass 0  IDiag  1:
 E= -76.2334013854786     Delta-E=       -0.000000093890 Rises=F Damp=F
 DIIS: error= 1.65D-05 at cycle   6 NSaved=   6.
 NSaved= 6 IEnMin= 6 EnMin= -76.2334013854786     IErMin= 6 ErrMin= 1.65D-05
 ErrMax= 1.65D-05  0.00D+00 EMaxC= 1.00D+00 BMatC= 3.42D-09 BMatP= 4.74D-08
 IDIUse=1 WtCom= 1.00D+00 WtEn= 0.00D+00
 Coeff-Com:  0.157D-03-0.434D-04-0.200D-02-0.977D-02-0.622D-01 0.107D+01
 Coeff:      0.157D-03-0.434D-04-0.200D-02-0.977D-02-0.622D-01 0.107D+01
 Gap=     0.193 Goal=   None    Shift=    0.000
 RMSDP=2.87D-06 MaxDP=2.73D-05 DE=-9.39D-08 OVMax= 5.34D-05

 Initial convergence to 1.0D-05 achieved.  Increase integral accuracy.
 Cycle   7  Pass 1  IDiag  1:
 E= -76.2333914439929     Delta-E=        0.000009941486 Rises=F Damp=F
 DIIS: error= 3.84D-06 at cycle   1 NSaved=   1.
 NSaved= 1 IEnMin= 1 EnMin= -76.2333914439929     IErMin= 1 ErrMin= 3.84D-06
 ErrMax= 3.84D-06  0.00D+00 EMaxC= 1.00D+00 BMatC= 2.36D-10 BMatP= 2.36D-10
 IDIUse=1 WtCom= 1.00D+00 WtEn= 0.00D+00
 Coeff-Com:  0.100D+01
 Coeff:      0.100D+01
 Gap=     0.193 Goal=   None    Shift=    0.000
 RMSDP=2.87D-06 MaxDP=2.73D-05 DE= 9.94D-06 OVMax= 1.50D-05

 Cycle   8  Pass 1  IDiag  1:
 E= -76.2333914435364     Delta-E=        0.000000000457 Rises=F Damp=F
 DIIS: error= 6.49D-06 at cycle   2 NSaved=   2.
 NSaved= 2 IEnMin= 1 EnMin= -76.2333914439929     IErMin= 1 ErrMin= 3.84D-06
 ErrMax= 6.49D-06  0.00D+00 EMaxC= 1.00D+00 BMatC= 9.68D-10 BMatP= 2.36D-10
 IDIUse=1 WtCom= 1.00D+00 WtEn= 0.00D+00
 Coeff-Com:  0.706D+00 0.294D+00
 Coeff:      0.706D+00 0.294D+00
 Gap=     0.193 Goal=   None    Shift=    0.000
 RMSDP=9.86D-07 MaxDP=9.04D-06 DE= 4.57D-10 OVMax= 1.51D-05

 Cycle   9  Pass 1  IDiag  1:
 E= -76.2333914443205     Delta-E=       -0.000000000784 Rises=F Damp=F
 DIIS: error= 1.75D-06 at cycle   3 NSaved=   3.
 NSaved= 3 IEnMin= 3 EnMin= -76.2333914443205     IErMin= 3 ErrMin= 1.75D-06
 ErrMax= 1.75D-06  0.00D+00 EMaxC= 1.00D+00 BMatC= 6.55D-11 BMatP= 2.36D-10
 IDIUse=1 WtCom= 1.00D+00 WtEn= 0.00D+00
 Coeff-Com: -0.429D-01 0.204D+00 0.839D+00
 Coeff:     -0.429D-01 0.204D+00 0.839D+00
 Gap=     0.193 Goal=   None    Shift=    0.000
 RMSDP=2.35D-07 MaxDP=1.85D-06 DE=-7.84D-10 OVMax= 3.22D-06

 Cycle  10  Pass 1  IDiag  1:
 E= -76.2333914443811     Delta-E=       -0.000000000061 Rises=F Damp=F
 DIIS: error= 1.27D-07 at cycle   4 NSaved=   4.
 NSaved= 4 IEnMin= 4 EnMin= -76.2333914443811     IErMin= 4 ErrMin= 1.27D-07
 ErrMax= 1.27D-07  0.00D+00 EMaxC= 1.00D+00 BMatC= 4.08D-13 BMatP= 6.55D-11
 IDIUse=1 WtCom= 1.00D+00 WtEn= 0.00D+00
 Coeff-Com: -0.837D-02 0.191D-01 0.148D+00 0.842D+00
 Coeff:     -0.837D-02 0.191D-01 0.148D+00 0.842D+00
 Gap=     0.193 Goal=   None    Shift=    0.000
 RMSDP=1.85D-08 MaxDP=1.63D-07 DE=-6.06D-11 OVMax= 3.11D-07

 Cycle  11  Pass 1  IDiag  1:
 E= -76.2333914443815     Delta-E=        0.000000000000 Rises=F Damp=F
 DIIS: error= 6.20D-09 at cycle   5 NSaved=   5.
 NSaved= 5 IEnMin= 5 EnMin= -76.2333914443815     IErMin= 5 ErrMin= 6.20D-09
 ErrMax= 6.20D-09  0.00D+00 EMaxC= 1.00D+00 BMatC= 8.23D-16 BMatP= 4.08D-13
 IDIUse=1 WtCom= 1.00D+00 WtEn= 0.00D+00
 Coeff-Com:  0.188D-03-0.256D-02-0.342D-02 0.961D-01 0.910D+00
 Coeff:      0.188D-03-0.256D-02-0.342D-02 0.961D-01 0.910D+00
 Gap=     0.193 Goal=   None    Shift=    0.000
 RMSDP=1.80D-09 MaxDP=1.48D-08 DE=-4.26D-13 OVMax= 2.90D-08

 SCF Done:  E(RB3LYP) =  -76.2333914444     A.U. after   11 cycles
            NFock= 11  Conv=0.18D-08     -V/T= 2.0174
 KE= 7.493280646087D+01 PE=-1.913798182059D+02 EE= 3.440310145356D+01
 Leave Link  502 at Thu Mar  8 14:10:23 2018, MaxMem=    33554432 cpu:         0.9
 (Enter /opt/g09-d01/g09/l701.exe)
 Compute integral first derivatives.
 ... and contract with generalized density number  0.
 Leave Link  701 at Thu Mar  8 14:10:23 2018, MaxMem=    33554432 cpu:         0.2
 (Enter /opt/g09-d01/g09/l702.exe)
 L702 exits ... SP integral derivatives will be done elsewhere.
 Leave Link  702 at Thu Mar  8 14:10:23 2018, MaxMem=    33554432 cpu:         0.0
 (Enter /opt/g09-d01/g09/l703.exe)
 Compute integral first derivatives, UseDBF=F ICtDFT=           0.
 Integral derivatives from FoFJK, PRISM(SPDF).
 Calling FoFJK, ICntrl=      2127 FMM=F ISym2X=1 I1Cent= 0 IOpClX= 0 NMat=1 NMatS=1 NMatT=0.
 FoFJK:  IHMeth= 1 ICntrl=    2127 DoSepK=F KAlg= 0 I1Cent=   0 FoldK=F
 IRaf=         0 NMat=   1 IRICut=       1 DoRegI=T DoRafI=F ISym2E= 1.
 FoFCou: FMM=F IPFlag=           0 FMFlag=      100000 FMFlg1=         800
         NFxFlg=           0 DoJE=F BraDBF=F KetDBF=F FulRan=T
         wScrn=  0.000000 ICntrl=    2127 IOpCl=  0 I1Cent=           0 NGrid=           0
         NMat0=    1 NMatS0=      1 NMatT0=    0 NMatD0=    1 NMtDS0=    0 NMtDT0=    0
 Petite list used in FoFCou.
 Leave Link  703 at Thu Mar  8 14:10:24 2018, MaxMem=    33554432 cpu:         0.3
 (Enter /opt/g09-d01/g09/l716.exe)
 Dipole        =-7.29381242D-06-9.07708814D-01 3.65642728D-17
 ***** Axes restored to original set *****
 -------------------------------------------------------------------
 Center     Atomic                   Forces (Hartrees/Bohr)
 Number     Number              X              Y              Z
 -------------------------------------------------------------------
      1        8           0.113763206   -0.034724387   -0.044216032
      2        1          -0.061836620   -0.054483981    0.065779758
      3        1          -0.051926586    0.089208368   -0.021563726
 -------------------------------------------------------------------
 Cartesian Forces:  Max     0.113763206 RMS     0.065270083
 Leave Link  716 at Thu Mar  8 14:10:24 2018, MaxMem=    33554432 cpu:         0.0
 (Enter /opt/g09-d01/g09/l103.exe)

 GradGradGradGradGradGradGradGradGradGradGradGradGradGradGradGradGradGrad
 Berny optimization.
 Using GEDIIS/GDIIS optimizer.
 FormGI is forming the generalized inverse of G from B-inverse, IUseBI=4.
 Internal  Forces:  Max     0.105338496 RMS     0.086377913
 Search for a local minimum.
 Step number   3 out of a maximum of   20
 All quantities printed in internal units (Hartrees-Bohrs-Radians)
 RMS Force = .86378D-01 SwitMx=.10000D-02 MixMth= 1
 Mixed Optimization -- RFO/linear search
 Update second derivatives using D2CorX and points    2    3
 DE= -7.09D-02 DEPred=-7.12D-02 R= 9.96D-01
 TightC=F SS=  1.41D+00  RLast= 5.05D-01 DXNew= 8.4853D-01 1.5136D+00
 Trust test= 9.96D-01 RLast= 5.05D-01 DXMaxT set to 8.49D-01
 The second derivative matrix:
                          R1        R2        A1
           R1           0.01089
           R2          -0.04846   0.01089
           A1          -0.00651  -0.00651   0.15628
 ITU=  1  1  0
 Use linear search instead of GDIIS.
     Eigenvalues ---   -0.03800   0.05935   0.15672
 Eigenvalue     1 is  -3.80D-02 should be greater than     0.000000 Eigenvector:
                          R2        R1        A1
   1                   -0.70631  -0.70631  -0.04734
 RFO step:  Lambda=-1.69720159D-01 EMin=-3.79965762D-02
 Skip linear search -- no minimum in search direction.
 Maximum step size (   0.849) exceeded in Quadratic search.
    -- Step size scaled by   0.848
 Iteration  1 RMS(Cart)=  0.17150446 RMS(Int)=  0.32652054
 Iteration  2 RMS(Cart)=  0.13565058 RMS(Int)=  0.16321733
 Iteration  3 RMS(Cart)=  0.13767454 RMS(Int)=  0.00001780
 Iteration  4 RMS(Cart)=  0.00002251 RMS(Int)=  0.00000000
 Iteration  5 RMS(Cart)=  0.00000000 RMS(Int)=  0.00000000
 ITry= 1 IFail=0 DXMaxC= 4.60D-01 DCOld= 1.00D+10 DXMaxT= 8.49D-01 DXLimC= 3.00D+00 Rises=F
 ClnCor:  largest displacement from symmetrization is 7.77D-16 for atom     3.
 Variable       Old X    -DE/DX   Delta X   Delta X   Delta X     New X
                                 (Linear)    (Quad)   (Total)
    R1        2.86535  -0.10534   0.00000  -0.59861  -0.59861   2.26674
    R2        2.86531  -0.10534   0.00000  -0.59861  -0.59861   2.26670
    A1        1.75875  -0.01383   0.00000  -0.05771  -0.05771   1.70103
         Item               Value     Threshold  Converged?
 Maximum Force            0.105338     0.000015     NO 
 RMS     Force            0.086378     0.000010     NO 
 Maximum Displacement     0.459834     0.000060     NO 
 RMS     Displacement     0.439923     0.000040     NO 
 Predicted change in Energy=-1.405597D-01
 Lowest energy point so far.  Saving SCF results.
 GradGradGradGradGradGradGradGradGradGradGradGradGradGradGradGradGradGrad

 Leave Link  103 at Thu Mar  8 14:10:24 2018, MaxMem=    33554432 cpu:         0.0
 (Enter /opt/g09-d01/g09/l202.exe)
                          Input orientation:                          
 ---------------------------------------------------------------------
 Center     Atomic      Atomic             Coordinates (Angstroms)
 Number     Number       Type             X           Y           Z
 ---------------------------------------------------------------------
      1          8           0        0.077681   -0.023713   -0.030190
      2          1           0        0.840024    0.528871   -0.773362
      3          1           0        0.733925   -1.009270    0.161607
 ---------------------------------------------------------------------
                    Distance matrix (angstroms):
                    1          2          3
     1  O    0.000000
     2  H    1.199509   0.000000
     3  H    1.199486   1.803137   0.000000
 Stoichiometry    H2O
 Framework group  CS[SG(H2O)]
 Deg. of freedom     3
 Full point group                 CS      NOp   2
 RotChk:  IX=0 Diff= 6.10D-06
 Largest Abelian subgroup         CS      NOp   2
 Largest concise Abelian subgroup C1      NOp   1
                         Standard orientation:                         
 ---------------------------------------------------------------------
 Center     Atomic      Atomic             Coordinates (Angstroms)
 Number     Number       Type             X           Y           Z
 ---------------------------------------------------------------------
      1          8           0        0.000000    0.158236    0.000000
      2          1           0        0.901568   -0.632962    0.000000
      3          1           0       -0.901568   -0.632928    0.000000
[...]
    11. (0.00000) RY*( 6) O   1           s(  0.02%)p99.99( 99.98%)d 0.00(  0.00%)
    12. (0.00000) RY*( 7) O   1           s(  0.00%)p 1.00(100.00%)
    13. (0.00000) RY*( 8) O   1           s(  0.00%)p 1.00(100.00%)d 0.00(  0.00%)
    14. (0.00000) RY*( 9) O   1           s(  0.00%)p 1.00(100.00%)
    15. (0.00000) RY*(10) O   1           s(  0.00%)p 1.00(  0.14%)d99.99( 99.86%)
    16. (0.00000) RY*(11) O   1           s(  0.00%)p 0.00(  0.00%)d 1.00(100.00%)
    17. (0.00000) RY*(12) O   1           s(  0.00%)p 1.00(  0.12%)d99.99( 99.88%)
    18. (0.00000) RY*(13) O   1           s(  0.01%)p 1.00(  0.08%)d99.99( 99.91%)
    19. (0.00000) RY*(14) O   1           s(  0.03%)p 2.81(  0.07%)d99.99( 99.90%)
    20. (0.00035) RY*( 1) H   2           s(100.00%)
                                            0.0002  1.0000
    21. (0.00035) RY*( 1) H   3           s(100.00%)
                                            0.0002  1.0000
    22. (0.00006) BD*( 1) O   1 - H   2  
                ( 25.38%)   0.5038* O   1 s( 23.50%)p 3.25( 76.37%)d 0.01(  0.13%)
                ( 74.62%)  -0.8638* H   2 s(100.00%)
    23. (0.00006) BD*( 1) O   1 - H   3  
                ( 25.38%)   0.5038* O   1 s( 23.50%)p 3.25( 76.37%)d 0.01(  0.13%)
                ( 74.62%)  -0.8638* H   3 s(100.00%)


 NHO Directionality and "Bond Bending" (deviations from line of nuclear centers)

         [Thresholds for printing:  angular deviation  >  1.0 degree]
                                    hybrid p-character > 25.0%
                                    orbital occupancy  >  0.10e

                                Line of Centers        Hybrid 1              Hybrid 2
                                ---------------  -------------------   ------------------
                NBO               Theta   Phi    Theta   Phi    Dev    Theta   Phi    Dev
 ========================================================================================
     4. LP (   1) O   1             --     --      0.0    0.0   --       --     --    --
     5. LP (   2) O   1             --     --     90.0   90.0   --       --     --    --


 Second Order Perturbation Theory Analysis of Fock Matrix in NBO Basis

     Threshold for printing:   0.50 kcal/mol
                                                                              E(2)  E(j)-E(i) F(i,j)
         Donor NBO (i)                     Acceptor NBO (j)                 kcal/mol   a.u.    a.u. 
 ===================================================================================================

 within unit  1
       None above threshold


 Natural Bond Orbitals (Summary):

                                                            Principal Delocalizations
           NBO                        Occupancy    Energy   (geminal,vicinal,remote)
 ====================================================================================
 Molecular unit  1  (H2O)
     1. BD (   1) O   1 - H   2          1.99986    -0.74066   
     2. BD (   1) O   1 - H   3          1.99986    -0.74066   
     3. CR (   1) O   1                  1.99991   -19.01963   
     4. LP (   1) O   1                  2.00000    -0.31926   
     5. LP (   2) O   1                  1.99956    -0.62773   
     6. RY*(   1) O   1                  0.00000     1.07058   
     7. RY*(   2) O   1                  0.00000     1.38135   
     8. RY*(   3) O   1                  0.00000     2.89665   
     9. RY*(   4) O   1                  0.00000     0.53876   
    10. RY*(   5) O   1                  0.00000     0.94705   
    11. RY*(   6) O   1                  0.00000     0.37645   
    12. RY*(   7) O   1                  0.00000     0.95049   
    13. RY*(   8) O   1                  0.00000     0.35060   
    14. RY*(   9) O   1                  0.00000     0.91964   
    15. RY*(  10) O   1                  0.00000     2.49882   
    16. RY*(  11) O   1                  0.00000     1.72086   
    17. RY*(  12) O   1                  0.00000     1.75732   
    18. RY*(  13) O   1                  0.00000     1.75467   
    19. RY*(  14) O   1                  0.00000     2.07452   
    20. RY*(   1) H   2                  0.00035     0.52831   
    21. RY*(   1) H   3                  0.00035     0.52831   
    22. BD*(   1) O   1 - H   2          0.00006     0.48119   
    23. BD*(   1) O   1 - H   3          0.00006     0.48119   
       -------------------------------
              Total Lewis    9.99919  ( 99.9919%)
        Valence non-Lewis    0.00011  (  0.0011%)
        Rydberg non-Lewis    0.00070  (  0.0070%)
       -------------------------------
            Total unit  1   10.00000  (100.0000%)
           Charge unit  1    0.00000
 Leave Link  607 at Thu Mar  8 14:10:46 2018, MaxMem=    33554432 cpu:         0.3
 (Enter /opt/g09-d01/g09/l701.exe)
 Compute integral second derivatives.
 ... and contract with generalized density number  0.
 Leave Link  701 at Thu Mar  8 14:10:46 2018, MaxMem=    33554432 cpu:         0.2
 (Enter /opt/g09-d01/g09/l702.exe)
 L702 exits ... SP integral derivatives will be done elsewhere.
 Leave Link  702 at Thu Mar  8 14:10:46 2018, MaxMem=    33554432 cpu:         0.0
 (Enter /opt/g09-d01/g09/l703.exe)
 Compute integral second derivatives, UseDBF=F ICtDFT=           0.
 Integral derivatives from FoFJK, PRISM(SPDF).
 Calling FoFJK, ICntrl=    100127 FMM=F ISym2X=1 I1Cent= 0 IOpClX= 0 NMat=1 NMatS=1 NMatT=0.
 FoFJK:  IHMeth= 1 ICntrl=  100127 DoSepK=F KAlg= 0 I1Cent=   0 FoldK=F
 IRaf=         0 NMat=   1 IRICut=       1 DoRegI=T DoRafI=F ISym2E= 1.
 FoFCou: FMM=F IPFlag=           0 FMFlag=      100000 FMFlg1=         800
         NFxFlg=           0 DoJE=F BraDBF=F KetDBF=F FulRan=T
         wScrn=  0.000000 ICntrl=  100127 IOpCl=  0 I1Cent=           0 NGrid=           0
         NMat0=    1 NMatS0=      1 NMatT0=    0 NMatD0=    1 NMtDS0=    0 NMtDT0=    0
 Petite list used in FoFCou.
 Leave Link  703 at Thu Mar  8 14:10:48 2018, MaxMem=    33554432 cpu:         1.0
 (Enter /opt/g09-d01/g09/l716.exe)
 Dipole        = 1.80038814D-08-8.84977177D-01 2.37367968D-16
 Polarizability= 7.74873478D+00 2.05562571D-07 6.45582419D+00
                 1.23827388D-09 7.61998072D-11 6.51486896D+00
 Full mass-weighted force constant matrix:
 Low frequencies ---  -58.2948  -38.6065  -18.1970   -0.0008    0.0006    0.0007
 Low frequencies --- 1662.8033 3736.2607 3860.5869
 Diagonal vibrational polarizability:
        0.0954903       0.9587349       0.0000000
 Harmonic frequencies (cm**-1), IR intensities (KM/Mole), Raman scattering
 activities (A**4/AMU), depolarization ratios for plane and unpolarized
 incident light, reduced masses (AMU), force constants (mDyne/A),
 and normal coordinates:
                      1                      2                      3
                     A'                     A'                     A'
 Frequencies --   1662.8033              3736.2607              3860.5869
 Red. masses --      1.0834                 1.0445                 1.0828
 Frc consts  --      1.7649                 8.5907                 9.5087
 IR Inten    --     97.3057                 6.0426                52.8850
  Atom  AN      X      Y      Z        X      Y      Z        X      Y      Z
     1   8     0.00   0.07   0.00     0.00   0.05   0.00     0.07   0.00   0.00
     2   1    -0.42  -0.56   0.00     0.59  -0.39   0.00    -0.56   0.43   0.00
     3   1     0.42  -0.56   0.00    -0.59  -0.39   0.00    -0.56  -0.43   0.00

 -------------------
 - Thermochemistry -
 -------------------
 Temperature   298.150 Kelvin.  Pressure   1.00000 Atm.
 Atom     1 has atomic number  8 and mass  15.99491
 Atom     2 has atomic number  1 and mass   1.00783
 Atom     3 has atomic number  1 and mass   1.00783
 Molecular mass:    18.01056 amu.
 Principal axes and moments of inertia in atomic units:
                           1         2         3
     Eigenvalues --     2.19931   4.28121   6.48052
           X            1.00000   0.00000   0.00000
           Y            0.00000   1.00000   0.00000
           Z            0.00000   0.00000   1.00000
 This molecule is an asymmetric top.
 Rotational symmetry number  1.
 Rotational temperatures (Kelvin)     39.38225    20.23115    13.36526
 Rotational constants (GHZ):         820.59386   421.54936   278.48706
 Zero-point vibrational energy      55385.0 (Joules/Mol)
                                   13.23734 (Kcal/Mol)
 Vibrational temperatures:   2392.40  5375.64  5554.52
          (Kelvin)
 
 Zero-point correction=                           0.021095 (Hartree/Particle)
 Thermal correction to Energy=                    0.023930
 Thermal correction to Enthalpy=                  0.024874
 Thermal correction to Gibbs Free Energy=         0.002780
 Sum of electronic and zero-point Energies=            -76.401477
 Sum of electronic and thermal Energies=               -76.398642
 Sum of electronic and thermal Enthalpies=             -76.397698
 Sum of electronic and thermal Free Energies=          -76.419793
 
                     E (Thermal)             CV                S
                      KCal/Mol        Cal/Mol-Kelvin    Cal/Mol-Kelvin
 Total                   15.016              6.004             46.502
 Electronic               0.000              0.000              0.000
 Translational            0.889              2.981             34.608
 Rotational               0.889              2.981             11.888
 Vibrational             13.239              0.042              0.006
                       Q            Log10(Q)             Ln(Q)
 Total Bot       0.526555D-01         -1.278556         -2.943985
 Total V=0       0.265746D+09          8.424466         19.398051
 Vib (Bot)       0.198207D-09         -9.702880        -22.341708
 Vib (V=0)       0.100033D+01          0.000142          0.000328
 Electronic      0.100000D+01          0.000000          0.000000
 Translational   0.300432D+07          6.477746         14.915562
 Rotational      0.884256D+02          1.946578          4.482161
 
                                                               vib H2O
                                                             IR Spectrum
 
     3    3                                                                   1                                                      
     8    7                                                                   6                                                      
     6    3                                                                   6                                                      
     1    6                                                                   3                                                      
 
     X    X                                                                   X                                                      
     X                                                                        X                                                      
     X                                                                        X                                                      
     X                                                                        X                                                      
     X                                                                        X                                                      
     X                                                                        X                                                      
     X                                                                        X                                                      
     X                                                                        X                                                      
     X                                                                        X                                                      
     X                                                                        X                                                      
     X                                                                        X                                                      
                                                                              X                                                      
                                                                              X                                                      
                                                                              X                                                      
                                                                              X                                                      
                                                                              X                                                      
                                                                              X                                                      
                                                                              X                                                      
                                                                              X                                                      
                                                                              X                                                      
 
 ***** Axes restored to original set *****
 -------------------------------------------------------------------
 Center     Atomic                   Forces (Hartrees/Bohr)
 Number     Number              X              Y              Z
 -------------------------------------------------------------------
      1        8           0.000000000   -0.000000016    0.000000009
      2        1           0.000000009    0.000000037   -0.000000026
      3        1          -0.000000008   -0.000000020    0.000000016
 -------------------------------------------------------------------
 Cartesian Forces:  Max     0.000000037 RMS     0.000000019
 Force constants in Cartesian coordinates: 
                1             2             3             4             5 
      1  0.356872D+00
      2 -0.747774D-01  0.518285D+00
      3 -0.158196D+00 -0.252943D+00  0.232804D+00
      4 -0.201832D+00 -0.153548D+00  0.200911D+00  0.190821D+00
      5 -0.103737D+00 -0.155607D+00  0.146918D+00  0.133430D+00  0.174954D+00
      6  0.172565D+00  0.174930D+00 -0.196541D+00 -0.183292D+00 -0.174648D+00
      7 -0.155040D+00  0.228326D+00 -0.427151D-01  0.110119D-01 -0.296927D-01
      8  0.178514D+00 -0.362677D+00  0.106026D+00  0.201186D-01 -0.193470D-01
      9 -0.143692D-01  0.780136D-01 -0.362637D-01 -0.176193D-01  0.277304D-01
                6             7             8             9 
      6  0.202373D+00
      7  0.107266D-01  0.144028D+00
      8 -0.281797D-03 -0.198633D+00  0.382024D+00
      9 -0.583237D-02  0.319885D-01 -0.105744D+00  0.420960D-01
 FormGI is forming the generalized inverse of G from B-inverse, IUseBI=4.
 Force constants in internal coordinates: 
                1             2             3 
      1  0.518467D+00
      2 -0.789699D-02  0.518467D+00
      3  0.280753D-01  0.280753D-01  0.166792D+00
 Leave Link  716 at Thu Mar  8 14:10:48 2018, MaxMem=    33554432 cpu:         0.0
 (Enter /opt/g09-d01/g09/l103.exe)

 GradGradGradGradGradGradGradGradGradGradGradGradGradGradGradGradGradGrad
 Berny optimization.
 Red2BG is reusing G-inverse.
 Internal  Forces:  Max     0.000000040 RMS     0.000000034
 Search for a local minimum.
 Step number   1 out of a maximum of    2
 All quantities printed in internal units (Hartrees-Bohrs-Radians)
 Second derivative matrix not updated -- analytic derivatives used.
 The second derivative matrix:
                          R1        R2        A1
           R1           0.51847
           R2          -0.00790   0.51847
           A1           0.02808   0.02808   0.16679
 ITU=  0
     Eigenvalues ---    0.16227   0.51510   0.52636
 Angle between quadratic step and forces=  90.00 degrees.
 Linear search not attempted -- first point.
 Iteration  1 RMS(Cart)=  0.00000015 RMS(Int)=  0.00000000
 ITry= 1 IFail=0 DXMaxC= 1.54D-07 DCOld= 1.00D+10 DXMaxT= 3.00D-01 DXLimC= 3.00D+00 Rises=F
 ClnCor:  largest displacement from symmetrization is 1.24D-15 for atom     2.
 Variable       Old X    -DE/DX   Delta X   Delta X   Delta X     New X
                                 (Linear)    (Quad)   (Total)
    R1        1.83101   0.00000   0.00000   0.00000   0.00000   1.83101
    R2        1.83101   0.00000   0.00000   0.00000   0.00000   1.83101
    A1        1.84114   0.00000   0.00000   0.00000   0.00000   1.84114
         Item               Value     Threshold  Converged?
 Maximum Force            0.000000     0.000015     YES
 RMS     Force            0.000000     0.000010     YES
 Maximum Displacement     0.000000     0.000060     YES
 RMS     Displacement     0.000000     0.000040     YES
 Predicted change in Energy=-6.006225D-15
 Optimization completed.
    -- Stationary point found.
                           ----------------------------
                           !   Optimized Parameters   !
                           ! (Angstroms and Degrees)  !
 --------------------------                            --------------------------
 ! Name  Definition              Value          Derivative Info.                !
 --------------------------------------------------------------------------------
 ! R1    R(1,2)                  0.9689         -DE/DX =    0.0                 !
 ! R2    R(1,3)                  0.9689         -DE/DX =    0.0                 !
 ! A1    A(2,1,3)              105.4898         -DE/DX =    0.0                 !
 --------------------------------------------------------------------------------
 GradGradGradGradGradGradGradGradGradGradGradGradGradGradGradGradGradGrad

 Leave Link  103 at Thu Mar  8 14:10:48 2018, MaxMem=    33554432 cpu:         0.0
 (Enter /opt/g09-d01/g09/l9999.exe)
 1\1\GINC-DNAS-NODE31\Freq\RB3LYP\6-31+G(d)\H2O1\GVALLVER\08-Mar-2018\0
 \\#P Geom=AllCheck Guess=TCheck SCRF=Check GenChk RB3LYP/6-31+G(d) Fre
 q\\vib H2O\\0,1\O,0.1999786654,-0.0610346817,-0.0777277681\H,0.7712024
 465,0.4363383751,-0.6820023705\H,0.6804488881,-0.8794156935,0.11778513
 86\\Version=EM64L-G09RevD.01\State=1-A'\HF=-76.4225724\RMSD=6.507e-10\
 RMSF=1.879e-08\ZeroPoint=0.021095\Thermal=0.0239301\Dipole=0.7933811,-
 0.2421633,-0.3083633\DipoleDeriv=-0.4818386,-0.0825772,-0.1310392,-0.0
 825772,-0.5694975,-0.08383,-0.1310392,-0.08383,-0.6770173,0.2309796,-0
 .0370875,0.1157105,-0.021409,0.3287346,0.0521431,0.1067884,0.0609601,0
 .3044625,0.2508591,0.1196647,0.0153287,0.1039862,0.2407628,0.0316869,0
 .0242507,0.0228699,0.3725547\Polar=6.4716856,0.0764133,7.4082979,-0.01
 91994,-0.5513922,6.8394445\PG=CS [SG(H2O1)]\NImag=0\\0.35687194,-0.074
 77744,0.51828484,-0.15819594,-0.25294346,0.23280448,-0.20183243,-0.153
 54828,0.20091108,0.19082053,-0.10373698,-0.15560741,0.14691771,0.13342
 966,0.17495438,0.17256516,0.17492986,-0.19654083,-0.18329180,-0.174648
 06,0.20237319,-0.15503951,0.22832572,-0.04271514,0.01101189,-0.0296926
 9,0.01072664,0.14402761,0.17851442,-0.36267743,0.10602576,0.02011861,-
 0.01934697,-0.00028180,-0.19863303,0.38202440,-0.01436922,0.07801360,-
 0.03626365,-0.01761928,0.02773036,-0.00583237,0.03198850,-0.10574396,0
 .04209602\\0.,0.00000002,0.,0.,-0.00000004,0.00000003,0.,0.00000002,-0
 .00000002\\\@


 SIC AS THE CAWSE OF EWERY THING IS, SIC WILBE THE EFFECT.
 -- PROVERBS AND REASONS OF THE YEAR 1585
           AS REPRINTED IN PAISLEY MAGAZINE 1828.
 FChkPn:  Coordinates translated and rotated.
 FChkPn:  Coordinates match /B/ after translation and rotation.
 Job cpu time:       0 days  0 hours  0 minutes  5.0 seconds.
 File lengths (MBytes):  RWF=      5 Int=      0 D2E=      0 Chk=      1 Scr=      1
 Normal termination of Gaussian 09 at Thu Mar  8 14:10:48 2018.
 Fin  execution du job  : jeu. mars  8 14:10:48 CET 2018
