 Entering Gaussian System, Link 0=/packages/gaussian/g09e01/g09
 Initial command:
 /packages/gaussian/g09e01/l1.exe "/tmp/Gau-89345.inp" -scrdir="/tmp/"
 Entering Link 1 = /packages/gaussian/g09e01/l1.exe PID=     89350.
  
 Copyright (c) 1988,1990,1992,1993,1995,1998,2003,2009,2015,
            Gaussian, Inc.  All Rights Reserved.
  
 This is part of the Gaussian(R) 09 program.  It is based on
 the Gaussian(R) 03 system (copyright 2003, Gaussian, Inc.),
 the Gaussian(R) 98 system (copyright 1998, Gaussian, Inc.),
 the Gaussian(R) 94 system (copyright 1995, Gaussian, Inc.),
 the Gaussian 92(TM) system (copyright 1992, Gaussian, Inc.),
 the Gaussian 90(TM) system (copyright 1990, Gaussian, Inc.),
 the Gaussian 88(TM) system (copyright 1988, Gaussian, Inc.),
 the Gaussian 86(TM) system (copyright 1986, Carnegie Mellon
 University), and the Gaussian 82(TM) system (copyright 1983,
 Carnegie Mellon University). Gaussian is a federally registered
 trademark of Gaussian, Inc.
  
 This software contains proprietary and confidential information,
 including trade secrets, belonging to Gaussian, Inc.
  
 This software is provided under written license and may be
 used, copied, transmitted, or stored only in accord with that
 written license.
  
 The following legend is applicable only to US Government
 contracts under FAR:
  
                    RESTRICTED RIGHTS LEGEND
  
 Use, reproduction and disclosure by the US Government is
 subject to restrictions as set forth in subparagraphs (a)
 and (c) of the Commercial Computer Software - Restricted
 Rights clause in FAR 52.227-19.
  
 Gaussian, Inc.
 340 Quinnipiac St., Bldg. 40, Wallingford CT 06492
  
  
 ---------------------------------------------------------------
 Warning -- This program may not be used in any manner that
 competes with the business of Gaussian, Inc. or will provide
 assistance to any competitor of Gaussian, Inc.  The licensee
 of this program is prohibited from giving any competitor of
 Gaussian, Inc. access to this program.  By using this program,
 the user acknowledges that Gaussian, Inc. is engaged in the
 business of creating and licensing software in the field of
 computational chemistry and represents and warrants to the
 licensee that it is not a competitor of Gaussian, Inc. and that
 it will not use this program in any manner prohibited above.
 ---------------------------------------------------------------
  

 Cite this work as:
 Gaussian 09, Revision E.01,
 M. J. Frisch, G. W. Trucks, H. B. Schlegel, G. E. Scuseria, 
 M. A. Robb, J. R. Cheeseman, G. Scalmani, V. Barone, B. Mennucci, 
 G. A. Petersson, H. Nakatsuji, M. Caricato, X. Li, H. P. Hratchian, 
 A. F. Izmaylov, J. Bloino, G. Zheng, J. L. Sonnenberg, M. Hada, 
 M. Ehara, K. Toyota, R. Fukuda, J. Hasegawa, M. Ishida, T. Nakajima, 
 Y. Honda, O. Kitao, H. Nakai, T. Vreven, J. A. Montgomery, Jr., 
 J. E. Peralta, F. Ogliaro, M. Bearpark, J. J. Heyd, E. Brothers, 
 K. N. Kudin, V. N. Staroverov, T. Keith, R. Kobayashi, J. Normand, 
 K. Raghavachari, A. Rendell, J. C. Burant, S. S. Iyengar, J. Tomasi, 
 M. Cossi, N. Rega, J. M. Millam, M. Klene, J. E. Knox, J. B. Cross, 
 V. Bakken, C. Adamo, J. Jaramillo, R. Gomperts, R. E. Stratmann, 
 O. Yazyev, A. J. Austin, R. Cammi, C. Pomelli, J. W. Ochterski, 
 R. L. Martin, K. Morokuma, V. G. Zakrzewski, G. A. Voth, 
 P. Salvador, J. J. Dannenberg, S. Dapprich, A. D. Daniels, 
 O. Farkas, J. B. Foresman, J. V. Ortiz, J. Cioslowski, 
 and D. J. Fox, Gaussian, Inc., Wallingford CT, 2013.
 
 ******************************************
 Gaussian 09:  EM64L-G09RevE.01 30-Nov-2015
                26-Dec-2017 
 ******************************************
 %nprocshared=28
 Will use up to   28 processors via shared memory.
 %mem=500MB
 ----------------------------------------------------------------------
 #n test B3LYP/6-31+G** integral=(grid=UltraFine) opt=(maxcycles=80,tig
 ht,Z-Matrix)
 ----------------------------------------------------------------------
 1/6=80,7=10,10=7,14=-1,18=40,26=4,38=1/1,3;
 2/12=2,17=6,18=5,29=3,40=1/2;
 3/5=1,6=6,7=111,11=2,16=1,25=1,30=1,71=1,74=-5,75=-5/1,2,3;
 4//1;
 5/5=2,38=5/2;
 6/7=2,8=2,9=2,10=2,28=1/1;
 7/29=1/1,2,3,16;
 1/6=80,7=10,10=7,14=-1,18=40,26=4/3(2);
 2/29=3/2;
 99//99;
 2/29=3/2;
 3/5=1,6=6,7=111,11=2,16=1,25=1,30=1,71=1,74=-5,75=-5/1,2,3;
 4/5=5,16=3,69=1/1;
 5/5=2,38=5/2;
 7//1,2,3,16;
 1/6=80,7=10,14=-1,18=40,26=4/3(-5);
 2/29=3/2;
 6/7=2,8=2,9=2,10=2,19=2,28=1/1;
 99/9=1/99;
 ------------------
 L-cysteine neutral
 ------------------
 Symbolic Z-matrix:
 Charge =  0 Multiplicity = 1
 C
 O                    1    r2
 O                    1    r3       2    a3
 H                    2    r4       1    a4       3    d4       0
 C                    1    r5       2    a5       3    d5       0
 H                    5    r6       1    a6       2    d6       0
 C                    5    r7       1    a7       2    d7       0
 N                    5    r8       1    a8       2    d8       0
 H                    7    r9       5    a9       1    d9       0
 S                    7    r10      5    a10      1    d10      0
 H                    7    r11      5    a11      1    d11      0
 H                    8    r12      5    a12      1    d12      0
 H                    8    r13      5    a13      1    d13      0
 H                    10   r14      7    a14      5    d14      0
       Variables:
  r2                    1.3066                   
  r3                    1.2141                   
  a3                  122.23                     
  r4                    0.9754                   
  a4                  106.2                      
  d4                  178.1                      
  r5                    1.5236                   
  a5                  113.47                     
  d5                  177.02                     
  r6                    1.0936                   
  a6                  105.94                     
  d6                  278.29                     
  r7                    1.5453                   
  a7                  112.17                     
  d7                  160.05                     
  r8                    1.4779                   
  a8                  112.                       
  d8                   36.27                     
  r9                    1.0935                   
  a9                  109.36                     
  d9                   56.11                     
  r10                   1.8276                   
  a10                 113.78                     
  d10                 294.79                     
  r11                   1.0932                   
  a11                 109.07                     
  d11                 174.04                     
  r12                   1.0179                   
  a12                 109.91                     
  d12                 180.65                     
  r13                   1.0189                   
  a13                 109.37                     
  d13                  63.46                     
  r14                   1.3384                   
  a14                  96.27                     
  d14                  61.39                     
 

 GradGradGradGradGradGradGradGradGradGradGradGradGradGradGradGradGradGrad
 Berny optimization.
 Initialization pass.
                       ----------------------------
                       !    Initial Parameters    !
                       ! (Angstroms and Degrees)  !
 ----------------------                            ----------------------
 !      Name          Value   Derivative information (Atomic Units)     !
 ------------------------------------------------------------------------
 !       r2          1.3066   estimate D2E/DX2                          !
 !       r3          1.2141   estimate D2E/DX2                          !
 !       a3        122.23     estimate D2E/DX2                          !
 !       r4          0.9754   estimate D2E/DX2                          !
 !       a4        106.2      estimate D2E/DX2                          !
 !       d4        178.1      estimate D2E/DX2                          !
 !       r5          1.5236   estimate D2E/DX2                          !
 !       a5        113.47     estimate D2E/DX2                          !
 !       d5        177.02     estimate D2E/DX2                          !
 !       r6          1.0936   estimate D2E/DX2                          !
 !       a6        105.94     estimate D2E/DX2                          !
 !       d6        278.29     estimate D2E/DX2                          !
 !       r7          1.5453   estimate D2E/DX2                          !
 !       a7        112.17     estimate D2E/DX2                          !
 !       d7        160.05     estimate D2E/DX2                          !
 !       r8          1.4779   estimate D2E/DX2                          !
 !       a8        112.0      estimate D2E/DX2                          !
 !       d8         36.27     estimate D2E/DX2                          !
 !       r9          1.0935   estimate D2E/DX2                          !
 !       a9        109.36     estimate D2E/DX2                          !
 !       d9         56.11     estimate D2E/DX2                          !
 !       r10         1.8276   estimate D2E/DX2                          !
 !       a10       113.78     estimate D2E/DX2                          !
 !       d10       294.79     estimate D2E/DX2                          !
 !       r11         1.0932   estimate D2E/DX2                          !
 !       a11       109.07     estimate D2E/DX2                          !
 !       d11       174.04     estimate D2E/DX2                          !
 !       r12         1.0179   estimate D2E/DX2                          !
 !       a12       109.91     estimate D2E/DX2                          !
 !       d12       180.65     estimate D2E/DX2                          !
 !       r13         1.0189   estimate D2E/DX2                          !
 !       a13       109.37     estimate D2E/DX2                          !
 !       d13        63.46     estimate D2E/DX2                          !
 !       r14         1.3384   estimate D2E/DX2                          !
 !       a14        96.27     estimate D2E/DX2                          !
 !       d14        61.39     estimate D2E/DX2                          !
 ------------------------------------------------------------------------
 Trust Radius=3.00D-01 FncErr=1.00D-07 GrdErr=1.00D-06
 Number of steps in this run=     80 maximum allowed number of steps=    100.
 GradGradGradGradGradGradGradGradGradGradGradGradGradGradGradGradGradGrad

 ---------------------------------------------------------------------------------------------------
                            Z-MATRIX (ANGSTROMS AND DEGREES)
   CD    Cent   Atom    N1       Length/X        N2       Alpha/Y        N3        Beta/Z          J
 ---------------------------------------------------------------------------------------------------
      1      1  C 
      2      2  O        1   1.306600(     1)
      3      3  O        1   1.214100(     2)      2  122.230(    14)
      4      4  H        2   0.975400(     3)      1  106.200(    15)      3  178.100(    26)      0
      5      5  C        1   1.523600(     4)      2  113.470(    16)      3  177.020(    27)      0
      6      6  H        5   1.093600(     5)      1  105.940(    17)      2  278.290(    28)      0
      7      7  C        5   1.545300(     6)      1  112.170(    18)      2  160.050(    29)      0
      8      8  N        5   1.477900(     7)      1  112.000(    19)      2   36.270(    30)      0
      9      9  H        7   1.093500(     8)      5  109.360(    20)      1   56.110(    31)      0
     10     10  S        7   1.827600(     9)      5  113.780(    21)      1  294.790(    32)      0
     11     11  H        7   1.093200(    10)      5  109.070(    22)      1  174.040(    33)      0
     12     12  H        8   1.017900(    11)      5  109.910(    23)      1  180.650(    34)      0
     13     13  H        8   1.018900(    12)      5  109.370(    24)      1   63.460(    35)      0
     14     14  H       10   1.338400(    13)      7   96.270(    25)      5   61.390(    36)      0
 ---------------------------------------------------------------------------------------------------
                         Z-Matrix orientation:                         
 ---------------------------------------------------------------------
 Center     Atomic      Atomic             Coordinates (Angstroms)
 Number     Number       Type             X           Y           Z
 ---------------------------------------------------------------------
      1          6           0        0.000000    0.000000    0.000000
      2          8           0        0.000000    0.000000    1.306600
      3          8           0        1.027024    0.000000   -0.647503
      4          1           0       -0.936155    0.031055    1.578728
      5          6           0       -1.395661   -0.072655   -0.606802
      6          1           0       -1.676983   -1.129272   -0.587344
      7          6           0       -1.420189    0.415005   -2.072933
      8          7           0       -2.384349    0.687622    0.186080
      9          1           0       -0.702575   -0.164871   -2.659888
     10         16           0       -1.023024    2.188401   -2.266445
     11          1           0       -2.415890    0.242711   -2.490043
     12          1           0       -3.305164    0.608944   -0.240570
     13          1           0       -2.135885    1.675733    0.178324
     14          1           0        0.213154    2.117633   -1.758341
 ---------------------------------------------------------------------
                    Distance matrix (angstroms):
                    1          2          3          4          5
     1  C    0.000000
     2  O    1.306600   0.000000
     3  O    1.214100   2.207555   0.000000
     4  H    1.835683   0.975400   2.968357   0.000000
     5  C    1.523600   2.369442   2.424116   2.235720   0.000000
     6  H    2.105351   2.770298   2.930961   2.566526   1.093600
     7  C    2.546805   3.689229   2.862330   3.703557   1.545300
     8  N    2.488487   2.722776   3.578429   2.113720   1.477900
     9  H    2.756047   4.031602   2.658644   4.249566   2.168878
    10  S    3.312469   4.313042   3.407752   4.409880   2.829425
    11  H    3.477894   4.506654   3.912483   4.334664   2.164929
    12  H    3.369391   3.699818   4.393661   3.042367   2.060317
    13  H    2.720641   2.939914   3.673427   2.470920   2.054560
    14  H    2.760719   3.731444   2.526008   4.100092   2.951557
                    6          7          8          9         10
     6  H    0.000000
     7  C    2.158172   0.000000
     8  N    2.097536   2.471247   0.000000
     9  H    2.484950   1.093500   3.413889   0.000000
    10  S    3.775447   1.827600   3.181261   2.407358   0.000000
    11  H    2.459387   1.093200   2.713038   1.769299   2.403285
    12  H    2.406786   2.635962   1.017900   3.636669   3.436134
    13  H    2.943619   2.677651   1.018900   3.673914   2.734627
    14  H    3.935257   2.380278   3.545805   2.619384   1.338400
                   11         12         13         14
    11  H    0.000000
    12  H    2.446439   0.000000
    13  H    3.041732   1.637291   0.000000
    14  H    3.310981   4.118050   3.076351   0.000000
 Stoichiometry    C3H7NO2S
 Framework group  C1[X(C3H7NO2S)]
 Deg. of freedom    36
 Full point group                 C1      NOp   1
 Largest Abelian subgroup         C1      NOp   1
 Largest concise Abelian subgroup C1      NOp   1
                         Standard orientation:                         
 ---------------------------------------------------------------------
 Center     Atomic      Atomic             Coordinates (Angstroms)
 Number     Number       Type             X           Y           Z
 ---------------------------------------------------------------------
      1          6           0        1.261238   -0.484086    0.082586
      2          8           0        2.304383   -0.061822   -0.581301
      3          8           0        1.051063   -1.664084    0.276163
      4          1           0        2.225776    0.909529   -0.622563
      5          6           0        0.397898    0.642358    0.636772
      6          1           0        0.881876    0.963682    1.563313
      7          6           0       -1.034919    0.169046    0.969883
      8          7           0        0.338064    1.797753   -0.282832
      9          1           0       -0.985975   -0.671967    1.667051
     10         16           0       -1.998036   -0.351351   -0.493576
     11          1           0       -1.575251    0.983388    1.459755
     12          1           0       -0.236464    2.533877    0.122333
     13          1           0       -0.110566    1.514454   -1.152677
     14          1           0       -1.186139   -1.352282   -0.854512
 ---------------------------------------------------------------------
 Rotational constants (GHZ):      3.2222915      1.5888559      1.2900064
 Standard basis: 6-31+G(d,p) (6D, 7F)
 There are   172 symmetry adapted cartesian basis functions of A   symmetry.
 There are   172 symmetry adapted basis functions of A   symmetry.
   172 basis functions,   297 primitive gaussians,   172 cartesian basis functions
    32 alpha electrons       32 beta electrons
       nuclear repulsion energy       386.4253717195 Hartrees.
 NAtoms=   14 NActive=   14 NUniq=   14 SFac= 1.00D+00 NAtFMM=   60 NAOKFM=F Big=F
 Integral buffers will be    131072 words long.
 Raffenetti 2 integral format.
 Two-electron integral symmetry is turned on.
 One-electron integrals computed using PRISM.
 PrsmSu:  requested number of processors reduced to:  19 ShMem   1 Linda.
 NBasis=   172 RedAO= T EigKep=  4.53D-05  NBF=   172
 NBsUse=   172 1.00D-06 EigRej= -1.00D+00 NBFU=   172
 ExpMin= 4.05D-02 ExpMax= 2.19D+04 ExpMxC= 3.30D+03 IAcc=3 IRadAn=         5 AccDes= 0.00D+00
 Harris functional with IExCor=  402 and IRadAn=       5 diagonalized for initial guess.
 HarFok:  IExCor=  402 AccDes= 0.00D+00 IRadAn=         5 IDoV= 1 UseB2=F ITyADJ=14
 ICtDFT=  3500011 ScaDFX=  1.000000  1.000000  1.000000  1.000000
 FoFCou: FMM=F IPFlag=           0 FMFlag=      100000 FMFlg1=           0
         NFxFlg=           0 DoJE=T BraDBF=F KetDBF=T FulRan=T
         wScrn=  0.000000 ICntrl=     500 IOpCl=  0 I1Cent=   200000004 NGrid=           0
         NMat0=    1 NMatS0=      1 NMatT0=    0 NMatD0=    1 NMtDS0=    0 NMtDT0=    0
 Petite list used in FoFCou.
 Requested convergence on RMS density matrix=1.00D-08 within 128 cycles.
 Requested convergence on MAX density matrix=1.00D-06.
 Requested convergence on             energy=1.00D-06.
 No special actions if energy rises.
 SCF Done:  E(RB3LYP) =  -721.954581335     A.U. after   13 cycles
            NFock= 13  Conv=0.71D-08     -V/T= 2.0058

 **********************************************************************

            Population analysis using the SCF density.

 **********************************************************************

 Orbital symmetries:
       Occupied  (A) (A) (A) (A) (A) (A) (A) (A) (A) (A) (A) (A)
                 (A) (A) (A) (A) (A) (A) (A) (A) (A) (A) (A) (A)
                 (A) (A) (A) (A) (A) (A) (A) (A)
       Virtual   (A) (A) (A) (A) (A) (A) (A) (A) (A) (A) (A) (A)
                 (A) (A) (A) (A) (A) (A) (A) (A) (A) (A) (A) (A)
                 (A) (A) (A) (A) (A) (A) (A) (A) (A) (A) (A) (A)
                 (A) (A) (A) (A) (A) (A) (A) (A) (A) (A) (A) (A)
                 (A) (A) (A) (A) (A) (A) (A) (A) (A) (A) (A) (A)
                 (A) (A) (A) (A) (A) (A) (A) (A) (A) (A) (A) (A)
                 (A) (A) (A) (A) (A) (A) (A) (A) (A) (A) (A) (A)
                 (A) (A) (A) (A) (A) (A) (A) (A) (A) (A) (A) (A)
                 (A) (A) (A) (A) (A) (A) (A) (A) (A) (A) (A) (A)
                 (A) (A) (A) (A) (A) (A) (A) (A) (A) (A) (A) (A)
                 (A) (A) (A) (A) (A) (A) (A) (A) (A) (A) (A) (A)
                 (A) (A) (A) (A) (A) (A) (A) (A)
 The electronic state is 1-A.
 Alpha  occ. eigenvalues --  -88.89120 -19.22023 -19.15672 -14.36323 -10.33870
 Alpha  occ. eigenvalues --  -10.26470 -10.24011  -7.95317  -5.91811  -5.91443
 Alpha  occ. eigenvalues --   -5.90807  -1.13863  -1.04113  -0.93191  -0.80619
 Alpha  occ. eigenvalues --   -0.73485  -0.65805  -0.62972  -0.56128  -0.51448
 Alpha  occ. eigenvalues --   -0.49257  -0.47535  -0.46659  -0.44382  -0.43458
 Alpha  occ. eigenvalues --   -0.41186  -0.38608  -0.34799  -0.33338  -0.29740
 Alpha  occ. eigenvalues --   -0.28585  -0.25723
 Alpha virt. eigenvalues --   -0.03170  -0.00414   0.00043   0.01438   0.01823
 Alpha virt. eigenvalues --    0.02556   0.04711   0.05635   0.05943   0.06819
 Alpha virt. eigenvalues --    0.07465   0.08889   0.09694   0.10522   0.11168
 Alpha virt. eigenvalues --    0.11380   0.11502   0.12372   0.13703   0.15285
 Alpha virt. eigenvalues --    0.16395   0.17182   0.17562   0.19723   0.20847
 Alpha virt. eigenvalues --    0.21906   0.22674   0.23015   0.23567   0.26036
 Alpha virt. eigenvalues --    0.27508   0.28970   0.29683   0.30438   0.31205
 Alpha virt. eigenvalues --    0.31747   0.32578   0.34636   0.35829   0.39556
 Alpha virt. eigenvalues --    0.40312   0.47001   0.48630   0.49202   0.52064
 Alpha virt. eigenvalues --    0.54102   0.59525   0.62341   0.65510   0.67244
 Alpha virt. eigenvalues --    0.70357   0.71601   0.72765   0.75405   0.79579
 Alpha virt. eigenvalues --    0.81081   0.82601   0.89248   0.90995   0.91902
 Alpha virt. eigenvalues --    0.93679   0.97431   0.97865   0.99433   1.00967
 Alpha virt. eigenvalues --    1.05753   1.08193   1.09213   1.10272   1.13770
 Alpha virt. eigenvalues --    1.14511   1.17017   1.21142   1.27412   1.28931
 Alpha virt. eigenvalues --    1.30045   1.33083   1.33257   1.35032   1.40774
 Alpha virt. eigenvalues --    1.41533   1.49448   1.54797   1.57547   1.60167
 Alpha virt. eigenvalues --    1.61755   1.65863   1.73185   1.76539   1.81654
 Alpha virt. eigenvalues --    1.82549   1.84460   1.84661   1.92184   1.94203
 Alpha virt. eigenvalues --    1.97500   2.02494   2.06327   2.07561   2.10334
 Alpha virt. eigenvalues --    2.12902   2.13341   2.20206   2.22860   2.25991
 Alpha virt. eigenvalues --    2.30358   2.33441   2.35052   2.40148   2.44096
 Alpha virt. eigenvalues --    2.48422   2.52666   2.54033   2.55481   2.61059
 Alpha virt. eigenvalues --    2.64525   2.69205   2.75145   2.77862   2.78565
 Alpha virt. eigenvalues --    2.83341   2.86443   2.90869   2.95842   3.02052
 Alpha virt. eigenvalues --    3.12194   3.22607   3.29229   3.33450   3.38541
 Alpha virt. eigenvalues --    3.46927   3.50852   3.52133   3.98457   4.17139
 Alpha virt. eigenvalues --    4.22841   4.34959   4.46884   4.56034   4.68516
          Condensed to atoms (all electrons):
               1          2          3          4          5          6
     1  C    5.124829   0.242257   0.467262  -0.021706  -0.183284  -0.013007
     2  O    0.242257   8.285135  -0.115147   0.207751  -0.284170  -0.000144
     3  O    0.467262  -0.115147   8.283727   0.008087  -0.230857   0.000962
     4  H   -0.021706   0.207751   0.008087   0.377883   0.023818  -0.001734
     5  C   -0.183284  -0.284170  -0.230857   0.023818   6.701408   0.345948
     6  H   -0.013007  -0.000144   0.000962  -0.001734   0.345948   0.547162
     7  C   -0.036892   0.037020   0.055781   0.011507  -0.092352  -0.022854
     8  N    0.050508   0.031563   0.023777   0.017952  -0.122679  -0.037654
     9  H   -0.004163  -0.001366  -0.002623  -0.000049  -0.037050  -0.001059
    10  S   -0.037041  -0.006359  -0.021006  -0.001480   0.058225   0.006677
    11  H    0.007102  -0.000066   0.000153  -0.000028  -0.010515  -0.004755
    12  H    0.008826  -0.000759  -0.000748   0.000682  -0.010367  -0.005300
    13  H   -0.026590  -0.000615   0.000799  -0.002096  -0.012343   0.004835
    14  H    0.016376   0.001742  -0.009934  -0.000001   0.025604   0.000025
               7          8          9         10         11         12
     1  C   -0.036892   0.050508  -0.004163  -0.037041   0.007102   0.008826
     2  O    0.037020   0.031563  -0.001366  -0.006359  -0.000066  -0.000759
     3  O    0.055781   0.023777  -0.002623  -0.021006   0.000153  -0.000748
     4  H    0.011507   0.017952  -0.000049  -0.001480  -0.000028   0.000682
     5  C   -0.092352  -0.122679  -0.037050   0.058225  -0.010515  -0.010367
     6  H   -0.022854  -0.037654  -0.001059   0.006677  -0.004755  -0.005300
     7  C    5.835915  -0.085152   0.347217   0.039639   0.369703   0.009267
     8  N   -0.085152   7.092626   0.015424  -0.018653  -0.018743   0.324972
     9  H    0.347217   0.015424   0.518191  -0.015052  -0.024460  -0.000043
    10  S    0.039639  -0.018653  -0.015052  15.757382  -0.040844  -0.009278
    11  H    0.369703  -0.018743  -0.024460  -0.040844   0.544362   0.002699
    12  H    0.009267   0.324972  -0.000043  -0.009278   0.002699   0.412572
    13  H   -0.016327   0.349812   0.000076   0.025462  -0.000204  -0.032278
    14  H   -0.028945  -0.010925  -0.005010   0.266067   0.003302   0.000105
              13         14
     1  C   -0.026590   0.016376
     2  O   -0.000615   0.001742
     3  O    0.000799  -0.009934
     4  H   -0.002096  -0.000001
     5  C   -0.012343   0.025604
     6  H    0.004835   0.000025
     7  C   -0.016327  -0.028945
     8  N    0.349812  -0.010925
     9  H    0.000076  -0.005010
    10  S    0.025462   0.266067
    11  H   -0.000204   0.003302
    12  H   -0.032278   0.000105
    13  H    0.383611  -0.000128
    14  H   -0.000128   0.646895
 Mulliken charges:
               1
     1  C    0.405524
     2  O   -0.396843
     3  O   -0.460232
     4  H    0.379414
     5  C   -0.171386
     6  H    0.180898
     7  C   -0.423527
     8  N   -0.612828
     9  H    0.209967
    10  S   -0.003740
    11  H    0.172296
    12  H    0.299649
    13  H    0.325984
    14  H    0.094826
 Sum of Mulliken charges =  -0.00000
 Mulliken charges with hydrogens summed into heavy atoms:
               1
     1  C    0.405524
     2  O   -0.017429
     3  O   -0.460232
     5  C    0.009512
     7  C   -0.041265
     8  N    0.012804
    10  S    0.091086
 Electronic spatial extent (au):  <R**2>=            951.1697
 Charge=             -0.0000 electrons
 Dipole moment (field-independent basis, Debye):
    X=             -0.8035    Y=              3.8140    Z=              1.2258  Tot=              4.0859
 Quadrupole moment (field-independent basis, Debye-Ang):
   XX=            -56.9211   YY=            -52.3046   ZZ=            -46.9864
   XY=              2.2778   XZ=              0.0125   YZ=              2.7326
 Traceless Quadrupole moment (field-independent basis, Debye-Ang):
   XX=             -4.8504   YY=             -0.2339   ZZ=              5.0843
   XY=              2.2778   XZ=              0.0125   YZ=              2.7326
 Octapole moment (field-independent basis, Debye-Ang**2):
  XXX=             17.4414  YYY=             11.5210  ZZZ=              0.4971  XYY=             -9.3803
  XXY=             11.6386  XXZ=              5.0363  XZZ=              2.6089  YZZ=              0.8777
  YYZ=             -0.9511  XYZ=             -2.7831
 Hexadecapole moment (field-independent basis, Debye-Ang**3):
 XXXX=           -776.9647 YYYY=           -349.4075 ZZZZ=           -168.7541 XXXY=              4.1687
 XXXZ=             -2.3954 YYYX=            -11.4311 YYYZ=             12.3550 ZZZX=             -2.2790
 ZZZY=              0.1892 XXYY=           -183.4498 XXZZ=           -147.0833 YYZZ=            -80.3259
 XXYZ=              1.8023 YYXZ=             -0.3576 ZZXY=              3.4550
 N-N= 3.864253717195D+02 E-N=-2.475204946822D+03  KE= 7.177667134994D+02
 PrsmSu:  requested number of processors reduced to:  19 ShMem   1 Linda.
 Calling FoFJK, ICntrl=      2127 FMM=F ISym2X=0 I1Cent= 0 IOpClX= 0 NMat=1 NMatS=1 NMatT=0.
 ***** Axes restored to original set *****
 -------------------------------------------------------------------
 Center     Atomic                   Forces (Hartrees/Bohr)
 Number     Number              X              Y              Z
 -------------------------------------------------------------------
      1        6           0.007186134   -0.002580803   -0.024254306
      2        8          -0.001000657    0.000213332    0.031252371
      3        8          -0.002688536    0.000292710   -0.001759687
      4        1          -0.003542834    0.002353082    0.007083250
      5        6          -0.017698550    0.020536730   -0.020872181
      6        1          -0.002149466   -0.003194442   -0.000251794
      7        6           0.014906961   -0.014855513   -0.000971648
      8        7           0.009059873   -0.009770082    0.014503586
      9        1          -0.001098798    0.000086068   -0.001719525
     10       16          -0.007322518    0.006429061   -0.003198712
     11        1           0.000007469    0.003368775   -0.000577842
     12        1           0.000751890   -0.001602760    0.003655852
     13        1          -0.001719742    0.000194885   -0.002649812
     14        1           0.005308775   -0.001471044   -0.000239553
 -------------------------------------------------------------------
 Cartesian Forces:  Max     0.031252371 RMS     0.009634054
 -----------------------------------------------------------------------------------------------
                       Internal Coordinate Forces (Hartree/Bohr or radian)
  Cent   Atom   N1       Length/X         N2         Alpha/Y        N3         Beta/Z          J
 -----------------------------------------------------------------------------------------------
      1  C 
      2  O        1   0.038336(     1)
      3  O        1  -0.001336(     2)      2   0.006705(    14)
      4  H        2   0.005451(     3)      1   0.010677(    15)      3  -0.003955(    26)     0
      5  C        1   0.004879(     4)      2   0.006557(    16)      3  -0.003351(    27)     0
      6  H        5   0.003635(     5)      1   0.002629(    17)      2   0.000475(    28)     0
      7  C        5   0.004143(     6)      1  -0.018243(    18)      2   0.030280(    29)     0
      8  N        5  -0.002843(     7)      1  -0.037185(    19)      2  -0.037995(    30)     0
      9  H        7   0.000156(     8)      5   0.003558(    20)      1   0.002121(    31)     0
     10  S        7   0.004737(     9)      5   0.010762(    21)      1  -0.004383(    32)     0
     11  H        7  -0.000317(    10)      5   0.003748(    22)      1   0.005622(    33)     0
     12  H        8  -0.002089(    11)      5   0.002752(    23)      1   0.005745(    34)     0
     13  H        8  -0.000210(    12)      5  -0.000206(    24)      1   0.005733(    35)     0
     14  H       10   0.004890(    13)      7  -0.001991(    25)      5   0.006092(    36)     0
 -----------------------------------------------------------------------------------------------
 Internal  Forces:  Max     0.038335621 RMS     0.013164177

 GradGradGradGradGradGradGradGradGradGradGradGradGradGradGradGradGradGrad
 Berny optimization.
 Search for a local minimum.
 Step number   1 out of a maximum of   80
 All quantities printed in internal units (Hartrees-Bohrs-Radians)
 Second derivative matrix not updated -- first step.
 ITU=  0
     Eigenvalues ---    0.00659   0.00676   0.00793   0.01820   0.03920
     Eigenvalues ---    0.10183   0.11023   0.13184   0.16000   0.16000
     Eigenvalues ---    0.16000   0.17257   0.17468   0.21433   0.24058
     Eigenvalues ---    0.25001   0.26551   0.28055   0.30022   0.34400
     Eigenvalues ---    0.34411   0.34445   0.34811   0.35707   0.36353
     Eigenvalues ---    0.38474   0.38602   0.42198   0.42559   0.44514
     Eigenvalues ---    0.44675   0.52289   0.59285   0.65393   0.74892
     Eigenvalues ---    0.98046
 RFO step:  Lambda=-1.64560520D-02 EMin= 6.59228331D-03
 Linear search not attempted -- first point.
 Maximum step size (   0.300) exceeded in Quadratic search.
    -- Step size scaled by   0.662
 Variable       Old X    -DE/DX   Delta X   Delta X   Delta X     New X
                                 (Linear)    (Quad)   (Total)
    r2        2.46912   0.03834   0.00000   0.03783   0.03783   2.50695
    r3        2.29432  -0.00134   0.00000  -0.00089  -0.00089   2.29343
    a3        2.13332   0.00670   0.00000   0.00600   0.00600   2.13931
    r4        1.84324   0.00545   0.00000   0.00669   0.00669   1.84993
    a4        1.85354   0.01068   0.00000   0.04003   0.04003   1.89357
    d4        3.10843  -0.00395   0.00000  -0.03395  -0.03395   3.07448
    r5        2.87919   0.00488   0.00000   0.01019   0.01019   2.88938
    a5        1.98043   0.00656   0.00000   0.00552   0.00552   1.98595
    d5        3.08958  -0.00335   0.00000  -0.00240  -0.00240   3.08719
    r6        2.06660   0.00363   0.00000   0.00667   0.00667   2.07328
    a6        1.84900   0.00263   0.00000  -0.01387  -0.01387   1.83513
    d6        4.85708   0.00047   0.00000  -0.04623  -0.04623   4.81085
    r7        2.92019   0.00414   0.00000   0.00923   0.00923   2.92942
    a7        1.95774  -0.01824   0.00000   0.00650   0.00650   1.96424
    d7        2.79340   0.03028   0.00000  -0.02166  -0.02166   2.77174
    r8        2.79283  -0.00284   0.00000  -0.00516  -0.00516   2.78767
    a8        1.95477  -0.03718   0.00000  -0.04856  -0.04856   1.90621
    d8        0.63303  -0.03800   0.00000  -0.11884  -0.11884   0.51419
    r9        2.06642   0.00016   0.00000   0.00029   0.00029   2.06670
    a9        1.90869   0.00356   0.00000   0.01369   0.01369   1.92239
    d9        0.97930   0.00212   0.00000   0.03541   0.03541   1.01472
   r10        3.45366   0.00474   0.00000   0.01219   0.01219   3.46586
   a10        1.98584   0.01076   0.00000   0.01833   0.01833   2.00417
   d10        5.14506  -0.00438   0.00000   0.01150   0.01150   5.15655
   r11        2.06585  -0.00032   0.00000  -0.00058  -0.00058   2.06527
   a11        1.90363   0.00375   0.00000  -0.00344  -0.00344   1.90019
   d11        3.03757   0.00562   0.00000   0.03694   0.03694   3.07451
   r12        1.92355  -0.00209   0.00000  -0.00298  -0.00298   1.92057
   a12        1.91829   0.00275   0.00000   0.01004   0.01004   1.92833
   d12        3.15294   0.00575   0.00000   0.12700   0.12700   3.27994
   r13        1.92544  -0.00021   0.00000  -0.00030  -0.00030   1.92514
   a13        1.90887  -0.00021   0.00000  -0.00106  -0.00106   1.90781
   d13        1.10759   0.00573   0.00000   0.12253   0.12253   1.23012
   r14        2.52921   0.00489   0.00000   0.01147   0.01147   2.54068
   a14        1.68023  -0.00199   0.00000  -0.00746  -0.00746   1.67276
   d14        1.07146   0.00609   0.00000   0.17674   0.17674   1.24820
         Item               Value     Threshold  Converged?
 Maximum Force            0.038336     0.000015     NO 
 RMS     Force            0.013164     0.000010     NO 
 Maximum Displacement     0.176741     0.000060     NO 
 RMS     Displacement     0.050000     0.000040     NO 
 Predicted change in Energy=-8.025969D-03
 GradGradGradGradGradGradGradGradGradGradGradGradGradGradGradGradGradGrad

 ---------------------------------------------------------------------------------------------------
                            Z-MATRIX (ANGSTROMS AND DEGREES)
   CD    Cent   Atom    N1       Length/X        N2       Alpha/Y        N3        Beta/Z          J
 ---------------------------------------------------------------------------------------------------
      1      1  C 
      2      2  O        1   1.326619(     1)
      3      3  O        1   1.213631(     2)      2  122.574(    14)
      4      4  H        2   0.978938(     3)      1  108.493(    15)      3  176.155(    26)      0
      5      5  C        1   1.528993(     4)      2  113.787(    16)      3  176.883(    27)      0
      6      6  H        5   1.097130(     5)      1  105.145(    17)      2  275.641(    28)      0
      7      7  C        5   1.550183(     6)      1  112.542(    18)      2  158.809(    29)      0
      8      8  N        5   1.475170(     7)      1  109.218(    19)      2   29.461(    30)      0
      9      9  H        7   1.093652(     8)      5  110.145(    20)      1   58.139(    31)      0
     10     10  S        7   1.834052(     9)      5  114.830(    21)      1  295.449(    32)      0
     11     11  H        7   1.092892(    10)      5  108.873(    22)      1  176.156(    33)      0
     12     12  H        8   1.016322(    11)      5  110.485(    23)      1  187.926(    34)      0
     13     13  H        8   1.018741(    12)      5  109.309(    24)      1   70.481(    35)      0
     14     14  H       10   1.344471(    13)      7   95.842(    25)      5   71.517(    36)      0
 ---------------------------------------------------------------------------------------------------
                         Z-Matrix orientation:                         
 ---------------------------------------------------------------------
 Center     Atomic      Atomic             Coordinates (Angstroms)
 Number     Number       Type             X           Y           Z
 ---------------------------------------------------------------------
      1          6           0        0.000000    0.000000    0.000000
      2          8           0        0.000000    0.000000    1.326619
      3          8           0        1.022727    0.000000   -0.653399
      4          1           0       -0.926296    0.062256    1.637133
      5          6           0       -1.397042   -0.076084   -0.616689
      6          1           0       -1.643562   -1.144965   -0.637044
      7          6           0       -1.430570    0.440400   -2.077917
      8          7           0       -2.366416    0.557236    0.297284
      9          1           0       -0.736242   -0.134925   -2.696775
     10         16           0       -1.041077    2.221830   -2.274257
     11          1           0       -2.436102    0.295907   -2.480956
     12          1           0       -3.316355    0.403563   -0.029687
     13          1           0       -2.213942    1.564474    0.304763
     14          1           0        0.269604    2.106634   -1.997763
 ---------------------------------------------------------------------
                    Distance matrix (angstroms):
                    1          2          3          4          5
     1  C    0.000000
     2  O    1.326619   0.000000
     3  O    1.213631   2.228551   0.000000
     4  H    1.882048   0.978938   3.008173   0.000000
     5  C    1.528993   2.394568   2.421243   2.306610   0.000000
     6  H    2.101919   2.805033   2.901776   2.672776   1.097130
     7  C    2.560903   3.719052   2.870865   3.768141   1.550183
     8  N    2.449248   2.640070   3.563790   2.028336   1.475170
     9  H    2.798723   4.092426   2.699548   4.342552   2.183318
    10  S    3.345536   4.357370   3.438458   4.469441   2.855635
    11  H    3.489598   4.529876   3.923139   4.392353   2.166452
    12  H    3.340951   3.605640   4.402217   2.933796   2.063588
    13  H    2.728002   2.897120   3.720440   2.385350   2.051299
    14  H    2.915759   3.944883   2.610060   4.338447   3.073976
                    6          7          8          9         10
     6  H    0.000000
     7  C    2.152874   0.000000
     8  N    2.071950   2.555590   0.000000
     9  H    2.466962   1.093652   3.478641   0.000000
    10  S    3.791934   1.834052   3.337697   2.413657   0.000000
    11  H    2.470677   1.092892   2.791374   1.766839   2.387048
    12  H    2.359038   2.784384   1.016322   3.749708   3.677102
    13  H    2.924619   2.748524   1.018741   3.752437   2.908449
    14  H    4.010568   2.381880   3.823150   2.554394   1.344471
                   11         12         13         14
    11  H    0.000000
    12  H    2.606752   0.000000
    13  H    3.069015   1.635508   0.000000
    14  H    3.291361   4.430900   3.429805   0.000000
 Stoichiometry    C3H7NO2S
 Framework group  C1[X(C3H7NO2S)]
 Deg. of freedom    36
 Full point group                 C1      NOp   1
 Largest Abelian subgroup         C1      NOp   1
 Largest concise Abelian subgroup C1      NOp   1
                         Standard orientation:                         
 ---------------------------------------------------------------------
 Center     Atomic      Atomic             Coordinates (Angstroms)
 Number     Number       Type             X           Y           Z
 ---------------------------------------------------------------------
      1          6           0        1.229057   -0.540715    0.086981
      2          8           0        2.303095   -0.163691   -0.594351
      3          8           0        0.966833   -1.706209    0.300906
      4          1           0        2.280134    0.809627   -0.696548
      5          6           0        0.405381    0.625289    0.634530
      6          1           0        0.886651    0.895935    1.582594
      7          6           0       -1.057967    0.222676    0.950100
      8          7           0        0.559463    1.789871   -0.257733
      9          1           0       -1.075362   -0.596717    1.674232
     10         16           0       -2.052062   -0.273364   -0.509169
     11          1           0       -1.570577    1.076901    1.399484
     12          1           0        0.127767    2.612799    0.153772
     13          1           0        0.075652    1.607985   -1.135615
     14          1           0       -1.425755   -1.446111   -0.709187
 ---------------------------------------------------------------------
 Rotational constants (GHZ):      3.1792427      1.5509656      1.2584946
 Standard basis: 6-31+G(d,p) (6D, 7F)
 There are   172 symmetry adapted cartesian basis functions of A   symmetry.
 There are   172 symmetry adapted basis functions of A   symmetry.
   172 basis functions,   297 primitive gaussians,   172 cartesian basis functions
    32 alpha electrons       32 beta electrons
       nuclear repulsion energy       383.3451631721 Hartrees.
 NAtoms=   14 NActive=   14 NUniq=   14 SFac= 1.00D+00 NAtFMM=   60 NAOKFM=F Big=F
 Integral buffers will be    131072 words long.
 Raffenetti 2 integral format.
 Two-electron integral symmetry is turned on.
 One-electron integrals computed using PRISM.
 PrsmSu:  requested number of processors reduced to:  19 ShMem   1 Linda.
 NBasis=   172 RedAO= T EigKep=  4.56D-05  NBF=   172
 NBsUse=   172 1.00D-06 EigRej= -1.00D+00 NBFU=   172
 Initial guess from the checkpoint file:  "/tmp/Gau-89350.chk"
 B after Tr=    -0.000000    0.000000    0.000000
         Rot=    0.999594    0.002000    0.002577    0.028290 Ang=   3.26 deg.
 ExpMin= 4.05D-02 ExpMax= 2.19D+04 ExpMxC= 3.30D+03 IAcc=2 IRadAn=         4 AccDes= 0.00D+00
 Harris functional with IExCor=  402 and IRadAn=       4 diagonalized for initial guess.
 HarFok:  IExCor=  402 AccDes= 0.00D+00 IRadAn=         4 IDoV= 1 UseB2=F ITyADJ=14
 ICtDFT=  3500011 ScaDFX=  1.000000  1.000000  1.000000  1.000000
 FoFCou: FMM=F IPFlag=           0 FMFlag=      100000 FMFlg1=           0
         NFxFlg=           0 DoJE=T BraDBF=F KetDBF=T FulRan=T
         wScrn=  0.000000 ICntrl=     500 IOpCl=  0 I1Cent=   200000004 NGrid=           0
         NMat0=    1 NMatS0=      1 NMatT0=    0 NMatD0=    1 NMtDS0=    0 NMtDT0=    0
 Petite list used in FoFCou.
 Requested convergence on RMS density matrix=1.00D-08 within 128 cycles.
 Requested convergence on MAX density matrix=1.00D-06.
 Requested convergence on             energy=1.00D-06.
 No special actions if energy rises.
 SCF Done:  E(RB3LYP) =  -721.961091059     A.U. after   12 cycles
            NFock= 12  Conv=0.42D-08     -V/T= 2.0060
 PrsmSu:  requested number of processors reduced to:  19 ShMem   1 Linda.
 Calling FoFJK, ICntrl=      2127 FMM=F ISym2X=0 I1Cent= 0 IOpClX= 0 NMat=1 NMatS=1 NMatT=0.
 ***** Axes restored to original set *****
 -------------------------------------------------------------------
 Center     Atomic                   Forces (Hartrees/Bohr)
 Number     Number              X              Y              Z
 -------------------------------------------------------------------
      1        6           0.003356534   -0.002747140   -0.010798812
      2        8           0.004784985    0.001036269    0.014739122
      3        8          -0.002305761    0.000217255    0.001393517
      4        1          -0.002385909   -0.000034631   -0.001510023
      5        6          -0.009334075    0.007782749   -0.007698002
      6        1          -0.000274290   -0.002000811   -0.001578627
      7        6           0.005292022   -0.006295848    0.003696350
      8        7           0.005613709   -0.001621583   -0.000208284
      9        1          -0.000810215   -0.000265769    0.001160751
     10       16          -0.003021705    0.002488487    0.000527670
     11        1          -0.000566595    0.001415687   -0.000287512
     12        1          -0.000618548   -0.001538664    0.002395696
     13        1          -0.001520480    0.001809480   -0.001920441
     14        1           0.001790329   -0.000245481    0.000088596
 -------------------------------------------------------------------
 Cartesian Forces:  Max     0.014739122 RMS     0.004259607
 -----------------------------------------------------------------------------------------------
                       Internal Coordinate Forces (Hartree/Bohr or radian)
  Cent   Atom   N1       Length/X         N2         Alpha/Y        N3         Beta/Z          J
 -----------------------------------------------------------------------------------------------
      1  C 
      2  O        1   0.013229(     1)
      3  O        1  -0.002693(     2)      2   0.000154(    14)
      4  H        2   0.001776(     3)      1  -0.004045(    15)      3   0.000341(    26)     0
      5  C        1   0.004618(     4)      2   0.002276(    16)      3   0.000771(    27)     0
      6  H        5   0.002040(     5)      1   0.000975(    17)      2  -0.002960(    28)     0
      7  C        5  -0.005914(     6)      1  -0.006749(    18)      2   0.001051(    29)     0
      8  N        5  -0.002698(     7)      1  -0.007958(    19)      2   0.000122(    30)     0
      9  H        7  -0.001031(     8)      5  -0.001783(    20)      1   0.001001(    31)     0
     10  S        7   0.001851(     9)      5  -0.002199(    21)      1  -0.005083(    32)     0
     11  H        7   0.000440(    10)      5   0.001337(    22)      1   0.002618(    33)     0
     12  H        8   0.000040(    11)      5   0.002493(    23)      1   0.004692(    34)     0
     13  H        8   0.001547(    12)      5   0.000152(    24)      1   0.004763(    35)     0
     14  H       10   0.001785(    13)      7  -0.000126(    25)      5   0.000742(    36)     0
 -----------------------------------------------------------------------------------------------
 Internal  Forces:  Max     0.013229100 RMS     0.003728369

 GradGradGradGradGradGradGradGradGradGradGradGradGradGradGradGradGradGrad
 Berny optimization.
 Search for a local minimum.
 Step number   2 out of a maximum of   80
 All quantities printed in internal units (Hartrees-Bohrs-Radians)
 Update second derivatives using D2CorN and points    1    2
 DE= -6.51D-03 DEPred=-8.03D-03 R= 8.11D-01
 TightC=F SS=  1.41D+00  RLast= 3.00D-01 DXNew= 5.0454D-01 9.0000D-01
 Trust test= 8.11D-01 RLast= 3.00D-01 DXMaxT set to 5.05D-01
 ITU=  1  0
     Eigenvalues ---    0.00640   0.00759   0.01337   0.01892   0.03928
     Eigenvalues ---    0.10282   0.11018   0.13183   0.15993   0.16000
     Eigenvalues ---    0.16383   0.17271   0.17690   0.21798   0.24057
     Eigenvalues ---    0.25005   0.26550   0.28195   0.29997   0.34394
     Eigenvalues ---    0.34413   0.34446   0.34804   0.35762   0.36351
     Eigenvalues ---    0.38571   0.38598   0.42193   0.42660   0.44516
     Eigenvalues ---    0.44678   0.52290   0.60425   0.65434   0.74910
     Eigenvalues ---    0.98045
 RFO step:  Lambda=-4.39560663D-03 EMin= 6.39786312D-03
 Quartic linear search produced a step of  0.25668.
 Variable       Old X    -DE/DX   Delta X   Delta X   Delta X     New X
                                 (Linear)    (Quad)   (Total)
    r2        2.50695   0.01323   0.00971   0.01087   0.02058   2.52752
    r3        2.29343  -0.00269  -0.00023  -0.00389  -0.00412   2.28931
    a3        2.13931   0.00015   0.00154  -0.00697  -0.00543   2.13389
    r4        1.84993   0.00178   0.00172   0.00163   0.00334   1.85327
    a4        1.89357  -0.00404   0.01027  -0.06204  -0.05177   1.84180
    d4        3.07448   0.00034  -0.00871   0.01334   0.00462   3.07911
    r5        2.88938   0.00462   0.00262   0.01859   0.02120   2.91058
    a5        1.98595   0.00228   0.00142   0.00664   0.00806   1.99400
    d5        3.08719   0.00077  -0.00062   0.03211   0.03149   3.11868
    r6        2.07328   0.00204   0.00171   0.00563   0.00735   2.08062
    a6        1.83513   0.00097  -0.00356   0.00089  -0.00267   1.83246
    d6        4.81085  -0.00296  -0.01187  -0.06072  -0.07259   4.73826
    r7        2.92942  -0.00591   0.00237  -0.03853  -0.03616   2.89326
    a7        1.96424  -0.00675   0.00167  -0.01412  -0.01245   1.95178
    d7        2.77174   0.00105  -0.00556  -0.06509  -0.07065   2.70109
    r8        2.78767  -0.00270  -0.00132  -0.00937  -0.01070   2.77697
    a8        1.90621  -0.00796  -0.01246   0.00062  -0.01184   1.89437
    d8        0.51419   0.00012  -0.03050  -0.02077  -0.05127   0.46292
    r9        2.06670  -0.00103   0.00007  -0.00491  -0.00484   2.06186
    a9        1.92239  -0.00178   0.00352  -0.00354  -0.00002   1.92236
    d9        1.01472   0.00100   0.00909  -0.08087  -0.07178   0.94294
   r10        3.46586   0.00185   0.00313   0.00525   0.00838   3.47424
   a10        2.00417  -0.00220   0.00471  -0.02380  -0.01909   1.98508
   d10        5.15655  -0.00508   0.00295  -0.09899  -0.09604   5.06052
   r11        2.06527   0.00044  -0.00015   0.00235   0.00221   2.06747
   a11        1.90019   0.00134  -0.00088   0.00257   0.00169   1.90188
   d11        3.07451   0.00262   0.00948  -0.06799  -0.05851   3.01600
   r12        1.92057   0.00004  -0.00077   0.00183   0.00106   1.92163
   a12        1.92833   0.00249   0.00258   0.01789   0.02046   1.94879
   d12        3.27994   0.00469   0.03260   0.25130   0.28390   3.56383
   r13        1.92514   0.00155  -0.00008   0.00570   0.00562   1.93076
   a13        1.90781   0.00015  -0.00027   0.00126   0.00099   1.90880
   d13        1.23012   0.00476   0.03145   0.24173   0.27318   1.50330
   r14        2.54068   0.00178   0.00294   0.00414   0.00708   2.54777
   a14        1.67276  -0.00013  -0.00192   0.00297   0.00106   1.67382
   d14        1.24820   0.00074   0.04537   0.02344   0.06880   1.31700
         Item               Value     Threshold  Converged?
 Maximum Force            0.013229     0.000015     NO 
 RMS     Force            0.003728     0.000010     NO 
 Maximum Displacement     0.283898     0.000060     NO 
 RMS     Displacement     0.074178     0.000040     NO 
 Predicted change in Energy=-2.231239D-03
 GradGradGradGradGradGradGradGradGradGradGradGradGradGradGradGradGradGrad

 ---------------------------------------------------------------------------------------------------
                            Z-MATRIX (ANGSTROMS AND DEGREES)
   CD    Cent   Atom    N1       Length/X        N2       Alpha/Y        N3        Beta/Z          J
 ---------------------------------------------------------------------------------------------------
      1      1  C 
      2      2  O        1   1.337506(     1)
      3      3  O        1   1.211452(     2)      2  122.263(    14)
      4      4  H        2   0.980708(     3)      1  105.527(    15)      3  176.420(    26)      0
      5      5  C        1   1.540213(     4)      2  114.248(    16)      3  178.687(    27)      0
      6      6  H        5   1.101018(     5)      1  104.992(    17)      2  271.482(    28)      0
      7      7  C        5   1.531047(     6)      1  111.829(    18)      2  154.761(    29)      0
      8      8  N        5   1.469509(     7)      1  108.539(    19)      2   26.523(    30)      0
      9      9  H        7   1.091090(     8)      5  110.143(    20)      1   54.026(    31)      0
     10     10  S        7   1.838488(     9)      5  113.736(    21)      1  289.946(    32)      0
     11     11  H        7   1.094059(    10)      5  108.970(    22)      1  172.804(    33)      0
     12     12  H        8   1.016884(    11)      5  111.657(    23)      1  204.193(    34)      0
     13     13  H        8   1.021714(    12)      5  109.366(    24)      1   86.133(    35)      0
     14     14  H       10   1.348220(    13)      7   95.903(    25)      5   75.459(    36)      0
 ---------------------------------------------------------------------------------------------------
                         Z-Matrix orientation:                         
 ---------------------------------------------------------------------
 Center     Atomic      Atomic             Coordinates (Angstroms)
 Number     Number       Type             X           Y           Z
 ---------------------------------------------------------------------
      1          6           0        0.000000    0.000000    0.000000
      2          8           0        0.000000    0.000000    1.337506
      3          8           0        1.024415    0.000000   -0.646676
      4          1           0       -0.943072    0.059005    1.600038
      5          6           0       -1.403961   -0.032174   -0.632547
      6          1           0       -1.650523   -1.101287   -0.724435
      7          6           0       -1.408944    0.573886   -2.038524
      8          7           0       -2.355958    0.568341    0.312197
      9          1           0       -0.657788    0.085233   -2.660986
     10         16           0       -1.158087    2.395050   -2.060261
     11          1           0       -2.391347    0.412125   -2.492048
     12          1           0       -3.303701    0.236481    0.151865
     13          1           0       -2.370451    1.581444    0.180616
     14          1           0        0.165555    2.355719   -1.807035
 ---------------------------------------------------------------------
                    Distance matrix (angstroms):
                    1          2          3          4          5
     1  C    0.000000
     2  O    1.337506   0.000000
     3  O    1.211452   2.233027   0.000000
     4  H    1.858221   0.980708   2.987007   0.000000
     5  C    1.540213   2.419349   2.428630   2.281483   0.000000
     6  H    2.112312   2.861583   2.893816   2.692570   1.101018
     7  C    2.543629   3.702979   2.861438   3.704223   1.531047
     8  N    2.443566   2.631503   3.559406   1.978435   1.469509
     9  H    2.742407   4.053134   2.625741   4.270644   2.164515
    10  S    3.364834   4.315351   3.535223   4.347543   2.826701
    11  H    3.478317   4.533638   3.904187   4.355153   2.151761
    12  H    3.315633   3.517969   4.407514   2.775116   2.072797
    13  H    2.855280   3.075451   3.835426   2.523884   2.049170
    14  H    2.973583   3.932551   2.762876   4.255830   3.089472
                    6          7          8          9         10
     6  H    0.000000
     7  C    2.142755   0.000000
     8  N    2.088038   2.534315   0.000000
     9  H    2.478625   1.091090   3.457888   0.000000
    10  S    3.775089   1.838488   3.224952   2.438529   0.000000
    11  H    2.442068   1.094059   2.808816   1.772181   2.374734
    12  H    2.300114   2.915776   1.016884   3.864695   3.762523
    13  H    2.921380   2.619971   1.021714   3.639583   2.674568
    14  H    4.052290   2.389051   3.747518   2.561686   1.348220
                   11         12         13         14
    11  H    0.000000
    12  H    2.802413   0.000000
    13  H    2.917340   1.637286   0.000000
    14  H    3.283984   4.512670   3.313847   0.000000
 Stoichiometry    C3H7NO2S
 Framework group  C1[X(C3H7NO2S)]
 Deg. of freedom    36
 Full point group                 C1      NOp   1
 Largest Abelian subgroup         C1      NOp   1
 Largest concise Abelian subgroup C1      NOp   1
                         Standard orientation:                         
 ---------------------------------------------------------------------
 Center     Atomic      Atomic             Coordinates (Angstroms)
 Number     Number       Type             X           Y           Z
 ---------------------------------------------------------------------
      1          6           0        1.267979   -0.501308    0.077490
      2          8           0        2.271250   -0.041063   -0.677855
      3          8           0        1.105506   -1.683490    0.286448
      4          1           0        2.136877    0.928989   -0.730132
      5          6           0        0.370086    0.598279    0.674946
      6          1           0        0.845231    0.865456    1.631551
      7          6           0       -1.038553    0.080696    0.978173
      8          7           0        0.429732    1.777094   -0.200436
      9          1           0       -0.984752   -0.806172    1.611458
     10         16           0       -2.034913   -0.277312   -0.524870
     11          1           0       -1.594048    0.855196    1.515332
     12          1           0        0.203995    2.630806    0.303817
     13          1           0       -0.262676    1.681126   -0.945595
     14          1           0       -1.405262   -1.427648   -0.837864
 ---------------------------------------------------------------------
 Rotational constants (GHZ):      3.1812330      1.5464122      1.2760068
 Standard basis: 6-31+G(d,p) (6D, 7F)
 There are   172 symmetry adapted cartesian basis functions of A   symmetry.
 There are   172 symmetry adapted basis functions of A   symmetry.
   172 basis functions,   297 primitive gaussians,   172 cartesian basis functions
    32 alpha electrons       32 beta electrons
       nuclear repulsion energy       383.8370986232 Hartrees.
 NAtoms=   14 NActive=   14 NUniq=   14 SFac= 1.00D+00 NAtFMM=   60 NAOKFM=F Big=F
 Integral buffers will be    131072 words long.
 Raffenetti 2 integral format.
 Two-electron integral symmetry is turned on.
 One-electron integrals computed using PRISM.
 PrsmSu:  requested number of processors reduced to:  19 ShMem   1 Linda.
 NBasis=   172 RedAO= T EigKep=  4.57D-05  NBF=   172
 NBsUse=   172 1.00D-06 EigRej= -1.00D+00 NBFU=   172
 Initial guess from the checkpoint file:  "/tmp/Gau-89350.chk"
 B after Tr=    -0.000000   -0.000000   -0.000000
         Rot=    0.999446   -0.025260   -0.006066   -0.020814 Ang=  -3.82 deg.
 ExpMin= 4.05D-02 ExpMax= 2.19D+04 ExpMxC= 3.30D+03 IAcc=2 IRadAn=         4 AccDes= 0.00D+00
 Harris functional with IExCor=  402 and IRadAn=       4 diagonalized for initial guess.
 HarFok:  IExCor=  402 AccDes= 0.00D+00 IRadAn=         4 IDoV= 1 UseB2=F ITyADJ=14
 ICtDFT=  3500011 ScaDFX=  1.000000  1.000000  1.000000  1.000000
 FoFCou: FMM=F IPFlag=           0 FMFlag=      100000 FMFlg1=           0
         NFxFlg=           0 DoJE=T BraDBF=F KetDBF=T FulRan=T
         wScrn=  0.000000 ICntrl=     500 IOpCl=  0 I1Cent=   200000004 NGrid=           0
         NMat0=    1 NMatS0=      1 NMatT0=    0 NMatD0=    1 NMtDS0=    0 NMtDT0=    0
 Petite list used in FoFCou.
 Requested convergence on RMS density matrix=1.00D-08 within 128 cycles.
 Requested convergence on MAX density matrix=1.00D-06.
 Requested convergence on             energy=1.00D-06.
 No special actions if energy rises.
 SCF Done:  E(RB3LYP) =  -721.962961510     A.U. after   12 cycles
            NFock= 12  Conv=0.42D-08     -V/T= 2.0060
 PrsmSu:  requested number of processors reduced to:  19 ShMem   1 Linda.
 Calling FoFJK, ICntrl=      2127 FMM=F ISym2X=0 I1Cent= 0 IOpClX= 0 NMat=1 NMatS=1 NMatT=0.
 ***** Axes restored to original set *****
 -------------------------------------------------------------------
 Center     Atomic                   Forces (Hartrees/Bohr)
 Number     Number              X              Y              Z
 -------------------------------------------------------------------
      1        6           0.005086919    0.000878372   -0.001696105
      2        8          -0.000365792   -0.001911042    0.001273900
      3        8          -0.000125906   -0.000832584   -0.001880692
      4        1          -0.002666919    0.002992263    0.002354352
      5        6          -0.002426198    0.001371918    0.002200069
      6        1          -0.000355637    0.000912058   -0.000006303
      7        6          -0.000857834   -0.001770471   -0.001917287
      8        7          -0.002846385   -0.002224359    0.000001308
      9        1           0.000438940    0.001189043   -0.000625291
     10       16           0.001519608    0.000487954   -0.001675033
     11        1           0.000319045    0.000318866   -0.000532699
     12        1           0.000899041   -0.001297947    0.000710024
     13        1           0.001404105   -0.000644009    0.001479300
     14        1          -0.000022987    0.000529936    0.000314456
 -------------------------------------------------------------------
 Cartesian Forces:  Max     0.005086919 RMS     0.001623796
 -----------------------------------------------------------------------------------------------
                       Internal Coordinate Forces (Hartree/Bohr or radian)
  Cent   Atom   N1       Length/X         N2         Alpha/Y        N3         Beta/Z          J
 -----------------------------------------------------------------------------------------------
      1  C 
      2  O        1   0.003628(     1)
      3  O        1   0.000897(     2)      2   0.003795(    14)
      4  H        2   0.003375(     3)      1   0.002791(    15)      3  -0.005035(    26)     0
      5  C        1   0.001802(     4)      2  -0.000916(    16)      3  -0.006707(    27)     0
      6  H        5  -0.000805(     5)      1   0.001112(    17)      2   0.000312(    28)     0
      7  C        5   0.004368(     6)      1  -0.004585(    18)      2   0.006564(    29)     0
      8  N        5   0.000058(     7)      1  -0.001814(    19)      2  -0.014215(    30)     0
      9  H        7   0.000126(     8)      5   0.002196(    20)      1  -0.001782(    31)     0
     10  S        7   0.001229(     9)      5   0.004623(    21)      1   0.003002(    32)     0
     11  H        7  -0.000113(    10)      5   0.001423(    22)      1  -0.000047(    33)     0
     12  H        8  -0.000526(    11)      5  -0.000956(    23)      1   0.002809(    34)     0
     13  H        8  -0.000849(    12)      5   0.000122(    24)      1  -0.003574(    35)     0
     14  H       10   0.000021(    13)      7   0.001321(    25)      5  -0.000843(    36)     0
 -----------------------------------------------------------------------------------------------
 Internal  Forces:  Max     0.014214792 RMS     0.003649500

 GradGradGradGradGradGradGradGradGradGradGradGradGradGradGradGradGradGrad
 Berny optimization.
 Search for a local minimum.
 Step number   3 out of a maximum of   80
 All quantities printed in internal units (Hartrees-Bohrs-Radians)
 Update second derivatives using D2CorN and points    2    3
 DE= -1.87D-03 DEPred=-2.23D-03 R= 8.38D-01
 TightC=F SS=  1.41D+00  RLast= 4.45D-01 DXNew= 8.4853D-01 1.3352D+00
 Trust test= 8.38D-01 RLast= 4.45D-01 DXMaxT set to 8.49D-01
 ITU=  1  1  0
     Eigenvalues ---    0.00464   0.00758   0.01421   0.02075   0.03929
     Eigenvalues ---    0.10384   0.11011   0.13193   0.15996   0.16006
     Eigenvalues ---    0.16390   0.17269   0.17775   0.21800   0.24053
     Eigenvalues ---    0.25020   0.26550   0.28243   0.29981   0.34397
     Eigenvalues ---    0.34413   0.34446   0.34803   0.35768   0.36363
     Eigenvalues ---    0.38573   0.38675   0.42207   0.42675   0.44518
     Eigenvalues ---    0.44678   0.52287   0.60399   0.65391   0.74909
     Eigenvalues ---    0.98046
 RFO step:  Lambda=-2.91404012D-03 EMin= 4.64466083D-03
 Quartic linear search produced a step of -0.12256.
 Variable       Old X    -DE/DX   Delta X   Delta X   Delta X     New X
                                 (Linear)    (Quad)   (Total)
    r2        2.52752   0.00363  -0.00252   0.00860   0.00608   2.53360
    r3        2.28931   0.00090   0.00050   0.00016   0.00067   2.28998
    a3        2.13389   0.00379   0.00067   0.01102   0.01169   2.14557
    r4        1.85327   0.00337  -0.00041   0.00754   0.00713   1.86040
    a4        1.84180   0.00279   0.00634   0.00235   0.00870   1.85050
    d4        3.07911  -0.00504  -0.00057  -0.07327  -0.07384   3.00527
    r5        2.91058   0.00180  -0.00260   0.01093   0.00833   2.91891
    a5        1.99400  -0.00092  -0.00099  -0.00704  -0.00803   1.98598
    d5        3.11868  -0.00671  -0.00386  -0.01703  -0.02089   3.09779
    r6        2.08062  -0.00081  -0.00090  -0.00134  -0.00224   2.07838
    a6        1.83246   0.00111   0.00033  -0.01362  -0.01329   1.81917
    d6        4.73826   0.00031   0.00890  -0.22297  -0.21408   4.52418
    r7        2.89326   0.00437   0.00443   0.00802   0.01245   2.90571
    a7        1.95178  -0.00458   0.00153  -0.00276  -0.00124   1.95055
    d7        2.70109   0.00656   0.00866  -0.20324  -0.19458   2.50652
    r8        2.77697   0.00006   0.00131  -0.00196  -0.00064   2.77633
    a8        1.89437  -0.00181   0.00145   0.00779   0.00924   1.90361
    d8        0.46292  -0.01421   0.00628  -0.25683  -0.25055   0.21237
    r9        2.06186   0.00013   0.00059  -0.00074  -0.00015   2.06172
    a9        1.92236   0.00220   0.00000  -0.00237  -0.00236   1.92000
    d9        0.94294  -0.00178   0.00880  -0.06741  -0.05861   0.88433
   r10        3.47424   0.00123  -0.00103   0.00673   0.00571   3.47994
   a10        1.98508   0.00462   0.00234   0.00736   0.00969   1.99477
   d10        5.06052   0.00300   0.01177  -0.04865  -0.03688   5.02363
   r11        2.06747  -0.00011  -0.00027   0.00019  -0.00008   2.06739
   a11        1.90188   0.00142  -0.00021   0.01253   0.01232   1.91420
   d11        3.01600  -0.00005   0.00717  -0.06139  -0.05422   2.96177
   r12        1.92163  -0.00053  -0.00013  -0.00088  -0.00101   1.92062
   a12        1.94879  -0.00096  -0.00251   0.00876   0.00626   1.95505
   d12        3.56383   0.00281  -0.03479   0.11495   0.08016   3.64399
   r13        1.93076  -0.00085  -0.00069  -0.00082  -0.00151   1.92925
   a13        1.90880   0.00012  -0.00012   0.01237   0.01225   1.92105
   d13        1.50330  -0.00357  -0.03348   0.07423   0.04075   1.54405
   r14        2.54777   0.00002  -0.00087   0.00093   0.00006   2.54782
   a14        1.67382   0.00132  -0.00013   0.01004   0.00991   1.68373
   d14        1.31700  -0.00084  -0.00843  -0.18479  -0.19322   1.12378
         Item               Value     Threshold  Converged?
 Maximum Force            0.014215     0.000015     NO 
 RMS     Force            0.003649     0.000010     NO 
 Maximum Displacement     0.250546     0.000060     NO 
 RMS     Displacement     0.075818     0.000040     NO 
 Predicted change in Energy=-2.013846D-03
 GradGradGradGradGradGradGradGradGradGradGradGradGradGradGradGradGradGrad

 ---------------------------------------------------------------------------------------------------
                            Z-MATRIX (ANGSTROMS AND DEGREES)
   CD    Cent   Atom    N1       Length/X        N2       Alpha/Y        N3        Beta/Z          J
 ---------------------------------------------------------------------------------------------------
      1      1  C 
      2      2  O        1   1.340724(     1)
      3      3  O        1   1.211805(     2)      2  122.932(    14)
      4      4  H        2   0.984482(     3)      1  106.026(    15)      3  172.189(    26)      0
      5      5  C        1   1.544623(     4)      2  113.788(    16)      3  177.490(    27)      0
      6      6  H        5   1.099830(     5)      1  104.231(    17)      2  259.217(    28)      0
      7      7  C        5   1.537634(     6)      1  111.758(    18)      2  143.613(    29)      0
      8      8  N        5   1.469168(     7)      1  109.069(    19)      2   12.168(    30)      0
      9      9  H        7   1.091013(     8)      5  110.008(    20)      1   50.668(    31)      0
     10     10  S        7   1.841507(     9)      5  114.292(    21)      1  287.833(    32)      0
     11     11  H        7   1.094016(    10)      5  109.676(    22)      1  169.697(    33)      0
     12     12  H        8   1.016350(    11)      5  112.016(    23)      1  208.785(    34)      0
     13     13  H        8   1.020917(    12)      5  110.068(    24)      1   88.467(    35)      0
     14     14  H       10   1.348251(    13)      7   96.471(    25)      5   64.388(    36)      0
 ---------------------------------------------------------------------------------------------------
                         Z-Matrix orientation:                         
 ---------------------------------------------------------------------
 Center     Atomic      Atomic             Coordinates (Angstroms)
 Number     Number       Type             X           Y           Z
 ---------------------------------------------------------------------
      1          6           0        0.000000    0.000000    0.000000
      2          8           0        0.000000    0.000000    1.340724
      3          8           0        1.017085    0.000000   -0.658794
      4          1           0       -0.937445    0.128593    1.612506
      5          6           0       -1.412041   -0.061890   -0.623033
      6          1           0       -1.532966   -1.115452   -0.914601
      7          6           0       -1.506926    0.781962   -1.904917
      8          7           0       -2.410610    0.187298    0.425404
      9          1           0       -0.688899    0.527750   -2.580578
     10         16           0       -1.498685    2.600792   -1.616923
     11          1           0       -2.451763    0.572136   -2.414944
     12          1           0       -3.293414   -0.276293    0.228657
     13          1           0       -2.589542    1.189030    0.507781
     14          1           0       -0.252552    2.668183   -1.106638
 ---------------------------------------------------------------------
                    Distance matrix (angstroms):
                    1          2          3          4          5
     1  C    0.000000
     2  O    1.340724   0.000000
     3  O    1.211805   2.243331   0.000000
     4  H    1.869630   0.984482   2.999255   0.000000
     5  C    1.544623   2.419511   2.430177   2.293286   0.000000
     6  H    2.104926   2.946304   2.795073   2.878987   1.099830
     7  C    2.551667   3.662852   2.921459   3.622633   1.537634
     8  N    2.455013   2.585330   3.599953   1.892849   1.469168
     9  H    2.722588   4.016182   2.623386   4.219367   2.168546
    10  S    3.409489   4.214006   3.743157   4.105602   2.843448
    11  H    3.488616   4.521452   3.929925   4.325535   2.166554
    12  H    3.312883   3.487062   4.409570   2.762166   2.076273
    13  H    2.894367   2.968723   3.972713   2.252636   2.056709
    14  H    2.899592   3.629403   2.988602   3.783166   3.005261
                    6          7          8          9         10
     6  H    0.000000
     7  C    2.140464   0.000000
     8  N    2.064710   2.569176   0.000000
     9  H    2.487578   1.091013   3.480822   0.000000
    10  S    3.782181   1.841507   3.290541   2.425260   0.000000
    11  H    2.437862   1.094016   2.866596   1.771185   2.379210
    12  H    2.260620   2.977177   1.016350   3.914305   3.860677
    13  H    2.906916   2.675608   1.020917   3.686150   2.774420
    14  H    3.999029   2.401777   3.627556   2.635214   1.348251
                   11         12         13         14
    11  H    0.000000
    12  H    2.901179   0.000000
    13  H    2.990296   1.649399   0.000000
    14  H    3.307811   4.438445   3.202463   0.000000
 Stoichiometry    C3H7NO2S
 Framework group  C1[X(C3H7NO2S)]
 Deg. of freedom    36
 Full point group                 C1      NOp   1
 Largest Abelian subgroup         C1      NOp   1
 Largest concise Abelian subgroup C1      NOp   1
                         Standard orientation:                         
 ---------------------------------------------------------------------
 Center     Atomic      Atomic             Coordinates (Angstroms)
 Number     Number       Type             X           Y           Z
 ---------------------------------------------------------------------
      1          6           0        1.294476   -0.481417    0.054748
      2          8           0        2.131622    0.044663   -0.850773
      3          8           0        1.310169   -1.652984    0.364029
      4          1           0        1.823018    0.967122   -1.002557
      5          6           0        0.353348    0.554141    0.708781
      6          1           0        0.814462    0.759311    1.685973
      7          6           0       -1.042712   -0.032686    0.975180
      8          7           0        0.424590    1.812066   -0.046867
      9          1           0       -0.953689   -0.981256    1.506782
     10         16           0       -2.057424   -0.291375   -0.539610
     11          1           0       -1.619675    0.657421    1.597865
     12          1           0        0.236430    2.620237    0.540008
     13          1           0       -0.258905    1.804384   -0.805185
     14          1           0       -1.259979   -1.223335   -1.099353
 ---------------------------------------------------------------------
 Rotational constants (GHZ):      3.0698669      1.5159495      1.2782358
 Standard basis: 6-31+G(d,p) (6D, 7F)
 There are   172 symmetry adapted cartesian basis functions of A   symmetry.
 There are   172 symmetry adapted basis functions of A   symmetry.
   172 basis functions,   297 primitive gaussians,   172 cartesian basis functions
    32 alpha electrons       32 beta electrons
       nuclear repulsion energy       382.0907664562 Hartrees.
 NAtoms=   14 NActive=   14 NUniq=   14 SFac= 1.00D+00 NAtFMM=   60 NAOKFM=F Big=F
 Integral buffers will be    131072 words long.
 Raffenetti 2 integral format.
 Two-electron integral symmetry is turned on.
 One-electron integrals computed using PRISM.
 PrsmSu:  requested number of processors reduced to:  19 ShMem   1 Linda.
 NBasis=   172 RedAO= T EigKep=  5.14D-05  NBF=   172
 NBsUse=   172 1.00D-06 EigRej= -1.00D+00 NBFU=   172
 Initial guess from the checkpoint file:  "/tmp/Gau-89350.chk"
 B after Tr=     0.000000    0.000000   -0.000000
         Rot=    0.999531   -0.024625   -0.009151   -0.015708 Ang=  -3.51 deg.
 ExpMin= 4.05D-02 ExpMax= 2.19D+04 ExpMxC= 3.30D+03 IAcc=2 IRadAn=         4 AccDes= 0.00D+00
 Harris functional with IExCor=  402 and IRadAn=       4 diagonalized for initial guess.
 HarFok:  IExCor=  402 AccDes= 0.00D+00 IRadAn=         4 IDoV= 1 UseB2=F ITyADJ=14
 ICtDFT=  3500011 ScaDFX=  1.000000  1.000000  1.000000  1.000000
 FoFCou: FMM=F IPFlag=           0 FMFlag=      100000 FMFlg1=           0
         NFxFlg=           0 DoJE=T BraDBF=F KetDBF=T FulRan=T
         wScrn=  0.000000 ICntrl=     500 IOpCl=  0 I1Cent=   200000004 NGrid=           0
         NMat0=    1 NMatS0=      1 NMatT0=    0 NMatD0=    1 NMtDS0=    0 NMtDT0=    0
 Petite list used in FoFCou.
 Requested convergence on RMS density matrix=1.00D-08 within 128 cycles.
 Requested convergence on MAX density matrix=1.00D-06.
 Requested convergence on             energy=1.00D-06.
 No special actions if energy rises.
 SCF Done:  E(RB3LYP) =  -721.961787462     A.U. after   12 cycles
            NFock= 12  Conv=0.93D-08     -V/T= 2.0060
 PrsmSu:  requested number of processors reduced to:  19 ShMem   1 Linda.
 Calling FoFJK, ICntrl=      2127 FMM=F ISym2X=0 I1Cent= 0 IOpClX= 0 NMat=1 NMatS=1 NMatT=0.
 ***** Axes restored to original set *****
 -------------------------------------------------------------------
 Center     Atomic                   Forces (Hartrees/Bohr)
 Number     Number              X              Y              Z
 -------------------------------------------------------------------
      1        6           0.001477373   -0.000544329    0.001556734
      2        8           0.003897930    0.005378791   -0.000436457
      3        8          -0.001925215   -0.000181029   -0.000032241
      4        1          -0.001510401   -0.007666757    0.000233350
      5        6          -0.002088547   -0.005116893    0.001436996
      6        1           0.001464862    0.000531028   -0.001368766
      7        6           0.000442396    0.000292844    0.000689521
      8        7          -0.000270624    0.006670978   -0.002114788
      9        1           0.000349284   -0.001056390    0.000526639
     10       16          -0.001540981    0.000254244    0.001481405
     11        1           0.000015807    0.001090279    0.000300294
     12        1           0.001120568    0.000102114    0.001401294
     13        1          -0.002385250    0.000004254   -0.002461412
     14        1           0.000952799    0.000240868   -0.001212570
 -------------------------------------------------------------------
 Cartesian Forces:  Max     0.007666757 RMS     0.002317792
 -----------------------------------------------------------------------------------------------
                       Internal Coordinate Forces (Hartree/Bohr or radian)
  Cent   Atom   N1       Length/X         N2         Alpha/Y        N3         Beta/Z          J
 -----------------------------------------------------------------------------------------------
      1  C 
      2  O        1  -0.000203(     1)
      3  O        1  -0.001598(     2)      2   0.002459(    14)
      4  H        2   0.000501(     3)      1   0.000184(    15)      3   0.013949(    26)     0
      5  C        1   0.002185(     4)      2   0.007749(    16)      3   0.013641(    27)     0
      6  H        5  -0.000307(     5)      1  -0.001571(    17)      2  -0.003841(    28)     0
      7  C        5  -0.001051(     6)      1  -0.000007(    18)      2  -0.003579(    29)     0
      8  N        5  -0.000073(     7)      1   0.007727(    19)      2   0.022042(    30)     0
      9  H        7   0.000182(     8)      5  -0.002419(    20)      1   0.000629(    31)     0
     10  S        7   0.000528(     9)      5  -0.000117(    21)      1  -0.000187(    32)     0
     11  H        7  -0.000363(    10)      5   0.001030(    22)      1   0.001846(    33)     0
     12  H        8  -0.001291(    11)      5   0.001532(    23)      1   0.001713(    34)     0
     13  H        8   0.000224(    12)      5  -0.000434(    24)      1   0.006184(    35)     0
     14  H       10   0.000434(    13)      7   0.000009(    25)      5   0.003796(    36)     0
 -----------------------------------------------------------------------------------------------
 Internal  Forces:  Max     0.022041651 RMS     0.005533760

 GradGradGradGradGradGradGradGradGradGradGradGradGradGradGradGradGradGrad
 Berny optimization.
 Search for a local minimum.
 Step number   4 out of a maximum of   80
 All quantities printed in internal units (Hartrees-Bohrs-Radians)
 Update second derivatives using D2CorN and points    2    4    3
 DE=  1.17D-03 DEPred=-2.01D-03 R=-5.83D-01
 Trust test=-5.83D-01 RLast= 4.55D-01 DXMaxT set to 4.24D-01
 ITU= -1  1  1  0
 Energy rises -- skip Quadratic search.
 Quartic linear search produced a step of -0.62862.
 Variable       Old X    -DE/DX   Delta X   Delta X   Delta X     New X
[...]
 ------------------------------------------------------------------------
 !       r2          1.3386   -DE/DX =    0.0                           !
 !       r3          1.2115   -DE/DX =    0.0                           !
 !       a3        123.1884   -DE/DX =    0.0                           !
 !       r4          0.9874   -DE/DX =    0.0                           !
 !       a4        105.3836   -DE/DX =    0.0                           !
 !       d4        176.9501   -DE/DX =    0.0                           !
 !       r5          1.5474   -DE/DX =    0.0                           !
 !       a5        113.8681   -DE/DX =    0.0                           !
 !       d5        178.2328   -DE/DX =    0.0                           !
 !       r6          1.0991   -DE/DX =    0.0                           !
 !       a6        104.6852   -DE/DX =    0.0                           !
 !       d6        262.4236   -DE/DX =    0.0                           !
 !       r7          1.5371   -DE/DX =    0.0                           !
 !       a7        111.1741   -DE/DX =    0.0                           !
 !       d7        146.8987   -DE/DX =    0.0                           !
 !       r8          1.4674   -DE/DX =    0.0                           !
 !       a8        109.1586   -DE/DX =    0.0                           !
 !       d8         17.4201   -DE/DX =    0.0                           !
 !       r9          1.091    -DE/DX =    0.0                           !
 !       a9        109.9419   -DE/DX =    0.0                           !
 !       d9         52.8895   -DE/DX =    0.0                           !
 !       r10         1.8423   -DE/DX =    0.0                           !
 !       a10       114.1841   -DE/DX =    0.0                           !
 !       d10       289.7376   -DE/DX =    0.0                           !
 !       r11         1.0935   -DE/DX =    0.0                           !
 !       a11       109.6605   -DE/DX =    0.0                           !
 !       d11       172.1635   -DE/DX =    0.0                           !
 !       r12         1.0148   -DE/DX =    0.0                           !
 !       a12       112.3626   -DE/DX =    0.0                           !
 !       d12       212.283    -DE/DX =    0.0                           !
 !       r13         1.0199   -DE/DX =    0.0                           !
 !       a13       110.3386   -DE/DX =    0.0                           !
 !       d13        91.0763   -DE/DX =    0.0                           !
 !       r14         1.3485   -DE/DX =    0.0                           !
 !       a14        96.4058   -DE/DX =    0.0                           !
 !       d14        72.8916   -DE/DX =    0.0                           !
 ------------------------------------------------------------------------
 GradGradGradGradGradGradGradGradGradGradGradGradGradGradGradGradGradGrad

 ---------------------------------------------------------------------------------------------------
                            Z-MATRIX (ANGSTROMS AND DEGREES)
   CD    Cent   Atom    N1       Length/X        N2       Alpha/Y        N3        Beta/Z          J
 ---------------------------------------------------------------------------------------------------
      1      1  C 
      2      2  O        1   1.338556(     1)
      3      3  O        1   1.211500(     2)      2  123.188(    14)
      4      4  H        2   0.987437(     3)      1  105.384(    15)      3  176.950(    26)      0
      5      5  C        1   1.547351(     4)      2  113.868(    16)      3  178.233(    27)      0
      6      6  H        5   1.099117(     5)      1  104.685(    17)      2  262.424(    28)      0
      7      7  C        5   1.537138(     6)      1  111.174(    18)      2  146.899(    29)      0
      8      8  N        5   1.467422(     7)      1  109.159(    19)      2   17.420(    30)      0
      9      9  H        7   1.090957(     8)      5  109.942(    20)      1   52.889(    31)      0
     10     10  S        7   1.842304(     9)      5  114.184(    21)      1  289.738(    32)      0
     11     11  H        7   1.093537(    10)      5  109.661(    22)      1  172.164(    33)      0
     12     12  H        8   1.014759(    11)      5  112.363(    23)      1  212.283(    34)      0
     13     13  H        8   1.019928(    12)      5  110.339(    24)      1   91.076(    35)      0
     14     14  H       10   1.348518(    13)      7   96.406(    25)      5   72.892(    36)      0
 ---------------------------------------------------------------------------------------------------
                         Z-Matrix orientation:                         
 ---------------------------------------------------------------------
 Center     Atomic      Atomic             Coordinates (Angstroms)
 Number     Number       Type             X           Y           Z
 ---------------------------------------------------------------------
      1          6           0        0.000000    0.000000    0.000000
      2          8           0        0.000000    0.000000    1.338556
      3          8           0        1.013875    0.000000   -0.663167
      4          1           0       -0.950710    0.050654    1.600503
      5          6           0       -1.414348   -0.043638   -0.626108
      6          1           0       -1.579835   -1.103177   -0.867046
      7          6           0       -1.460358    0.738103   -1.948816
      8          7           0       -2.402237    0.341057    0.388492
      9          1           0       -0.670375    0.388733   -2.615190
     10         16           0       -1.323451    2.564649   -1.751153
     11          1           0       -2.424896    0.576783   -2.438169
     12          1           0       -3.290230   -0.133558    0.262224
     13          1           0       -2.566430    1.347273    0.359812
     14          1           0       -0.011735    2.584288   -1.438872
 ---------------------------------------------------------------------
                    Distance matrix (angstroms):
                    1          2          3          4          5
     1  C    0.000000
     2  O    1.338556   0.000000
     3  O    1.211500   2.243844   0.000000
     4  H    1.862264   0.987437   2.997726   0.000000
     5  C    1.547351   2.421196   2.428897   2.276324   0.000000
     6  H    2.112971   2.928747   2.825932   2.795698   1.099117
     7  C    2.544666   3.672092   2.884358   3.651027   1.537138
     8  N    2.457231   2.605702   3.590560   1.913174   1.467422
     9  H    2.727588   4.028973   2.607337   4.238509   2.167230
    10  S    3.375719   4.227913   3.636513   4.206270   2.842033
    11  H    3.486756   4.525092   3.912603   4.331387   2.165570
    12  H    3.303364   3.464382   4.404487   2.701533   2.077535
    13  H    2.920817   3.059354   3.959825   2.414765   2.057661
    14  H    2.957877   3.793783   2.886544   4.066789   3.087702
                    6          7          8          9         10
     6  H    0.000000
     7  C    2.138881   0.000000
     8  N    2.082915   2.551037   0.000000
     9  H    2.471623   1.090957   3.467524   0.000000
    10  S    3.781577   1.842304   3.268978   2.430572   0.000000
    11  H    2.450473   1.093537   2.836564   1.773428   2.374192
    12  H    2.267347   2.999487   1.014759   3.926314   3.899003
    13  H    2.912603   2.631396   1.019928   3.655744   2.735539
    14  H    4.047631   2.401448   3.753110   2.576430   1.348518
                   11         12         13         14
    11  H    0.000000
    12  H    2.923270   0.000000
    13  H    2.905578   1.651142   0.000000
    14  H    3.294240   4.585732   3.360347   0.000000
 Stoichiometry    C3H7NO2S
 Framework group  C1[X(C3H7NO2S)]
 Deg. of freedom    36
 Full point group                 C1      NOp   1
 Largest Abelian subgroup         C1      NOp   1
 Largest concise Abelian subgroup C1      NOp   1
                         Standard orientation:                         
 ---------------------------------------------------------------------
 Center     Atomic      Atomic             Coordinates (Angstroms)
 Number     Number       Type             X           Y           Z
 ---------------------------------------------------------------------
      1          6           0        1.275089   -0.501315    0.066567
      2          8           0        2.173106   -0.021525   -0.802397
      3          8           0        1.198029   -1.673960    0.361012
      4          1           0        1.971150    0.941690   -0.882780
      5          6           0        0.370117    0.584848    0.695512
      6          1           0        0.833684    0.805247    1.667412
      7          6           0       -1.039548    0.039428    0.975072
      8          7           0        0.443576    1.803526   -0.118586
      9          1           0       -0.974038   -0.877075    1.563220
     10         16           0       -2.038574   -0.281724   -0.539159
     11          1           0       -1.613465    0.776941    1.542979
     12          1           0        0.343642    2.646180    0.437905
     13          1           0       -0.286000    1.798257   -0.831287
     14          1           0       -1.365859   -1.382240   -0.932631
 ---------------------------------------------------------------------
 Rotational constants (GHZ):      3.0777752      1.5412700      1.2839627

 **********************************************************************

            Population analysis using the SCF density.

 **********************************************************************

 Orbital symmetries:
       Occupied  (A) (A) (A) (A) (A) (A) (A) (A) (A) (A) (A) (A)
                 (A) (A) (A) (A) (A) (A) (A) (A) (A) (A) (A) (A)
                 (A) (A) (A) (A) (A) (A) (A) (A)
       Virtual   (A) (A) (A) (A) (A) (A) (A) (A) (A) (A) (A) (A)
                 (A) (A) (A) (A) (A) (A) (A) (A) (A) (A) (A) (A)
                 (A) (A) (A) (A) (A) (A) (A) (A) (A) (A) (A) (A)
                 (A) (A) (A) (A) (A) (A) (A) (A) (A) (A) (A) (A)
                 (A) (A) (A) (A) (A) (A) (A) (A) (A) (A) (A) (A)
                 (A) (A) (A) (A) (A) (A) (A) (A) (A) (A) (A) (A)
                 (A) (A) (A) (A) (A) (A) (A) (A) (A) (A) (A) (A)
                 (A) (A) (A) (A) (A) (A) (A) (A) (A) (A) (A) (A)
                 (A) (A) (A) (A) (A) (A) (A) (A) (A) (A) (A) (A)
                 (A) (A) (A) (A) (A) (A) (A) (A) (A) (A) (A) (A)
                 (A) (A) (A) (A) (A) (A) (A) (A) (A) (A) (A) (A)
                 (A) (A) (A) (A) (A) (A) (A) (A)
 The electronic state is 1-A.
 Alpha  occ. eigenvalues --  -88.89665 -19.20308 -19.15092 -14.36971 -10.33021
 Alpha  occ. eigenvalues --  -10.26576 -10.24462  -7.95817  -5.92310  -5.91951
 Alpha  occ. eigenvalues --   -5.91309  -1.11246  -1.03116  -0.93414  -0.81031
 Alpha  occ. eigenvalues --   -0.73238  -0.65277  -0.60754  -0.55944  -0.52264
 Alpha  occ. eigenvalues --   -0.49396  -0.46900  -0.46235  -0.43770  -0.42719
 Alpha  occ. eigenvalues --   -0.40409  -0.37798  -0.34721  -0.32629  -0.31468
 Alpha  occ. eigenvalues --   -0.27734  -0.26184
 Alpha virt. eigenvalues --   -0.02960  -0.00578  -0.00099   0.01212   0.01907
 Alpha virt. eigenvalues --    0.02809   0.04340   0.05515   0.06269   0.06693
 Alpha virt. eigenvalues --    0.07924   0.08758   0.09645   0.10423   0.10731
 Alpha virt. eigenvalues --    0.11345   0.11971   0.12351   0.13990   0.15395
 Alpha virt. eigenvalues --    0.16331   0.17380   0.18127   0.19192   0.21180
 Alpha virt. eigenvalues --    0.21599   0.21715   0.22910   0.24635   0.25527
 Alpha virt. eigenvalues --    0.27933   0.28807   0.29922   0.30501   0.31201
 Alpha virt. eigenvalues --    0.32345   0.33133   0.34623   0.36622   0.39705
 Alpha virt. eigenvalues --    0.40608   0.46304   0.47505   0.49399   0.52160
 Alpha virt. eigenvalues --    0.54477   0.57657   0.61019   0.66355   0.69268
 Alpha virt. eigenvalues --    0.70527   0.72341   0.73819   0.75927   0.79417
 Alpha virt. eigenvalues --    0.80928   0.82977   0.88352   0.89750   0.90778
 Alpha virt. eigenvalues --    0.93621   0.96658   0.96993   1.00046   1.02188
 Alpha virt. eigenvalues --    1.05142   1.07722   1.07787   1.08898   1.14586
 Alpha virt. eigenvalues --    1.15173   1.16945   1.20927   1.27348   1.30240
 Alpha virt. eigenvalues --    1.32142   1.32979   1.35197   1.37645   1.39699
 Alpha virt. eigenvalues --    1.42839   1.46873   1.54797   1.56241   1.58725
 Alpha virt. eigenvalues --    1.62221   1.67335   1.73296   1.76408   1.79090
 Alpha virt. eigenvalues --    1.81409   1.85121   1.86207   1.91920   1.96046
 Alpha virt. eigenvalues --    1.98682   2.01406   2.05988   2.08696   2.09683
 Alpha virt. eigenvalues --    2.10854   2.14693   2.17348   2.22874   2.25547
 Alpha virt. eigenvalues --    2.29648   2.34923   2.36743   2.40883   2.43571
 Alpha virt. eigenvalues --    2.51541   2.53161   2.53685   2.56663   2.59674
 Alpha virt. eigenvalues --    2.65631   2.67518   2.73323   2.75824   2.76239
 Alpha virt. eigenvalues --    2.82762   2.85650   2.88655   2.94837   3.01869
 Alpha virt. eigenvalues --    3.13295   3.22250   3.29784   3.31170   3.40599
 Alpha virt. eigenvalues --    3.45261   3.47494   3.52815   3.97840   4.17334
 Alpha virt. eigenvalues --    4.26766   4.35732   4.45656   4.54635   4.68922
          Condensed to atoms (all electrons):
               1          2          3          4          5          6
     1  C    5.058434   0.262888   0.458509   0.008879  -0.051851  -0.002308
     2  O    0.262888   8.292368  -0.111217   0.202013  -0.272113   0.000962
     3  O    0.458509  -0.111217   8.267777   0.009191  -0.212742  -0.003595
     4  H    0.008879   0.202013   0.009191   0.363702  -0.019449   0.000103
     5  C   -0.051851  -0.272113  -0.212742  -0.019449   6.528481   0.363961
     6  H   -0.002308   0.000962  -0.003595   0.000103   0.363961   0.548284
     7  C   -0.027924   0.025973   0.028467   0.014700  -0.076065  -0.029693
     8  N   -0.057321   0.023873   0.025968   0.032998  -0.147295  -0.049451
     9  H    0.004052  -0.000387  -0.000601  -0.000052  -0.042806  -0.001924
    10  S   -0.038673  -0.004190  -0.012498  -0.001570   0.062886   0.005167
    11  H    0.001815  -0.000143   0.000666  -0.000031  -0.023489  -0.004585
    12  H    0.002636  -0.001199  -0.000667   0.000709   0.029963  -0.007135
    13  H   -0.017503   0.000642  -0.000137  -0.001562  -0.018657   0.005100
    14  H    0.015298   0.000978  -0.002286  -0.000012   0.002109  -0.000015
               7          8          9         10         11         12
     1  C   -0.027924  -0.057321   0.004052  -0.038673   0.001815   0.002636
     2  O    0.025973   0.023873  -0.000387  -0.004190  -0.000143  -0.001199
     3  O    0.028467   0.025968  -0.000601  -0.012498   0.000666  -0.000667
     4  H    0.014700   0.032998  -0.000052  -0.001570  -0.000031   0.000709
     5  C   -0.076065  -0.147295  -0.042806   0.062886  -0.023489   0.029963
     6  H   -0.029693  -0.049451  -0.001924   0.005167  -0.004585  -0.007135
     7  C    5.853391  -0.046282   0.349008   0.000097   0.365495  -0.009817
     8  N   -0.046282   7.255974   0.011848  -0.034824  -0.002627   0.305943
     9  H    0.349008   0.011848   0.498273  -0.012818  -0.020208  -0.000079
    10  S    0.000097  -0.034824  -0.012818  15.783675  -0.036763  -0.004380
    11  H    0.365495  -0.002627  -0.020208  -0.036763   0.537993   0.000651
    12  H   -0.009817   0.305943  -0.000079  -0.004380   0.000651   0.409825
    13  H   -0.009776   0.328973   0.000226   0.036065  -0.000602  -0.028600
    14  H   -0.023157  -0.001132  -0.005710   0.269123   0.003326   0.000004
              13         14
     1  C   -0.017503   0.015298
     2  O    0.000642   0.000978
     3  O   -0.000137  -0.002286
     4  H   -0.001562  -0.000012
     5  C   -0.018657   0.002109
     6  H    0.005100  -0.000015
     7  C   -0.009776  -0.023157
     8  N    0.328973  -0.001132
     9  H    0.000226  -0.005710
    10  S    0.036065   0.269123
    11  H   -0.000602   0.003326
    12  H   -0.028600   0.000004
    13  H    0.387037  -0.000457
    14  H   -0.000457   0.649014
 Mulliken charges:
               1
     1  C    0.383067
     2  O   -0.420447
     3  O   -0.446836
     4  H    0.390383
     5  C   -0.122934
     6  H    0.175130
     7  C   -0.414419
     8  N   -0.646644
     9  H    0.221177
    10  S   -0.011297
    11  H    0.178502
    12  H    0.302148
    13  H    0.319250
    14  H    0.092919
 Sum of Mulliken charges =   0.00000
 Mulliken charges with hydrogens summed into heavy atoms:
               1
     1  C    0.383067
     2  O   -0.030065
     3  O   -0.446836
     5  C    0.052196
     7  C   -0.014739
     8  N   -0.025246
    10  S    0.081622
 Electronic spatial extent (au):  <R**2>=            969.7663
 Charge=              0.0000 electrons
 Dipole moment (field-independent basis, Debye):
    X=             -1.4570    Y=              4.2203    Z=              1.5636  Tot=              4.7306
 Quadrupole moment (field-independent basis, Debye-Ang):
   XX=            -58.6096   YY=            -49.4983   ZZ=            -47.3966
   XY=              4.4096   XZ=              0.6376   YZ=              2.9525
 Traceless Quadrupole moment (field-independent basis, Debye-Ang):
   XX=             -6.7747   YY=              2.3365   ZZ=              4.4382
   XY=              4.4096   XZ=              0.6376   YZ=              2.9525
 Octapole moment (field-independent basis, Debye-Ang**2):
  XXX=             12.8353  YYY=             20.5242  ZZZ=              1.9440  XYY=             -6.3625
  XXY=              9.9823  XXZ=              5.3932  XZZ=              1.1423  YZZ=              1.8377
  YYZ=             -1.3400  XYZ=             -1.8520
 Hexadecapole moment (field-independent basis, Debye-Ang**3):
 XXXX=           -800.5756 YYYY=           -321.6935 ZZZZ=           -187.1812 XXXY=              0.7412
 XXXZ=              1.5748 YYYX=              9.3155 YYYZ=             14.5440 ZZZX=             -1.8525
 ZZZY=              1.4013 XXYY=           -186.1173 XXZZ=           -150.6656 YYZZ=            -81.3591
 XXYZ=              1.7757 YYXZ=             -0.2893 ZZXY=              6.4800
 N-N= 3.827937028590D+02 E-N=-2.467997600587D+03  KE= 7.176263990657D+02

 Test job not archived.
 1\1\GINC-N045\FOpt\RB3LYP\6-31+G(d,p)\C3H7N1O2S1\ESTERS\26-Dec-2017\1\
 \#n test B3LYP/6-31+G** integral=(grid=UltraFine) opt=(maxcycles=80,ti
 ght,Z-Matrix)\\L-cysteine neutral\\0,1\C\O,1,r2\O,1,r3,2,a3\H,2,r4,1,a
 4,3,d4,0\C,1,r5,2,a5,3,d5,0\H,5,r6,1,a6,2,d6,0\C,5,r7,1,a7,2,d7,0\N,5,
 r8,1,a8,2,d8,0\H,7,r9,5,a9,1,d9,0\S,7,r10,5,a10,1,d10,0\H,7,r11,5,a11,
 1,d11,0\H,8,r12,5,a12,1,d12,0\H,8,r13,5,a13,1,d13,0\H,10,r14,7,a14,5,d
 14,0\\r2=1.33855608\r3=1.21150013\a3=123.18835718\r4=0.98743655\a4=105
 .38359781\d4=176.95014491\r5=1.54735116\a5=113.86808928\d5=178.2327575
 4\r6=1.09911714\a6=104.68517694\d6=262.42363413\r7=1.53713779\a7=111.1
 7412268\d7=146.89870613\r8=1.46742243\a8=109.15860956\d8=17.42009482\r
 9=1.0909573\a9=109.9419254\d9=52.88945021\r10=1.84230421\a10=114.18414
 209\d10=289.73761625\r11=1.09353737\a11=109.66053733\d11=172.16352401\
 r12=1.01475859\a12=112.36256947\d12=212.28304881\r13=1.01992766\a13=11
 0.33863977\d13=91.07625081\r14=1.34851825\a14=96.40582147\d14=72.89164
 194\\Version=EM64L-G09RevE.01\State=1-A\HF=-721.9638432\RMSD=7.532e-09
 \RMSF=3.466e-06\Dipole=-1.8216679,-0.3314361,-0.1887623\Quadrupole=-0.
 8229828,1.3339546,-0.5109719,4.9994488,-2.0604301,2.1977913\PG=C01 [X(
 C3H7N1O2S1)]\\@


 A great many people think they are thinking when they
 are merely rearranging their prejudices.
                               -- William James
 Job cpu time:       0 days  0 hours 57 minutes 51.9 seconds.
 File lengths (MBytes):  RWF=     20 Int=      0 D2E=      0 Chk=      3 Scr=      1
 Normal termination of Gaussian 09 at Tue Dec 26 19:06:44 2017.
