
Running Job 1 of 1 quinoxaline_anion.qcinp
qchem quinoxaline_anion.qcinp_6532.0 /Users/xiaohuiqu/scratch/qchem6532/ 1
                  Welcome to Q-Chem
     A Quantum Leap Into The Future Of Chemistry


 Q-Chem 4.2, Q-Chem, Inc., Pleasanton, CA (2014).

 Y. Shao,  Z. Gan,  E. Epifanovsky,  A. T. B. Gilbert,  M. Wormit,  
 J. Kussmann,  A. W. Lange,  A. Behn,  J. Deng,  X. Feng,  D. Ghosh,  
 M. Goldey,  P. R. Horn,  L. D. Jacobson,  I. Kaliman,  R. Z. Khaliullin,  
 T. Kus,  A. Landau,  J. Liu,  E. I. Proynov,  Y. M. Rhee,  R. M. Richard,  
 M. A. Rohrdanz,  R. P. Steele,  E. J. Sundstrom,  H. L. Woodcock III,  
 P. M. Zimmerman,  D. Zuev,  B. Albrecht,  E. Alguire,  B. Austin,  
 G. J. O. Beran,  Y. A. Bernard,  E. Berquist,  K. Brandhorst,  
 K. B. Bravaya,  S. T. Brown,  D. Casanova,  C.-M. Chang,  Y. Chen,  
 S. H. Chien,  K. D. Closser,  D. L. Crittenden,  M. Diedenhofen,  
 R. A. DiStasio Jr.,  H. Do,  A. D. Dutoi,  R. G. Edgar,  S. Fatehi,  
 L. Fusti-Molnar,  A. Ghysels,  A. Golubeva-Zadorozhnaya,  J. Gomes,  
 M. W. D. Hanson-Heine,  P. H. P. Harbach,  A. W. Hauser,  E. G. Hohenstein,  
 Z. C. Holden,  T.-C. Jagau,  H. Ji,  B. Kaduk,  K. Khistyaev,  Jaehoon Kim,  
 Jihan Kim,  R. A. King,  P. Klunzinger,  D. Kosenkov,  T. Kowalczyk,  
 C. M. Krauter,  K. U. Lao,  A. Laurent,  K. V. Lawler,  S. V. Levchenko,  
 C. Y. Lin,  F. Liu,  E. Livshits,  R. C. Lochan,  A. Luenser,  P. Manohar,  
 S. F. Manzer,  S.-P. Mao,  N. Mardirossian,  A. V. Marenich,  S. A. Maurer,  
 N. J. Mayhall,  C. M. Oana,  R. Olivares-Amaya,  D. P. O'Neill,  
 J. A. Parkhill,  T. M. Perrine,  R. Peverati,  P. A. Pieniazek,  A. Prociuk,  
 D. R. Rehn,  E. Rosta,  N. J. Russ,  N. Sergueev,  S. M. Sharada,  
 S. Sharma,  D. W. Small,  A. Sodt,  T. Stein,  D. Stuck,  Y.-C. Su,  
 A. J. W. Thom,  T. Tsuchimochi,  L. Vogt,  O. Vydrov,  T. Wang,  
 M. A. Watson,  J. Wenzel,  A. White,  C. F. Williams,  V. Vanovschi,  
 S. Yeganeh,  S. R. Yost,  Z.-Q. You,  I. Y. Zhang,  X. Zhang,  Y. Zhao,  
 B. R. Brooks,  G. K. L. Chan,  D. M. Chipman,  C. J. Cramer,  
 W. A. Goddard III,  M. S. Gordon,  W. J. Hehre,  A. Klamt,  
 H. F. Schaefer III,  M. W. Schmidt,  C. D. Sherrill,  D. G. Truhlar,  
 A. Warshel,  X. Xu,  A. Aspuru-Guzik,  R. Baer,  A. T. Bell,  N. A. Besley,  
 J.-D. Chai,  A. Dreuw,  B. D. Dunietz,  T. R. Furlani,  S. R. Gwaltney,  
 C.-P. Hsu,  Y. Jung,  J. Kong,  D. S. Lambrecht,  W. Liang,  C. Ochsenfeld,  
 V. A. Rassolov,  L. V. Slipchenko,  J. E. Subotnik,  T. Van Voorhis,  
 J. M. Herbert,  A. I. Krylov,  P. M. W. Gill,  M. Head-Gordon

 Contributors to earlier versions of Q-Chem not listed above: 
 R. D. Adamson,  J. Baker,  E. F. C. Byrd,  A. K. Chakraborty,  C.-L. Cheng,  
 H. Dachsel,  R. J. Doerksen,  G. Hawkins,  A. Heyden,  S. Hirata,  
 G. Kedziora,  F. J. Keil,  C. Kelley,  P. P. Korambath,  W. Kurlancheek,  
 A. M. Lee,  M. S. Lee,  D. Liotard,  I. Lotan,  P. E. Maslen,  N. Nair,  
 D. Neuhauser,  R. Olson,  B. Peters,  J. Ritchie,  N. E. Schultz,  
 N. Shenvi,  A. C. Simmonett,  K. S. Thanthiriwatte,  Q. Wu,  W. Zhang

 Q-Chem 4.2.0.0  for Mac (Intel) OS X

 Parts of Q-Chem use Armadillo 4.100.2 (Dirt Cruiser).
 http://arma.sourceforge.net/

 Q-Chem begins on Wed Aug  6 13:59:40 2014  

Host: 
0

     Scratch files written to /Users/xiaohuiqu/scratch/qchem6532//
 May1314 814_zgan 4730   
Processing $rem in /Users/xiaohuiqu/program/qchem/config/preferences.
 MEM_TOTAL  2000 
Finally everything over in PARseQInput

--------------------------------------------------------------
User input:
--------------------------------------------------------------
$comment
quinoxaline doublet anion B3LYP 6-31+G* single point energy
Gas Phase
$end


$molecule
-1  2
C           0.70019100       -0.00000000        2.41159000
C           1.39919700       -0.00000000        1.19637300
C           0.72505800       -0.00000000       -0.04810900
C          -0.72505800        0.00000000       -0.04810900
C          -1.39919700        0.00000000        1.19637300
C          -0.70019100        0.00000000        2.41159000
H           1.24949000       -0.00000000        3.35290100
H           2.48772600       -0.00000000        1.17505300
H          -2.48772600        0.00000000        1.17505300
H          -1.24949000        0.00000000        3.35290100
C          -0.69371800        0.00000000       -2.34659400
C           0.69371800       -0.00000000       -2.34659400
H          -1.23890000        0.00000000       -3.29294300
N          -1.44737000        0.00000000       -1.21636700
N           1.44737000       -0.00000000       -1.21636700
H           1.23890000       -0.00000000       -3.29294300
$end


$rem
jobtype = sp
exchange = b3lyp
basis = 6-31+g*
nbo = 1
$end
--------------------------------------------------------------
 ----------------------------------------------------------------
             Standard Nuclear Orientation (Angstroms)
    I     Atom           X                Y                Z
 ----------------------------------------------------------------
    1      C       0.7001910000     0.0000000000     2.4115899412
    2      C       1.3991970000     0.0000000000     1.1963729412
    3      C       0.7250580000     0.0000000000    -0.0481090588
    4      C      -0.7250580000     0.0000000000    -0.0481090588
    5      C      -1.3991970000     0.0000000000     1.1963729412
    6      C      -0.7001910000     0.0000000000     2.4115899412
    7      H       1.2494900000     0.0000000000     3.3529009412
    8      H       2.4877260000     0.0000000000     1.1750529412
    9      H      -2.4877260000     0.0000000000     1.1750529412
   10      H      -1.2494900000     0.0000000000     3.3529009412
   11      C      -0.6937180000     0.0000000000    -2.3465940588
   12      C       0.6937180000     0.0000000000    -2.3465940588
   13      H      -1.2389000000     0.0000000000    -3.2929430588
   14      N      -1.4473700000     0.0000000000    -1.2163670588
   15      N       1.4473700000     0.0000000000    -1.2163670588
   16      H       1.2389000000     0.0000000000    -3.2929430588
 ----------------------------------------------------------------
 Molecular Point Group                 C2v   NOp =  4
 Largest Abelian Subgroup              C2v   NOp =  4
 Nuclear Repulsion Energy =   462.3869914558 hartrees
 There are       35 alpha and       34 beta electrons
 Requested basis set is 6-31+G(d)
 There are 62 shells and 202 basis functions

Total QAlloc Memory Limit   2000 MB
Mega-Array Size        61 MB
MEM_STATIC part        62 MB
 A cutoff of  1.0D-08 yielded   1686 shell pairs
 There are     19016 function pairs
 Smallest overlap matrix eigenvalue = 1.01E-06

 Q-Chem warning in module /scratch/svnadmin/814_zgan/qchem/stvman/mkSTV.C, line 251:

 Overlap eigenvalue is smaller than square root of threshold


  Scale SEOQF with 1.000000e-01/1.000000e-01/1.000000e-01

 Standard Electronic Orientation quadrupole field applied
 Nucleus-field energy     =    -0.0000000205 hartrees
 Guess from superposition of atomic densities
 Warning:  Energy on first SCF cycle will be non-variational
 An unrestricted hybrid HF-DFT SCF calculation will be
 performed using Pulay DIIS extrapolation
 Exchange:     0.2000 Hartree-Fock + 0.0800 Slater + 0.7200 Becke88
 Correlation:  0.8100 LYP + 0.1900 VWN1RPA
 Using SG-1 standard quadrature grid
 SCF converges when DIIS error is below 1.0E-05
 using 2 threads for integral computing 
 
 -------------------------------------------------------
 OpenMP Integral Computing Module                       
 Release: version 1.0, May 2013, Q-Chem Inc. Pittsburgh 
 -------------------------------------------------------
 Integral Job Info:
 Integral job number is                      22
 Integral operator is                         1
 short-range coefficients               -999999
 long-range coefficients                -999999
 Omega coefficients                           0
 if combine SR and LR in K              -999999
 Integral screening is                        1
 Integral computing path is                   2
 max size of driver memory is            800000
 size of driver memory is                593606
 size of scratch memory is               800000
 max col of scratch BK array               1296
 max len of scratch array in speh3          155
 max len of scratch index in speh4           18
 max int batch size is                       50
 min int batch size is                       15
 fixed nKL is                                18
 max L of basis functions is                  2
 order of int derivative is                   0
 number of shells is                         62
 number of basis is                         202
 number of cartesian basis is               202
 number of contracted shell pairs          1686
 number of primitive shell pairs           5707
 maxK2 (contraction) of shell pair           36
 max number of K2 of shell pair               1
 max number of CS2 of shell pair            238
 max number of PS2 of shell pair           1428
 mem total for path MDJ                   51150
 -------------------------------------------------------
         cpu   0.36 wall   0.18
 -------------------------------------------------------
 OpenMP BLAS3 based DFT computing Module                
 Release: version 1.0, May 2013, Q-Chem Inc. Pittsburgh 
 -------------------------------------------------------
in dftxc.C, eleTot sum is:68.001498, tauTot is:0.000000
 ---------------------------------------
  Cycle       Energy         DIIS Error
 ---------------------------------------
    1    -420.2207297957      5.06E-02
         cpu   2.08 wall   1.04
in dftxc.C, eleTot sum is:69.000310, tauTot is:0.000000
    2    -417.8171182432      5.41E-03
         cpu   2.16 wall   1.08
in dftxc.C, eleTot sum is:68.998753, tauTot is:0.000000
    3    -417.4859486686      8.57E-03
         cpu   2.29 wall   1.14
in dftxc.C, eleTot sum is:68.999801, tauTot is:0.000000
    4    -417.9633560636      2.43E-03
         cpu   2.25 wall   1.12
in dftxc.C, eleTot sum is:68.999831, tauTot is:0.000000
    5    -418.0002281223      7.42E-04
         cpu   2.07 wall   1.04
in dftxc.C, eleTot sum is:68.999736, tauTot is:0.000000
    6    -418.0036834341      1.65E-04
         cpu   1.89 wall   0.95
in dftxc.C, eleTot sum is:68.999695, tauTot is:0.000000
    7    -418.0039096254      1.18E-04
         cpu   1.80 wall   0.90
in dftxc.C, eleTot sum is:68.999693, tauTot is:0.000000
    8    -418.0040111704      1.86E-05
         cpu   1.82 wall   0.91
in dftxc.C, eleTot sum is:68.999691, tauTot is:0.000000
    9    -418.0040236994      1.01E-05
         cpu   1.74 wall   0.87
in dftxc.C, eleTot sum is:68.999690, tauTot is:0.000000
   10    -418.0040258692      3.26E-06 Convergence criterion met
 ---------------------------------------
 <S^2> = 0.7605
 SCF time:  CPU 39.31 s  wall 19.86 s
 SCF   energy in the final basis set = -418.0040258692
 Total energy in the final basis set = -418.0040258692
 Analysis of SCF Wavefunction
 
 --------------------------------------------------------------
             Orbital Energies (a.u.) and Symmetries
 --------------------------------------------------------------
 
 Alpha MOs, Unrestricted
 -- Occupied --                  
-14.155 -14.155 -10.063 -10.062 -10.052 -10.051 -10.043 -10.042
  1 B1    1 A1    2 A1    2 B1    3 A1    3 B1    4 A1    4 B1                 
-10.030 -10.030  -0.788  -0.719  -0.683  -0.593  -0.583  -0.506
  5 B1    5 A1    6 A1    6 B1    7 A1    8 A1    7 B1    9 A1                 
 -0.469  -0.439  -0.376  -0.361  -0.333  -0.303  -0.280  -0.263
  8 B1   10 A1    9 B1   11 A1   12 A1   13 A1   10 B1   14 A1                 
 -0.257  -0.257  -0.208  -0.198  -0.189  -0.168  -0.132  -0.100
 11 B1    1 B2   15 A1   12 B1    2 B2    1 A2   13 B1    3 B2                 
 -0.083  -0.078   0.037
  2 A2   16 A1    4 B2                                                         
 -- Virtual --                   
  0.122   0.130   0.137   0.137   0.150   0.151   0.153   0.169
 17 A1   18 A1    3 A2   14 B1    5 B2   15 B1   19 A1   16 B1                 
  0.178   0.180   0.195   0.195   0.199   0.213   0.215   0.224
 20 A1    6 B2    7 B2    4 A2   21 A1    5 A2   17 B1   22 A1                 
  0.237   0.248   0.250   0.250   0.264   0.269   0.278   0.278
 23 A1    8 B2   18 B1    6 A2   19 B1    7 A2   24 A1    9 B2                 
  0.290   0.303   0.317   0.326   0.326   0.334   0.344   0.345
 20 B1   25 A1   26 A1    8 A2   21 B1   27 A1   22 B1   28 A1                 
  0.346   0.350   0.355   0.356   0.357   0.372   0.380   0.394
 23 B1   29 A1   10 B2    9 A2   24 B1   30 A1   25 B1   26 B1                 
  0.398   0.415   0.416   0.417   0.417   0.424   0.438   0.456
 31 A1   27 B1   10 A2   32 A1   28 B1   33 A1   34 A1   29 B1                 
  0.465   0.486   0.493   0.499   0.508   0.524   0.528   0.558
 35 A1   30 B1   36 A1   31 B1   32 B1   37 A1   33 B1   38 A1                 
  0.565   0.671   0.686   0.751   0.774   0.797   0.803   0.804
 34 B1   35 B1   36 B1   37 B1   39 A1   38 B1   40 A1   11 B2                 
  0.831   0.860   0.869   0.877   0.887   0.892   0.907   0.916
 12 B2   41 A1   11 A2   13 B2   39 B1   42 A1   12 A2   13 A2                 
  0.920   0.937   1.008   1.031   1.037   1.065   1.070   1.071
 14 B2   43 A1   14 A2   40 B1   41 B1   42 B1   43 B1   44 A1                 
  1.098   1.111   1.116   1.135   1.158   1.189   1.204   1.224
 44 B1   45 A1   46 A1   15 B2   47 A1   45 B1   48 A1   15 A2                 
  1.243   1.251   1.271   1.271   1.288   1.295   1.331   1.334
 49 A1   46 B1   50 A1   47 B1   51 A1   48 B1   49 B1   52 A1                 
  1.387   1.392   1.393   1.425   1.444   1.476   1.506   1.566
 53 A1   50 B1   16 B2   17 B2   51 B1   54 A1   52 B1   16 A2                 
  1.575   1.605   1.606   1.617   1.649   1.652   1.668   1.693
 18 B2   55 A1   53 B1   19 B2   20 B2   17 A2   21 B2   18 A2                 
  1.722   1.747   1.894   1.956   1.986   2.013   2.029   2.051
 56 A1   54 B1   57 A1   58 A1   55 B1   59 A1   19 A2   56 B1                 
  2.072   2.111   2.112   2.165   2.168   2.194   2.210   2.267
 60 A1   57 B1   61 A1   62 A1   58 B1   22 B2   63 A1   59 B1                 
  2.295   2.358   2.361   2.384   2.388   2.438   2.446   2.473
 64 A1   20 A2   65 A1   21 A2   23 B2   22 A2   60 B1   61 B1                 
  2.501   2.519   2.595   2.609   2.692   2.769   2.774   2.804
 24 B2   25 B2   66 A1   23 A2   62 B1   67 A1   24 A2   63 B1                 
  2.822   2.853   2.866   2.896   2.951   2.991   3.030   3.055
 68 A1   64 B1   25 A2   65 B1   69 A1   66 B1   70 A1   67 B1                 
  3.109   3.137   3.258   3.560   3.584   4.256   4.396   4.445
 71 A1   68 B1   69 B1   70 B1   71 B1   72 A1   73 A1   72 B1                 
  4.471   4.491   4.577   4.610   4.680   4.738   4.990
 74 A1   75 A1   73 B1   76 A1   74 B1   75 B1   76 B1                         
 
 Beta MOs, Unrestricted
 -- Occupied --                  
-14.149 -14.149 -10.064 -10.063 -10.051 -10.050 -10.042 -10.042
  1 B1    1 A1    2 A1    2 B1    3 A1    3 B1    4 A1    4 B1                 
-10.029 -10.029  -0.780  -0.708  -0.679  -0.590  -0.578  -0.498
  5 B1    5 A1    6 A1    6 B1    7 A1    8 A1    7 B1    9 A1                 
 -0.467  -0.435  -0.372  -0.359  -0.331  -0.301  -0.278  -0.261
  8 B1   10 A1    9 B1   11 A1   12 A1   13 A1   10 B1   14 A1                 
 -0.255  -0.243  -0.207  -0.196  -0.175  -0.143  -0.123  -0.091
 11 B1    1 B2   15 A1   12 B1    2 B2    1 A2   13 B1    3 B2                 
 -0.072  -0.063
 16 A1    2 A2                                                                 
 -- Virtual --                   
  0.103   0.122   0.129   0.137   0.139   0.150   0.153   0.166
  4 B2   17 A1   18 A1   14 B1    3 A2   15 B1   19 A1    5 B2                 
  0.169   0.177   0.182   0.197   0.199   0.200   0.214   0.216
 16 B1   20 A1    6 B2    7 B2   21 A1    4 A2   17 B1    5 A2                 
  0.225   0.237   0.250   0.253   0.255   0.263   0.276   0.278
 22 A1   23 A1   18 B1    8 B2    6 A2   19 B1    7 A2   24 A1                 
  0.279   0.290   0.304   0.318   0.326   0.327   0.334   0.344
  9 B2   20 B1   25 A1   26 A1   21 B1    8 A2   27 A1   22 B1                 
  0.345   0.346   0.351   0.358   0.361   0.366   0.375   0.380
 28 A1   23 B1   29 A1   24 B1   10 B2    9 A2   30 A1   25 B1                 
  0.394   0.399   0.417   0.417   0.418   0.422   0.426   0.440
 26 B1   31 A1   27 B1   28 B1   32 A1   10 A2   33 A1   34 A1                 
  0.457   0.468   0.486   0.496   0.499   0.511   0.526   0.529
 29 B1   35 A1   30 B1   36 A1   31 B1   32 B1   37 A1   33 B1                 
  0.560   0.568   0.675   0.689   0.752   0.775   0.801   0.805
 38 A1   34 B1   35 B1   36 B1   37 B1   39 A1   38 B1   40 A1                 
  0.808   0.837   0.862   0.875   0.883   0.889   0.893   0.912
 11 B2   12 B2   41 A1   11 A2   13 B2   39 B1   42 A1   12 A2                 
  0.920   0.922   0.938   1.009   1.032   1.038   1.065   1.071
 13 A2   14 B2   43 A1   14 A2   40 B1   41 B1   42 B1   43 B1                 
  1.072   1.099   1.112   1.118   1.157   1.160   1.190   1.206
 44 A1   44 B1   45 A1   46 A1   15 B2   47 A1   45 B1   48 A1                 
  1.245   1.245   1.255   1.272   1.274   1.290   1.297   1.333
 49 A1   15 A2   46 B1   47 B1   50 A1   51 A1   48 B1   49 B1                 
  1.336   1.389   1.394   1.397   1.433   1.447   1.478   1.508
 52 A1   53 A1   50 B1   16 B2   17 B2   51 B1   54 A1   52 B1                 
  1.574   1.583   1.607   1.608   1.622   1.655   1.658   1.675
 16 A2   18 B2   53 B1   55 A1   19 B2   20 B2   17 A2   21 B2                 
  1.704   1.729   1.748   1.897   1.960   1.994   2.015   2.039
 18 A2   56 A1   54 B1   57 A1   58 A1   55 B1   59 A1   19 A2                 
  2.054   2.074   2.113   2.117   2.170   2.171   2.203   2.213
 56 B1   60 A1   61 A1   57 B1   62 A1   58 B1   22 B2   63 A1                 
  2.270   2.297   2.363   2.365   2.389   2.398   2.441   2.453
 59 B1   64 A1   20 A2   65 A1   21 A2   23 B2   22 A2   60 B1                 
  2.478   2.514   2.528   2.600   2.617   2.695   2.775   2.780
 61 B1   24 B2   25 B2   66 A1   23 A2   62 B1   67 A1   24 A2                 
  2.805   2.827   2.854   2.875   2.899   2.959   2.997   3.034
 63 B1   68 A1   64 B1   25 A2   65 B1   69 A1   66 B1   70 A1                 
  3.058   3.112   3.140   3.262   3.562   3.586   4.267   4.398
 67 B1   71 A1   68 B1   69 B1   70 B1   71 B1   72 A1   73 A1                 
  4.448   4.473   4.493   4.581   4.612   4.683   4.746   4.992
 72 B1   74 A1   75 A1   73 B1   76 A1   74 B1   75 B1   76 B1                 
 --------------------------------------------------------------
 
          Ground-State Mulliken Net Atomic Charges

     Atom                 Charge (a.u.)    Spin (a.u.)
  --------------------------------------------------------
      1 C                    -0.288224       0.035568
      2 C                    -0.872064       0.150306
      3 C                     0.716965      -0.047187
      4 C                     0.716965      -0.047187
      5 C                    -0.872064       0.150306
      6 C                    -0.288224       0.035568
      7 H                     0.130794      -0.003384
      8 H                     0.152168      -0.008272
      9 H                     0.152168      -0.008272
     10 H                     0.130794      -0.003384
     11 C                    -0.107383       0.097611
     12 C                    -0.107383       0.097611
     13 H                     0.123338      -0.007092
     14 N                    -0.355593       0.282450
     15 N                    -0.355593       0.282450
     16 H                     0.123338      -0.007092
  --------------------------------------------------------
  Sum of atomic charges =    -1.000000
  Sum of spin   charges =     1.000000

 -----------------------------------------------------------------
                    Cartesian Multipole Moments
 -----------------------------------------------------------------
    Charge (ESU x 10^10)
                -4.8032
    Dipole Moment (Debye)
         X       0.0000      Y       0.0000      Z       1.7355
       Tot       1.7355
    Quadrupole Moments (Debye-Ang)
        XX     -76.1516     XY       0.0000     YY     -67.5034
        XZ       0.0000     YZ       0.0000     ZZ     -73.7295
    Octopole Moments (Debye-Ang^2)
       XXX       0.0000    XXY       0.0000    XYY       0.0000
       YYY       0.0000    XXZ      15.7450    XYZ       0.0000
       YYZ      -2.6923    XZZ       0.0000    YZZ       0.0000
       ZZZ      -4.6192
    Hexadecapole Moments (Debye-Ang^3)
      XXXX    -622.9341   XXXY       0.0000   XXYY    -121.3896
      XYYY       0.0000   YYYY     -98.1890   XXXZ       0.0000
      XXYZ       0.0000   XYYZ       0.0000   YYYZ       0.0000
      XXZZ    -322.9009   XYZZ       0.0000   YYZZ    -263.8781
      XZZZ       0.0000   YZZZ       0.0000   ZZZZ   -1310.0576
 -----------------------------------------------------------------

 Begin NBO analysis for the ground state 


 *********************************** NBO 5.0 ***********************************
             N A T U R A L   A T O M I C   O R B I T A L   A N D
          N A T U R A L   B O N D   O R B I T A L   A N A L Y S I S
 *******************************************************************************
  (c) Copyright 1996-2002 Board of Regents of the University of Wisconsin System
      on behalf of the Theoretical Chemistry Institute.  All Rights Reserved.

          Cite this program as:

          NBO 5.0.  E. D. Glendening, J. K. Badenhoop, A. E. Reed,
          J. E. Carpenter, J. A. Bohmann, C. M. Morales, and F. Weinhold
          (Theoretical Chemistry Institute, University of Wisconsin,
          Madison, WI, 2001); http://www.chem.wisc.edu/~nbo5

       /PRINT  / : Print level set to  1
  This is an open-shell NBO calculation

 Job title: Starting NBO analysis.                                          

 Storage needed:      204948 in NPA,      164097 in NBO (     7711960 available)


 NATURAL POPULATIONS:  Natural atomic orbital occupancies 
                                                          
  NAO Atom No lang   Type(AO)    Occupancy      Spin      
 -------------------------------------------------------  
   1    C  1  s      Cor( 1s)     1.99912     0.00000
   2    C  1  s      Val( 2s)     0.95745     0.00081
   3    C  1  s      Ryd( 3s)     0.00066     0.00000
   4    C  1  s      Ryd( 4s)     0.00007     0.00000
   5    C  1  s      Ryd( 5s)     0.00004     0.00000
   6    C  1  px     Val( 2p)     1.09149    -0.00101
   7    C  1  px     Ryd( 3p)     0.00470     0.00002
   8    C  1  px     Ryd( 4p)     0.00054     0.00000
   9    C  1  py     Val( 2p)     1.07176     0.03974
  10    C  1  py     Ryd( 3p)     0.00471     0.00150
  11    C  1  py     Ryd( 4p)     0.00085     0.00043
  12    C  1  pz     Val( 2p)     1.15282    -0.00034
  13    C  1  pz     Ryd( 3p)     0.00444    -0.00001
  14    C  1  pz     Ryd( 4p)     0.00074     0.00000
  15    C  1  dxy    Ryd( 3d)     0.00051     0.00010
  16    C  1  dxz    Ryd( 3d)     0.00100    -0.00001
  17    C  1  dyz    Ryd( 3d)     0.00039     0.00006
  18    C  1  dx2y2  Ryd( 3d)     0.00071    -0.00003
  19    C  1  dz2    Ryd( 3d)     0.00093     0.00000
 
  20    C  2  s      Cor( 1s)     1.99909     0.00000
  21    C  2  s      Val( 2s)     0.95792     0.00493
  22    C  2  s      Ryd( 3s)     0.00102     0.00001
  23    C  2  s      Ryd( 4s)     0.00021    -0.00001
  24    C  2  s      Ryd( 5s)     0.00005     0.00000
  25    C  2  px     Val( 2p)     1.18687     0.00253
  26    C  2  px     Ryd( 3p)     0.00459     0.00000
  27    C  2  px     Ryd( 4p)     0.00077    -0.00001
  28    C  2  py     Val( 2p)     1.08556     0.12221
  29    C  2  py     Ryd( 3p)     0.00493     0.00241
  30    C  2  py     Ryd( 4p)     0.00066     0.00003
  31    C  2  pz     Val( 2p)     1.04645     0.00196
  32    C  2  pz     Ryd( 3p)     0.00609    -0.00008
  33    C  2  pz     Ryd( 4p)     0.00058     0.00000
  34    C  2  dxy    Ryd( 3d)     0.00029     0.00001
  35    C  2  dxz    Ryd( 3d)     0.00080     0.00000
  36    C  2  dyz    Ryd( 3d)     0.00047     0.00001
  37    C  2  dx2y2  Ryd( 3d)     0.00094    -0.00008
  38    C  2  dz2    Ryd( 3d)     0.00079    -0.00001
 
  39    C  3  s      Cor( 1s)     1.99900    -0.00001
  40    C  3  s      Val( 2s)     0.85868    -0.00349
  41    C  3  s      Ryd( 3s)     0.00350    -0.00004
  42    C  3  s      Ryd( 4s)     0.00040    -0.00001
  43    C  3  s      Ryd( 5s)     0.00011     0.00000
  44    C  3  px     Val( 2p)     1.03517    -0.00238
  45    C  3  px     Ryd( 3p)     0.00940    -0.00003
  46    C  3  px     Ryd( 4p)     0.00076    -0.00002
  47    C  3  py     Val( 2p)     0.96501    -0.02827
  48    C  3  py     Ryd( 4p)     0.00082     0.00008
  49    C  3  py     Ryd( 3p)     0.00088     0.00038
  50    C  3  pz     Val( 2p)     0.98807    -0.00579
  51    C  3  pz     Ryd( 3p)     0.00563     0.00002
  52    C  3  pz     Ryd( 4p)     0.00043    -0.00001
  53    C  3  dxy    Ryd( 3d)     0.00052     0.00005
  54    C  3  dxz    Ryd( 3d)     0.00126    -0.00002
  55    C  3  dyz    Ryd( 3d)     0.00126     0.00043
  56    C  3  dx2y2  Ryd( 3d)     0.00068     0.00001
  57    C  3  dz2    Ryd( 3d)     0.00127    -0.00001
 
  58    C  4  s      Cor( 1s)     1.99900    -0.00001
  59    C  4  s      Val( 2s)     0.85868    -0.00349
  60    C  4  s      Ryd( 3s)     0.00350    -0.00004
  61    C  4  s      Ryd( 4s)     0.00040    -0.00001
  62    C  4  s      Ryd( 5s)     0.00011     0.00000
  63    C  4  px     Val( 2p)     1.03517    -0.00238
  64    C  4  px     Ryd( 3p)     0.00940    -0.00003
  65    C  4  px     Ryd( 4p)     0.00076    -0.00002
  66    C  4  py     Val( 2p)     0.96501    -0.02827
  67    C  4  py     Ryd( 4p)     0.00082     0.00008
  68    C  4  py     Ryd( 3p)     0.00088     0.00038
  69    C  4  pz     Val( 2p)     0.98807    -0.00579
  70    C  4  pz     Ryd( 3p)     0.00563     0.00002
  71    C  4  pz     Ryd( 4p)     0.00043    -0.00001
  72    C  4  dxy    Ryd( 3d)     0.00052     0.00005
  73    C  4  dxz    Ryd( 3d)     0.00126    -0.00002
  74    C  4  dyz    Ryd( 3d)     0.00126     0.00043
  75    C  4  dx2y2  Ryd( 3d)     0.00068     0.00001
  76    C  4  dz2    Ryd( 3d)     0.00127    -0.00001
 
  77    C  5  s      Cor( 1s)     1.99909     0.00000
  78    C  5  s      Val( 2s)     0.95792     0.00493
  79    C  5  s      Ryd( 3s)     0.00102     0.00001
  80    C  5  s      Ryd( 4s)     0.00021    -0.00001
  81    C  5  s      Ryd( 5s)     0.00005     0.00000
  82    C  5  px     Val( 2p)     1.18687     0.00253
  83    C  5  px     Ryd( 3p)     0.00459     0.00000
  84    C  5  px     Ryd( 4p)     0.00077    -0.00001
  85    C  5  py     Val( 2p)     1.08556     0.12221
  86    C  5  py     Ryd( 3p)     0.00493     0.00241
  87    C  5  py     Ryd( 4p)     0.00066     0.00003
  88    C  5  pz     Val( 2p)     1.04645     0.00196
  89    C  5  pz     Ryd( 3p)     0.00609    -0.00008
  90    C  5  pz     Ryd( 4p)     0.00058     0.00000
  91    C  5  dxy    Ryd( 3d)     0.00029     0.00001
  92    C  5  dxz    Ryd( 3d)     0.00080     0.00000
  93    C  5  dyz    Ryd( 3d)     0.00047     0.00001
  94    C  5  dx2y2  Ryd( 3d)     0.00094    -0.00008
  95    C  5  dz2    Ryd( 3d)     0.00079    -0.00001
 
  96    C  6  s      Cor( 1s)     1.99912     0.00000
  97    C  6  s      Val( 2s)     0.95745     0.00081
  98    C  6  s      Ryd( 3s)     0.00066     0.00000
  99    C  6  s      Ryd( 4s)     0.00007     0.00000
 100    C  6  s      Ryd( 5s)     0.00004     0.00000
 101    C  6  px     Val( 2p)     1.09149    -0.00101
 102    C  6  px     Ryd( 3p)     0.00470     0.00002
 103    C  6  px     Ryd( 4p)     0.00054     0.00000
 104    C  6  py     Val( 2p)     1.07176     0.03974
 105    C  6  py     Ryd( 3p)     0.00471     0.00150
 106    C  6  py     Ryd( 4p)     0.00085     0.00043
 107    C  6  pz     Val( 2p)     1.15282    -0.00034
 108    C  6  pz     Ryd( 3p)     0.00444    -0.00001
 109    C  6  pz     Ryd( 4p)     0.00074     0.00000
 110    C  6  dxy    Ryd( 3d)     0.00051     0.00010
 111    C  6  dxz    Ryd( 3d)     0.00100    -0.00001
 112    C  6  dyz    Ryd( 3d)     0.00039     0.00006
 113    C  6  dx2y2  Ryd( 3d)     0.00071    -0.00003
 114    C  6  dz2    Ryd( 3d)     0.00093     0.00000
 
 115    H  7  s      Val( 1s)     0.78601    -0.00159
 116    H  7  s      Ryd( 2s)     0.00115    -0.00001
 
 117    H  8  s      Val( 1s)     0.77490    -0.00394
 118    H  8  s      Ryd( 2s)     0.00223    -0.00007
 
 119    H  9  s      Val( 1s)     0.77490    -0.00394
 120    H  9  s      Ryd( 2s)     0.00223    -0.00007
 
 121    H 10  s      Val( 1s)     0.78601    -0.00159
 122    H 10  s      Ryd( 2s)     0.00115    -0.00001
 
 123    C 11  s      Cor( 1s)     1.99917     0.00000
 124    C 11  s      Val( 2s)     0.93972     0.00102
 125    C 11  s      Ryd( 3s)     0.00206     0.00002
 126    C 11  s      Ryd( 4s)     0.00016     0.00000
 127    C 11  s      Ryd( 5s)     0.00008     0.00000
 128    C 11  px     Val( 2p)     1.04702    -0.00244
 129    C 11  px     Ryd( 3p)     0.00971    -0.00012
 130    C 11  px     Ryd( 4p)     0.00142     0.00002
 131    C 11  py     Val( 2p)     1.04374     0.07922
 132    C 11  py     Ryd( 3p)     0.00802     0.00510
 133    C 11  py     Ryd( 4p)     0.00156     0.00145
 134    C 11  pz     Val( 2p)     1.04310    -0.00183
 135    C 11  pz     Ryd( 3p)     0.00639    -0.00009
 136    C 11  pz     Ryd( 4p)     0.00112    -0.00001
 137    C 11  dxy    Ryd( 3d)     0.00084     0.00039
 138    C 11  dxz    Ryd( 3d)     0.00150    -0.00002
 139    C 11  dyz    Ryd( 3d)     0.00080     0.00019
 140    C 11  dx2y2  Ryd( 3d)     0.00078    -0.00006
 141    C 11  dz2    Ryd( 3d)     0.00149     0.00000
 
 142    C 12  s      Cor( 1s)     1.99917     0.00000
 143    C 12  s      Val( 2s)     0.93972     0.00102
 144    C 12  s      Ryd( 3s)     0.00206     0.00002
 145    C 12  s      Ryd( 4s)     0.00016     0.00000
 146    C 12  s      Ryd( 5s)     0.00008     0.00000
 147    C 12  px     Val( 2p)     1.04702    -0.00244
 148    C 12  px     Ryd( 3p)     0.00971    -0.00012
 149    C 12  px     Ryd( 4p)     0.00142     0.00002
 150    C 12  py     Val( 2p)     1.04374     0.07922
 151    C 12  py     Ryd( 3p)     0.00802     0.00510
 152    C 12  py     Ryd( 4p)     0.00156     0.00145
 153    C 12  pz     Val( 2p)     1.04310    -0.00183
 154    C 12  pz     Ryd( 3p)     0.00639    -0.00009
 155    C 12  pz     Ryd( 4p)     0.00112    -0.00001
 156    C 12  dxy    Ryd( 3d)     0.00084     0.00039
 157    C 12  dxz    Ryd( 3d)     0.00150    -0.00002
 158    C 12  dyz    Ryd( 3d)     0.00080     0.00019
 159    C 12  dx2y2  Ryd( 3d)     0.00078    -0.00006
 160    C 12  dz2    Ryd( 3d)     0.00149     0.00000
 
 161    H 13  s      Val( 1s)     0.80163    -0.00320
 162    H 13  s      Ryd( 2s)     0.00138    -0.00002
 
 163    N 14  s      Cor( 1s)     1.99946     0.00001
 164    N 14  s      Val( 2s)     1.38427     0.00995
 165    N 14  s      Ryd( 3s)     0.00551    -0.00014
 166    N 14  s      Ryd( 4s)     0.00006     0.00000
 167    N 14  s      Ryd( 5s)     0.00002     0.00000
 168    N 14  px     Val( 2p)     1.66205     0.00062
 169    N 14  px     Ryd( 3p)     0.00780    -0.00047
 170    N 14  px     Ryd( 4p)     0.00042    -0.00002
 171    N 14  py     Val( 2p)     1.30085     0.27211
 172    N 14  py     Ryd( 3p)     0.00301     0.00218
 173    N 14  py     Ryd( 4p)     0.00013    -0.00002
 174    N 14  pz     Val( 2p)     1.18323     0.00551
 175    N 14  pz     Ryd( 3p)     0.00446     0.00004
 176    N 14  pz     Ryd( 4p)     0.00037    -0.00001
 177    N 14  dxy    Ryd( 3d)     0.00212     0.00024
 178    N 14  dxz    Ryd( 3d)     0.00263     0.00001
 179    N 14  dyz    Ryd( 3d)     0.00032    -0.00002
 180    N 14  dx2y2  Ryd( 3d)     0.00256     0.00007
 181    N 14  dz2    Ryd( 3d)     0.00095    -0.00013
 
 182    N 15  s      Cor( 1s)     1.99946     0.00001
 183    N 15  s      Val( 2s)     1.38427     0.00995
 184    N 15  s      Ryd( 3s)     0.00551    -0.00014
 185    N 15  s      Ryd( 4s)     0.00006     0.00000
 186    N 15  s      Ryd( 5s)     0.00002     0.00000
 187    N 15  px     Val( 2p)     1.66205     0.00062
 188    N 15  px     Ryd( 3p)     0.00780    -0.00047
 189    N 15  px     Ryd( 4p)     0.00042    -0.00002
 190    N 15  py     Val( 2p)     1.30085     0.27211
 191    N 15  py     Ryd( 3p)     0.00301     0.00218
 192    N 15  py     Ryd( 4p)     0.00013    -0.00002
 193    N 15  pz     Val( 2p)     1.18323     0.00551
 194    N 15  pz     Ryd( 3p)     0.00446     0.00004
 195    N 15  pz     Ryd( 4p)     0.00037    -0.00001
 196    N 15  dxy    Ryd( 3d)     0.00212     0.00024
 197    N 15  dxz    Ryd( 3d)     0.00263     0.00001
 198    N 15  dyz    Ryd( 3d)     0.00032    -0.00002
 199    N 15  dx2y2  Ryd( 3d)     0.00256     0.00007
 200    N 15  dz2    Ryd( 3d)     0.00095    -0.00013
 
 201    H 16  s      Val( 1s)     0.80163    -0.00320
 202    H 16  s      Ryd( 2s)     0.00138    -0.00002
 
   1 low occupancy (<1.9990e) core orbital  found on  C  3
   1 low occupancy (<1.9990e) core orbital  found on  C  4


 Summary of Natural Population Analysis:

                                     Natural Population                 Natural
             Natural    ---------------------------------------------    Spin
  Atom No    Charge        Core      Valence    Rydberg      Total      Density
 ------------------------------------------------------------------------------
    C  1   -0.29291      1.99912     4.27352    0.02027     6.29291     0.04125
    C  2   -0.29807      1.99909     4.27679    0.02219     6.29807     0.13393
    C  3    0.12715      1.99900     3.84692    0.02693     5.87285    -0.03911
    C  4    0.12715      1.99900     3.84692    0.02693     5.87285    -0.03911
    C  5   -0.29807      1.99909     4.27679    0.02219     6.29807     0.13393
    C  6   -0.29291      1.99912     4.27352    0.02027     6.29291     0.04125
    H  7    0.21284      0.00000     0.78601    0.00115     0.78716    -0.00160
    H  8    0.22287      0.00000     0.77490    0.00223     0.77713    -0.00401
    H  9    0.22287      0.00000     0.77490    0.00223     0.77713    -0.00401
    H 10    0.21284      0.00000     0.78601    0.00115     0.78716    -0.00160
    C 11   -0.10866      1.99917     4.07357    0.03593     6.10866     0.08283
    C 12   -0.10866      1.99917     4.07357    0.03593     6.10866     0.08283
    H 13    0.19699      0.00000     0.80163    0.00138     0.80301    -0.00322
    N 14   -0.56020      1.99946     5.53039    0.03035     7.56020     0.28992
    N 15   -0.56020      1.99946     5.53039    0.03035     7.56020     0.28992
    H 16    0.19699      0.00000     0.80163    0.00138     0.80301    -0.00322
 ===============================================================================
 * Total * -1.00000     19.99165    48.72748    0.28087    69.00000     1.00000

                                 Natural Population      
 --------------------------------------------------------
   Core                      19.99165 ( 99.9583% of  20)
   Valence                   48.72748 ( 99.4438% of  49)
   Natural Minimal Basis     68.71913 ( 99.5929% of  69)
   Natural Rydberg Basis      0.28087 (  0.4071% of  69)
 --------------------------------------------------------

    Atom No         Natural Electron Configuration
 ----------------------------------------------------------------------------
      C  1      [core]2s( 0.96)2p( 3.32)3p( 0.01)
      C  2      [core]2s( 0.96)2p( 3.32)3p( 0.02)
      C  3      [core]2s( 0.86)2p( 2.99)3p( 0.02)
      C  4      [core]2s( 0.86)2p( 2.99)3p( 0.02)
      C  5      [core]2s( 0.96)2p( 3.32)3p( 0.02)
      C  6      [core]2s( 0.96)2p( 3.32)3p( 0.01)
      H  7            1s( 0.79)
      H  8            1s( 0.77)
      H  9            1s( 0.77)
      H 10            1s( 0.79)
      C 11      [core]2s( 0.94)2p( 3.13)3p( 0.02)3d( 0.01)
      C 12      [core]2s( 0.94)2p( 3.13)3p( 0.02)3d( 0.01)
      H 13            1s( 0.80)
      N 14      [core]2s( 1.38)2p( 4.15)3s( 0.01)3p( 0.02)3d( 0.01)
      N 15      [core]2s( 1.38)2p( 4.15)3s( 0.01)3p( 0.02)3d( 0.01)
      H 16            1s( 0.80)


 ***************************************************
 *******         Alpha spin orbitals         *******
 ***************************************************


 NATURAL POPULATIONS:  Natural atomic orbital occupancies 
                                                          
  NAO Atom No lang   Type(AO)    Occupancy      Energy    
 ---------------------------------------------------------
   1    C  1  s      Cor( 1s)     0.99956      -9.89468
   2    C  1  s      Val( 2s)     0.47913      -0.03079
   3    C  1  s      Ryd( 3s)     0.00033       1.47530
   4    C  1  s      Ryd( 4s)     0.00003       1.48519
   5    C  1  s      Ryd( 5s)     0.00002       3.06139
   6    C  1  px     Val( 2p)     0.54524       0.10285
   7    C  1  px     Ryd( 4p)     0.00236       0.78234
   8    C  1  px     Ryd( 3p)     0.00027       0.58871
   9    C  1  py     Val( 2p)     0.55575       0.03704
  10    C  1  py     Ryd( 3p)     0.00311       0.54732
  11    C  1  py     Ryd( 4p)     0.00064       0.55094
  12    C  1  pz     Val( 2p)     0.57624       0.09823
  13    C  1  pz     Ryd( 4p)     0.00222       1.03014
  14    C  1  pz     Ryd( 3p)     0.00037       0.51150
  15    C  1  dxy    Ryd( 3d)     0.00031       2.05694
  16    C  1  dxz    Ryd( 3d)     0.00050       2.50817
  17    C  1  dyz    Ryd( 3d)     0.00023       1.98342
  18    C  1  dx2y2  Ryd( 3d)     0.00034       2.47238
  19    C  1  dz2    Ryd( 3d)     0.00046       2.45067
 
  20    C  2  s      Cor( 1s)     0.99954      -9.88214
  21    C  2  s      Val( 2s)     0.48142      -0.02313
  22    C  2  s      Ryd( 3s)     0.00052       1.32881
  23    C  2  s      Ryd( 4s)     0.00010       2.05448
  24    C  2  s      Ryd( 5s)     0.00002       2.90571
  25    C  2  px     Val( 2p)     0.59470       0.10013
  26    C  2  px     Ryd( 4p)     0.00230       1.20895
  27    C  2  px     Ryd( 3p)     0.00038       0.45057
  28    C  2  py     Val( 2p)     0.60389       0.03637
  29    C  2  py     Ryd( 4p)     0.00367       0.57516
  30    C  2  py     Ryd( 3p)     0.00034       0.54662
  31    C  2  pz     Val( 2p)     0.52421       0.11776
  32    C  2  pz     Ryd( 4p)     0.00301       0.74807
  33    C  2  pz     Ryd( 3p)     0.00029       0.62344
  34    C  2  dxy    Ryd( 3d)     0.00015       1.95258
  35    C  2  dxz    Ryd( 3d)     0.00040       2.55436
  36    C  2  dyz    Ryd( 3d)     0.00024       2.10369
  37    C  2  dx2y2  Ryd( 3d)     0.00043       2.35495
  38    C  2  dz2    Ryd( 3d)     0.00039       2.61178
 
  39    C  3  s      Cor( 1s)     0.99950      -9.91482
  40    C  3  s      Val( 2s)     0.42760       0.02447
  41    C  3  s      Ryd( 3s)     0.00173       0.92552
  42    C  3  s      Ryd( 4s)     0.00020       1.00048
  43    C  3  s      Ryd( 5s)     0.00005       4.50277
  44    C  3  px     Val( 2p)     0.51639       0.12655
  45    C  3  px     Ryd( 4p)     0.00469       1.15433
  46    C  3  px     Ryd( 3p)     0.00037       0.54674
  47    C  3  py     Val( 2p)     0.46837       0.06025
  48    C  3  py     Ryd( 4p)     0.00045       0.77302
  49    C  3  py     Ryd( 3p)     0.00063       0.44901
  50    C  3  pz     Val( 2p)     0.49114       0.12337
  51    C  3  pz     Ryd( 4p)     0.00283       1.23776
  52    C  3  pz     Ryd( 3p)     0.00021       0.72244
  53    C  3  dxy    Ryd( 3d)     0.00028       2.09680
  54    C  3  dxz    Ryd( 3d)     0.00062       2.65940
  55    C  3  dyz    Ryd( 3d)     0.00085       2.12886
  56    C  3  dx2y2  Ryd( 3d)     0.00034       2.53204
  57    C  3  dz2    Ryd( 3d)     0.00063       2.64857
 
  58    C  4  s      Cor( 1s)     0.99950      -9.91482
  59    C  4  s      Val( 2s)     0.42760       0.02447
  60    C  4  s      Ryd( 3s)     0.00173       0.92552
  61    C  4  s      Ryd( 4s)     0.00020       1.00048
  62    C  4  s      Ryd( 5s)     0.00005       4.50277
  63    C  4  px     Val( 2p)     0.51639       0.12655
  64    C  4  px     Ryd( 4p)     0.00469       1.15433
  65    C  4  px     Ryd( 3p)     0.00037       0.54674
  66    C  4  py     Val( 2p)     0.46837       0.06025
  67    C  4  py     Ryd( 4p)     0.00045       0.77302
  68    C  4  py     Ryd( 3p)     0.00063       0.44901
  69    C  4  pz     Val( 2p)     0.49114       0.12337
  70    C  4  pz     Ryd( 4p)     0.00283       1.23776
  71    C  4  pz     Ryd( 3p)     0.00021       0.72244
  72    C  4  dxy    Ryd( 3d)     0.00028       2.09680
  73    C  4  dxz    Ryd( 3d)     0.00062       2.65940
  74    C  4  dyz    Ryd( 3d)     0.00085       2.12886
  75    C  4  dx2y2  Ryd( 3d)     0.00034       2.53204
  76    C  4  dz2    Ryd( 3d)     0.00063       2.64857
 
  77    C  5  s      Cor( 1s)     0.99954      -9.88214
  78    C  5  s      Val( 2s)     0.48142      -0.02313
  79    C  5  s      Ryd( 3s)     0.00052       1.32881
  80    C  5  s      Ryd( 4s)     0.00010       2.05448
  81    C  5  s      Ryd( 5s)     0.00002       2.90571
  82    C  5  px     Val( 2p)     0.59470       0.10013
  83    C  5  px     Ryd( 4p)     0.00230       1.20895
  84    C  5  px     Ryd( 3p)     0.00038       0.45057
  85    C  5  py     Val( 2p)     0.60389       0.03637
  86    C  5  py     Ryd( 4p)     0.00367       0.57516
  87    C  5  py     Ryd( 3p)     0.00034       0.54662
  88    C  5  pz     Val( 2p)     0.52421       0.11776
  89    C  5  pz     Ryd( 4p)     0.00301       0.74807
  90    C  5  pz     Ryd( 3p)     0.00029       0.62344
  91    C  5  dxy    Ryd( 3d)     0.00015       1.95258
  92    C  5  dxz    Ryd( 3d)     0.00040       2.55436
  93    C  5  dyz    Ryd( 3d)     0.00024       2.10369
  94    C  5  dx2y2  Ryd( 3d)     0.00043       2.35495
  95    C  5  dz2    Ryd( 3d)     0.00039       2.61178
 
  96    C  6  s      Cor( 1s)     0.99956      -9.89468
  97    C  6  s      Val( 2s)     0.47913      -0.03079
  98    C  6  s      Ryd( 3s)     0.00033       1.47530
  99    C  6  s      Ryd( 4s)     0.00003       1.48520
 100    C  6  s      Ryd( 5s)     0.00002       3.06139
 101    C  6  px     Val( 2p)     0.54524       0.10285
 102    C  6  px     Ryd( 4p)     0.00236       0.78234
 103    C  6  px     Ryd( 3p)     0.00027       0.58871
 104    C  6  py     Val( 2p)     0.55575       0.03704
 105    C  6  py     Ryd( 3p)     0.00311       0.54732
 106    C  6  py     Ryd( 4p)     0.00064       0.55094
 107    C  6  pz     Val( 2p)     0.57624       0.09823
 108    C  6  pz     Ryd( 4p)     0.00222       1.03014
 109    C  6  pz     Ryd( 3p)     0.00037       0.51150
 110    C  6  dxy    Ryd( 3d)     0.00031       2.05694
 111    C  6  dxz    Ryd( 3d)     0.00050       2.50817
 112    C  6  dyz    Ryd( 3d)     0.00023       1.98342
 113    C  6  dx2y2  Ryd( 3d)     0.00034       2.47238
 114    C  6  dz2    Ryd( 3d)     0.00046       2.45067
 
 115    H  7  s      Val( 1s)     0.39221       0.21606
 116    H  7  s      Ryd( 2s)     0.00057       0.77940
 
 117    H  8  s      Val( 1s)     0.38548       0.23312
 118    H  8  s      Ryd( 2s)     0.00108       0.81938
 
 119    H  9  s      Val( 1s)     0.38548       0.23312
 120    H  9  s      Ryd( 2s)     0.00108       0.81938
 
 121    H 10  s      Val( 1s)     0.39221       0.21606
 122    H 10  s      Ryd( 2s)     0.00057       0.77940
 
 123    C 11  s      Cor( 1s)     0.99958      -9.91602
 124    C 11  s      Val( 2s)     0.47037      -0.02337
 125    C 11  s      Ryd( 4s)     0.00104       1.38631
 126    C 11  s      Ryd( 5s)     0.00008       3.72663
 127    C 11  s      Ryd( 3s)     0.00004       0.76457
 128    C 11  px     Val( 2p)     0.52229       0.12340
 129    C 11  px     Ryd( 4p)     0.00479       0.73700
 130    C 11  px     Ryd( 3p)     0.00072       0.51897
 131    C 11  py     Val( 2p)     0.56148       0.03897
 132    C 11  py     Ryd( 3p)     0.00656       0.53295
 133    C 11  py     Ryd( 4p)     0.00150       0.54130
 134    C 11  pz     Val( 2p)     0.52063       0.12166
 135    C 11  pz     Ryd( 4p)     0.00315       0.99513
 136    C 11  pz     Ryd( 3p)     0.00055       0.56591
 137    C 11  dxy    Ryd( 3d)     0.00061       2.09628
 138    C 11  dxz    Ryd( 3d)     0.00074       2.56033
 139    C 11  dyz    Ryd( 3d)     0.00050       2.03162
 140    C 11  dx2y2  Ryd( 3d)     0.00036       2.52092
 141    C 11  dz2    Ryd( 3d)     0.00074       2.47308
 
 142    C 12  s      Cor( 1s)     0.99958      -9.91602
 143    C 12  s      Val( 2s)     0.47037      -0.02337
 144    C 12  s      Ryd( 4s)     0.00104       1.38631
 145    C 12  s      Ryd( 5s)     0.00008       3.72663
 146    C 12  s      Ryd( 3s)     0.00004       0.76457
 147    C 12  px     Val( 2p)     0.52229       0.12340
 148    C 12  px     Ryd( 4p)     0.00479       0.73700
 149    C 12  px     Ryd( 3p)     0.00072       0.51897
 150    C 12  py     Val( 2p)     0.56148       0.03897
 151    C 12  py     Ryd( 3p)     0.00656       0.53295
 152    C 12  py     Ryd( 4p)     0.00150       0.54130
 153    C 12  pz     Val( 2p)     0.52063       0.12166
 154    C 12  pz     Ryd( 4p)     0.00315       0.99513
 155    C 12  pz     Ryd( 3p)     0.00055       0.56591
 156    C 12  dxy    Ryd( 3d)     0.00061       2.09628
 157    C 12  dxz    Ryd( 3d)     0.00074       2.56033
 158    C 12  dyz    Ryd( 3d)     0.00050       2.03162
 159    C 12  dx2y2  Ryd( 3d)     0.00036       2.52092
 160    C 12  dz2    Ryd( 3d)     0.00074       2.47308
 
 161    H 13  s      Val( 1s)     0.39922       0.21764
 162    H 13  s      Ryd( 2s)     0.00068       0.83036
 
 163    N 14  s      Cor( 1s)     0.99973     -13.96266
 164    N 14  s      Val( 2s)     0.69711      -0.35427
 165    N 14  s      Ryd( 3s)     0.00269       1.39889
 166    N 14  s      Ryd( 4s)     0.00003       1.80854
 167    N 14  s      Ryd( 5s)     0.00001       3.65138
 168    N 14  px     Val( 2p)     0.83133      -0.04189
 169    N 14  px     Ryd( 3p)     0.00367       0.81859
 170    N 14  px     Ryd( 4p)     0.00020       0.92277
 171    N 14  py     Val( 2p)     0.78648      -0.03630
 172    N 14  py     Ryd( 3p)     0.00259       0.70713
 173    N 14  py     Ryd( 4p)     0.00005       0.86566
 174    N 14  pz     Val( 2p)     0.59437       0.02105
 175    N 14  pz     Ryd( 4p)     0.00225       1.13416
 176    N 14  pz     Ryd( 3p)     0.00018       0.99173
 177    N 14  dxy    Ryd( 3d)     0.00118       2.02632
 178    N 14  dxz    Ryd( 3d)     0.00132       2.71597
 179    N 14  dyz    Ryd( 3d)     0.00015       2.09662
 180    N 14  dx2y2  Ryd( 3d)     0.00132       2.25728
 181    N 14  dz2    Ryd( 3d)     0.00041       2.51340
 
 182    N 15  s      Cor( 1s)     0.99973     -13.96266
 183    N 15  s      Val( 2s)     0.69711      -0.35427
 184    N 15  s      Ryd( 3s)     0.00269       1.39889
 185    N 15  s      Ryd( 4s)     0.00003       1.80854
 186    N 15  s      Ryd( 5s)     0.00001       3.65138
 187    N 15  px     Val( 2p)     0.83133      -0.04189
 188    N 15  px     Ryd( 3p)     0.00367       0.81859
 189    N 15  px     Ryd( 4p)     0.00020       0.92277
 190    N 15  py     Val( 2p)     0.78648      -0.03630
 191    N 15  py     Ryd( 3p)     0.00259       0.70713
 192    N 15  py     Ryd( 4p)     0.00005       0.86566
 193    N 15  pz     Val( 2p)     0.59437       0.02105
 194    N 15  pz     Ryd( 4p)     0.00225       1.13416
 195    N 15  pz     Ryd( 3p)     0.00018       0.99173
 196    N 15  dxy    Ryd( 3d)     0.00118       2.02632
 197    N 15  dxz    Ryd( 3d)     0.00132       2.71597
 198    N 15  dyz    Ryd( 3d)     0.00015       2.09662
 199    N 15  dx2y2  Ryd( 3d)     0.00132       2.25728
 200    N 15  dz2    Ryd( 3d)     0.00041       2.51340
 
 201    H 16  s      Val( 1s)     0.39922       0.21764
 202    H 16  s      Ryd( 2s)     0.00068       0.83036
 
     Population inversion found on atom  C  1
     Population inversion found on atom  C  2
     Population inversion found on atom  C  3
     Population inversion found on atom  C  4
     Population inversion found on atom  C  5
     Population inversion found on atom  C  6
     Population inversion found on atom  C 11
     Population inversion found on atom  C 12
     Population inversion found on atom  N 14
     Population inversion found on atom  N 15


 Summary of Natural Population Analysis:

                                     Natural Population
             Natural    ---------------------------------------------
  Atom No    Charge        Core      Valence    Rydberg      Total
 --------------------------------------------------------------------
    C  1   -0.16708      0.99956     2.15636    0.01116     3.16708
    C  2   -0.21600      0.99954     2.20422    0.01224     3.21600
    C  3    0.08313      0.99950     1.90349    0.01388     2.91687
    C  4    0.08313      0.99950     1.90349    0.01388     2.91687
    C  5   -0.21600      0.99954     2.20422    0.01224     3.21600
    C  6   -0.16708      0.99956     2.15636    0.01116     3.16708
    H  7    0.10722      0.00000     0.39221    0.00057     0.39278
    H  8    0.11344      0.00000     0.38548    0.00108     0.38656
    H  9    0.11344      0.00000     0.38548    0.00108     0.38656
    H 10    0.10722      0.00000     0.39221    0.00057     0.39278
    C 11   -0.09575      0.99958     2.07477    0.02139     3.09575
    C 12   -0.09575      0.99958     2.07477    0.02139     3.09575
    H 13    0.10010      0.00000     0.39922    0.00068     0.39990
    N 14   -0.42506      0.99973     2.90928    0.01605     3.92506
    N 15   -0.42506      0.99973     2.90928    0.01605     3.92506
    H 16    0.10010      0.00000     0.39922    0.00068     0.39990
 ====================================================================
 * Total * -1.00000      9.99583    24.85005    0.15412    35.00000

                                 Natural Population      
 --------------------------------------------------------
   Core                       9.99583 ( 99.9583% of  10)
   Valence                   24.85005 ( 99.4002% of  25)
   Natural Minimal Basis     34.84588 ( 99.5597% of  35)
   Natural Rydberg Basis      0.15412 (  0.4403% of  35)
 --------------------------------------------------------

    Atom No         Natural Electron Configuration
 ----------------------------------------------------------------------------
      C  1      [core]2s( 0.48)2p( 1.68)4p( 0.01)
      C  2      [core]2s( 0.48)2p( 1.72)4p( 0.01)
      C  3      [core]2s( 0.43)2p( 1.48)4p( 0.01)
      C  4      [core]2s( 0.43)2p( 1.48)4p( 0.01)
      C  5      [core]2s( 0.48)2p( 1.72)4p( 0.01)
      C  6      [core]2s( 0.48)2p( 1.68)4p( 0.01)
      H  7            1s( 0.39)
      H  8            1s( 0.39)
      H  9            1s( 0.39)
      H 10            1s( 0.39)
      C 11      [core]2s( 0.47)2p( 1.60)3p( 0.01)4p( 0.01)
      C 12      [core]2s( 0.47)2p( 1.60)3p( 0.01)4p( 0.01)
      H 13            1s( 0.40)
      N 14      [core]2s( 0.70)2p( 2.21)3p( 0.01)
      N 15      [core]2s( 0.70)2p( 2.21)3p( 0.01)
      H 16            1s( 0.40)


 NATURAL BOND ORBITAL ANALYSIS, alpha spin orbitals:

                       Occupancies       Lewis Structure    Low   High
           Occ.    -------------------  -----------------   occ   occ
  Cycle   Thresh.   Lewis   Non-Lewis     CR  BD  3C  LP    (L)   (NL)   Dev
 =============================================================================
   1(1)    0.90    33.69441   1.30559     10  21   0   4     2      4    0.03
   2(2)    0.90    33.27101   1.72899     10  20   0   5     3      4    0.03
   3(3)    0.90    33.27101   1.72899     10  20   0   5     3      4    0.03
   4(4)    0.90    33.27101   1.72899     10  20   0   5     3      4    0.03
   5(5)    0.90    33.27101   1.72899     10  20   0   5     3      4    0.03
   6(6)    0.90    33.27101   1.72899     10  20   0   5     3      4    0.03
   7(7)    0.90    33.27101   1.72899     10  20   0   5     3      4    0.03
   8(8)    0.90    33.27101   1.72899     10  20   0   5     3      4    0.03
   9(9)    0.90    33.27101   1.72899     10  20   0   5     3      4    0.03
  10(1)    0.80    33.72519   1.27481     10  21   0   4     2      4    0.03
  11(2)    0.80    33.34538   1.65462     10  21   0   4     2      4    0.03
  12(3)    0.80    33.32168   1.67832     10  21   0   4     2      4    0.03
  13(4)    0.80    33.32168   1.67832     10  21   0   4     2      4    0.03
  14(5)    0.80    33.32168   1.67832     10  21   0   4     2      4    0.03
  15(6)    0.80    33.32168   1.67832     10  21   0   4     2      4    0.03
  16(7)    0.80    33.32168   1.67832     10  21   0   4     2      4    0.03
  17(8)    0.80    33.32168   1.67832     10  21   0   4     2      4    0.03
  18(9)    0.80    33.32168   1.67832     10  21   0   4     2      4    0.03
  19(1)    0.70    33.76566   1.23434     10  21   0   4     0      4    0.03
 -----------------------------------------------------------------------------

 Structure accepted: No low occupancy Lewis orbitals

 --------------------------------------------------------
   Core                      9.99584 ( 99.958% of  10)
   Valence Lewis            23.76982 ( 95.079% of  25)
  ==================       ============================
   Total Lewis              33.76566 ( 96.473% of  35)
  -----------------------------------------------------
   Valence non-Lewis         1.13412 (  3.240% of  35)
   Rydberg non-Lewis         0.10021 (  0.286% of  35)
  ==================       ============================
   Total non-Lewis           1.23434 (  3.527% of  35)
 --------------------------------------------------------


     (Occupancy)   Bond orbital/ Coefficients/ Hybrids
 -------------------------------------------------------------------------------
   1. (0.98988) BD ( 1) C  1- C  2       
               ( 50.00%)   0.7071* C  1 s( 35.28%)p 1.83( 64.65%)d 0.00(  0.06%)
                                         0.0000  0.5939  0.0074  0.0002 -0.0006
                                         0.4170  0.0376  0.0084  0.0000  0.0000
                                         0.0000 -0.6862 -0.0092  0.0129  0.0000
                                        -0.0157  0.0000  0.0081  0.0178
               ( 50.00%)   0.7071* C  2 s( 35.86%)p 1.79( 64.08%)d 0.00(  0.06%)
                                        -0.0001  0.5987  0.0132  0.0023 -0.0014
                                        -0.3847  0.0124  0.0111  0.0000  0.0000
                                         0.0000  0.7009  0.0358  0.0046  0.0000
                                        -0.0180  0.0000  0.0086  0.0141
   2. (0.86512) BD ( 2) C  1- C  2       
               ( 45.74%)   0.6763* C  1 s(  0.00%)p 1.00( 99.96%)d 0.00(  0.04%)
                                         0.0000  0.0000  0.0000  0.0000  0.0000
                                         0.0000  0.0000  0.0000  0.9994 -0.0263
                                         0.0113  0.0000  0.0000  0.0000  0.0020
                                         0.0000 -0.0190  0.0000  0.0000
               ( 54.26%)   0.7366* C  2 s(  0.00%)p 1.00( 99.97%)d 0.00(  0.03%)
                                         0.0000  0.0000  0.0000  0.0000  0.0000
                                         0.0000  0.0000  0.0000  0.9994 -0.0249
                                         0.0177  0.0000  0.0000  0.0000 -0.0156
                                         0.0000  0.0072  0.0000  0.0000
   3. (0.99006) BD ( 1) C  1- C  6       
               ( 50.00%)   0.7071* C  1 s( 35.38%)p 1.82( 64.56%)d 0.00(  0.06%)
                                         0.0000  0.5947  0.0088  0.0008 -0.0003
                                        -0.8020 -0.0264  0.0030  0.0000  0.0000
                                         0.0000  0.0260  0.0274  0.0134  0.0000
                                         0.0012  0.0000  0.0233 -0.0097
               ( 50.00%)   0.7071* C  6 s( 35.38%)p 1.82( 64.56%)d 0.00(  0.06%)
                                         0.0000  0.5947  0.0088  0.0008 -0.0003
                                         0.8020  0.0264 -0.0030  0.0000  0.0000
                                         0.0000  0.0260  0.0274  0.0134  0.0000
                                        -0.0012  0.0000  0.0233 -0.0097
   4. (0.99175) BD ( 1) C  1- H  7       
               ( 60.85%)   0.7801* C  1 s( 29.27%)p 2.41( 70.65%)d 0.00(  0.08%)
                                        -0.0003  0.5408 -0.0139 -0.0011  0.0007
                                         0.4241  0.0005 -0.0061  0.0000  0.0000
                                         0.0000  0.7256 -0.0025 -0.0098  0.0000
                                         0.0200  0.0000  0.0078  0.0177
               ( 39.15%)   0.6257* H  7 s(100.00%)
                                         1.0000  0.0026
   5. (0.98821) BD ( 1) C  2- C  3       
               ( 49.22%)   0.7015* C  2 s( 34.53%)p 1.89( 65.41%)d 0.00(  0.06%)
                                         0.0000  0.5876  0.0029 -0.0023 -0.0014
                                        -0.3835  0.0080  0.0120  0.0000  0.0000
                                         0.0000 -0.7112 -0.0320  0.0053  0.0000
                                         0.0180  0.0000  0.0080  0.0156
               ( 50.78%)   0.7126* C  3 s( 35.65%)p 1.80( 64.30%)d 0.00(  0.05%)
                                        -0.0003  0.5970  0.0040 -0.0027  0.0002
                                         0.3936  0.0207  0.0025  0.0000  0.0000
                                         0.0000  0.6981 -0.0175 -0.0058  0.0000
                                         0.0159  0.0000  0.0055  0.0148
   6. (0.99067) BD ( 1) C  2- H  8       
               ( 61.55%)   0.7845* C  2 s( 29.56%)p 2.38( 70.37%)d 0.00(  0.07%)
                                        -0.0003  0.5435 -0.0137  0.0007  0.0023
                                         0.8388  0.0002 -0.0111  0.0000  0.0000
                                         0.0000 -0.0034 -0.0017  0.0025  0.0000
                                        -0.0013  0.0000  0.0237 -0.0118
               ( 38.45%)   0.6201* H  8 s(100.00%)
                                         1.0000  0.0048
   7. (0.98708) BD ( 1) C  3- C  4       
               ( 50.00%)   0.7071* C  3 s( 33.68%)p 1.97( 66.26%)d 0.00(  0.06%)
                                        -0.0001  0.5800 -0.0203 -0.0012 -0.0008
                                        -0.8130  0.0082  0.0120  0.0000  0.0000
                                         0.0000 -0.0379  0.0018 -0.0037  0.0000
                                         0.0009  0.0000  0.0218 -0.0107
               ( 50.00%)   0.7071* C  4 s( 33.68%)p 1.97( 66.26%)d 0.00(  0.06%)
                                        -0.0001  0.5800 -0.0203 -0.0012 -0.0008
                                         0.8130 -0.0082 -0.0120  0.0000  0.0000
                                         0.0000 -0.0379  0.0018 -0.0037  0.0000
                                        -0.0009  0.0000  0.0218 -0.0107
   8. (0.71974) BD ( 2) C  3- C  4       
               ( 50.00%)   0.7071* C  3 s(  0.00%)p 1.00( 99.98%)d 0.00(  0.02%)
                                         0.0000  0.0000  0.0000  0.0000  0.0000
                                         0.0000  0.0000  0.0000  0.9996 -0.0137
                                         0.0190  0.0000  0.0000  0.0000 -0.0120
                                         0.0000  0.0061  0.0000  0.0000
               ( 50.00%)   0.7071* C  4 s(  0.00%)p 1.00( 99.98%)d 0.00(  0.02%)
                                         0.0000  0.0000  0.0000  0.0000  0.0000
                                         0.0000  0.0000  0.0000  0.9996 -0.0137
                                         0.0190  0.0000  0.0000  0.0000  0.0120
                                         0.0000  0.0061  0.0000  0.0000
   9. (0.99125) BD ( 1) C  3- N 15       
               ( 42.15%)   0.6492* C  3 s( 30.50%)p 2.28( 69.42%)d 0.00(  0.09%)
                                        -0.0001  0.5516  0.0246  0.0056  0.0017
                                         0.4266  0.0462  0.0012  0.0000  0.0000
                                         0.0000 -0.7140 -0.0124  0.0085  0.0000
                                        -0.0218  0.0000  0.0094  0.0180
               ( 57.85%)   0.7606* N 15 s( 33.56%)p 1.98( 66.28%)d 0.00(  0.16%)
                                        -0.0001  0.5788 -0.0233 -0.0032 -0.0005
                                        -0.3950  0.0088  0.0080  0.0000  0.0000
                                         0.0000  0.7112  0.0277 -0.0075  0.0000
                                        -0.0328  0.0000  0.0187  0.0113
  10. (0.98821) BD ( 1) C  4- C  5       
               ( 50.78%)   0.7126* C  4 s( 35.65%)p 1.80( 64.30%)d 0.00(  0.05%)
                                         0.0003 -0.5970 -0.0040  0.0027 -0.0002
                                         0.3936  0.0207  0.0025  0.0000  0.0000
                                         0.0000 -0.6981  0.0175  0.0058  0.0000
                                         0.0159  0.0000 -0.0055 -0.0148
               ( 49.22%)   0.7015* C  5 s( 34.53%)p 1.89( 65.41%)d 0.00(  0.06%)
                                         0.0000 -0.5876 -0.0029  0.0023  0.0014
                                        -0.3835  0.0080  0.0120  0.0000  0.0000
                                         0.0000  0.7112  0.0320 -0.0053  0.0000
                                         0.0180  0.0000 -0.0080 -0.0156
  11. (0.99125) BD ( 1) C  4- N 14       
               ( 42.15%)   0.6492* C  4 s( 30.50%)p 2.28( 69.42%)d 0.00(  0.09%)
                                        -0.0001  0.5516  0.0246  0.0056  0.0017
                                        -0.4266 -0.0462 -0.0012  0.0000  0.0000
                                         0.0000 -0.7140 -0.0124  0.0085  0.0000
                                         0.0218  0.0000  0.0094  0.0180
               ( 57.85%)   0.7606* N 14 s( 33.56%)p 1.98( 66.28%)d 0.00(  0.16%)
                                        -0.0001  0.5788 -0.0233 -0.0032 -0.0005
                                         0.3950 -0.0088 -0.0080  0.0000  0.0000
                                         0.0000  0.7112  0.0277 -0.0075  0.0000
                                         0.0328  0.0000  0.0187  0.0113
  12. (0.98988) BD ( 1) C  5- C  6       
               ( 50.00%)   0.7071* C  5 s( 35.86%)p 1.79( 64.08%)d 0.00(  0.06%)
                                        -0.0001  0.5987  0.0132  0.0023 -0.0014
                                         0.3847 -0.0124 -0.0111  0.0000  0.0000
                                         0.0000  0.7009  0.0358  0.0046  0.0000
                                         0.0180  0.0000  0.0086  0.0141
               ( 50.00%)   0.7071* C  6 s( 35.28%)p 1.83( 64.65%)d 0.00(  0.06%)
                                         0.0000  0.5939  0.0074  0.0002 -0.0006
                                        -0.4170 -0.0376 -0.0084  0.0000  0.0000
                                         0.0000 -0.6862 -0.0092  0.0129  0.0000
                                         0.0157  0.0000  0.0081  0.0178
  13. (0.86512) BD ( 2) C  5- C  6       
               ( 54.26%)   0.7366* C  5 s(  0.00%)p 1.00( 99.97%)d 0.00(  0.03%)
                                         0.0000  0.0000  0.0000  0.0000  0.0000
                                         0.0000  0.0000  0.0000  0.9994 -0.0249
                                         0.0177  0.0000  0.0000  0.0000  0.0156
                                         0.0000  0.0072  0.0000  0.0000
               ( 45.74%)   0.6763* C  6 s(  0.00%)p 1.00( 99.96%)d 0.00(  0.04%)
                                         0.0000  0.0000  0.0000  0.0000  0.0000
                                         0.0000  0.0000  0.0000  0.9994 -0.0263
                                         0.0113  0.0000  0.0000  0.0000 -0.0020
                                         0.0000 -0.0190  0.0000  0.0000
  14. (0.99067) BD ( 1) C  5- H  9       
               ( 61.55%)   0.7845* C  5 s( 29.56%)p 2.38( 70.37%)d 0.00(  0.07%)
                                         0.0003 -0.5435  0.0137 -0.0007 -0.0023
                                         0.8388  0.0002 -0.0111  0.0000  0.0000
                                         0.0000  0.0034  0.0017 -0.0025  0.0000
                                        -0.0013  0.0000 -0.0237  0.0118
               ( 38.45%)   0.6201* H  9 s(100.00%)
                                        -1.0000 -0.0048
  15. (0.99175) BD ( 1) C  6- H 10       
               ( 60.85%)   0.7801* C  6 s( 29.27%)p 2.41( 70.65%)d 0.00(  0.08%)
                                        -0.0003  0.5408 -0.0139 -0.0011  0.0007
                                        -0.4241 -0.0005  0.0061  0.0000  0.0000
                                         0.0000  0.7256 -0.0025 -0.0098  0.0000
                                        -0.0200  0.0000  0.0078  0.0177
               ( 39.15%)   0.6257* H 10 s(100.00%)
                                         1.0000  0.0026
  16. (0.99509) BD ( 1) C 11- C 12       
               ( 50.00%)   0.7071* C 11 s( 38.38%)p 1.60( 61.55%)d 0.00(  0.07%)
                                         0.0001  0.6195 -0.0037  0.0007 -0.0045
                                         0.7833  0.0284 -0.0033  0.0000  0.0000
                                         0.0000  0.0136 -0.0282 -0.0119  0.0000
                                         0.0027  0.0000  0.0225 -0.0128
               ( 50.00%)   0.7071* C 12 s( 38.38%)p 1.60( 61.55%)d 0.00(  0.07%)
                                         0.0001  0.6195 -0.0037  0.0007 -0.0045
                                        -0.7833 -0.0284  0.0033  0.0000  0.0000
                                         0.0000  0.0136 -0.0282 -0.0119  0.0000
                                        -0.0027  0.0000  0.0225 -0.0128
  17. (0.97660) BD ( 2) C 11- C 12       
               ( 50.00%)   0.7071* C 11 s(  0.00%)p 1.00( 99.93%)d 0.00(  0.07%)
                                         0.0000  0.0000  0.0000  0.0000  0.0000
                                         0.0000  0.0000  0.0000  0.9967 -0.0704
                                         0.0294  0.0000  0.0000  0.0000  0.0266
                                         0.0000 -0.0030  0.0000  0.0000
               ( 50.00%)   0.7071* C 12 s(  0.00%)p 1.00( 99.93%)d 0.00(  0.07%)
                                         0.0000  0.0000  0.0000  0.0000  0.0000
                                         0.0000  0.0000  0.0000  0.9967 -0.0704
                                         0.0294  0.0000  0.0000  0.0000 -0.0266
                                         0.0000 -0.0030  0.0000  0.0000
  18. (0.99070) BD ( 1) C 11- H 13       
               ( 60.35%)   0.7769* C 11 s( 30.24%)p 2.30( 69.68%)d 0.00(  0.08%)
                                         0.0005 -0.5497  0.0152  0.0014 -0.0035
                                         0.4211  0.0083 -0.0038  0.0000  0.0000
                                         0.0000  0.7204 -0.0139 -0.0157  0.0000
                                        -0.0213  0.0000 -0.0065 -0.0176
               ( 39.65%)   0.6296* H 13 s(100.00%)
                                        -1.0000 -0.0046
  19. (0.99256) BD ( 1) C 11- N 14       
               ( 40.88%)   0.6393* C 11 s( 31.33%)p 2.19( 68.56%)d 0.00(  0.11%)
                                         0.0000  0.5590  0.0279  0.0020  0.0010
                                        -0.4507 -0.0679 -0.0224  0.0000  0.0000
                                         0.0000  0.6903  0.0276 -0.0120  0.0000
                                        -0.0242  0.0000  0.0103  0.0194
               ( 59.12%)   0.7689* N 14 s( 34.55%)p 1.89( 65.29%)d 0.00(  0.16%)
                                        -0.0001  0.5868 -0.0329  0.0004 -0.0002
                                         0.4018 -0.0164 -0.0078  0.0000  0.0000
                                         0.0000 -0.6998 -0.0377 -0.0002  0.0000
                                        -0.0330  0.0000  0.0204  0.0103
  20. (0.99256) BD ( 1) C 12- N 15       
               ( 40.88%)   0.6393* C 12 s( 31.33%)p 2.19( 68.56%)d 0.00(  0.11%)
                                         0.0000  0.5590  0.0279  0.0020  0.0010
                                         0.4507  0.0679  0.0224  0.0000  0.0000
                                         0.0000  0.6903  0.0276 -0.0120  0.0000
                                         0.0242  0.0000  0.0103  0.0194
               ( 59.12%)   0.7689* N 15 s( 34.55%)p 1.89( 65.29%)d 0.00(  0.16%)
                                        -0.0001  0.5868 -0.0329  0.0004 -0.0002
                                        -0.4018  0.0164  0.0078  0.0000  0.0000
                                         0.0000 -0.6998 -0.0377 -0.0002  0.0000
                                         0.0330  0.0000  0.0204  0.0103
  21. (0.99070) BD ( 1) C 12- H 16       
               ( 60.35%)   0.7769* C 12 s( 30.24%)p 2.30( 69.68%)d 0.00(  0.08%)
                                         0.0005 -0.5497  0.0152  0.0014 -0.0035
                                        -0.4211 -0.0083  0.0038  0.0000  0.0000
                                         0.0000  0.7204 -0.0139 -0.0157  0.0000
                                         0.0213  0.0000 -0.0065 -0.0176
               ( 39.65%)   0.6296* H 16 s(100.00%)
                                        -1.0000 -0.0046
  22. (0.99956) CR ( 1) C  1             s(100.00%)p 0.00(  0.00%)
                                         1.0000  0.0002  0.0000  0.0000  0.0000
                                         0.0001  0.0000  0.0000  0.0000  0.0000
                                         0.0000  0.0002  0.0000  0.0000  0.0000
                                         0.0000  0.0000  0.0000  0.0000
  23. (0.99955) CR ( 1) C  2             s(100.00%)p 0.00(  0.00%)
                                         1.0000  0.0002  0.0000  0.0000  0.0000
                                         0.0003  0.0000  0.0000  0.0000  0.0000
                                         0.0000  0.0000  0.0000  0.0000  0.0000
                                         0.0000  0.0000  0.0000  0.0000
  24. (0.99949) CR ( 1) C  3             s(100.00%)p 0.00(  0.00%)
                                         1.0000  0.0003  0.0000  0.0000  0.0000
                                         0.0000  0.0000  0.0000  0.0000  0.0000
                                         0.0000  0.0001  0.0000  0.0000  0.0000
                                         0.0000  0.0000  0.0000  0.0000
  25. (0.99949) CR ( 1) C  4             s(100.00%)p 0.00(  0.00%)
                                         1.0000  0.0003  0.0000  0.0000  0.0000
                                         0.0000  0.0000  0.0000  0.0000  0.0000
                                         0.0000  0.0001  0.0000  0.0000  0.0000
                                         0.0000  0.0000  0.0000  0.0000
  26. (0.99955) CR ( 1) C  5             s(100.00%)p 0.00(  0.00%)
                                         1.0000  0.0002  0.0000  0.0000  0.0000
                                        -0.0003  0.0000  0.0000  0.0000  0.0000
                                         0.0000  0.0000  0.0000  0.0000  0.0000
                                         0.0000  0.0000  0.0000  0.0000
  27. (0.99956) CR ( 1) C  6             s(100.00%)p 0.00(  0.00%)
                                         1.0000  0.0002  0.0000  0.0000  0.0000
                                        -0.0001  0.0000  0.0000  0.0000  0.0000
                                         0.0000  0.0002  0.0000  0.0000  0.0000
                                         0.0000  0.0000  0.0000  0.0000
  28. (0.99959) CR ( 1) C 11             s(100.00%)p 0.00(  0.00%)
                                         1.0000  0.0003  0.0000  0.0000  0.0000
                                        -0.0003  0.0000  0.0000  0.0000  0.0000
                                         0.0000 -0.0003  0.0000  0.0000  0.0000
                                         0.0000  0.0000  0.0000  0.0000
  29. (0.99959) CR ( 1) C 12             s(100.00%)p 0.00(  0.00%)
                                         1.0000  0.0003  0.0000  0.0000  0.0000
                                         0.0003  0.0000  0.0000  0.0000  0.0000
                                         0.0000 -0.0003  0.0000  0.0000  0.0000
                                         0.0000  0.0000  0.0000  0.0000
  30. (0.99973) CR ( 1) N 14             s(100.00%)
                                         1.0000  0.0002  0.0000  0.0000  0.0000
                                        -0.0001  0.0000  0.0000  0.0000  0.0000
                                         0.0000  0.0000  0.0000  0.0000  0.0000
                                         0.0000  0.0000  0.0000  0.0000
  31. (0.99973) CR ( 1) N 15             s(100.00%)
                                         1.0000  0.0002  0.0000  0.0000  0.0000
                                         0.0001  0.0000  0.0000  0.0000  0.0000
                                         0.0000  0.0000  0.0000  0.0000  0.0000
                                         0.0000  0.0000  0.0000  0.0000
  32. (0.96285) LP ( 1) N 14             s( 32.07%)p 2.11( 67.82%)d 0.00(  0.11%)
                                        -0.0002  0.5654  0.0326  0.0012  0.0003
                                        -0.8230  0.0271 -0.0061  0.0000  0.0000
                                         0.0000 -0.0011 -0.0007 -0.0024  0.0000
                                         0.0000  0.0000 -0.0301  0.0145
  33. (0.78764) LP ( 2) N 14             s(  0.00%)p 1.00( 99.85%)d 0.00(  0.15%)
                                         0.0000  0.0000  0.0000  0.0000  0.0000
                                         0.0000  0.0000  0.0000  0.9993 -0.0030
                                        -0.0011  0.0000  0.0000  0.0000  0.0384
                                         0.0000  0.0008  0.0000  0.0000
  34. (0.96285) LP ( 1) N 15             s( 32.07%)p 2.11( 67.82%)d 0.00(  0.11%)
                                        -0.0002  0.5654  0.0326  0.0012  0.0003
                                         0.8230 -0.0271  0.0061  0.0000  0.0000
                                         0.0000 -0.0011 -0.0007 -0.0024  0.0000
                                         0.0000  0.0000 -0.0301  0.0145
  35. (0.78764) LP ( 2) N 15             s(  0.00%)p 1.00( 99.85%)d 0.00(  0.15%)
                                         0.0000  0.0000  0.0000  0.0000  0.0000
                                         0.0000  0.0000  0.0000  0.9993 -0.0030
                                        -0.0011  0.0000  0.0000  0.0000 -0.0384
                                         0.0000  0.0008  0.0000  0.0000
  36. (0.00274) RY*( 1) C  1             s(  0.00%)p 1.00( 91.34%)d 0.09(  8.66%)
                                         0.0000  0.0000  0.0000  0.0000  0.0000
                                         0.0000  0.0000  0.0000  0.0221  0.8702
                                        -0.3946  0.0000  0.0000  0.0000  0.1363
                                         0.0000 -0.2607  0.0000  0.0000
  37. (0.00226) RY*( 2) C  1             s(  0.54%)p99.99( 92.47%)d12.83(  6.99%)
                                         0.0000  0.0113  0.0628  0.0170  0.0330
                                        -0.0099 -0.4505 -0.0925  0.0000  0.0000
                                         0.0000 -0.0154 -0.8343 -0.1299  0.0000
                                         0.2324  0.0000 -0.0405  0.1192
  38. (0.00139) RY*( 3) C  1             s(  0.17%)p99.99( 99.41%)d 2.48(  0.42%)
                                         0.0000 -0.0010  0.0400  0.0101 -0.0016
                                        -0.0412  0.8031  0.3446  0.0000  0.0000
                                         0.0000  0.0236 -0.4380 -0.1904  0.0000
                                         0.0323  0.0000  0.0355 -0.0439
  39. (0.00039) RY*( 4) C  1             s(  0.00%)p 1.00(  7.82%)d11.80( 92.18%)
                                         0.0000  0.0000  0.0000  0.0000  0.0000
                                         0.0000  0.0000  0.0000 -0.0175 -0.2784
                                        -0.0191  0.0000  0.0000  0.0000  0.8420
                                         0.0000 -0.4614  0.0000  0.0000
  40. (0.00016) RY*( 5) C  1             s( 91.24%)p 0.06(  5.67%)d 0.03(  3.09%)
                                         0.0000 -0.0023  0.9454 -0.1353  0.0174
                                         0.0121  0.0325 -0.1964  0.0000  0.0000
                                         0.0000  0.0119  0.0561 -0.1169  0.0000
                                        -0.0496  0.0000  0.1333 -0.1034
  41. (0.00007) RY*( 6) C  1             s( 13.36%)p 6.46( 86.34%)d 0.02(  0.30%)
  42. (0.00007) RY*( 7) C  1             s(  3.02%)p 0.30(  0.90%)d31.86( 96.09%)
  43. (0.00002) RY*( 8) C  1             s( 23.84%)p 3.07( 73.22%)d 0.12(  2.94%)
  44. (0.00003) RY*( 9) C  1             s( 81.06%)p 0.06(  4.87%)d 0.17( 14.07%)
  45. (0.00001) RY*(10) C  1             s( 71.17%)p 0.39( 28.05%)d 0.01(  0.77%)
  46. (0.00001) RY*(11) C  1             s(  9.26%)p 0.95(  8.78%)d 8.85( 81.96%)
  47. (0.00000) RY*(12) C  1             s(  0.00%)p 1.00(  2.52%)d38.70( 97.48%)
  48. (0.00001) RY*(13) C  1             s(  6.40%)p 0.07(  0.43%)d14.56( 93.17%)
  49. (0.00001) RY*(14) C  1             s(  0.00%)p 1.00( 98.36%)d 0.02(  1.64%)
  50. (0.00272) RY*( 1) C  2             s(  0.00%)p 1.00( 97.89%)d 0.02(  2.11%)
                                         0.0000  0.0000  0.0000  0.0000  0.0000
                                         0.0000  0.0000  0.0000  0.0254  0.9765
                                        -0.1574  0.0000  0.0000  0.0000 -0.0484
                                         0.0000  0.1370  0.0000  0.0000
  51. (0.00262) RY*( 2) C  2             s(  0.95%)p99.59( 95.05%)d 4.19(  4.00%)
                                         0.0000  0.0086  0.0278  0.0933  0.0005
                                        -0.0112 -0.8343 -0.1021  0.0000  0.0000
                                         0.0000 -0.0214  0.4812  0.1092  0.0000
                                        -0.0012  0.0000  0.1132 -0.1648
  52. (0.00184) RY*( 3) C  2             s(  1.11%)p87.02( 96.88%)d 1.81(  2.01%)
                                         0.0000  0.0087  0.0946 -0.0408  0.0208
                                        -0.0103 -0.4629 -0.1420  0.0000  0.0000
                                         0.0000  0.0382 -0.8293 -0.2121  0.0000
                                        -0.0808  0.0000  0.0751 -0.0891
  53. (0.00036) RY*( 4) C  2             s( 67.50%)p 0.42( 28.41%)d 0.06(  4.09%)
                                         0.0000 -0.0023  0.8015  0.1427  0.1109
                                         0.0210  0.0128  0.3343  0.0000  0.0000
                                         0.0000 -0.0175  0.1326 -0.3923  0.0000
                                        -0.1919  0.0000 -0.0175  0.0612
  54. (0.00027) RY*( 5) C  2             s(  0.00%)p 1.00( 13.13%)d 6.62( 86.87%)
                                         0.0000  0.0000  0.0000  0.0000  0.0000
                                         0.0000  0.0000  0.0000 -0.0136 -0.0693
                                         0.3554  0.0000  0.0000  0.0000  0.0699
[...]
                                         0.0000  0.0000  0.0000  0.0000  0.0000
                                         0.0000  0.0000  0.0000 -0.0212  0.9103
                                        -0.2678  0.0000  0.0000  0.0000 -0.1167
                                         0.0000  0.2926  0.0000  0.0000
 169. (0.00030) RY*( 4) N 15             s( 69.36%)p 0.37( 25.90%)d 0.07(  4.74%)
                                         0.0000  0.0203  0.8270 -0.0459  0.0848
                                        -0.0375  0.3564 -0.2236  0.0000  0.0000
                                         0.0000 -0.0115  0.1538  0.2385  0.0000
                                        -0.0480  0.0000 -0.2018  0.0661
 170. (0.00019) RY*( 5) N 15             s(  0.00%)p 1.00( 10.26%)d 8.75( 89.74%)
                                         0.0000  0.0000  0.0000  0.0000  0.0000
                                         0.0000  0.0000  0.0000  0.0010 -0.2250
                                         0.2279  0.0000  0.0000  0.0000  0.0870
                                         0.0000  0.9433  0.0000  0.0000
 171. (0.00012) RY*( 6) N 15             s(  3.83%)p15.22( 58.27%)d 9.90( 37.91%)
                                         0.0000 -0.0005  0.1577 -0.1114 -0.0319
                                        -0.0040  0.1200  0.0024  0.0000  0.0000
                                         0.0000  0.0168  0.1656 -0.7352  0.0000
                                         0.6152  0.0000 -0.0236 -0.0048
 172. (0.00009) RY*( 7) N 15             s(  3.21%)p27.18( 87.25%)d 2.97(  9.54%)
 173. (0.00002) RY*( 8) N 15             s(  9.58%)p 3.72( 35.58%)d 5.73( 54.84%)
 174. (0.00001) RY*( 9) N 15             s( 96.91%)p 0.03(  2.87%)d 0.00(  0.21%)
 175. (0.00000) RY*(10) N 15             s(  0.00%)p 1.00(  2.08%)d47.16( 97.92%)
 176. (0.00000) RY*(11) N 15             s(  0.00%)p 1.00( 97.78%)d 0.02(  2.22%)
 177. (0.00000) RY*(12) N 15             s( 91.96%)p 0.03(  2.34%)d 0.06(  5.70%)
 178. (0.00000) RY*(13) N 15             s(  4.66%)p 0.76(  3.55%)d19.71( 91.80%)
 179. (0.00001) RY*(14) N 15             s(  0.31%)p23.55(  7.24%)d99.99( 92.46%)
 180. (0.00071) RY*( 1) H 16             s(100.00%)
                                        -0.0037  1.0000
 181. (0.00700) BD*( 1) C  1- C  2       
               ( 49.78%)   0.7056* C  1 s( 35.40%)p 1.82( 64.54%)d 0.00(  0.07%)
                                         0.0001 -0.5949 -0.0067 -0.0002  0.0007
                                        -0.4170 -0.0375 -0.0081  0.0000  0.0000
                                         0.0000  0.6854  0.0091 -0.0129  0.0000
                                         0.0161  0.0000 -0.0085 -0.0183
               ( 50.22%)  -0.7087* C  2 s( 35.90%)p 1.78( 64.04%)d 0.00(  0.07%)
                                         0.0001 -0.5990 -0.0138 -0.0026  0.0012
                                         0.3846 -0.0123 -0.0109  0.0000  0.0000
                                         0.0000 -0.7006 -0.0357 -0.0048  0.0000
                                         0.0182  0.0000 -0.0102 -0.0152
 182. (0.13369) BD*( 2) C  1- C  2       
               ( 47.64%)   0.6902* C  1 s(  0.00%)p 1.00( 99.97%)d 0.00(  0.03%)
                                         0.0000  0.0000  0.0000  0.0000  0.0000
                                         0.0000  0.0000  0.0000 -0.9988  0.0419
                                        -0.0155  0.0000  0.0000  0.0000 -0.0025
                                         0.0000  0.0183  0.0000  0.0000
               ( 52.36%)  -0.7236* C  2 s(  0.00%)p 1.00( 99.96%)d 0.00(  0.04%)
                                         0.0000  0.0000  0.0000  0.0000  0.0000
                                         0.0000  0.0000  0.0000 -0.9991  0.0298
                                        -0.0212  0.0000  0.0000  0.0000  0.0163
                                         0.0000 -0.0118  0.0000  0.0000
 183. (0.00818) BD*( 1) C  1- C  6       
               ( 50.00%)   0.7071* C  1 s( 35.33%)p 1.83( 64.60%)d 0.00(  0.07%)
                                         0.0000  0.5943  0.0100  0.0007  0.0000
                                        -0.8023 -0.0267  0.0029  0.0000  0.0000
                                         0.0000  0.0263  0.0275  0.0133  0.0000
                                         0.0015  0.0000  0.0244 -0.0088
               ( 50.00%)  -0.7071* C  6 s( 35.33%)p 1.83( 64.60%)d 0.00(  0.07%)
                                         0.0000  0.5943  0.0100  0.0007  0.0000
                                         0.8023  0.0267 -0.0029  0.0000  0.0000
                                         0.0000  0.0263  0.0275  0.0133  0.0000
                                        -0.0015  0.0000  0.0244 -0.0088
 184. (0.00652) BD*( 1) C  1- H  7       
               ( 39.31%)   0.6270* C  1 s( 29.20%)p 2.42( 70.72%)d 0.00(  0.08%)
                                         0.0003 -0.5402  0.0131  0.0012 -0.0010
                                        -0.4236  0.0000  0.0063  0.0000  0.0000
                                         0.0000 -0.7264  0.0022  0.0097  0.0000
                                        -0.0200  0.0000 -0.0085 -0.0179
               ( 60.69%)  -0.7790* H  7 s(100.00%)
                                        -1.0000 -0.0021
 185. (0.01133) BD*( 1) C  2- C  3       
               ( 51.14%)   0.7151* C  2 s( 34.46%)p 1.90( 65.47%)d 0.00(  0.07%)
                                         0.0000  0.5870  0.0049 -0.0022 -0.0011
                                        -0.3839  0.0076  0.0117  0.0000  0.0000
                                         0.0000 -0.7114 -0.0326  0.0050  0.0000
                                         0.0179  0.0000  0.0104  0.0166
               ( 48.86%)  -0.6990* C  3 s( 35.63%)p 1.80( 64.31%)d 0.00(  0.05%)
                                        -0.0003  0.5969  0.0042 -0.0031  0.0001
                                         0.3920  0.0203  0.0023  0.0000  0.0000
                                         0.0000  0.6991 -0.0168 -0.0060  0.0000
                                         0.0160  0.0000  0.0056  0.0148
 186. (0.00756) BD*( 1) C  2- H  8       
               ( 38.84%)   0.6232* C  2 s( 29.57%)p 2.38( 70.35%)d 0.00(  0.08%)
                                         0.0003 -0.5436  0.0122 -0.0008 -0.0027
                                        -0.8387 -0.0002  0.0111  0.0000  0.0000
                                         0.0000  0.0040  0.0023 -0.0024  0.0000
                                         0.0012  0.0000 -0.0254  0.0108
               ( 61.16%)  -0.7820* H  8 s(100.00%)
                                        -1.0000 -0.0037
 187. (0.02757) BD*( 1) C  3- C  4       
               ( 50.00%)   0.7071* C  3 s( 33.56%)p 1.98( 66.39%)d 0.00(  0.06%)
                                         0.0001 -0.5789  0.0204  0.0010  0.0009
                                         0.8138 -0.0081 -0.0121  0.0000  0.0000
                                         0.0000  0.0381 -0.0022  0.0037  0.0000
                                        -0.0010  0.0000 -0.0211  0.0109
               ( 50.00%)  -0.7071* C  4 s( 33.56%)p 1.98( 66.39%)d 0.00(  0.06%)
                                         0.0001 -0.5789  0.0204  0.0010  0.0009
                                        -0.8138  0.0081  0.0121  0.0000  0.0000
                                         0.0000  0.0381 -0.0022  0.0037  0.0000
                                         0.0010  0.0000 -0.0211  0.0109
 188. (0.00966) BD*( 1) C  3- N 15       
               ( 57.05%)   0.7553* C  3 s( 30.64%)p 2.26( 69.27%)d 0.00(  0.09%)
                                        -0.0001  0.5530  0.0234  0.0052  0.0017
                                         0.4266  0.0456  0.0011  0.0000  0.0000
                                         0.0000 -0.7130 -0.0124  0.0085  0.0000
                                        -0.0222  0.0000  0.0092  0.0178
               ( 42.95%)  -0.6553* N 15 s( 33.91%)p 1.94( 65.92%)d 0.01(  0.18%)
                                        -0.0001  0.5818 -0.0241 -0.0026 -0.0003
                                        -0.3896  0.0081  0.0076  0.0000  0.0000
                                         0.0000  0.7117  0.0276 -0.0073  0.0000
                                        -0.0326  0.0000  0.0225  0.0135
 189. (0.22336) BD*( 2) C  3- N 15       
               ( 51.64%)   0.7186* C  3 s(  0.00%)p 1.00( 99.97%)d 0.00(  0.03%)
                                         0.0000  0.0000  0.0000  0.0000  0.0000
                                         0.0000  0.0000  0.0000  0.9997 -0.0123
                                         0.0137  0.0000  0.0000  0.0000  0.0073
                                         0.0000 -0.0166  0.0000  0.0000
               ( 48.36%)  -0.6954* N 15 s(  0.00%)p 1.00( 99.81%)d 0.00(  0.19%)
                                         0.0000  0.0000  0.0000  0.0000  0.0000
                                         0.0000  0.0000  0.0000  0.9989  0.0180
                                         0.0068  0.0000  0.0000  0.0000 -0.0430
                                         0.0000  0.0056  0.0000  0.0000
 190. (0.01133) BD*( 1) C  4- C  5       
               ( 48.86%)   0.6990* C  4 s( 35.63%)p 1.80( 64.31%)d 0.00(  0.05%)
                                        -0.0003  0.5969  0.0042 -0.0031  0.0001
                                        -0.3920 -0.0203 -0.0023  0.0000  0.0000
                                         0.0000  0.6991 -0.0168 -0.0060  0.0000
                                        -0.0160  0.0000  0.0056  0.0148
               ( 51.14%)  -0.7151* C  5 s( 34.46%)p 1.90( 65.47%)d 0.00(  0.07%)
                                         0.0000  0.5870  0.0049 -0.0022 -0.0011
                                         0.3839 -0.0076 -0.0117  0.0000  0.0000
                                         0.0000 -0.7114 -0.0326  0.0050  0.0000
                                        -0.0179  0.0000  0.0104  0.0166
 191. (0.00966) BD*( 1) C  4- N 14       
               ( 57.05%)   0.7553* C  4 s( 30.64%)p 2.26( 69.27%)d 0.00(  0.09%)
                                        -0.0001  0.5530  0.0234  0.0052  0.0017
                                        -0.4266 -0.0456 -0.0011  0.0000  0.0000
                                         0.0000 -0.7130 -0.0124  0.0085  0.0000
                                         0.0222  0.0000  0.0092  0.0178
               ( 42.95%)  -0.6553* N 14 s( 33.91%)p 1.94( 65.92%)d 0.01(  0.18%)
                                        -0.0001  0.5818 -0.0241 -0.0026 -0.0003
                                         0.3896 -0.0081 -0.0076  0.0000  0.0000
                                         0.0000  0.7117  0.0276 -0.0073  0.0000
                                         0.0326  0.0000  0.0225  0.0135
 192. (0.22336) BD*( 2) C  4- N 14       
               ( 51.64%)   0.7186* C  4 s(  0.00%)p 1.00( 99.97%)d 0.00(  0.03%)
                                         0.0000  0.0000  0.0000  0.0000  0.0000
                                         0.0000  0.0000  0.0000  0.9997 -0.0123
                                         0.0137  0.0000  0.0000  0.0000 -0.0073
                                         0.0000 -0.0166  0.0000  0.0000
               ( 48.36%)  -0.6954* N 14 s(  0.00%)p 1.00( 99.81%)d 0.00(  0.19%)
                                         0.0000  0.0000  0.0000  0.0000  0.0000
                                         0.0000  0.0000  0.0000  0.9989  0.0180
                                         0.0068  0.0000  0.0000  0.0000  0.0430
                                         0.0000  0.0056  0.0000  0.0000
 193. (0.00700) BD*( 1) C  5- C  6       
               ( 50.22%)   0.7087* C  5 s( 35.90%)p 1.78( 64.04%)d 0.00(  0.07%)
                                        -0.0001  0.5990  0.0138  0.0026 -0.0012
                                         0.3846 -0.0123 -0.0109  0.0000  0.0000
                                         0.0000  0.7006  0.0357  0.0048  0.0000
                                         0.0182  0.0000  0.0102  0.0152
               ( 49.78%)  -0.7056* C  6 s( 35.40%)p 1.82( 64.54%)d 0.00(  0.07%)
                                        -0.0001  0.5949  0.0067  0.0002 -0.0007
                                        -0.4170 -0.0375 -0.0081  0.0000  0.0000
                                         0.0000 -0.6854 -0.0091  0.0129  0.0000
                                         0.0161  0.0000  0.0085  0.0183
 194. (0.13369) BD*( 2) C  5- C  6       
               ( 52.36%)   0.7236* C  5 s(  0.00%)p 1.00( 99.96%)d 0.00(  0.04%)
                                         0.0000  0.0000  0.0000  0.0000  0.0000
                                         0.0000  0.0000  0.0000  0.9991 -0.0298
                                         0.0212  0.0000  0.0000  0.0000  0.0163
                                         0.0000  0.0118  0.0000  0.0000
               ( 47.64%)  -0.6902* C  6 s(  0.00%)p 1.00( 99.97%)d 0.00(  0.03%)
                                         0.0000  0.0000  0.0000  0.0000  0.0000
                                         0.0000  0.0000  0.0000  0.9988 -0.0419
                                         0.0155  0.0000  0.0000  0.0000 -0.0025
                                         0.0000 -0.0183  0.0000  0.0000
 195. (0.00756) BD*( 1) C  5- H  9       
               ( 38.84%)   0.6232* C  5 s( 29.57%)p 2.38( 70.35%)d 0.00(  0.08%)
                                        -0.0003  0.5436 -0.0122  0.0008  0.0027
                                        -0.8387 -0.0002  0.0111  0.0000  0.0000
                                         0.0000 -0.0040 -0.0023  0.0024  0.0000
                                         0.0012  0.0000  0.0254 -0.0108
               ( 61.16%)  -0.7820* H  9 s(100.00%)
                                         1.0000  0.0037
 196. (0.00652) BD*( 1) C  6- H 10       
               ( 39.31%)   0.6270* C  6 s( 29.20%)p 2.42( 70.72%)d 0.00(  0.08%)
                                         0.0003 -0.5402  0.0131  0.0012 -0.0010
                                         0.4236  0.0000 -0.0063  0.0000  0.0000
                                         0.0000 -0.7264  0.0022  0.0097  0.0000
                                         0.0200  0.0000 -0.0085 -0.0179
               ( 60.69%)  -0.7790* H 10 s(100.00%)
                                        -1.0000 -0.0021
 197. (0.01826) BD*( 1) C 11- C 12       
               ( 50.00%)   0.7071* C 11 s( 38.35%)p 1.61( 61.58%)d 0.00(  0.07%)
                                        -0.0001 -0.6192  0.0017 -0.0009  0.0045
                                        -0.7834 -0.0295  0.0029  0.0000  0.0000
                                         0.0000 -0.0130  0.0287  0.0114  0.0000
                                        -0.0032  0.0000 -0.0244  0.0110
               ( 50.00%)  -0.7071* C 12 s( 38.35%)p 1.61( 61.58%)d 0.00(  0.07%)
                                        -0.0001 -0.6192  0.0017 -0.0009  0.0045
                                         0.7834  0.0295 -0.0029  0.0000  0.0000
                                         0.0000 -0.0130  0.0287  0.0114  0.0000
                                         0.0032  0.0000 -0.0244  0.0110
 198. (0.18872) BD*( 2) C 11- C 12       
               ( 50.00%)   0.7071* C 11 s(  0.00%)p 1.00( 99.97%)d 0.00(  0.03%)
                                         0.0000  0.0000  0.0000  0.0000  0.0000
                                         0.0000  0.0000  0.0000  0.9993 -0.0323
                                         0.0057  0.0000  0.0000  0.0000  0.0130
                                         0.0000  0.0132  0.0000  0.0000
               ( 50.00%)  -0.7071* C 12 s(  0.00%)p 1.00( 99.97%)d 0.00(  0.03%)
                                         0.0000  0.0000  0.0000  0.0000  0.0000
                                         0.0000  0.0000  0.0000  0.9993 -0.0323
                                         0.0057  0.0000  0.0000  0.0000 -0.0130
                                         0.0000  0.0132  0.0000  0.0000
 199. (0.01104) BD*( 1) C 11- H 13       
               ( 39.95%)   0.6320* C 11 s( 30.02%)p 2.33( 69.89%)d 0.00(  0.08%)
                                        -0.0005  0.5478 -0.0137 -0.0011  0.0039
                                        -0.4200 -0.0077  0.0040  0.0000  0.0000
                                         0.0000 -0.7225  0.0134  0.0153  0.0000
                                         0.0215  0.0000  0.0077  0.0179
               ( 60.05%)  -0.7749* H 13 s(100.00%)
                                         1.0000  0.0037
 200. (0.00642) BD*( 1) C 11- N 14       
               ( 58.52%)   0.7650* C 11 s( 31.55%)p 2.17( 68.33%)d 0.00(  0.11%)
                                         0.0000  0.5611  0.0263  0.0020  0.0010
                                        -0.4516 -0.0672 -0.0218  0.0000  0.0000
                                         0.0000  0.6881  0.0273 -0.0121  0.0000
                                        -0.0250  0.0000  0.0109  0.0199
               ( 41.48%)  -0.6440* N 14 s( 35.07%)p 1.85( 64.75%)d 0.01(  0.18%)
                                        -0.0001  0.5913 -0.0333  0.0005  0.0003
                                         0.3957 -0.0161 -0.0075  0.0000  0.0000
                                         0.0000 -0.6994 -0.0375 -0.0003  0.0000
                                        -0.0332  0.0000  0.0236  0.0126
 201. (0.00642) BD*( 1) C 12- N 15       
               ( 58.52%)   0.7650* C 12 s( 31.55%)p 2.17( 68.33%)d 0.00(  0.11%)
                                         0.0000  0.5611  0.0263  0.0020  0.0010
                                         0.4516  0.0672  0.0218  0.0000  0.0000
                                         0.0000  0.6881  0.0273 -0.0121  0.0000
                                         0.0250  0.0000  0.0109  0.0199
               ( 41.48%)  -0.6440* N 15 s( 35.07%)p 1.85( 64.75%)d 0.01(  0.18%)
                                        -0.0001  0.5913 -0.0333  0.0005  0.0003
                                        -0.3957  0.0161  0.0075  0.0000  0.0000
                                         0.0000 -0.6994 -0.0375 -0.0003  0.0000
                                         0.0332  0.0000  0.0236  0.0126
 202. (0.01104) BD*( 1) C 12- H 16       
               ( 39.95%)   0.6320* C 12 s( 30.02%)p 2.33( 69.89%)d 0.00(  0.08%)
                                        -0.0005  0.5478 -0.0137 -0.0011  0.0039
                                         0.4200  0.0077 -0.0040  0.0000  0.0000
                                         0.0000 -0.7225  0.0134  0.0153  0.0000
                                        -0.0215  0.0000  0.0077  0.0179
               ( 60.05%)  -0.7749* H 16 s(100.00%)
                                         1.0000  0.0037
 SVNBO: NDIM =          202
 NBO state            0
Write Beta  NBO coefficients for state  0

 *******************************************************************************
Archival summary:
1\1\MacQu.local\SP\ProcedureUnspecified\6-31+G*\2122(1-,2)\WedAug614:00:012014WedAug614:00:012014\0\\#,ProcedureUnspecified,6-31+G*,\\-1,2\C\N,1,1.37352\C,2,1.35846,1,114.576\H,3,1.09215,2,116.358,1,-180,0\C,3,1.38744,2,123.696,1,0,0\H,5,1.09215,3,119.946,2,-180,0\N,5,1.35846,3,123.696,2,0,0\C,7,1.37352,5,114.576,3,0,0\C,8,1.41534,7,119.828,5,-180,0\H,9,1.08874,8,117.322,7,0,0\C,9,1.40191,8,121.648,7,-180,0\H,11,1.08986,9,119.826,8,-180,0\C,11,1.40038,9,119.908,8,0,0\H,13,1.08986,11,120.266,9,-180,0\C,13,1.40191,11,119.908,9,0,0\H,15,1.08874,13,121.03,11,-180,0\\\@

 Total job time:  21.69s(wall), 41.17s(cpu) 
 Wed Aug  6 14:00:01 2014

        *************************************************************
        *                                                           *
        *  Thank you very much for using Q-Chem.  Have a nice day.  *
        *                                                           *
        *************************************************************


