       N       E                     dE             d eps       ncg     rms          rms(c)
DAV:   1    -0.685330892437E+01   -0.68533E+01   -0.12371E+03   408   0.183E+02
DAV:   2    -0.105710238264E+02   -0.37177E+01   -0.36839E+01   531   0.353E+01
DAV:   3    -0.106056461264E+02   -0.34622E-01   -0.34607E-01   440   0.284E+00
DAV:   4    -0.106056793508E+02   -0.33224E-04   -0.33224E-04   501   0.101E-01
DAV:   5    -0.106056793806E+02   -0.29783E-07   -0.29848E-07   437   0.221E-03    0.362E+00
RMM:   6    -0.106819908316E+02   -0.76311E-01   -0.41689E-02   365   0.114E+00    0.185E+00
RMM:   7    -0.106266576434E+02    0.55333E-01   -0.46131E-02   370   0.123E+00    0.100E+00
RMM:   8    -0.106455805657E+02   -0.18923E-01   -0.11299E-02   377   0.661E-01    0.163E-01
RMM:   9    -0.106451432082E+02    0.43736E-03   -0.40863E-04   402   0.132E-01    0.763E-02
RMM:  10    -0.106452754111E+02   -0.13220E-03   -0.42871E-04   377   0.118E-01    0.181E-02
RMM:  11    -0.106452790297E+02   -0.36186E-05   -0.66714E-05   398   0.479E-02    0.105E-02
RMM:  12    -0.106452758317E+02    0.31980E-05   -0.61826E-06   351   0.151E-02    0.590E-03
RMM:  13    -0.106452777428E+02   -0.19111E-05   -0.23579E-06   274   0.912E-03
   1 F= -.10645278E+02 E0= -.10645278E+02  d E =0.000000E+00  mag=    -0.0000
