 vasp.5.4.1 24Jun15 (build Sep 07 2016 16:06:19) complex                        
  
 executed on           IFC91_ompi date 2016.09.22  11:42:40
 running on   24 total cores
 distrk:  each k-point on   24 cores,    1 groups
 distr:  one band on NCORES_PER_BAND=   6 cores,    4 groups


--------------------------------------------------------------------------------------------------------


 INCAR:
 POTCAR:   PAW_PBE Fe_pv 06Sep2000                
 POTCAR:   PAW_PBE Fe_pv 06Sep2000                
   VRHFIN =Fe:  3pd7s1                                                          
   LEXCH  = PE                                                                  
   EATOM  =  2456.8974 eV,  180.5769 Ry                                         
                                                                                
   TITEL  = PAW_PBE Fe_pv 06Sep2000                                             
   LULTRA =        F    use ultrasoft PP ?                                      
   IUNSCR =        1    unscreen: 0-lin 1-nonlin 2-no                           
   RPACOR =    1.750    partial core radius                                     
   POMASS =   55.847; ZVAL   =   14.000    mass and valenz                      
   RCORE  =    2.200    outmost cutoff radius                                   
   RWIGS  =    2.200; RWIGS  =    1.164    wigner-seitz radius (au A)           
   ENMAX  =  293.238; ENMIN  =  219.929 eV                                      
   RCLOC  =    1.701    cutoff for local pot                                    
   LCOR   =        T    correct aug charges                                     
   LPAW   =        T    paw PP                                                  
   EAUG   =  578.342                                                            
   DEXC   =    -.002                                                            
   RMAX   =    2.693    core radius for proj-oper                               
   RAUG   =    1.300    factor for augmentation sphere                          
   RDEP   =    2.296    radius for radial grids                                 
   QCUT   =   -4.642; QGAM   =    9.285    optimization parameters              
                                                                                
   Description                                                                  
     l     E      TYP  RCUT    TYP  RCUT                                        
     1   .000     23  2.000                                                     
     1  -.400     23  2.000                                                     
     2   .000     23  2.200                                                     
     2   .000     23  2.200                                                     
     0   .000     23  2.000                                                     
     0  2.000     23  2.000                                                     
     3   .000      7   .000                                                     
  local pseudopotential read in
  partial core-charges read in
  atomic valenz-charges read in
  non local Contribution for L=           1  read in
    real space projection operators read in
  non local Contribution for L=           1  read in
    real space projection operators read in
  non local Contribution for L=           2  read in
    real space projection operators read in
  non local Contribution for L=           2  read in
    real space projection operators read in
  non local Contribution for L=           0  read in
    real space projection operators read in
  non local Contribution for L=           0  read in
    real space projection operators read in
    PAW grid and wavefunctions read in
 
   number of l-projection  operators is LMAX  =           6
   number of lm-projection operators is LMMAX =          18
 
 Optimization of the real space projectors (new method)

 maximal supplied QI-value         = 17.01
 optimisation between [QCUT,QGAM] = [ 11.57, 23.30] = [ 37.45,152.03] Ry 
 Optimized for a Real-space Cutoff    1.45 Angstroem

   l    n(q)    QCUT    max X(q) W(low)/X(q) W(high)/X(q)  e(spline) 
   1     10    11.565     4.550    0.21E-05    0.66E-06    0.28E-07
   1     10    11.565     5.234    0.44E-04    0.87E-04    0.16E-06
   2      9    11.565     3.960    0.23E-04    0.11E-05    0.56E-07
   2      9    11.565    29.565    0.22E-03    0.64E-04    0.31E-06
   0     10    11.565    23.582    0.16E-04    0.27E-05    0.12E-07
   0     10    11.565    39.747    0.24E-04    0.76E-05    0.87E-07
 PAW_PBE Fe_pv 06Sep2000                :
 energy of atom  1       EATOM=-2456.8974
 kinetic energy error for atom=    0.0062 (will be added to EATOM!!)
 
 
 POSCAR: Fe31                                    
  positions in direct lattice
  No initial velocities read in
 exchange correlation table for  LEXCH =        8
   RHO(1)=    0.500       N(1)  =     2000
   RHO(2)=  100.500       N(2)  =     4000

 VTST: version 3.1, (03/28/14)

 CHAIN: initializing optimizer
 
 OPT: Using VASP Conjugate-Gradient optimizer
 CHAIN: Read ICHAIN            0
 
 POSCAR: Fe31                                    
  positions in direct lattice
  No initial velocities read in
 


--------------------------------------------------------------------------------------------------------


 ion  position               nearest neighbor table
   1  0.999  0.001  0.999-  11 2.56   9 2.56  20 2.56  17 2.57  28 2.57  30 2.57  21 2.57  16 2.57
                            24 2.57  26 2.58  10 2.59
   2  0.000  0.001  0.499-  20 2.56  17 2.56  25 2.57   9 2.57  10 2.57  16 2.57  29 2.57  21 2.57
                            11 2.57  31 2.58  27 2.58
   3  0.000  0.501  0.999-  30 2.56  19 2.56  18 2.56  11 2.56  26 2.57   9 2.57  10 2.57  23 2.58
                            24 2.58  28 2.58  22 2.58
   4  0.999  0.500  0.500-  22 2.56  10 2.56  23 2.56  29 2.57   9 2.57  19 2.57  31 2.57  25 2.57
                            27 2.57  11 2.58  18 2.58
   5  0.500  0.999  0.999-  15 2.56  26 2.56  24 2.57  16 2.57  21 2.57  14 2.57  28 2.57  30 2.57
                            13 2.57  17 2.57  12 2.58  20 2.58
   6  0.501  0.999  0.500-  21 2.55  31 2.55  15 2.56  29 2.56  14 2.56  20 2.57  27 2.57  13 2.58
                            17 2.58  12 2.58  25 2.58  16 2.58
   7  0.499  0.499  0.000-  18 2.56  26 2.56  12 2.56  24 2.56  13 2.56  28 2.57  19 2.57  14 2.57
                            30 2.58  23 2.58  22 2.58  15 2.58
   8  0.499  0.500  0.501-  27 2.55  23 2.56  25 2.56  19 2.56  13 2.56  15 2.57  29 2.57  31 2.57
                            14 2.57  22 2.57  12 2.57  18 2.58
   9  0.001  0.251  0.750-  19 2.55  25 2.56  17 2.56   1 2.56   4 2.57   3 2.57   2 2.57  24 2.57
                            23 2.57  28 2.58  21 2.58  29 2.58
  10  0.001  0.749  0.251-   4 2.56  27 2.56  18 2.56  16 2.57  22 2.57   3 2.57   2 2.57  20 2.57
                            31 2.58  30 2.58  26 2.58   1 2.59
  11  0.001  0.751  0.750-  17 2.55   1 2.56  19 2.56   3 2.56  30 2.56  26 2.57  21 2.57  27 2.57
                             2 2.57  31 2.58   4 2.58  23 2.59
  12  0.501  0.251  0.250-   7 2.56  29 2.56  22 2.56  28 2.56  24 2.56  18 2.57  20 2.57   8 2.57
                             5 2.58   6 2.58  16 2.58  25 2.58
  13  0.501  0.251  0.750-  28 2.55  23 2.55  29 2.56   7 2.56  21 2.56   8 2.56  24 2.57  25 2.57
                             5 2.57   6 2.58  19 2.58  17 2.59
  14  0.499  0.750  0.251-  27 2.56  16 2.56   6 2.56  26 2.56  18 2.57   5 2.57   8 2.57  31 2.57
                            22 2.57   7 2.57  20 2.58  30 2.59
  15  0.499  0.751  0.750-   5 2.56   6 2.56  26 2.56  27 2.56  31 2.56  21 2.56  17 2.56   8 2.57
                            19 2.57  30 2.58  23 2.58   7 2.58
  16  0.250  1.000  0.249-  24 2.56  14 2.56  26 2.56   5 2.57  10 2.57   2 2.57   1 2.57  27 2.58
                            12 2.58   6 2.58  25 2.59
  17  0.249  1.000  0.750-  11 2.55   9 2.56   2 2.56  15 2.56  25 2.57   1 2.57  26 2.57  27 2.57
                            24 2.57   5 2.57   6 2.58  13 2.59
  18  0.250  0.500  0.249-   7 2.56  24 2.56   3 2.56  10 2.56  26 2.56  14 2.57  12 2.57  27 2.57
                             8 2.58  25 2.58   4 2.58
  19  0.249  0.500  0.749-   9 2.55  25 2.56   3 2.56  27 2.56   8 2.56  11 2.56  26 2.57   4 2.57
                             7 2.57  15 2.57  24 2.58  13 2.58
  20  0.751  0.001  0.250-   2 2.56   1 2.56  29 2.57   6 2.57  12 2.57  10 2.57  31 2.57  28 2.57
                             5 2.58  30 2.58  14 2.58
  21  0.749  1.000  0.749-   6 2.55  31 2.56  15 2.56  13 2.56   5 2.57  29 2.57   1 2.57  11 2.57
                            28 2.57   2 2.57  30 2.57   9 2.58
  22  0.750  0.500  0.251-   4 2.56  12 2.56  29 2.56  31 2.57  10 2.57   8 2.57  14 2.57  30 2.57
                             7 2.58  28 2.58   3 2.58
  23  0.749  0.499  0.749-  13 2.55   8 2.56  29 2.56   4 2.56  28 2.56  31 2.57  30 2.57   9 2.57
                             3 2.58   7 2.58  15 2.58  11 2.59
  24  0.251  0.249  0.000-   7 2.56  16 2.56  18 2.56  12 2.56   5 2.57  13 2.57   9 2.57  17 2.57
                             1 2.57  19 2.58   3 2.58
  25  0.250  0.251  0.501-   9 2.56  19 2.56   8 2.56   2 2.57  17 2.57  13 2.57   4 2.57  18 2.58
                             6 2.58  12 2.58  16 2.59
  26  0.251  0.750  0.999-  15 2.56   7 2.56   5 2.56  14 2.56  18 2.56  16 2.56   3 2.57  19 2.57
                            11 2.57  17 2.57  10 2.58   1 2.58
  27  0.251  0.749  0.500-   8 2.55  14 2.56  15 2.56  19 2.56  10 2.56  18 2.57  11 2.57  17 2.57
                             4 2.57   6 2.57  16 2.58   2 2.58
  28  0.749  0.250  0.999-  13 2.55  12 2.56  23 2.56   7 2.57   1 2.57   5 2.57  21 2.57  20 2.57
                             9 2.58   3 2.58  22 2.58
  29  0.749  0.250  0.500-  12 2.56  13 2.56  23 2.56   6 2.56  22 2.56  20 2.57   8 2.57   4 2.57
                            21 2.57   2 2.57   9 2.58
  30  0.751  0.749  0.999-   3 2.56  11 2.56   1 2.57  23 2.57  22 2.57   5 2.57  21 2.57  15 2.58
                             7 2.58  10 2.58  20 2.58  14 2.59
  31  0.749  0.750  0.501-   6 2.55  21 2.56  15 2.56  22 2.57  23 2.57   8 2.57   4 2.57  14 2.57
                            20 2.57  11 2.58  10 2.58   2 2.58
 
  LATTYP: Found a simple cubic cell.
 ALAT       =     7.2671930000
  
  Lattice vectors:
  
 A1 = (   7.2671930000,   0.0000000000,   0.0000000000)
 A2 = (   0.0000000000,   7.2671930000,   0.0000000000)
 A3 = (   0.0000000000,   0.0000000000,   7.2671930000)


Analysis of symmetry for initial positions (statically):
=====================================================================
 Subroutine PRICEL returns:
 Original cell was already a primitive cell.
 

 Routine SETGRP: Setting up the symmetry group for a 
 simple cubic supercell.


 Subroutine GETGRP returns: Found  1 space group operations
 (whereof  1 operations were pure point group operations)
 out of a pool of 48 trial point group operations.


The static configuration has the point symmetry C_1 .


Analysis of symmetry for dynamics (positions and initial velocities):
=====================================================================
 Subroutine PRICEL returns:
 Original cell was already a primitive cell.
 

 Routine SETGRP: Setting up the symmetry group for a 
 simple cubic supercell.


 Subroutine GETGRP returns: Found  1 space group operations
 (whereof  1 operations were pure point group operations)
 out of a pool of 48 trial point group operations.


The dynamic configuration has the point symmetry C_1 .


Analysis of structural, dynamic, and magnetic symmetry:
=====================================================================
 Subroutine PRICEL returns:
 Original cell was already a primitive cell.
 

 Routine SETGRP: Setting up the symmetry group for a 
 simple cubic supercell.


 Subroutine GETGRP returns: Found  1 space group operations
 (whereof  1 operations were pure point group operations)
 out of a pool of 48 trial point group operations.


The magnetic configuration has the point symmetry C_1 .


 Subroutine INISYM returns: Found  1 space group operations
 (whereof  1 operations are pure point group operations),
 and found     1 'primitive' translations

 
 
 KPOINTS: pymatgen generated KPOINTS with grid den

Automatic generation of k-mesh.
Space group operators:
 irot       det(A)        alpha          n_x          n_y          n_z        tau_x        tau_y        tau_z
    1     1.000000     0.000000     1.000000     0.000000     0.000000     0.000000     0.000000     0.000000
 
 Subroutine IBZKPT returns following result:
 ===========================================
 
 Found     32 irreducible k-points:
 
 Following reciprocal coordinates:
            Coordinates               Weight
  0.125000  0.125000  0.125000      2.000000
  0.375000  0.125000  0.125000      2.000000
 -0.375000  0.125000  0.125000      2.000000
 -0.125000  0.125000  0.125000      2.000000
  0.125000  0.375000  0.125000      2.000000
  0.375000  0.375000  0.125000      2.000000
 -0.375000  0.375000  0.125000      2.000000
 -0.125000  0.375000  0.125000      2.000000
  0.125000 -0.375000  0.125000      2.000000
  0.375000 -0.375000  0.125000      2.000000
 -0.375000 -0.375000  0.125000      2.000000
 -0.125000 -0.375000  0.125000      2.000000
  0.125000 -0.125000  0.125000      2.000000
  0.375000 -0.125000  0.125000      2.000000
 -0.375000 -0.125000  0.125000      2.000000
 -0.125000 -0.125000  0.125000      2.000000
  0.125000  0.125000  0.375000      2.000000
  0.375000  0.125000  0.375000      2.000000
 -0.375000  0.125000  0.375000      2.000000
 -0.125000  0.125000  0.375000      2.000000
  0.125000  0.375000  0.375000      2.000000
  0.375000  0.375000  0.375000      2.000000
 -0.375000  0.375000  0.375000      2.000000
 -0.125000  0.375000  0.375000      2.000000
  0.125000 -0.375000  0.375000      2.000000
  0.375000 -0.375000  0.375000      2.000000
 -0.375000 -0.375000  0.375000      2.000000
 -0.125000 -0.375000  0.375000      2.000000
  0.125000 -0.125000  0.375000      2.000000
  0.375000 -0.125000  0.375000      2.000000
 -0.375000 -0.125000  0.375000      2.000000
 -0.125000 -0.125000  0.375000      2.000000
 
 Following cartesian coordinates:
            Coordinates               Weight
  0.017201  0.017201  0.017201      2.000000
  0.051602  0.017201  0.017201      2.000000
 -0.051602  0.017201  0.017201      2.000000
 -0.017201  0.017201  0.017201      2.000000
  0.017201  0.051602  0.017201      2.000000
  0.051602  0.051602  0.017201      2.000000
 -0.051602  0.051602  0.017201      2.000000
 -0.017201  0.051602  0.017201      2.000000
  0.017201 -0.051602  0.017201      2.000000
  0.051602 -0.051602  0.017201      2.000000
 -0.051602 -0.051602  0.017201      2.000000
 -0.017201 -0.051602  0.017201      2.000000
  0.017201 -0.017201  0.017201      2.000000
  0.051602 -0.017201  0.017201      2.000000
 -0.051602 -0.017201  0.017201      2.000000
 -0.017201 -0.017201  0.017201      2.000000
  0.017201  0.017201  0.051602      2.000000
  0.051602  0.017201  0.051602      2.000000
 -0.051602  0.017201  0.051602      2.000000
 -0.017201  0.017201  0.051602      2.000000
  0.017201  0.051602  0.051602      2.000000
  0.051602  0.051602  0.051602      2.000000
 -0.051602  0.051602  0.051602      2.000000
 -0.017201  0.051602  0.051602      2.000000
  0.017201 -0.051602  0.051602      2.000000
  0.051602 -0.051602  0.051602      2.000000
 -0.051602 -0.051602  0.051602      2.000000
 -0.017201 -0.051602  0.051602      2.000000
  0.017201 -0.017201  0.051602      2.000000
  0.051602 -0.017201  0.051602      2.000000
 -0.051602 -0.017201  0.051602      2.000000
 -0.017201 -0.017201  0.051602      2.000000
 


--------------------------------------------------------------------------------------------------------




 Dimension of arrays:
   k-points           NKPTS =     32   k-points in BZ     NKDIM =     32   number of bands    NBANDS=    340
   number of dos      NEDOS =    301   number of ions     NIONS =     31
   non local maximal  LDIM  =      6   non local SUM 2l+1 LMDIM =     18
   total plane-waves  NPLWV = 157464
   max r-space proj   IRMAX =   5243   max aug-charges    IRDMAX=  12349
   dimension x,y,z NGX =    54 NGY =   54 NGZ =   54
   dimension x,y,z NGXF=   108 NGYF=  108 NGZF=  108
   support grid    NGXF=   108 NGYF=  108 NGZF=  108
   ions per type =              31
 NGX,Y,Z   is equivalent  to a cutoff of  12.35, 12.35, 12.35 a.u.
 NGXF,Y,Z  is equivalent  to a cutoff of  24.71, 24.71, 24.71 a.u.


 I would recommend the setting:
   dimension x,y,z NGX =    54 NGY =   54 NGZ =   54
 SYSTEM =  unknown system                          
 POSCAR =  Fe31                                    

 Startparameter for this run:
   NWRITE =      2    write-flag & timer
   PREC   = accura    normal or accurate (medium, high low for compatibility)
   ISTART =      0    job   : 0-new  1-cont  2-samecut
   ICHARG =      1    charge: 1-file 2-atom 10-const
   ISPIN  =      2    spin polarized calculation?
   LNONCOLLINEAR =      F non collinear calculations
   LSORBIT =      F    spin-orbit coupling
   INIWAV =      1    electr: 0-lowe 1-rand  2-diag
   LASPH  =      F    aspherical Exc in radial PAW
   METAGGA=      F    non-selfconsistent MetaGGA calc.

 Electronic Relaxation 1
   ENCUT  =  520.0 eV  38.22 Ry    6.18 a.u.  13.51 13.51 13.51*2*pi/ulx,y,z
   ENINI  =  520.0     initial cutoff
   ENAUG  =  578.3 eV  augmentation charge cutoff
   NELM   =    100;   NELMIN=  2; NELMDL= -5     # of ELM steps 
   EDIFF  = 0.2E-02   stopping-criterion for ELM
   LREAL  =      T    real-space projection
   NLSPLINE    = F    spline interpolate recip. space projectors
   LCOMPAT=      F    compatible to vasp.4.4
   GGA_COMPAT  = T    GGA compatible to vasp.4.4-vasp.4.6
   LMAXPAW     = -100 max onsite density
   LMAXMIX     =    2 max onsite mixed and CHGCAR
   VOSKOWN=      0    Vosko Wilk Nusair interpolation
   ROPT   =   -0.00025
 Ionic relaxation
   EDIFFG = 0.2E-01   stopping-criterion for IOM
   NSW    =     99    number of steps for IOM
   NBLOCK =      1;   KBLOCK =     99    inner block; outer block 
   IBRION =      2    ionic relax: 0-MD 1-quasi-New 2-CG
   NFREE  =      1    steps in history (QN), initial steepest desc. (CG)
   ISIF   =      0    stress and relaxation
   IWAVPR =     11    prediction:  0-non 1-charg 2-wave 3-comb
   ISYM   =      2    0-nonsym 1-usesym 2-fastsym
   LCORR  =      T    Harris-Foulkes like correction to forces

   POTIM  = 0.5000    time-step for ionic-motion
   TEIN   =    0.0    initial temperature
   TEBEG  =    0.0;   TEEND  =   0.0 temperature during run
   SMASS  =  -3.00    Nose mass-parameter (am)
   estimated Nose-frequenzy (Omega)   =  0.10E-29 period in steps =****** mass=  -0.121E-26a.u.
   SCALEE = 1.0000    scale energy and forces
   NPACO  =    256;   APACO  = 16.0  distance and # of slots for P.C.
   PSTRESS=    0.0 pullay stress

  Mass of Ions in am
   POMASS =  55.85
  Ionic Valenz
   ZVAL   =  14.00
  Atomic Wigner-Seitz radii
   RWIGS  =  -1.00
  virtual crystal weights 
   VCA    =   1.00
   NELECT =     434.0000    total number of electrons
   NUPDOWN=      -1.0000    fix difference up-down

 DOS related values:
   EMIN   =  10.00;   EMAX   =-10.00  energy-range for DOS
   EFERMI =   0.00
   ISMEAR =     0;   SIGMA  =   0.20  broadening in eV -4-tet -1-fermi 0-gaus

 Electronic relaxation 2 (details)
   IALGO  =     68    algorithm
   LDIAG  =      T    sub-space diagonalisation (order eigenvalues)
   LSUBROT=      F    optimize rotation matrix (better conditioning)
   TURBO    =      0    0=normal 1=particle mesh
   IRESTART =      0    0=no restart 2=restart with 2 vectors
   NREBOOT  =      0    no. of reboots
   NMIN     =      0    reboot dimension
   EREF     =   0.00    reference energy to select bands
   IMIX   =      4    mixing-type and parameters
     AMIX     =   0.40;   BMIX     =  1.00
     AMIX_MAG =   1.60;   BMIX_MAG =  1.00
     AMIN     =   0.10
     WC   =   100.;   INIMIX=   1;  MIXPRE=   1;  MAXMIX= -45

 Intra band minimization:
   WEIMIN = 0.0010     energy-eigenvalue tresh-hold
   EBREAK =  0.11E-05  absolut break condition
   DEPER  =   0.30     relativ break condition  

   TIME   =   0.40     timestep for ELM

  volume/ion in A,a.u.               =      12.38        83.55
  Fermi-wavevector in a.u.,A,eV,Ry     =   1.705577  3.223074 39.579260  2.908994
  Thomas-Fermi vector in A             =   2.784772
 
 Write flags
   LWAVE  =      F    write WAVECAR
   LCHARG =      T    write CHGCAR
   LVTOT  =      F    write LOCPOT, total local potential
   LVHAR  =      F    write LOCPOT, Hartree potential only
   LELF   =      F    write electronic localiz. function (ELF)
   LORBIT =     11    0 simple, 1 ext, 2 COOP (PROOUT)


 Dipole corrections
   LMONO  =      F    monopole corrections only (constant potential shift)
   LDIPOL =      F    correct potential (dipole corrections)
   IDIPOL =      0    1-x, 2-y, 3-z, 4-all directions 
   EPSILON=  1.0000000 bulk dielectric constant

 Exchange correlation treatment:
   GGA     =    --    GGA type
   LEXCH   =     8    internal setting for exchange type
   VOSKOWN=      0    Vosko Wilk Nusair interpolation
   LHFCALC =     F    Hartree Fock is set to
   LHFONE  =     F    Hartree Fock one center treatment
   AEXX    =    0.0000 exact exchange contribution

 Linear response parameters
   LEPSILON=     F    determine dielectric tensor
   LRPA    =     F    only Hartree local field effects (RPA)
   LNABLA  =     F    use nabla operator in PAW spheres
   LVEL    =     F    velocity operator in full k-point grid
   LINTERFAST=   F  fast interpolation
   KINTER  =     0    interpolate to denser k-point grid
   CSHIFT  =0.1000    complex shift for real part using Kramers Kronig
   OMEGAMAX=  -1.0    maximum frequency
   DEG_THRESHOLD= 0.2000000E-02 threshold for treating states as degnerate
   RTIME   =    0.100 relaxation time in fs

 Orbital magnetization related:
   ORBITALMAG=     F  switch on orbital magnetization
   LCHIMAG   =     F  perturbation theory with respect to B field
   DQ        =  0.001000  dq finite difference perturbation B field



--------------------------------------------------------------------------------------------------------


 conjugate gradient relaxation of ions
 charge density and potential will be updated during run
 spin polarized calculation
 RMM-DIIS sequential band-by-band and
  variant of blocked Davidson during initial phase
 perform sub-space diagonalisation
    before iterative eigenvector-optimisation
 modified Broyden-mixing scheme, WC =      100.0
 initial mixing is a Kerker type mixing with AMIX =  0.4000 and BMIX =      1.0000
 Hartree-type preconditioning will be used
 using additional bands          123
 real space projection scheme for non local part
 use partial core corrections
 calculate Harris-corrections to forces 
   (improved forces if not selfconsistent)
 use gradient corrections 
 use of overlap-Matrix (Vanderbilt PP)
 Gauss-broadening in eV      SIGMA  =   0.20


--------------------------------------------------------------------------------------------------------


  energy-cutoff  :      520.00
  volume of cell :      383.80
      direct lattice vectors                 reciprocal lattice vectors
     7.267193000  0.000000000  0.000000000     0.137604712  0.000000000  0.000000000
     0.000000000  7.267193000  0.000000000     0.000000000  0.137604712  0.000000000
     0.000000000  0.000000000  7.267193000     0.000000000  0.000000000  0.137604712

  length of vectors
     7.267193000  7.267193000  7.267193000     0.137604712  0.137604712  0.137604712


 
 k-points in units of 2pi/SCALE and weight: pymatgen generated KPOINTS with grid den
   0.01720059  0.01720059  0.01720059       0.031
   0.05160177  0.01720059  0.01720059       0.031
  -0.05160177  0.01720059  0.01720059       0.031
  -0.01720059  0.01720059  0.01720059       0.031
   0.01720059  0.05160177  0.01720059       0.031
   0.05160177  0.05160177  0.01720059       0.031
  -0.05160177  0.05160177  0.01720059       0.031
  -0.01720059  0.05160177  0.01720059       0.031
   0.01720059 -0.05160177  0.01720059       0.031
   0.05160177 -0.05160177  0.01720059       0.031
  -0.05160177 -0.05160177  0.01720059       0.031
  -0.01720059 -0.05160177  0.01720059       0.031
   0.01720059 -0.01720059  0.01720059       0.031
   0.05160177 -0.01720059  0.01720059       0.031
  -0.05160177 -0.01720059  0.01720059       0.031
  -0.01720059 -0.01720059  0.01720059       0.031
   0.01720059  0.01720059  0.05160177       0.031
   0.05160177  0.01720059  0.05160177       0.031
  -0.05160177  0.01720059  0.05160177       0.031
  -0.01720059  0.01720059  0.05160177       0.031
   0.01720059  0.05160177  0.05160177       0.031
   0.05160177  0.05160177  0.05160177       0.031
  -0.05160177  0.05160177  0.05160177       0.031
  -0.01720059  0.05160177  0.05160177       0.031
   0.01720059 -0.05160177  0.05160177       0.031
   0.05160177 -0.05160177  0.05160177       0.031
  -0.05160177 -0.05160177  0.05160177       0.031
  -0.01720059 -0.05160177  0.05160177       0.031
   0.01720059 -0.01720059  0.05160177       0.031
   0.05160177 -0.01720059  0.05160177       0.031
  -0.05160177 -0.01720059  0.05160177       0.031
  -0.01720059 -0.01720059  0.05160177       0.031
 
 k-points in reciprocal lattice and weights: pymatgen generated KPOINTS with grid den
   0.12500000  0.12500000  0.12500000       0.031
   0.37500000  0.12500000  0.12500000       0.031
  -0.37500000  0.12500000  0.12500000       0.031
  -0.12500000  0.12500000  0.12500000       0.031
   0.12500000  0.37500000  0.12500000       0.031
   0.37500000  0.37500000  0.12500000       0.031
  -0.37500000  0.37500000  0.12500000       0.031
  -0.12500000  0.37500000  0.12500000       0.031
   0.12500000 -0.37500000  0.12500000       0.031
   0.37500000 -0.37500000  0.12500000       0.031
  -0.37500000 -0.37500000  0.12500000       0.031
  -0.12500000 -0.37500000  0.12500000       0.031
   0.12500000 -0.12500000  0.12500000       0.031
   0.37500000 -0.12500000  0.12500000       0.031
  -0.37500000 -0.12500000  0.12500000       0.031
  -0.12500000 -0.12500000  0.12500000       0.031
   0.12500000  0.12500000  0.37500000       0.031
   0.37500000  0.12500000  0.37500000       0.031
  -0.37500000  0.12500000  0.37500000       0.031
  -0.12500000  0.12500000  0.37500000       0.031
   0.12500000  0.37500000  0.37500000       0.031
   0.37500000  0.37500000  0.37500000       0.031
  -0.37500000  0.37500000  0.37500000       0.031
  -0.12500000  0.37500000  0.37500000       0.031
   0.12500000 -0.37500000  0.37500000       0.031
   0.37500000 -0.37500000  0.37500000       0.031
  -0.37500000 -0.37500000  0.37500000       0.031
  -0.12500000 -0.37500000  0.37500000       0.031
   0.12500000 -0.12500000  0.37500000       0.031
   0.37500000 -0.12500000  0.37500000       0.031
  -0.37500000 -0.12500000  0.37500000       0.031
  -0.12500000 -0.12500000  0.37500000       0.031
 
 position of ions in fractional coordinates (direct lattice) 
   0.99910100  0.00057000  0.99912800
   0.00035400  0.00118000  0.49938600
   0.00044700  0.50109800  0.99930100
   0.99863400  0.49984600  0.49993400
   0.49995500  0.99880800  0.99931400
   0.50117400  0.99933500  0.50027200
   0.49880700  0.49941300  0.00035600
   0.49914300  0.50013000  0.50106800
   0.00127000  0.25050400  0.75016500
   0.00060500  0.74937200  0.25106400
   0.00076800  0.75108800  0.75034700
   0.50105000  0.25074300  0.24951200
   0.50115600  0.25059600  0.75045000
   0.49883900  0.75003000  0.25073700
   0.49906500  0.75090300  0.74954900
   0.24992200  0.99955300  0.24870100
   0.24876000  0.99960300  0.74955500
   0.24982900  0.49972200  0.24866300
   0.24873000  0.50014300  0.74949000
   0.75121000  0.00053400  0.25038000
   0.74912200  0.99969800  0.74898400
   0.74964200  0.50045300  0.25124900
   0.74925000  0.49914900  0.74922100
   0.25108100  0.24930700  0.00049400
   0.25018600  0.25052300  0.50125900
   0.25122400  0.74965300  0.99947400
   0.25066700  0.74880500  0.49985800
   0.74898800  0.25010500  0.99907400
   0.74868800  0.25033500  0.49975300
   0.75071100  0.74901000  0.99936200
   0.74900200  0.75038700  0.50086500
 
 position of ions in cartesian coordinates  (Angst):
   7.26065979  0.00414230  7.26085601
   0.00257259  0.00857529  3.62913444
   0.00324844  3.64157588  7.26211323
   7.25726601  3.63247735  3.63311687
   3.63326948  7.25853051  7.26220771
   3.64212818  7.26236032  3.63557318
   3.62492674  3.62933066  0.00258712
   3.62736852  3.63454124  3.64135786
   0.00922934  1.82046092  5.45159384
   0.00439665  5.44583095  1.82453054
   0.00558120  5.45830146  5.45291647
   3.64122705  1.82219777  1.81325186
   3.64199738  1.82112950  5.45366499
   3.62515929  5.45061277  1.82215417
   3.62680167  5.45695703  5.44711725
   1.81623141  7.26394456  1.80735817
   1.80778693  7.26430792  5.44716085
   1.81555556  3.63157622  1.80708201
   1.80756891  3.63463571  5.44668848
   5.45918805  0.00388068  1.81955978
   5.44401415  7.26499831  5.44301128
   5.44779309  3.63688854  1.82587497
   5.44494436  3.62741212  5.44473361
   1.82465409  1.81176209  0.00358999
   1.81814995  1.82059899  3.64274590
   1.82569329  5.44787303  7.26337046
   1.82164547  5.44171045  3.63256456
   5.44304035  1.81756131  7.26046358
   5.44086019  1.81923276  3.63180150
   5.45556172  5.44320023  7.26255653
   5.44314209  5.45320715  3.63988262
 


--------------------------------------------------------------------------------------------------------


 k-point  1 :   0.1250 0.1250 0.1250  plane waves:   10356
 k-point  2 :   0.3750 0.1250 0.1250  plane waves:   10344
 k-point  3 :  -0.3750 0.1250 0.1250  plane waves:   10344
 k-point  4 :  -0.1250 0.1250 0.1250  plane waves:   10356
 k-point  5 :   0.1250 0.3750 0.1250  plane waves:   10344
 k-point  6 :   0.3750 0.3750 0.1250  plane waves:   10340
 k-point  7 :  -0.3750 0.3750 0.1250  plane waves:   10340
 k-point  8 :  -0.1250 0.3750 0.1250  plane waves:   10344
 k-point  9 :   0.1250-0.3750 0.1250  plane waves:   10344
 k-point 10 :   0.3750-0.3750 0.1250  plane waves:   10340
 k-point 11 :  -0.3750-0.3750 0.1250  plane waves:   10340
 k-point 12 :  -0.1250-0.3750 0.1250  plane waves:   10344
 k-point 13 :   0.1250-0.1250 0.1250  plane waves:   10356
 k-point 14 :   0.3750-0.1250 0.1250  plane waves:   10344
 k-point 15 :  -0.3750-0.1250 0.1250  plane waves:   10344
 k-point 16 :  -0.1250-0.1250 0.1250  plane waves:   10356
 k-point 17 :   0.1250 0.1250 0.3750  plane waves:   10344
 k-point 18 :   0.3750 0.1250 0.3750  plane waves:   10340
 k-point 19 :  -0.3750 0.1250 0.3750  plane waves:   10340
 k-point 20 :  -0.1250 0.1250 0.3750  plane waves:   10344
 k-point 21 :   0.1250 0.3750 0.3750  plane waves:   10340
 k-point 22 :   0.3750 0.3750 0.3750  plane waves:   10306
 k-point 23 :  -0.3750 0.3750 0.3750  plane waves:   10306
 k-point 24 :  -0.1250 0.3750 0.3750  plane waves:   10340
 k-point 25 :   0.1250-0.3750 0.3750  plane waves:   10340
 k-point 26 :   0.3750-0.3750 0.3750  plane waves:   10306
 k-point 27 :  -0.3750-0.3750 0.3750  plane waves:   10306
 k-point 28 :  -0.1250-0.3750 0.3750  plane waves:   10340
 k-point 29 :   0.1250-0.1250 0.3750  plane waves:   10344
 k-point 30 :   0.3750-0.1250 0.3750  plane waves:   10340
 k-point 31 :  -0.3750-0.1250 0.3750  plane waves:   10340
 k-point 32 :  -0.1250-0.1250 0.3750  plane waves:   10344

 maximum and minimum number of plane-waves per node :      1740     1697

 maximum number of plane-waves:     10356
 maximum index in each direction: 
   IXMAX=   13   IYMAX=   13   IZMAX=   13
   IXMIN=  -13   IYMIN=  -13   IZMIN=  -13

 NGX is ok and might be reduce to  54
 NGY is ok and might be reduce to  54
 NGZ is ok and might be reduce to  54

 real space projection operators:
  total allocation   :      22001.77 KBytes
  max/ min on nodes  :       3669.47       3661.88


 parallel 3D FFT for wavefunctions:
    minimum data exchange during FFTs selected (reduces bandwidth)
 parallel 3D FFT for charge:
    minimum data exchange during FFTs selected (reduces bandwidth)


 total amount of memory used by VASP on root node   207419. kBytes
========================================================================

   base      :      30000. kBytes
   nonlr-proj:       7271. kBytes
   fftplans  :       2739. kBytes
   grid      :       6374. kBytes
   one-center:        186. kBytes
   wavefun   :     160849. kBytes
 
     INWAV:  cpu time    0.0000: real time    0.0000
 Broyden mixing: mesh for mixing (old mesh)
   NGX = 27   NGY = 27   NGZ = 27
  (NGX  =108   NGY  =108   NGZ  =108)
  gives a total of  19683 points

 initial charge density was supplied:
 charge density of overlapping atoms calculated
 number of electron     434.0000000 magnetization     155.0000000
 keeping initial charge density in first step


--------------------------------------------------------------------------------------------------------


 Maximum index for non-local projection operator          872
 Maximum index for augmentation-charges          806 (set IRDMAX)


--------------------------------------------------------------------------------------------------------


 First call to EWALD:  gamma=   0.244
 Maximum number of real-space cells 3x 3x 3
 Maximum number of reciprocal cells 3x 3x 3

 FEWALD executed in parallel
    FEWALD:  cpu time    0.0050: real time    0.0052


----------------------------------------- Iteration    1(   1)  ---------------------------------------


    POTLOK:  cpu time    0.2660: real time    0.2667
    SETDIJ:  cpu time    0.1200: real time    0.1190
     EDDAV:  cpu time  135.0735: real time  134.9495
       DOS:  cpu time    0.0460: real time    0.0459
    --------------------------------------------
      LOOP:  cpu time  135.5064: real time  135.3844

 eigenvalue-minimisations  : 44488
 total energy-change (2. order) : 0.6826381E+04  (-0.2044706E+05)
 number of electron     434.0000000 magnetization     155.0000000
 augmentation part      434.0000000 magnetization     155.0000000

 Free energy of the ion-electron system (eV)
  ---------------------------------------------------
  alpha Z        PSCENC =      4918.63829509
  Ewald energy   TEWEN  =    -53957.99350326
  -Hartree energ DENC   =    -19477.61623394
  -exchange      EXHF   =         0.00000000
  -V(xc)+E(xc)   XCENC  =      2278.94157415
  PAW double counting   =     56852.34795695   -59583.03617781
  entropy T*S    EENTRO =        -0.25390749
  eigenvalues    EBANDS =      -368.27494732
  atomic energy  EATOM  =     76163.62791748
  Solvation  Ediel_sol  =         0.00000000
  ---------------------------------------------------
  free energy    TOTEN  =      6826.38097385 eV

  energy without entropy =     6826.63488134  energy(sigma->0) =     6826.50792759


--------------------------------------------------------------------------------------------------------




----------------------------------------- Iteration    1(   2)  ---------------------------------------


     EDDAV:  cpu time  129.9552: real time  129.8374
       DOS:  cpu time    0.0520: real time    0.0515
    --------------------------------------------
      LOOP:  cpu time  130.0142: real time  129.9039

 eigenvalue-minimisations  : 43520
 total energy-change (2. order) :-0.6103107E+04  (-0.5723882E+04)
 number of electron     434.0000000 magnetization     155.0000000
 augmentation part      434.0000000 magnetization     155.0000000

 Free energy of the ion-electron system (eV)
  ---------------------------------------------------
  alpha Z        PSCENC =      4918.63829509
  Ewald energy   TEWEN  =    -53957.99350326
  -Hartree energ DENC   =    -19477.61623394
  -exchange      EXHF   =         0.00000000
  -V(xc)+E(xc)   XCENC  =      2278.94157415
  PAW double counting   =     56852.34795695   -59583.03617781
  entropy T*S    EENTRO =        -0.53209150
  eigenvalues    EBANDS =     -6471.10334326
  atomic energy  EATOM  =     76163.62791748
  Solvation  Ediel_sol  =         0.00000000
  ---------------------------------------------------
  free energy    TOTEN  =       723.27439390 eV

  energy without entropy =      723.80648539  energy(sigma->0) =      723.54043965


--------------------------------------------------------------------------------------------------------




----------------------------------------- Iteration    1(   3)  ---------------------------------------


     EDDAV:  cpu time  130.7721: real time  130.6535
       DOS:  cpu time    0.0560: real time    0.0564
    --------------------------------------------
      LOOP:  cpu time  130.8361: real time  130.7213

 eigenvalue-minimisations  : 43520
 total energy-change (2. order) :-0.9101021E+03  (-0.7352807E+03)
 number of electron     434.0000000 magnetization     155.0000000
 augmentation part      434.0000000 magnetization     155.0000000

 Free energy of the ion-electron system (eV)
  ---------------------------------------------------
  alpha Z        PSCENC =      4918.63829509
  Ewald energy   TEWEN  =    -53957.99350326
  -Hartree energ DENC   =    -19477.61623394
  -exchange      EXHF   =         0.00000000
  -V(xc)+E(xc)   XCENC  =      2278.94157415
  PAW double counting   =     56852.34795695   -59583.03617781
  entropy T*S    EENTRO =        -0.55013790
  eigenvalues    EBANDS =     -7381.18737909
  atomic energy  EATOM  =     76163.62791748
  Solvation  Ediel_sol  =         0.00000000
  ---------------------------------------------------
  free energy    TOTEN  =      -186.82768833 eV

  energy without entropy =     -186.27755044  energy(sigma->0) =     -186.55261938


--------------------------------------------------------------------------------------------------------




----------------------------------------- Iteration    1(   4)  ---------------------------------------


     EDDAV:  cpu time  151.0380: real time  150.9004
       DOS:  cpu time    0.0570: real time    0.0572
    --------------------------------------------
      LOOP:  cpu time  151.0990: real time  150.9662

 eigenvalue-minimisations  : 52968
 total energy-change (2. order) :-0.6769997E+02  (-0.6508111E+02)
 number of electron     434.0000000 magnetization     155.0000000
 augmentation part      434.0000000 magnetization     155.0000000

 Free energy of the ion-electron system (eV)
  ---------------------------------------------------
  alpha Z        PSCENC =      4918.63829509
  Ewald energy   TEWEN  =    -53957.99350326
  -Hartree energ DENC   =    -19477.61623394
  -exchange      EXHF   =         0.00000000
  -V(xc)+E(xc)   XCENC  =      2278.94157415
  PAW double counting   =     56852.34795695   -59583.03617781
  entropy T*S    EENTRO =        -0.54938094
  eigenvalues    EBANDS =     -7448.88810871
  atomic energy  EATOM  =     76163.62791748
  Solvation  Ediel_sol  =         0.00000000
  ---------------------------------------------------
  free energy    TOTEN  =      -254.52766099 eV

  energy without entropy =     -253.97828005  energy(sigma->0) =     -254.25297052


--------------------------------------------------------------------------------------------------------




----------------------------------------- Iteration    1(   5)  ---------------------------------------


     EDDAV:  cpu time  149.6652: real time  149.5289
       DOS:  cpu time    0.0550: real time    0.0542
    CHARGE:  cpu time    4.8993: real time    4.8951
    MIXING:  cpu time    0.0080: real time    0.0085
    --------------------------------------------
      LOOP:  cpu time  154.6295: real time  154.4970

 eigenvalue-minimisations  : 52944
 total energy-change (2. order) :-0.1261070E+01  (-0.1258253E+01)
 number of electron     434.0000564 magnetization     113.9856029
 augmentation part      247.9232436 magnetization      87.4929266

 Broyden mixing:
  rms(total) = 0.77320E+01    rms(broyden)= 0.77310E+01
  rms(prec ) = 0.90450E+01
  weight for this iteration     100.00

 Free energy of the ion-electron system (eV)
  ---------------------------------------------------
  alpha Z        PSCENC =      4918.63829509
  Ewald energy   TEWEN  =    -53957.99350326
  -Hartree energ DENC   =    -19477.61623394
  -exchange      EXHF   =         0.00000000
  -V(xc)+E(xc)   XCENC  =      2278.94157415
  PAW double counting   =     56852.34795695   -59583.03617781
  entropy T*S    EENTRO =        -0.54985908
  eigenvalues    EBANDS =     -7450.14870099
  atomic energy  EATOM  =     76163.62791748
  Solvation  Ediel_sol  =         0.00000000
  ---------------------------------------------------
  free energy    TOTEN  =      -255.78873142 eV

  energy without entropy =     -255.23887234  energy(sigma->0) =     -255.51380188


--------------------------------------------------------------------------------------------------------




----------------------------------------- Iteration    1(   6)  ---------------------------------------


    POTLOK:  cpu time    0.2580: real time    0.2586
    SETDIJ:  cpu time    0.1240: real time    0.1236
    EDDIAG:  cpu time   19.3061: real time   19.2880
  RMM-DIIS:  cpu time   72.9039: real time   72.8368
    ORTHCH:  cpu time    3.4625: real time    3.4601
       DOS:  cpu time    0.0570: real time    0.0561
    CHARGE:  cpu time    5.0112: real time    5.0070
    MIXING:  cpu time    0.0090: real time    0.0089
    --------------------------------------------
      LOOP:  cpu time  101.1346: real time  101.0545

 eigenvalue-minimisations  : 43524
 total energy-change (2. order) : 0.1018879E+02  (-0.1456304E+02)
 number of electron     434.0000599 magnetization      98.6355222
 augmentation part      267.8062520 magnetization      73.4018999

 Broyden mixing:
  rms(total) = 0.30111E+01    rms(broyden)= 0.30106E+01
  rms(prec ) = 0.40436E+01
  weight for this iteration     100.00

 eigenvalues of (default mixing * dielectric matrix)
  average eigenvalue GAMMA=   0.8225
  0.8225

 Free energy of the ion-electron system (eV)
  ---------------------------------------------------
  alpha Z        PSCENC =      4918.63829509
  Ewald energy   TEWEN  =    -53957.99350326
  -Hartree energ DENC   =    -18332.64348324
  -exchange      EXHF   =         0.00000000
  -V(xc)+E(xc)   XCENC  =      2188.96737582
  PAW double counting   =     55747.25371575   -58412.73612497
  entropy T*S    EENTRO =        -0.92625626
  eigenvalues    EBANDS =     -8559.78787936
  atomic energy  EATOM  =     76163.62791748
  Solvation  Ediel_sol  =         0.00000000
  ---------------------------------------------------
  free energy    TOTEN  =      -245.59994295 eV

  energy without entropy =     -244.67368669  energy(sigma->0) =     -245.13681482


--------------------------------------------------------------------------------------------------------




----------------------------------------- Iteration    1(   7)  ---------------------------------------


    POTLOK:  cpu time    0.2560: real time    0.2568
    SETDIJ:  cpu time    0.1250: real time    0.1236
    EDDIAG:  cpu time   19.2431: real time   19.2264
  RMM-DIIS:  cpu time   73.3688: real time   73.3010
    ORTHCH:  cpu time    3.4455: real time    3.4425
       DOS:  cpu time    0.0540: real time    0.0548
    CHARGE:  cpu time    4.9882: real time    4.9838
    MIXING:  cpu time    0.0100: real time    0.0092
    --------------------------------------------
      LOOP:  cpu time  101.4916: real time  101.4088

 eigenvalue-minimisations  : 43866
 total energy-change (2. order) :-0.3519707E+02  (-0.2159193E+01)
 number of electron     434.0000614 magnetization      93.4150335
 augmentation part      262.0591534 magnetization      75.0470220

 Broyden mixing:
  rms(total) = 0.82879E+01    rms(broyden)= 0.82876E+01
  rms(prec ) = 0.14652E+02
  weight for this iteration     100.00

 eigenvalues of (default mixing * dielectric matrix)
  average eigenvalue GAMMA=   0.5528
  0.9353  0.1703

 Free energy of the ion-electron system (eV)
  ---------------------------------------------------
  alpha Z        PSCENC =      4918.63829509
  Ewald energy   TEWEN  =    -53957.99350326
  -Hartree energ DENC   =    -18549.37464825
  -exchange      EXHF   =         0.00000000
  -V(xc)+E(xc)   XCENC  =      2193.45437190
  PAW double counting   =     56520.81944021   -59270.85680272
  entropy T*S    EENTRO =        -1.05221749
  eigenvalues    EBANDS =     -8298.05986506
  atomic energy  EATOM  =     76163.62791748
  Solvation  Ediel_sol  =         0.00000000
  ---------------------------------------------------
  free energy    TOTEN  =      -280.79701209 eV

  energy without entropy =     -279.74479461  energy(sigma->0) =     -280.27090335


--------------------------------------------------------------------------------------------------------




----------------------------------------- Iteration    1(   8)  ---------------------------------------


    POTLOK:  cpu time    0.2550: real time    0.2550
    SETDIJ:  cpu time    0.1250: real time    0.1238
    EDDIAG:  cpu time   19.1851: real time   19.1678
  RMM-DIIS:  cpu time   73.5248: real time   73.4571
    ORTHCH:  cpu time    3.4565: real time    3.4545
       DOS:  cpu time    0.0600: real time    0.0593
    CHARGE:  cpu time    4.9872: real time    4.9818
    MIXING:  cpu time    0.0090: real time    0.0095
    --------------------------------------------
      LOOP:  cpu time  101.6046: real time  101.5487

 eigenvalue-minimisations  : 43589
 total energy-change (2. order) : 0.2802304E+02  (-0.8644958E+00)
 number of electron     434.0000587 magnetization      85.9713422
 augmentation part      261.4962605 magnetization      64.3252079

 Broyden mixing:
  rms(total) = 0.12175E+01    rms(broyden)= 0.12162E+01
  rms(prec ) = 0.19485E+01
  weight for this iteration     100.00

 eigenvalues of (default mixing * dielectric matrix)
  average eigenvalue GAMMA=   0.6243
  0.9853  0.7613  0.1263

 Free energy of the ion-electron system (eV)
  ---------------------------------------------------
  alpha Z        PSCENC =      4918.63829509
  Ewald energy   TEWEN  =    -53957.99350326
  -Hartree energ DENC   =    -18569.84621414
  -exchange      EXHF   =         0.00000000
  -V(xc)+E(xc)   XCENC  =      2191.26533437
  PAW double counting   =     56646.14680587   -59410.74112031
  entropy T*S    EENTRO =        -0.78431416
  eigenvalues    EBANDS =     -8233.08717286
  atomic energy  EATOM  =     76163.62791748
  Solvation  Ediel_sol  =         0.00000000
  ---------------------------------------------------
  free energy    TOTEN  =      -252.77397190 eV

  energy without entropy =     -251.98965774  energy(sigma->0) =     -252.38181482


--------------------------------------------------------------------------------------------------------




----------------------------------------- Iteration    1(   9)  ---------------------------------------


    POTLOK:  cpu time    0.2620: real time    0.2622
    SETDIJ:  cpu time    0.1240: real time    0.1238
    EDDIAG:  cpu time   19.9090: real time   19.8909
  RMM-DIIS:  cpu time   73.1279: real time   73.0608
    ORTHCH:  cpu time    3.4645: real time    3.4607
       DOS:  cpu time    0.0600: real time    0.0600
    CHARGE:  cpu time    4.9682: real time    4.9642
    MIXING:  cpu time    0.0090: real time    0.0096
    --------------------------------------------
      LOOP:  cpu time  101.9275: real time  101.8384

 eigenvalue-minimisations  : 43558
 total energy-change (2. order) :-0.5929429E+01  (-0.3057799E+00)
 number of electron     434.0000590 magnetization      80.9213963
 augmentation part      261.9539347 magnetization      61.8687355

 Broyden mixing:
  rms(total) = 0.27769E+01    rms(broyden)= 0.27768E+01
  rms(prec ) = 0.49135E+01
  weight for this iteration     100.00

 eigenvalues of (default mixing * dielectric matrix)
  average eigenvalue GAMMA=   0.5431
  1.0951  0.7757  0.1171  0.1845

 Free energy of the ion-electron system (eV)
  ---------------------------------------------------
  alpha Z        PSCENC =      4918.63829509
  Ewald energy   TEWEN  =    -53957.99350326
  -Hartree energ DENC   =    -18501.91872860
  -exchange      EXHF   =         0.00000000
  -V(xc)+E(xc)   XCENC  =      2187.13501708
  PAW double counting   =     56799.67177472   -59580.39857554
  entropy T*S    EENTRO =        -0.95920831
  eigenvalues    EBANDS =     -8286.50638954
  atomic energy  EATOM  =     76163.62791748
  Solvation  Ediel_sol  =         0.00000000
  ---------------------------------------------------
  free energy    TOTEN  =      -258.70340088 eV

  energy without entropy =     -257.74419257  energy(sigma->0) =     -258.22379673


--------------------------------------------------------------------------------------------------------




----------------------------------------- Iteration    1(  10)  ---------------------------------------


    POTLOK:  cpu time    0.2590: real time    0.2586
    SETDIJ:  cpu time    0.1180: real time    0.1185
    EDDIAG:  cpu time   19.2081: real time   19.1908
  RMM-DIIS:  cpu time   75.0076: real time   74.9385
    ORTHCH:  cpu time    3.4615: real time    3.4585
       DOS:  cpu time    0.0590: real time    0.0591
    CHARGE:  cpu time    4.9293: real time    4.9236
    MIXING:  cpu time    0.0090: real time    0.0098
    --------------------------------------------
      LOOP:  cpu time  103.0543: real time  103.0080

 eigenvalue-minimisations  : 44875
 total energy-change (2. order) : 0.2819415E+01  (-0.1891307E+00)
 number of electron     434.0000588 magnetization      80.8542266
 augmentation part      262.7022010 magnetization      61.7481035

 Broyden mixing:
  rms(total) = 0.74614E+00    rms(broyden)= 0.74589E+00
  rms(prec ) = 0.11299E+01
  weight for this iteration     100.00

 eigenvalues of (default mixing * dielectric matrix)
  average eigenvalue GAMMA=   0.6521
  1.1762  1.1762  0.6507  0.1386  0.1189

 Free energy of the ion-electron system (eV)
  ---------------------------------------------------
  alpha Z        PSCENC =      4918.63829509
  Ewald energy   TEWEN  =    -53957.99350326
  -Hartree energ DENC   =    -18459.05173717
  -exchange      EXHF   =         0.00000000
  -V(xc)+E(xc)   XCENC  =      2184.45036337
  PAW double counting   =     56907.82929035   -59699.90334586
  entropy T*S    EENTRO =        -0.79067513
  eigenvalues    EBANDS =     -8312.69059051
  atomic energy  EATOM  =     76163.62791748
  Solvation  Ediel_sol  =         0.00000000
  ---------------------------------------------------
  free energy    TOTEN  =      -255.88398564 eV

  energy without entropy =     -255.09331051  energy(sigma->0) =     -255.48864807


--------------------------------------------------------------------------------------------------------




----------------------------------------- Iteration    1(  11)  ---------------------------------------


    POTLOK:  cpu time    0.2580: real time    0.2575
    SETDIJ:  cpu time    0.1240: real time    0.1235
    EDDIAG:  cpu time   19.1801: real time   19.1632
  RMM-DIIS:  cpu time   75.2466: real time   75.1773
    ORTHCH:  cpu time    3.4885: real time    3.4852
       DOS:  cpu time    0.0570: real time    0.0571
    CHARGE:  cpu time    4.9512: real time    4.9470
    MIXING:  cpu time    0.0110: real time    0.0104
    --------------------------------------------
      LOOP:  cpu time  103.3173: real time  103.2518

 eigenvalue-minimisations  : 44696
 total energy-change (2. order) :-0.5827946E+00  (-0.6065328E-01)
 number of electron     434.0000589 magnetization      80.8679627
 augmentation part      262.7174617 magnetization      62.1667821

 Broyden mixing:
  rms(total) = 0.10847E+01    rms(broyden)= 0.10847E+01
  rms(prec ) = 0.17584E+01
  weight for this iteration     100.00

 eigenvalues of (default mixing * dielectric matrix)
  average eigenvalue GAMMA=   0.6246
  1.3395  1.3395  0.6566  0.1675  0.1298  0.1149

 Free energy of the ion-electron system (eV)
  ---------------------------------------------------
  alpha Z        PSCENC =      4918.63829509
  Ewald energy   TEWEN  =    -53957.99350326
  -Hartree energ DENC   =    -18451.87093385
  -exchange      EXHF   =         0.00000000
  -V(xc)+E(xc)   XCENC  =      2185.11676086
  PAW double counting   =     56977.64018583   -59776.15488821
  entropy T*S    EENTRO =        -0.75765023
  eigenvalues    EBANDS =     -8314.71296393
  atomic energy  EATOM  =     76163.62791748
  Solvation  Ediel_sol  =         0.00000000
  ---------------------------------------------------
  free energy    TOTEN  =      -256.46678022 eV

  energy without entropy =     -255.70912999  energy(sigma->0) =     -256.08795510


--------------------------------------------------------------------------------------------------------




----------------------------------------- Iteration    1(  12)  ---------------------------------------


    POTLOK:  cpu time    0.2610: real time    0.2608
    SETDIJ:  cpu time    0.1240: real time    0.1236
    EDDIAG:  cpu time   19.2611: real time   19.2437
  RMM-DIIS:  cpu time   73.0049: real time   72.9384
    ORTHCH:  cpu time    3.4625: real time    3.4587
       DOS:  cpu time    0.0600: real time    0.0596
    CHARGE:  cpu time    4.9303: real time    4.9262
    MIXING:  cpu time    0.0110: real time    0.0105
    --------------------------------------------
      LOOP:  cpu time  101.1166: real time  101.0599

 eigenvalue-minimisations  : 43521
 total energy-change (2. order) : 0.3509139E+00  (-0.3760695E-01)
 number of electron     434.0000588 magnetization      80.5399463
 augmentation part      262.6915175 magnetization      62.4336924

 Broyden mixing:
  rms(total) = 0.31218E+00    rms(broyden)= 0.31213E+00
  rms(prec ) = 0.50782E+00
  weight for this iteration     100.00

 eigenvalues of (default mixing * dielectric matrix)
  average eigenvalue GAMMA=   0.6309
  1.3460  1.3460  0.6599  0.6599  0.1169  0.1371  0.1503

 Free energy of the ion-electron system (eV)
  ---------------------------------------------------
  alpha Z        PSCENC =      4918.63829509
  Ewald energy   TEWEN  =    -53957.99350326
  -Hartree energ DENC   =    -18441.15182209
  -exchange      EXHF   =         0.00000000
  -V(xc)+E(xc)   XCENC  =      2186.30666193
  PAW double counting   =     57093.23805096   -59902.43101166
  entropy T*S    EENTRO =        -0.71022581
  eigenvalues    EBANDS =     -8315.64022897
  atomic energy  EATOM  =     76163.62791748
  Solvation  Ediel_sol  =         0.00000000
  ---------------------------------------------------
  free energy    TOTEN  =      -256.11586632 eV

  energy without entropy =     -255.40564051  energy(sigma->0) =     -255.76075342


--------------------------------------------------------------------------------------------------------




----------------------------------------- Iteration    1(  13)  ---------------------------------------


    POTLOK:  cpu time    0.2560: real time    0.2556
    SETDIJ:  cpu time    0.1190: real time    0.1189
    EDDIAG:  cpu time   19.1731: real time   19.1550
  RMM-DIIS:  cpu time   73.3648: real time   73.2977
    ORTHCH:  cpu time    3.5125: real time    3.5099
       DOS:  cpu time    0.0540: real time    0.0544
    CHARGE:  cpu time    4.9742: real time    4.9689
    MIXING:  cpu time    0.0060: real time    0.0058
    --------------------------------------------
      LOOP:  cpu time  101.4606: real time  101.4048

 eigenvalue-minimisations  : 43778
 total energy-change (2. order) :-0.6417171E-01  (-0.9764699E-02)
 number of electron     434.0000588 magnetization      79.9516960
 augmentation part      262.6702395 magnetization      61.9368323

 Broyden mixing:
  rms(total) = 0.41395E+00    rms(broyden)= 0.41393E+00
  rms(prec ) = 0.72100E+00
  weight for this iteration     100.00

 eigenvalues of (default mixing * dielectric matrix)
  average eigenvalue GAMMA=   0.6091
  1.2614  1.2614  1.0793  0.7070  0.1590  0.1590  0.1166  0.1291

 Free energy of the ion-electron system (eV)
  ---------------------------------------------------
  alpha Z        PSCENC =      4918.63829509
  Ewald energy   TEWEN  =    -53957.99350326
  -Hartree energ DENC   =    -18437.28517053
  -exchange      EXHF   =         0.00000000
  -V(xc)+E(xc)   XCENC  =      2186.21579170
  PAW double counting   =     57138.03009607   -59951.63803885
  entropy T*S    EENTRO =        -0.71280138
  eigenvalues    EBANDS =     -8315.06262435
  atomic energy  EATOM  =     76163.62791748
  Solvation  Ediel_sol  =         0.00000000
  ---------------------------------------------------
  free energy    TOTEN  =      -256.18003804 eV

  energy without entropy =     -255.46723665  energy(sigma->0) =     -255.82363734


--------------------------------------------------------------------------------------------------------




----------------------------------------- Iteration    1(  14)  ---------------------------------------


    POTLOK:  cpu time    0.3190: real time    0.3191
    SETDIJ:  cpu time    0.1270: real time    0.1270
    EDDIAG:  cpu time   19.8350: real time   19.8167
  RMM-DIIS:  cpu time   73.4518: real time   73.3839
    ORTHCH:  cpu time    3.3845: real time    3.3817
       DOS:  cpu time    0.0280: real time    0.0282
    CHARGE:  cpu time    4.9762: real time    4.9723
    MIXING:  cpu time    0.0120: real time    0.0115
    --------------------------------------------
      LOOP:  cpu time  102.1345: real time  102.0447

 eigenvalue-minimisations  : 43403
 total energy-change (2. order) : 0.6120654E-01  (-0.4750402E-02)
 number of electron     434.0000587 magnetization      79.8429596
 augmentation part      262.6175051 magnetization      61.8971976

 Broyden mixing:
  rms(total) = 0.19946E+00    rms(broyden)= 0.19943E+00
  rms(prec ) = 0.33011E+00
  weight for this iteration     100.00

 eigenvalues of (default mixing * dielectric matrix)
  average eigenvalue GAMMA=   0.6417
  1.5462  1.2395  1.2395  0.7100  0.4864  0.1642  0.1165  0.1363  0.1363

 Free energy of the ion-electron system (eV)
  ---------------------------------------------------
  alpha Z        PSCENC =      4918.63829509
  Ewald energy   TEWEN  =    -53957.99350326
  -Hartree energ DENC   =    -18430.77299242
  -exchange      EXHF   =         0.00000000
  -V(xc)+E(xc)   XCENC  =      2185.86498882
  PAW double counting   =     57209.45155914   -60030.12179727
  entropy T*S    EENTRO =        -0.70435513
  eigenvalues    EBANDS =     -8314.10894393
  atomic energy  EATOM  =     76163.62791748
  Solvation  Ediel_sol  =         0.00000000
  ---------------------------------------------------
  free energy    TOTEN  =      -256.11883149 eV

  energy without entropy =     -255.41447637  energy(sigma->0) =     -255.76665393


--------------------------------------------------------------------------------------------------------




----------------------------------------- Iteration    1(  15)  ---------------------------------------


    POTLOK:  cpu time    0.2630: real time    0.2626
    SETDIJ:  cpu time    0.1220: real time    0.1216
    EDDIAG:  cpu time   19.7610: real time   19.7430
  RMM-DIIS:  cpu time   65.8660: real time   65.8056
    ORTHCH:  cpu time    3.3715: real time    3.3688
       DOS:  cpu time    0.0290: real time    0.0285
    CHARGE:  cpu time    4.9672: real time    4.9633
    MIXING:  cpu time    0.0120: real time    0.0119
    --------------------------------------------
      LOOP:  cpu time   94.3937: real time   94.3391

 eigenvalue-minimisations  : 38762
 total energy-change (2. order) : 0.8071025E-02  (-0.1776683E-02)
 number of electron     434.0000587 magnetization      79.8222978
 augmentation part      262.6271290 magnetization      61.8929128

 Broyden mixing:
  rms(total) = 0.15622E+00    rms(broyden)= 0.15621E+00
  rms(prec ) = 0.26378E+00
  weight for this iteration     100.00

 eigenvalues of (default mixing * dielectric matrix)
  average eigenvalue GAMMA=   0.6516
  1.7714  1.2986  1.2986  0.7935  0.6525  0.1716  0.1168  0.1467  0.1381  0.1279

 Free energy of the ion-electron system (eV)
  ---------------------------------------------------
  alpha Z        PSCENC =      4918.63829509
  Ewald energy   TEWEN  =    -53957.99350326
  -Hartree energ DENC   =    -18427.62657007
  -exchange      EXHF   =         0.00000000
  -V(xc)+E(xc)   XCENC  =      2185.70918038
  PAW double counting   =     57231.18273115   -60053.94633138
  entropy T*S    EENTRO =        -0.70474594
  eigenvalues    EBANDS =     -8314.99773393
  atomic energy  EATOM  =     76163.62791748
  Solvation  Ediel_sol  =         0.00000000
  ---------------------------------------------------
  free energy    TOTEN  =      -256.11076047 eV

  energy without entropy =     -255.40601453  energy(sigma->0) =     -255.75838750


--------------------------------------------------------------------------------------------------------




----------------------------------------- Iteration    1(  16)  ---------------------------------------


    POTLOK:  cpu time    0.2630: real time    0.2635
    SETDIJ:  cpu time    0.1220: real time    0.1215
    EDDIAG:  cpu time   19.6760: real time   19.6578
  RMM-DIIS:  cpu time   57.3223: real time   57.2701
    ORTHCH:  cpu time    3.3695: real time    3.3670
       DOS:  cpu time    0.0280: real time    0.0278
    CHARGE:  cpu time    4.9622: real time    4.9579
    MIXING:  cpu time    0.0140: real time    0.0125
    --------------------------------------------
      LOOP:  cpu time   85.7600: real time   85.7199

 eigenvalue-minimisations  : 32847
 total energy-change (2. order) : 0.8500363E-02  (-0.4530226E-03)
 number of electron     434.0000587 magnetization      79.9393940
 augmentation part      262.6705104 magnetization      62.0204629

 Broyden mixing:
  rms(total) = 0.61044E-01    rms(broyden)= 0.61040E-01
  rms(prec ) = 0.10323E+00
  weight for this iteration     100.00

 eigenvalues of (default mixing * dielectric matrix)
  average eigenvalue GAMMA=   0.6516
  1.6925  1.2252  1.2252  1.0219  0.6913  0.6042  0.1740  0.1166  0.1484  0.1378
  0.1301

 Free energy of the ion-electron system (eV)
  ---------------------------------------------------
  alpha Z        PSCENC =      4918.63829509
  Ewald energy   TEWEN  =    -53957.99350326
  -Hartree energ DENC   =    -18420.53714199
  -exchange      EXHF   =         0.00000000
  -V(xc)+E(xc)   XCENC  =      2185.48272203
  PAW double counting   =     57276.74475781   -60103.67384091
  entropy T*S    EENTRO =        -0.70686053
  eigenvalues    EBANDS =     -8317.68460583
  atomic energy  EATOM  =     76163.62791748
  Solvation  Ediel_sol  =         0.00000000
  ---------------------------------------------------
  free energy    TOTEN  =      -256.10226010 eV

  energy without entropy =     -255.39539957  energy(sigma->0) =     -255.74882984


--------------------------------------------------------------------------------------------------------




----------------------------------------- Iteration    1(  17)  ---------------------------------------


    POTLOK:  cpu time    0.2530: real time    0.2525
    SETDIJ:  cpu time    0.1220: real time    0.1215
    EDDIAG:  cpu time   19.7120: real time   19.6945
  RMM-DIIS:  cpu time   51.4312: real time   51.3834
    ORTHCH:  cpu time    3.4025: real time    3.3995
       DOS:  cpu time    0.0280: real time    0.0280
    --------------------------------------------
      LOOP:  cpu time   74.9496: real time   74.9069

 eigenvalue-minimisations  : 28007
 total energy-change (2. order) :-0.1524846E-02  (-0.1958364E-03)
 number of electron     434.0000587 magnetization      79.9393940
 augmentation part      262.6705104 magnetization      62.0204629

 Free energy of the ion-electron system (eV)
  ---------------------------------------------------
  alpha Z        PSCENC =      4918.63829509
  Ewald energy   TEWEN  =    -53957.99350326
  -Hartree energ DENC   =    -18420.22739304
  -exchange      EXHF   =         0.00000000
  -V(xc)+E(xc)   XCENC  =      2185.54114429
  PAW double counting   =     57288.38799918   -60116.04001320
  entropy T*S    EENTRO =        -0.70705113
  eigenvalues    EBANDS =     -8317.33118037
  atomic energy  EATOM  =     76163.62791748
  Solvation  Ediel_sol  =         0.00000000
  ---------------------------------------------------
  free energy    TOTEN  =      -256.10378495 eV

  energy without entropy =     -255.39673382  energy(sigma->0) =     -255.75025939


--------------------------------------------------------------------------------------------------------




 average (electrostatic) potential at core
  the test charge radii are     0.9500
  (the norm of the test charge is              1.0000)
       1 -45.9517       2 -45.9544       3 -45.9527       4 -45.9482       5 -45.9853
       6 -45.9909       7 -45.9879       8 -45.9967       9 -45.9366      10 -45.9808
      11 -45.9559      12 -45.9520      13 -46.0173      14 -45.9468      15 -45.9878
      16 -45.9527      17 -45.9804      18 -45.9514      19 -45.9769      20 -45.9527
      21 -45.9861      22 -45.9517      23 -45.9788      24 -45.9577      25 -45.9628
      26 -45.9952      27 -45.9961      28 -45.9661      29 -45.9573      30 -45.9868
      31 -46.0033
 
 
 
 E-fermi :   4.7410     XC(G=0): -13.1053     alpha+bet :-12.0074


 spin component 1

 k-point     1 :       0.1250    0.1250    0.1250
  band No.  band energies     occupation 
      1     -49.6777      1.00000
      2     -49.6757      1.00000
      3     -49.6748      1.00000
      4     -49.6703      1.00000
      5     -49.6517      1.00000
      6     -49.6501      1.00000
      7     -49.6494      1.00000
      8     -49.6146      1.00000
      9     -49.6105      1.00000
     10     -49.6083      1.00000
     11     -49.6064      1.00000
     12     -49.6029      1.00000
     13     -49.6017      1.00000
     14     -49.5976      1.00000
     15     -49.5956      1.00000
     16     -49.5911      1.00000
     17     -49.5843      1.00000
     18     -49.5809      1.00000
     19     -49.5779      1.00000
     20     -49.5754      1.00000
     21     -49.5731      1.00000
     22     -49.5724      1.00000
     23     -49.5647      1.00000
     24     -49.5584      1.00000
     25     -49.5564      1.00000
     26     -49.5502      1.00000
     27     -49.5486      1.00000
     28     -49.5465      1.00000
     29     -49.5428      1.00000
     30     -49.5393      1.00000
     31     -49.5370      1.00000
     32     -49.5359      1.00000
     33     -49.5350      1.00000
     34     -49.5268      1.00000
     35     -49.5090      1.00000
     36     -49.5070      1.00000
     37     -49.5058      1.00000
     38     -49.4920      1.00000
     39     -49.4908      1.00000
     40     -49.4892      1.00000
     41     -49.4871      1.00000
     42     -49.4860      1.00000
     43     -49.4845      1.00000
     44     -49.4839      1.00000
     45     -49.4804      1.00000
     46     -49.4786      1.00000
     47     -49.4772      1.00000
     48     -49.4758      1.00000
     49     -49.4745      1.00000
     50     -49.4730      1.00000
     51     -49.4721      1.00000
     52     -49.4703      1.00000
     53     -49.4677      1.00000
     54     -49.4611      1.00000
     55     -49.4567      1.00000
     56     -49.4534      1.00000
     57     -49.4438      1.00000
     58     -49.4430      1.00000
     59     -49.4356      1.00000
     60     -49.4331      1.00000
     61     -49.4324      1.00000
     62     -49.4283      1.00000
     63     -49.4249      1.00000
     64     -49.4235      1.00000
     65     -49.4213      1.00000
     66     -49.4117      1.00000
     67     -49.4082      1.00000
     68     -49.4063      1.00000
     69     -49.4048      1.00000
     70     -49.4030      1.00000
     71     -49.4019      1.00000
     72     -49.4009      1.00000
     73     -49.4002      1.00000
     74     -49.3994      1.00000
     75     -49.3982      1.00000
     76     -49.3969      1.00000
     77     -49.3931      1.00000
     78     -49.3927      1.00000
     79     -49.3892      1.00000
     80     -49.3855      1.00000
     81     -49.3816      1.00000
     82     -49.3800      1.00000
     83     -49.3765      1.00000
     84     -49.3741      1.00000
     85     -49.3728      1.00000
     86     -49.3696      1.00000
     87     -49.3661      1.00000
     88     -49.3632      1.00000
     89     -49.3617      1.00000
     90     -49.3571      1.00000
     91     -49.3410      1.00000
     92     -49.3309      1.00000
     93     -49.3232      1.00000
     94      -3.4002      1.00000
     95      -1.3906      1.00000
     96      -1.3869      1.00000
     97      -1.2207      1.00000
     98      -0.4836      1.00000
     99      -0.4777      1.00000
    100      -0.3657      1.00000
    101      -0.1616      1.00000
    102      -0.1046      1.00000
    103      -0.0706      1.00000
    104      -0.0682      1.00000
    105      -0.0079      1.00000
    106      -0.0040      1.00000
    107       0.0040      1.00000
    108       0.1250      1.00000
    109       0.1275      1.00000
    110       0.3284      1.00000
    111       0.4916      1.00000
    112       0.4953      1.00000
    113       0.4994      1.00000
    114       0.6321      1.00000
    115       0.6535      1.00000
    116       0.6630      1.00000
    117       0.6726      1.00000
    118       0.6841      1.00000
    119       0.6869      1.00000
    120       0.6978      1.00000
    121       0.7662      1.00000
    122       0.7753      1.00000
    123       0.9004      1.00000
    124       0.9012      1.00000
    125       0.9656      1.00000
    126       0.9784      1.00000
    127       0.9803      1.00000
    128       1.1559      1.00000
    129       1.1568      1.00000
    130       1.2090      1.00000
    131       1.2601      1.00000
    132       1.3438      1.00000
    133       1.3582      1.00000
    134       1.3631      1.00000
    135       1.4215      1.00000
    136       1.4226      1.00000
    137       1.4788      1.00000
    138       1.5271      1.00000
    139       1.5342      1.00000
    140       1.5454      1.00000
    141       1.5488      1.00000
    142       1.5567      1.00000
    143       1.5615      1.00000
    144       1.6349      1.00000
    145       1.6546      1.00000
    146       1.6577      1.00000
    147       1.6950      1.00000
    148       1.7216      1.00000
    149       1.7254      1.00000
    150       1.7595      1.00000
    151       1.7627      1.00000
    152       1.7664      1.00000
    153       1.7840      1.00000
    154       1.7864      1.00000
    155       1.7988      1.00000
    156       1.8463      1.00000
    157       1.8522      1.00000
    158       1.8571      1.00000
    159       1.9132      1.00000
    160       1.9179      1.00000
    161       1.9230      1.00000
    162       1.9512      1.00000
    163       2.0050      1.00000
    164       2.0073      1.00000
    165       2.0629      1.00000
    166       2.0698      1.00000
    167       2.0768      1.00000
    168       2.0857      1.00000
    169       2.1338      1.00000
    170       2.1355      1.00000
    171       2.1578      1.00000
    172       2.1606      1.00000
    173       2.2353      1.00000
    174       2.2393      1.00000
    175       2.3100      1.00000
    176       2.3119      1.00000
    177       2.3379      1.00000
    178       2.3401      1.00000
    179       2.5331      1.00000
    180       2.5958      1.00000
    181       2.5989      1.00000
    182       2.6454      1.00000
    183       2.6512      1.00000
    184       2.7344      1.00000
    185       2.7469      1.00000
    186       2.7528      1.00000
    187       2.7577      1.00000
    188       2.8081      1.00000
    189       2.8224      1.00000
    190       2.8251      1.00000
    191       2.8814      1.00000
    192       2.8884      1.00000
    193       2.8968      1.00000
    194       2.8993      1.00000
    195       2.9068      1.00000
    196       2.9121      1.00000
    197       2.9723      1.00000
    198       2.9856      1.00000
    199       3.0940      1.00000
    200       3.1001      1.00000
    201       3.1231      1.00000
    202       3.1256      1.00000
    203       3.2048      1.00000
    204       3.2066      1.00000
    205       3.2936      1.00000
    206       3.2964      1.00000
    207       3.3022      1.00000
    208       3.3046      1.00000
    209       3.3080      1.00000
    210       3.3105      1.00000
    211       3.3159      1.00000
    212       3.3344      1.00000
    213       3.3481      1.00000
    214       3.3530      1.00000
    215       3.3606      1.00000
    216       3.4522      1.00000
    217       3.4646      1.00000
    218       3.5581      1.00000
    219       3.5731      1.00000
    220       3.5777      1.00000
    221       3.5797      1.00000
    222       3.6057      1.00000
    223       3.6086      1.00000
    224       3.6247      1.00000
    225       3.6287      1.00000
    226       3.6525      1.00000
    227       3.6587      1.00000
    228       3.6608      1.00000
    229       3.6948      1.00000
    230       3.7003      1.00000
    231       3.7051      1.00000
    232       3.7246      1.00000
    233       3.8161      1.00000
    234       3.8196      1.00000
    235       3.8611      1.00000
    236       3.9740      1.00000
    237       3.9794      1.00000
    238       4.0127      1.00000
    239       4.0184      1.00000
    240       4.0504      1.00000
    241       4.0974      1.00000
    242       4.1683      0.99997
    243       4.1705      0.99997
    244       4.1753      0.99997
    245       4.2395      0.99980
    246       4.2433      0.99978
    247       4.2441      0.99978
    248       4.3464      0.99737
    249       4.3486      0.99724
    250       4.3722      0.99545
    251       4.4254      0.98719
    252       4.4565      0.97788
    253       4.4613      0.97603
    254       4.4629      0.97540
    255       4.4684      0.97306
    256       4.4705      0.97213
    257       4.9883      0.04018
    258       4.9938      0.03695
    259       5.0666      0.01067
    260       5.3407      0.00001
    261       5.4150      0.00000
    262       5.4173      0.00000
    263       5.8340      0.00000
    264       5.8382      0.00000
    265       5.9553      0.00000
    266       6.0540      0.00000
    267       6.0857      0.00000
    268       6.0886      0.00000
    269       7.0313      0.00000
    270       7.0336      0.00000
    271       7.2531      0.00000
    272       7.4422      0.00000
    273       7.4518      0.00000
    274       7.4527      0.00000
    275      10.7986      0.00000
    276      10.8001      0.00000
    277      10.9834      0.00000
    278      11.1078      0.00000
    279      11.1115      0.00000
    280      11.1314      0.00000
    281      11.2783      0.00000
    282      11.2827      0.00000
    283      11.2973      0.00000
    284      11.6373      0.00000
    285      12.7441      0.00000
    286      12.7525      0.00000
    287      12.8188      0.00000
    288      12.8991      0.00000
    289      12.9877      0.00000
    290      12.9939      0.00000
    291      13.9884      0.00000
    292      13.9916      0.00000
    293      14.0446      0.00000
    294      14.3142      0.00000
    295      14.3146      0.00000
    296      14.3985      0.00000
    297      15.1770      0.00000
    298      15.1828      0.00000
    299      15.1921      0.00000
    300      15.2022      0.00000
    301      15.2115      0.00000
    302      15.2374      0.00000
    303      15.3651      0.00000
    304      15.3755      0.00000
    305      15.4198      0.00000
    306      15.5234      0.00000
    307      15.5684      0.00000
    308      15.5732      0.00000
    309      16.4575      0.00000
    310      16.4624      0.00000
    311      16.5071      0.00000
    312      16.5505      0.00000
    313      16.5541      0.00000
    314      16.6113      0.00000
    315      16.8179      0.00000
    316      16.8453      0.00000
    317      16.8513      0.00000
    318      17.0620      0.00000
    319      17.1198      0.00000
    320      17.1288      0.00000
    321      18.1073      0.00000
    322      18.1140      0.00000
    323      18.1280      0.00000
    324      18.1845      0.00000
    325      18.1900      0.00000
    326      18.2128      0.00000
    327      18.3841      0.00000
    328      18.3983      0.00000
    329      18.4121      0.00000
    330      19.2907      0.00000
    331      19.3645      0.00000
    332      19.3696      0.00000
    333      19.4725      0.00000
    334      19.4784      0.00000
    335      19.5946      0.00000
    336      20.8756      0.00000
    337      20.8557      0.00000
    338      21.0270      0.00000
    339      22.4021      0.00000
    340      22.4630      0.00000

 k-point     2 :       0.3750    0.1250    0.1250
  band No.  band energies     occupation 
      1     -49.6660      1.00000
      2     -49.6650      1.00000
      3     -49.6616      1.00000
      4     -49.6558      1.00000
      5     -49.6387      1.00000
      6     -49.6365      1.00000
      7     -49.6337      1.00000
      8     -49.6285      1.00000
      9     -49.6256      1.00000
     10     -49.6230      1.00000
     11     -49.6194      1.00000
     12     -49.6134      1.00000
     13     -49.6115      1.00000
     14     -49.6080      1.00000
     15     -49.6001      1.00000
     16     -49.5986      1.00000
     17     -49.5959      1.00000
     18     -49.5939      1.00000
     19     -49.5911      1.00000
     20     -49.5842      1.00000
     21     -49.5810      1.00000
     22     -49.5749      1.00000
     23     -49.5705      1.00000
     24     -49.5649      1.00000
     25     -49.5576      1.00000
     26     -49.5518      1.00000
     27     -49.5486      1.00000
     28     -49.5444      1.00000
     29     -49.5424      1.00000
     30     -49.5372      1.00000
     31     -49.5341      1.00000
     32     -49.5294      1.00000
     33     -49.5243      1.00000
     34     -49.5217      1.00000
     35     -49.5173      1.00000
     36     -49.5135      1.00000
     37     -49.5072      1.00000
     38     -49.5029      1.00000
     39     -49.4991      1.00000
     40     -49.4959      1.00000
     41     -49.4945      1.00000
     42     -49.4888      1.00000
     43     -49.4783      1.00000
     44     -49.4762      1.00000
     45     -49.4742      1.00000
     46     -49.4718      1.00000
     47     -49.4687      1.00000
     48     -49.4620      1.00000
     49     -49.4606      1.00000
     50     -49.4574      1.00000
     51     -49.4565      1.00000
     52     -49.4544      1.00000
     53     -49.4524      1.00000
     54     -49.4506      1.00000
     55     -49.4457      1.00000
     56     -49.4442      1.00000
     57     -49.4379      1.00000
     58     -49.4369      1.00000
     59     -49.4338      1.00000
     60     -49.4310      1.00000
     61     -49.4301      1.00000
     62     -49.4254      1.00000
     63     -49.4238      1.00000
     64     -49.4220      1.00000
     65     -49.4199      1.00000
     66     -49.4185      1.00000
     67     -49.4174      1.00000
     68     -49.4160      1.00000
     69     -49.4130      1.00000
     70     -49.4107      1.00000
     71     -49.4069      1.00000
     72     -49.4045      1.00000
     73     -49.4037      1.00000
     74     -49.4025      1.00000
     75     -49.4002      1.00000
     76     -49.3950      1.00000
     77     -49.3932      1.00000
     78     -49.3912      1.00000
     79     -49.3900      1.00000
     80     -49.3862      1.00000
[...]
 -0.009  -0.009  -0.000  -0.021  -0.022  -0.000  -0.000   0.021  -0.016   0.000   0.029  -0.000   0.176  -0.004   0.000   0.007
 -0.003  -0.003  -0.000  -0.006  -0.007  -0.000  -0.000  -0.016  -0.010  -0.000   0.005   0.000  -0.004   0.176   0.000  -0.009
 -0.000   0.000   0.002  -0.000   0.000   0.001   0.003   0.000  -0.000   0.082  -0.000  -0.013   0.000   0.000   0.183  -0.000
  0.005   0.005   0.000   0.012   0.011   0.000   0.000   0.029   0.005  -0.000  -0.016  -0.000   0.007  -0.009  -0.000   0.187
 -0.002  -0.001   0.001  -0.009  -0.007   0.000   0.000  -0.012  -0.009  -0.000   0.015   0.000  -0.061  -0.017  -0.000   0.031
  0.005   0.006   0.004   0.002   0.002   0.000  -0.000   0.006   0.007   0.000  -0.012   0.000   0.003   0.000  -0.000  -0.000
 total augmentation occupancy for first ion, spin component:           2
 -0.013   0.001  -0.000  -0.017   0.002  -0.000  -0.000   0.006   0.003  -0.000  -0.004  -0.000   0.002   0.000  -0.000  -0.001
  0.001  -0.013  -0.000   0.002  -0.017  -0.000   0.000   0.007   0.002   0.000  -0.005  -0.000   0.002   0.001  -0.000  -0.000
 -0.000  -0.000  -0.013  -0.000  -0.000  -0.018  -0.001  -0.000   0.000  -0.001  -0.000   0.000  -0.000   0.000   0.000  -0.000
 -0.017   0.002  -0.000  -0.018   0.004  -0.000  -0.000   0.016   0.007  -0.000  -0.010   0.000   0.001  -0.001  -0.000   0.000
  0.002  -0.017  -0.000   0.004  -0.018  -0.000   0.000   0.016   0.005   0.000  -0.011  -0.000   0.001   0.000  -0.000   0.001
 -0.000  -0.000  -0.018  -0.000  -0.000  -0.019  -0.003  -0.000   0.000  -0.003  -0.000   0.001  -0.000  -0.000   0.001  -0.000
 -0.000   0.000  -0.001  -0.000   0.000  -0.003   0.424   0.000   0.000  -0.035  -0.001  -0.274  -0.000  -0.000   0.005   0.000
  0.006   0.007  -0.000   0.016   0.016  -0.000   0.000   0.547   0.026   0.000  -0.046  -0.000  -0.281  -0.002  -0.000   0.003
  0.003   0.002   0.000   0.007   0.005   0.000   0.000   0.026   0.614   0.000  -0.027  -0.000  -0.002  -0.283  -0.000   0.006
 -0.000   0.000  -0.001  -0.000   0.000  -0.003  -0.035   0.000   0.000   0.425   0.000   0.005  -0.000  -0.000  -0.274   0.000
 -0.004  -0.005  -0.000  -0.010  -0.011  -0.000  -0.001  -0.046  -0.027   0.000   0.646   0.000   0.003   0.006   0.000  -0.290
 -0.000  -0.000   0.000   0.000  -0.000   0.001  -0.274  -0.000  -0.000   0.005   0.000   0.026   0.000   0.000  -0.000  -0.000
  0.002   0.002  -0.000   0.001   0.001  -0.000  -0.000  -0.281  -0.002  -0.000   0.003   0.000   0.033   0.003  -0.000  -0.005
  0.000   0.001   0.000  -0.001   0.000  -0.000  -0.000  -0.002  -0.283  -0.000   0.006   0.000   0.003   0.035   0.000  -0.001
 -0.000  -0.000   0.000  -0.000  -0.000   0.001   0.005  -0.000  -0.000  -0.274   0.000  -0.000  -0.000   0.000   0.026   0.000
 -0.001  -0.000  -0.000   0.000   0.001  -0.000   0.000   0.003   0.006   0.000  -0.290  -0.000  -0.005  -0.001   0.000   0.036
  0.002   0.002  -0.000   0.005   0.004  -0.000  -0.000   0.034   0.013   0.000  -0.022  -0.000  -0.002  -0.000  -0.000   0.001
 -0.000  -0.000   0.000  -0.000  -0.000  -0.000  -0.000   0.005   0.005   0.000  -0.009   0.000  -0.001  -0.001   0.000   0.003


------------------------ aborting loop because EDIFF is reached ----------------------------------------


 


 total charge     
 
# of ion     s       p       d       tot
----------------------------------------
  1        0.377   6.338   6.009  12.725
  2        0.377   6.339   6.011  12.727
  3        0.377   6.338   6.006  12.721
  4        0.377   6.338   6.007  12.722
  5        0.371   6.348   6.003  12.721
  6        0.371   6.348   6.003  12.723
  7        0.370   6.348   6.011  12.729
  8        0.371   6.348   6.006  12.724
  9        0.381   6.367   6.001  12.749
 10        0.381   6.367   6.021  12.769
 11        0.366   6.341   6.002  12.708
 12        0.381   6.368   6.010  12.759
 13        0.366   6.342   6.010  12.719
 14        0.366   6.342   5.999  12.706
 15        0.369   6.343   6.018  12.730
 16        0.378   6.340   6.017  12.734
 17        0.371   6.348   6.002  12.720
 18        0.377   6.338   6.005  12.720
 19        0.370   6.348   6.007  12.725
 20        0.378   6.339   6.008  12.724
 21        0.370   6.347   5.997  12.715
 22        0.377   6.339   6.005  12.720
 23        0.370   6.347   6.011  12.728
 24        0.378   6.339   6.006  12.723
 25        0.378   6.340   6.023  12.742
 26        0.370   6.347   6.004  12.721
 27        0.370   6.348   6.006  12.724
 28        0.377   6.338   6.009  12.724
 29        0.378   6.339   6.002  12.718
 30        0.370   6.347   6.015  12.733
 31        0.370   6.347   6.003  12.720
------------------------------------------------
tot       11.584 196.705 186.236 394.525
 


 magnetization (x)
 
# of ion     s       p       d       tot
----------------------------------------
  1       -0.005  -0.031   2.643   2.606
  2       -0.005  -0.031   2.640   2.604
  3       -0.005  -0.031   2.645   2.609
  4       -0.005  -0.031   2.644   2.608
  5       -0.005  -0.033   2.647   2.609
  6       -0.005  -0.033   2.646   2.607
  7       -0.005  -0.033   2.644   2.605
  8       -0.005  -0.033   2.646   2.607
  9       -0.008  -0.041   2.557   2.508
 10       -0.008  -0.041   2.548   2.499
 11       -0.006  -0.034   2.670   2.630
 12       -0.008  -0.041   2.550   2.502
 13       -0.007  -0.034   2.663   2.623
 14       -0.007  -0.034   2.670   2.630
 15       -0.005  -0.032   2.629   2.592
 16       -0.005  -0.031   2.636   2.599
 17       -0.005  -0.033   2.648   2.609
 18       -0.005  -0.031   2.644   2.608
 19       -0.005  -0.033   2.646   2.607
 20       -0.005  -0.031   2.642   2.605
 21       -0.005  -0.033   2.652   2.613
 22       -0.005  -0.031   2.645   2.608
 23       -0.005  -0.033   2.645   2.607
 24       -0.005  -0.031   2.643   2.606
 25       -0.005  -0.031   2.631   2.594
 26       -0.005  -0.033   2.649   2.610
 27       -0.005  -0.033   2.646   2.607
 28       -0.005  -0.031   2.643   2.607
 29       -0.005  -0.031   2.645   2.609
 30       -0.005  -0.033   2.642   2.604
 31       -0.005  -0.033   2.649   2.610
------------------------------------------------
tot       -0.176  -1.027  81.746  80.542
 
    CHARGE:  cpu time    5.0052: real time    5.0008
    FORLOC:  cpu time    0.0450: real time    0.0450
    FORNL :  cpu time   34.0708: real time   34.0397
    FORCOR:  cpu time    0.4509: real time    0.4499
    FORHAR:  cpu time    0.0800: real time    0.0807
    MIXING:  cpu time    0.0260: real time    0.0253
    OFIELD:  cpu time    0.0000: real time    0.0000

 VOLUME and BASIS-vectors are now :
 -----------------------------------------------------------------------------
  energy-cutoff  :      520.00
  volume of cell :      383.80
      direct lattice vectors                 reciprocal lattice vectors
     7.267193000  0.000000000  0.000000000     0.137604712  0.000000000  0.000000000
     0.000000000  7.267193000  0.000000000     0.000000000  0.137604712  0.000000000
     0.000000000  0.000000000  7.267193000     0.000000000  0.000000000  0.137604712

  length of vectors
     7.267193000  7.267193000  7.267193000     0.137604712  0.137604712  0.137604712


 FORCES acting on ions
    electron-ion (+dipol)            ewald-force                    non-local-force                 convergence-correction
 -----------------------------------------------------------------------------------------------
   0.155E+01 -.168E+03 -.162E+03   -.147E+01 0.166E+03 0.161E+03   -.135E+00 0.697E+00 0.699E+00   0.145E-01 0.977E+00 -.161E+00
   0.359E+01 -.164E+03 0.165E+03   -.297E+01 0.163E+03 -.164E+03   0.140E-02 0.608E+00 -.704E+00   -.625E+00 0.690E+00 0.161E+00
   0.356E+00 0.166E+03 -.165E+03   -.536E+00 -.165E+03 0.164E+03   -.713E-01 -.676E+00 0.659E+00   0.229E+00 -.990E+00 0.375E+00
   0.262E+01 0.163E+03 0.167E+03   -.224E+01 -.162E+03 -.166E+03   -.110E+00 -.583E+00 -.693E+00   -.295E+00 -.701E+00 -.353E+00
   -.804E-01 -.153E+02 -.168E+02   0.132E-01 0.144E+02 0.161E+02   0.747E-01 -.118E+00 -.122E+00   -.751E-02 0.941E+00 0.785E+00
   -.375E+01 -.161E+02 0.166E+02   0.319E+01 0.155E+02 -.159E+02   -.149E+00 0.113E+00 0.590E-01   0.680E+00 0.511E+00 -.735E+00
   0.141E+01 0.151E+02 -.176E+02   -.123E+01 -.142E+02 0.165E+02   0.807E-01 0.162E+00 -.244E+00   -.253E+00 -.940E+00 0.130E+01
   -.296E+01 0.167E+02 0.174E+02   0.263E+01 -.162E+02 -.163E+02   -.495E-01 0.561E-02 0.210E+00   0.383E+00 -.596E+00 -.130E+01
   0.304E+01 -.126E+00 -.398E+01   -.271E+01 0.401E+00 0.387E+01   -.876E-01 -.118E-01 0.764E-01   -.262E+00 -.269E+00 0.727E-01
   0.263E+01 0.400E+01 -.124E+00   -.254E+01 -.376E+01 -.114E+00   -.201E-01 0.538E-01 0.610E-01   -.956E-01 -.297E+00 0.198E+00
   0.891E+00 0.134E+01 -.198E+01   -.948E+00 -.160E+01 0.222E+01   -.607E-01 0.652E-02 -.942E-01   0.102E+00 0.244E+00 -.149E+00
   -.196E+01 -.247E+01 0.115E+01   0.152E+01 0.256E+01 -.118E+01   -.103E+00 -.858E-01 0.126E+00   0.518E+00 -.685E-02 -.631E-01
   -.535E+01 -.301E+01 -.641E+00   0.507E+01 0.355E+01 0.656E+00   -.928E-01 0.109E-01 -.312E-01   0.379E+00 -.520E+00 0.527E-03
   0.110E+01 0.236E+01 0.340E+01   -.119E+01 -.243E+01 -.371E+01   0.123E+00 0.241E-01 -.695E-01   -.232E-01 0.422E-01 0.337E+00
   -.746E+00 0.998E+00 -.267E+01   0.811E+00 -.150E+01 0.297E+01   0.341E-02 -.141E+00 0.119E+00   -.670E-01 0.604E+00 -.372E+00
   0.167E+03 -.164E+03 0.277E+01   -.166E+03 0.163E+03 -.255E+01   -.660E+00 0.714E+00 0.680E-01   -.957E-01 0.448E+00 -.280E+00
   0.219E+02 -.140E+02 -.323E+01   -.210E+02 0.133E+02 0.302E+01   0.142E+00 -.145E-01 -.686E-01   -.102E+01 0.724E+00 0.277E+00
   0.168E+03 0.163E+03 0.382E+01   -.167E+03 -.162E+03 -.370E+01   -.755E+00 -.755E+00 0.370E-01   -.331E+00 -.395E+00 -.163E+00
   0.198E+02 0.143E+02 -.261E+01   -.186E+02 -.136E+02 0.250E+01   0.183E+00 0.850E-01 0.242E-01   -.129E+01 -.768E+00 0.991E-01
   -.167E+03 -.166E+03 0.517E+00   0.166E+03 0.165E+03 -.833E+00   0.770E+00 0.608E+00 -.871E-01   0.620E-02 0.885E+00 0.383E+00
   -.203E+02 -.175E+02 -.198E+01   0.194E+02 0.165E+02 0.229E+01   -.123E-01 -.349E-01 0.362E-01   0.929E+00 0.110E+01 -.324E+00
   -.169E+03 0.165E+03 0.103E+00   0.168E+03 -.163E+03 -.538E+00   0.717E+00 -.559E+00 -.176E-01   0.370E+00 -.914E+00 0.447E+00
   -.201E+02 0.182E+02 -.531E+00   0.189E+02 -.172E+02 0.959E+00   -.125E+00 0.123E+00 0.461E-01   0.127E+01 -.117E+01 -.458E+00
   0.170E+03 -.356E+01 -.165E+03   -.169E+03 0.364E+01 0.164E+03   -.620E+00 -.491E-01 0.640E+00   -.784E+00 -.200E-01 0.314E+00
   0.169E+03 -.209E+01 0.164E+03   -.167E+03 0.206E+01 -.163E+03   -.428E+00 -.464E-01 -.683E+00   -.759E+00 0.716E-01 -.292E+00
   0.176E+02 0.285E+01 -.163E+02   -.170E+02 -.294E+01 0.158E+02   0.113E+00 -.199E-01 -.141E+00   -.692E+00 0.912E-01 0.654E+00
   0.204E+02 0.251E+01 0.161E+02   -.199E+02 -.249E+01 -.156E+02   -.102E-01 0.355E-02 0.106E+00   -.541E+00 -.302E-01 -.637E+00
   -.171E+03 0.199E+00 -.163E+03   0.169E+03 0.107E+00 0.162E+03   0.726E+00 0.912E-02 0.565E+00   0.719E+00 -.322E+00 0.526E+00
   -.167E+03 -.195E+01 0.164E+03   0.165E+03 0.216E+01 -.163E+03   0.643E+00 -.202E-02 -.609E+00   0.604E+00 -.192E+00 -.485E+00
   -.201E+02 0.705E+00 -.157E+02   0.195E+02 -.102E+01 0.150E+02   -.160E+00 -.911E-01 -.606E-01   0.745E+00 0.384E+00 0.738E+00
   -.217E+02 0.178E+01 0.177E+02   0.211E+02 -.199E+01 -.170E+02   0.303E-01 -.710E-01 0.131E+00   0.546E+00 0.248E+00 -.809E+00
 -----------------------------------------------------------------------------------------------
   -.337E+00 0.192E+00 -.108E+00   0.671E-12 -.373E-13 0.284E-13   -.409E-01 -.356E-01 0.369E-01   0.364E+00 -.164E+00 0.861E-01
 
 
 POSITION                                       TOTAL-FORCE (eV/Angst)
 -----------------------------------------------------------------------------------
      7.26527      0.04144      0.04281        -0.035831     -0.004936     -0.025972
      0.00229      0.04884      3.58757        -0.004987     -0.056474      0.016124
     -0.00016      3.59181      0.04224        -0.021201      0.021088     -0.026681
      7.26654      3.58779      3.59147        -0.024378      0.061444      0.005079
      3.63836      0.01152      0.01431         0.000448     -0.030298     -0.019715
      3.63056      0.01528      3.61699        -0.022607      0.032146      0.010376
      3.63245      3.62014      0.01364         0.008171      0.045049     -0.053048
      3.62948      3.61880      3.62006        -0.001872     -0.013112      0.044689
     -0.00028      1.81739      5.44915        -0.026627     -0.005746      0.038403
      0.00185      5.45175      1.81774        -0.025592     -0.008483      0.020806
      0.00098      5.45331      5.44537        -0.015880     -0.006742     -0.009911
      3.63509      1.81524      1.81493        -0.032229     -0.008781      0.029937
      3.62951      1.81363      5.45201         0.007378      0.028246     -0.015740
      3.63430      5.45038      1.81964         0.010847     -0.001388     -0.039673
      3.63010      5.45101      5.44782         0.001910     -0.039883      0.044054
      1.77525      0.04342      1.81524         0.023878     -0.010381      0.012032
      1.80364      0.01597      5.44814         0.007609     -0.011840     -0.005533
      1.77287      3.58629      1.81647         0.010781      0.023572     -0.006740
      1.80022      3.61807      5.45110         0.040924      0.026915      0.007956
      5.49333      0.04125      1.81655         0.005103     -0.036902     -0.020671
      5.46471      0.01519      5.44732         0.009429     -0.004759      0.022891
      5.48874      3.59368      1.81824         0.014203      0.053474     -0.005535
      5.46255      3.62091      5.44888        -0.019727      0.016753      0.015660
      1.77775      1.81219      0.04038         0.009939      0.009947     -0.023541
      1.77847      1.81708      3.59015         0.065337     -0.011107      0.014836
      1.80045      5.45296      0.01530         0.029079     -0.020752     -0.028308
      1.80149      5.45069      3.61586        -0.021146     -0.004147      0.023701
      5.48966      1.81969      0.04238         0.014848     -0.006356     -0.060572
      5.48927      1.81664      3.59127        -0.033528      0.011627      0.039999
      5.46427      5.44870      0.01381        -0.015728     -0.019386     -0.015569
      5.46264      5.45278      3.62062         0.041450     -0.028789      0.010668
 -----------------------------------------------------------------------------------
    total drift:                               -0.014419     -0.007598      0.014714


--------------------------------------------------------------------------------------------------------



  FREE ENERGIE OF THE ION-ELECTRON SYSTEM (eV)
  ---------------------------------------------------
  free  energy   TOTEN  =      -256.31561198 eV

  energy  without entropy=     -255.64634333  energy(sigma->0) =     -255.98097765
 
 d Force =-0.1106009E-03[-0.244E-03, 0.226E-04]  d Energy =-0.5213459E-04-0.585E-04
 d Force = 0.3257886E+00[ 0.324E+00, 0.327E+00]  d Ewald  = 0.3257886E+00 0.307E-07


--------------------------------------------------------------------------------------------------------


    POTLOK:  cpu time    0.4309: real time    0.4305


--------------------------------------------------------------------------------------------------------


 stress matrix after NEB project (eV)
      0.00000      0.00000      0.00000
      0.00000      0.00000      0.00000
      0.00000      0.00000      0.00000
  FORCES: max atom, RMS     0.070074    0.045111
  FORCE total and by dimension    0.251168    0.065337
  Stress total and by dimension    0.000000    0.000000


--------------------------------------------------------------------------------------------------------


  
 reached required accuracy - stopping structural energy minimisation
     LOOP+:  cpu time  258.4397: real time  258.2671
    4ORBIT:  cpu time    0.0000: real time    0.0000
 


 total charge     
 
# of ion     s       p       d       tot
----------------------------------------
  1        0.377   6.338   6.009  12.725
  2        0.377   6.339   6.011  12.727
  3        0.377   6.338   6.006  12.721
  4        0.377   6.338   6.007  12.722
  5        0.371   6.348   6.003  12.721
  6        0.371   6.348   6.003  12.723
  7        0.370   6.348   6.011  12.729
  8        0.371   6.348   6.006  12.724
  9        0.381   6.367   6.001  12.749
 10        0.381   6.367   6.021  12.769
 11        0.366   6.341   6.002  12.708
 12        0.381   6.368   6.010  12.759
 13        0.366   6.342   6.010  12.719
 14        0.366   6.342   5.999  12.706
 15        0.369   6.343   6.018  12.730
 16        0.378   6.340   6.017  12.734
 17        0.371   6.348   6.002  12.720
 18        0.377   6.338   6.005  12.720
 19        0.370   6.348   6.007  12.725
 20        0.378   6.339   6.008  12.724
 21        0.370   6.347   5.997  12.715
 22        0.377   6.339   6.005  12.720
 23        0.370   6.347   6.011  12.728
 24        0.378   6.339   6.006  12.723
 25        0.378   6.340   6.023  12.742
 26        0.370   6.347   6.004  12.721
 27        0.370   6.348   6.006  12.724
 28        0.377   6.338   6.009  12.724
 29        0.378   6.339   6.002  12.718
 30        0.370   6.347   6.015  12.733
 31        0.370   6.347   6.003  12.720
------------------------------------------------
tot       11.584 196.705 186.236 394.525
 


 magnetization (x)
 
# of ion     s       p       d       tot
----------------------------------------
  1       -0.005  -0.031   2.643   2.606
  2       -0.005  -0.031   2.640   2.604
  3       -0.005  -0.031   2.645   2.609
  4       -0.005  -0.031   2.644   2.608
  5       -0.005  -0.033   2.647   2.609
  6       -0.005  -0.033   2.646   2.607
  7       -0.005  -0.033   2.644   2.605
  8       -0.005  -0.033   2.646   2.607
  9       -0.008  -0.041   2.557   2.508
 10       -0.008  -0.041   2.548   2.499
 11       -0.006  -0.034   2.670   2.630
 12       -0.008  -0.041   2.550   2.502
 13       -0.007  -0.034   2.663   2.623
 14       -0.007  -0.034   2.670   2.630
 15       -0.005  -0.032   2.629   2.592
 16       -0.005  -0.031   2.636   2.599
 17       -0.005  -0.033   2.648   2.609
 18       -0.005  -0.031   2.644   2.608
 19       -0.005  -0.033   2.646   2.607
 20       -0.005  -0.031   2.642   2.605
 21       -0.005  -0.033   2.652   2.613
 22       -0.005  -0.031   2.645   2.608
 23       -0.005  -0.033   2.645   2.607
 24       -0.005  -0.031   2.643   2.606
 25       -0.005  -0.031   2.631   2.594
 26       -0.005  -0.033   2.649   2.610
 27       -0.005  -0.033   2.646   2.607
 28       -0.005  -0.031   2.643   2.607
 29       -0.005  -0.031   2.645   2.609
 30       -0.005  -0.033   2.642   2.604
 31       -0.005  -0.033   2.649   2.610
------------------------------------------------
tot       -0.176  -1.027  81.746  80.542
 

 total amount of memory used by VASP on root node   207419. kBytes
========================================================================

   base      :      30000. kBytes
   nonlr-proj:       7271. kBytes
   fftplans  :       2739. kBytes
   grid      :       6374. kBytes
   one-center:        186. kBytes
   wavefun   :     160849. kBytes
 
  
  
 General timing and accounting informations for this job:
 ========================================================
  
                  Total CPU time used (sec):     4959.042
                            User time (sec):     4930.727
                          System time (sec):       28.315
                         Elapsed time (sec):     4957.010
  
                   Maximum memory used (kb):      266820.
                   Average memory used (kb):           0.
  
                          Minor page faults:        79577
                          Major page faults:            0
                 Voluntary context switches:         8845
