 vasp.5.4.1 24Jun15 (build Nov 25 2015 22:48:06) complex                        
  
 executed on      IFC91_craympich date 2016.06.08  19:14:27
 running on  256 total cores
 distrk:  each k-point on   64 cores,    4 groups
 distr:  one band on NCORES_PER_BAND=   1 cores,   64 groups


--------------------------------------------------------------------------------------------------------


 INCAR:
 POTCAR:    PAW_PBE Mg_sv 12Apr2007               
 POTCAR:    PAW_PBE C_h 06Feb2004                 
 POTCAR:    PAW_PBE O_h 06Feb2004                 

 ----------------------------------------------------------------------------- 
|                                                                             |
|           W    W    AA    RRRRR   N    N  II  N    N   GGGG   !!!           |
|           W    W   A  A   R    R  NN   N  II  NN   N  G    G  !!!           |
|           W    W  A    A  R    R  N N  N  II  N N  N  G       !!!           |
|           W WW W  AAAAAA  RRRRR   N  N N  II  N  N N  G  GGG   !            |
|           WW  WW  A    A  R   R   N   NN  II  N   NN  G    G                |
|           W    W  A    A  R    R  N    N  II  N    N   GGGG   !!!           |
|                                                                             |
|      For optimal performance we recommend to set                            |
|        NCORE= 4 - approx SQRT( number of cores)                             |
|      NCORE specifies how many cores store one orbital (NPAR=cpu/NCORE).     |
|      This setting can  greatly improve the performance of VASP for DFT.     |
|      The default, NPAR=number of cores might be grossly inefficient         |
|      on modern multi-core architectures or massively parallel machines.     |
|      Do your own testing !!!!                                               |
|      Unfortunately you need to use the default for GW and RPA calculations. |
|      (for HF NCORE is supported but not extensively tested yet)             |
|                                                                             |
 ----------------------------------------------------------------------------- 


 ----------------------------------------------------------------------------- 
|                                                                             |
|           W    W    AA    RRRRR   N    N  II  N    N   GGGG   !!!           |
|           W    W   A  A   R    R  NN   N  II  NN   N  G    G  !!!           |
|           W    W  A    A  R    R  N N  N  II  N N  N  G       !!!           |
|           W WW W  AAAAAA  RRRRR   N  N N  II  N  N N  G  GGG   !            |
|           WW  WW  A    A  R   R   N   NN  II  N   NN  G    G                |
|           W    W  A    A  R    R  N    N  II  N    N   GGGG   !!!           |
|                                                                             |
|      You have enabled k-point parallelism (KPAR>1).                         |
|      This developmental code was originally  written by Paul Kent at ORNL,  |
|      and carefully double checked in Vienna.                                |
|      GW as well as linear response parallelism added by Martijn Marsman     |
|      and Georg Kresse.                                                      |
|      Carefully verify results versus KPAR=1.                                |
|      Report problems to Paul Kent and Vienna.                               |
|                                                                             |
 ----------------------------------------------------------------------------- 

 POTCAR:    PAW_PBE Mg_sv 12Apr2007               
   VRHFIN =Mg: p6s2                                                             
   LEXCH  = PE                                                                  
   EATOM  =  1728.4457 eV,  127.0372 Ry                                         
                                                                                
   TITEL  = PAW_PBE Mg_sv 12Apr2007                                             
   LULTRA =        F    use ultrasoft PP ?                                      
   IUNSCR =        0    unscreen: 0-lin 1-nonlin 2-no                           
   RPACOR =    0.000    partial core radius                                     
   POMASS =   24.305; ZVAL   =   10.000    mass and valenz                      
   RCORE  =    1.700    outmost cutoff radius                                   
   RWIGS  =    1.800; RWIGS  =    0.953    wigner-seitz radius (au A)           
   ENMAX  =  495.223; ENMIN  =  371.417 eV                                      
   RCLOC  =    1.506    cutoff for local pot                                    
   LCOR   =        T    correct aug charges                                     
   LPAW   =        T    paw PP                                                  
   EAUG   =  980.156                                                            
   RMAX   =    1.743    core radius for proj-oper                               
   RAUG   =    1.300    factor for augmentation sphere                          
   RDEP   =    1.781    radius for radial grids                                 
   RDEPT  =    1.300    core radius for aug-charge                              
                                                                                
   Atomic configuration                                                         
    5 entries                                                                   
     n  l   j            E        occ.                                          
     1  0  0.50     -1259.6230   2.0000                                         
     2  0  0.50       -79.8442   2.0000                                         
     3  0  0.50        -4.7055   2.0000                                         
     2  1  1.50       -46.6121   6.0000                                         
     3  2  1.50        -1.3606   0.0000                                         
   Description                                                                  
     l       E           TYP  RCUT    TYP  RCUT                                 
     0    -79.8442259     23  1.200                                             
     0     -4.7054661     23  1.700                                             
     1    -46.6121068     23  1.500                                             
     1      6.8029130     23  1.500                                             
     2     -1.3605826     23  1.700                                             
  local pseudopotential read in
  atomic valenz-charges read in
  non local Contribution for L=           0  read in
    real space projection operators read in
  non local Contribution for L=           0  read in
    real space projection operators read in
  non local Contribution for L=           1  read in
    real space projection operators read in
  non local Contribution for L=           1  read in
    real space projection operators read in
  non local Contribution for L=           2  read in
    real space projection operators read in
    PAW grid and wavefunctions read in
 
   number of l-projection  operators is LMAX  =           5
   number of lm-projection operators is LMMAX =          13
 
 POTCAR:    PAW_PBE C_h 06Feb2004                 
   VRHFIN =C: s2p2                                                              
   LEXCH  = PE                                                                  
   EATOM  =   147.1560 eV,   10.8157 Ry                                         
                                                                                
   TITEL  = PAW_PBE C_h 06Feb2004                                               
   LULTRA =        F    use ultrasoft PP ?                                      
   IUNSCR =        1    unscreen: 0-lin 1-nonlin 2-no                           
   RPACOR =    0.800    partial core radius                                     
   POMASS =   12.011; ZVAL   =    4.000    mass and valenz                      
   RCORE  =    1.100    outmost cutoff radius                                   
   RWIGS  =    1.630; RWIGS  =    0.863    wigner-seitz radius (au A)           
   ENMAX  =  700.000; ENMIN  =  500.000 eV                                      
   ICORE  =        2    local potential                                         
   LCOR   =        T    correct aug charges                                     
   LPAW   =        T    paw PP                                                  
   EAUG   =  946.768                                                            
   DEXC   =    0.000                                                            
   RMAX   =    1.128    core radius for proj-oper                               
   RAUG   =    1.300    factor for augmentation sphere                          
   RDEP   =    1.162    radius for radial grids                                 
   RDEPT  =    1.088    core radius for aug-charge                              
                                                                                
   Atomic configuration                                                         
    4 entries                                                                   
     n  l   j            E        occ.                                          
     1  0  0.50      -273.3789   2.0000                                         
     2  0  0.50       -13.7508   2.0000                                         
     2  1  0.50        -5.2854   2.0000                                         
     3  2  1.50        -5.4423   0.0000                                         
   Description                                                                  
     l       E           TYP  RCUT    TYP  RCUT                                 
     0    -13.7508458     23  1.100                                             
     0     -8.2022199     23  1.100                                             
     1     -5.2854383     23  1.100                                             
     1      1.1560700     23  1.100                                             
     2     -5.4423304      7  1.100                                             
  local pseudopotential read in
  partial core-charges read in
  partial kinetic energy density read in
  atomic valenz-charges read in
  non local Contribution for L=           0  read in
    real space projection operators read in
  non local Contribution for L=           0  read in
    real space projection operators read in
  non local Contribution for L=           1  read in
    real space projection operators read in
  non local Contribution for L=           1  read in
    real space projection operators read in
    PAW grid and wavefunctions read in
 
   number of l-projection  operators is LMAX  =           4
   number of lm-projection operators is LMMAX =           8
 
 POTCAR:    PAW_PBE O_h 06Feb2004                 
   VRHFIN =O: s2p4                                                              
   LEXCH  = PE                                                                  
   EATOM  =   432.3788 eV,   31.7789 Ry                                         
                                                                                
   TITEL  = PAW_PBE O_h 06Feb2004                                               
   LULTRA =        F    use ultrasoft PP ?                                      
   IUNSCR =        1    unscreen: 0-lin 1-nonlin 2-no                           
   RPACOR =    0.800    partial core radius                                     
   POMASS =   16.000; ZVAL   =    6.000    mass and valenz                      
   RCORE  =    1.100    outmost cutoff radius                                   
   RWIGS  =    1.400; RWIGS  =    0.741    wigner-seitz radius (au A)           
   ENMAX  =  700.000; ENMIN  =  500.000 eV                                      
   ICORE  =        2    local potential                                         
   LCOR   =        T    correct aug charges                                     
   LPAW   =        T    paw PP                                                  
   EAUG   =  888.804                                                            
   DEXC   =    0.000                                                            
   RMAX   =    1.128    core radius for proj-oper                               
   RAUG   =    1.300    factor for augmentation sphere                          
   RDEP   =    1.125    radius for radial grids                                 
   RDEPT  =    1.088    core radius for aug-charge                              
                                                                                
   Atomic configuration                                                         
    4 entries                                                                   
     n  l   j            E        occ.                                          
     1  0  0.50      -514.6923   2.0000                                         
     2  0  0.50       -23.9615   2.0000                                         
     2  1  0.50        -9.0305   4.0000                                         
     3  2  1.50        -9.5241   0.0000                                         
   Description                                                                  
     l       E           TYP  RCUT    TYP  RCUT                                 
     0    -23.9615319     23  1.100                                             
     0    -25.3221145     23  1.100                                             
     1     -9.0304911     23  1.100                                             
     1     -5.4802209     23  1.100                                             
     2     -9.5240782      7  1.100                                             
  local pseudopotential read in
  partial core-charges read in
  partial kinetic energy density read in
  atomic valenz-charges read in
  non local Contribution for L=           0  read in
    real space projection operators read in
  non local Contribution for L=           0  read in
    real space projection operators read in
  non local Contribution for L=           1  read in
    real space projection operators read in
  non local Contribution for L=           1  read in
    real space projection operators read in
    PAW grid and wavefunctions read in
 
   number of l-projection  operators is LMAX  =           4
   number of lm-projection operators is LMMAX =           8
 
 Optimization of the real space projectors (new method)

 maximal supplied QI-value         = 22.11
 optimisation between [QCUT,QGAM] = [ 17.91, 35.82] = [ 89.81,359.25] Ry 
 Optimized for a Real-space Cutoff    0.97 Angstroem

   l    n(q)    QCUT    max X(q) W(low)/X(q) W(high)/X(q)  e(spline) 
   0     10    17.909     8.730    0.21E-04    0.12E-04    0.37E-07
   0     10    17.909     8.910    0.31E-04    0.17E-04    0.52E-07
   1     10    17.909     2.513    0.13E-04    0.25E-04    0.43E-07
   1     10    17.909     3.341    0.63E-04    0.84E-04    0.13E-06
   2      9    17.909     3.683    0.21E-03    0.18E-04    0.27E-06
 Optimization of the real space projectors (new method)

 maximal supplied QI-value         = 34.20
 optimisation between [QCUT,QGAM] = [ 17.79, 35.57] = [ 88.59,354.34] Ry 
 Optimized for a Real-space Cutoff    0.79 Angstroem

   l    n(q)    QCUT    max X(q) W(low)/X(q) W(high)/X(q)  e(spline) 
   0      8    17.786   134.812    0.66E-04    0.14E-03    0.67E-07
   0      8    17.786    80.524    0.65E-04    0.14E-03    0.68E-07
   1      8    17.786    79.026    0.22E-03    0.17E-03    0.19E-06
   1      8    17.786    45.188    0.22E-03    0.16E-03    0.19E-06
 Optimization of the real space projectors (new method)

 maximal supplied QI-value         = 34.20
 optimisation between [QCUT,QGAM] = [ 17.79, 35.57] = [ 88.59,354.34] Ry 
 Optimized for a Real-space Cutoff    0.79 Angstroem

   l    n(q)    QCUT    max X(q) W(low)/X(q) W(high)/X(q)  e(spline) 
   0      8    17.786   228.978    0.67E-04    0.14E-03    0.51E-07
   0      8    17.786   280.207    0.67E-04    0.14E-03    0.51E-07
   1      8    17.786    86.127    0.18E-03    0.11E-03    0.20E-06
   1      8    17.786    65.368    0.17E-03    0.10E-03    0.20E-06
  PAW_PBE Mg_sv 12Apr2007               :
 energy of atom  1       EATOM=-1728.4457
 kinetic energy error for atom=    0.0034 (will be added to EATOM!!)
  PAW_PBE C_h 06Feb2004                 :
 energy of atom  2       EATOM= -147.1560
 kinetic energy error for atom=    0.0025 (will be added to EATOM!!)
  PAW_PBE O_h 06Feb2004                 :
 energy of atom  3       EATOM= -432.3788
 kinetic energy error for atom=    0.0124 (will be added to EATOM!!)
 
 
 POSCAR: Mg6 C6 O18                              
  positions in direct lattice
  No initial velocities read in
 exchange correlation table for  LEXCH =        8
   RHO(1)=    0.500       N(1)  =     2000
   RHO(2)=  100.500       N(2)  =     4000
 


--------------------------------------------------------------------------------------------------------


 ion  position               nearest neighbor table
   1  1.000  1.000  0.000-
   2  0.667  0.333  0.333-
   3  0.333  0.667  0.667-
   4  1.000  1.000  0.500-
   5  0.667  0.333  0.833-
   6  0.333  0.667  0.167-
   7  1.000  1.000  0.250-  19 1.29  13 1.29  16 1.29
   8  0.667  0.333  0.583-  17 1.29  20 1.29  14 1.29
   9  0.333  0.667  0.917-  15 1.29  21 1.29  18 1.29
  10  0.000  0.000  0.750-  28 1.29  22 1.29  25 1.29
  11  0.667  0.333  0.083-  23 1.29  29 1.29  26 1.29
  12  0.333  0.667  0.417-  27 1.29  30 1.29  24 1.29
  13  0.277  0.000  0.250-   7 1.29
  14  0.944  0.333  0.583-   8 1.29
  15  0.610  0.667  0.917-   9 1.29
  16  0.000  0.277  0.250-   7 1.29
  17  0.667  0.610  0.583-   8 1.29
  18  0.333  0.944  0.917-   9 1.29
  19  0.723  0.723  0.250-   7 1.29
  20  0.390  0.056  0.583-   8 1.29
  21  0.056  0.390  0.917-   9 1.29
  22  0.723  1.000  0.750-  10 1.29
  23  0.390  0.333  0.083-  11 1.29
  24  0.056  0.667  0.417-  12 1.29
  25  1.000  0.723  0.750-  10 1.29
  26  0.667  0.056  0.083-  11 1.29
  27  0.333  0.390  0.417-  12 1.29
  28  0.277  0.277  0.750-  10 1.29
  29  0.944  0.610  0.083-  11 1.29
  30  0.610  0.944  0.417-  12 1.29
 
  LATTYP: Found a simple monoclinic cell.
 ALAT       =     4.6613553833
 B/A-ratio  =     3.2369299826
 C/A-ratio  =     1.7320507312
 COS(beta)  =    -0.8660254275
  
  Lattice vectors:
  
 A1 = (   2.3306780000,  -4.0368520000,   0.0000000000)
 A2 = (   0.0000000000,   0.0000000000, -15.0884810000)
 A3 = (  -0.0000010000,   8.0737040000,   0.0000000000)


Analysis of symmetry for initial positions (statically):
=====================================================================
 Subroutine PRICEL returns:
 Original cell was already a primitive cell.
 

 Routine SETGRP: Setting up the symmetry group for a 
 simple monoclinic supercell.


 Subroutine GETGRP returns: Found  1 space group operations
 (whereof  1 operations were pure point group operations)
 out of a pool of  4 trial point group operations.


The static configuration has the point symmetry C_1 .


Analysis of symmetry for dynamics (positions and initial velocities):
=====================================================================
 Subroutine PRICEL returns:
 Original cell was already a primitive cell.
 

 Routine SETGRP: Setting up the symmetry group for a 
 simple monoclinic supercell.


 Subroutine GETGRP returns: Found  1 space group operations
 (whereof  1 operations were pure point group operations)
 out of a pool of  4 trial point group operations.


The dynamic configuration has the point symmetry C_1 .


 Subroutine INISYM returns: Found  1 space group operations
 (whereof  1 operations are pure point group operations),
 and found     1 'primitive' translations

 
 
 KPOINTS: pymatgen generated KPOINTS with grid den

Automatic generation of k-mesh.
Space group operators:
 irot       det(A)        alpha          n_x          n_y          n_z        tau_x        tau_y        tau_z
    1     1.000000     0.000000     1.000000     0.000000     0.000000     0.000000     0.000000     0.000000
 
 Subroutine IBZKPT returns following result:
 ===========================================
 
 Found    163 irreducible k-points:
 
 Following reciprocal coordinates:
            Coordinates               Weight
  0.000000  0.000000  0.000000      1.000000
  0.111111 -0.000000  0.000000      2.000000
  0.222222  0.000000  0.000000      2.000000
  0.333333  0.000000  0.000000      2.000000
  0.444444  0.000000  0.000000      2.000000
  0.000000  0.111111  0.000000      2.000000
  0.111111  0.111111  0.000000      2.000000
  0.222222  0.111111  0.000000      2.000000
  0.333333  0.111111  0.000000      2.000000
  0.444444  0.111111  0.000000      2.000000
 -0.444444  0.111111  0.000000      2.000000
 -0.333333  0.111111  0.000000      2.000000
 -0.222222  0.111111  0.000000      2.000000
 -0.111111  0.111111  0.000000      2.000000
  0.000000  0.222222  0.000000      2.000000
  0.111111  0.222222  0.000000      2.000000
  0.222222  0.222222  0.000000      2.000000
  0.333333  0.222222  0.000000      2.000000
  0.444444  0.222222  0.000000      2.000000
 -0.444444  0.222222  0.000000      2.000000
 -0.333333  0.222222  0.000000      2.000000
 -0.222222  0.222222  0.000000      2.000000
 -0.111111  0.222222  0.000000      2.000000
  0.000000  0.333333  0.000000      2.000000
  0.111111  0.333333  0.000000      2.000000
  0.222222  0.333333  0.000000      2.000000
  0.333333  0.333333  0.000000      2.000000
  0.444444  0.333333  0.000000      2.000000
 -0.444444  0.333333  0.000000      2.000000
 -0.333333  0.333333  0.000000      2.000000
 -0.222222  0.333333  0.000000      2.000000
 -0.111111  0.333333  0.000000      2.000000
  0.000000  0.444444  0.000000      2.000000
  0.111111  0.444444  0.000000      2.000000
  0.222222  0.444444  0.000000      2.000000
  0.333333  0.444444  0.000000      2.000000
  0.444444  0.444444  0.000000      2.000000
 -0.444444  0.444444  0.000000      2.000000
 -0.333333  0.444444  0.000000      2.000000
 -0.222222  0.444444  0.000000      2.000000
 -0.111111  0.444444  0.000000      2.000000
  0.000000  0.000000  0.250000      2.000000
  0.111111 -0.000000  0.250000      2.000000
  0.222222  0.000000  0.250000      2.000000
  0.333333  0.000000  0.250000      2.000000
  0.444444  0.000000  0.250000      2.000000
 -0.444444 -0.000000  0.250000      2.000000
 -0.333333 -0.000000  0.250000      2.000000
 -0.222222 -0.000000  0.250000      2.000000
 -0.111111  0.000000  0.250000      2.000000
  0.000000  0.111111  0.250000      2.000000
  0.111111  0.111111  0.250000      2.000000
  0.222222  0.111111  0.250000      2.000000
  0.333333  0.111111  0.250000      2.000000
  0.444444  0.111111  0.250000      2.000000
 -0.444444  0.111111  0.250000      2.000000
 -0.333333  0.111111  0.250000      2.000000
 -0.222222  0.111111  0.250000      2.000000
 -0.111111  0.111111  0.250000      2.000000
  0.000000  0.222222  0.250000      2.000000
  0.111111  0.222222  0.250000      2.000000
  0.222222  0.222222  0.250000      2.000000
  0.333333  0.222222  0.250000      2.000000
  0.444444  0.222222  0.250000      2.000000
 -0.444444  0.222222  0.250000      2.000000
 -0.333333  0.222222  0.250000      2.000000
 -0.222222  0.222222  0.250000      2.000000
 -0.111111  0.222222  0.250000      2.000000
  0.000000  0.333333  0.250000      2.000000
  0.111111  0.333333  0.250000      2.000000
  0.222222  0.333333  0.250000      2.000000
  0.333333  0.333333  0.250000      2.000000
  0.444444  0.333333  0.250000      2.000000
 -0.444444  0.333333  0.250000      2.000000
 -0.333333  0.333333  0.250000      2.000000
 -0.222222  0.333333  0.250000      2.000000
 -0.111111  0.333333  0.250000      2.000000
  0.000000  0.444444  0.250000      2.000000
  0.111111  0.444444  0.250000      2.000000
  0.222222  0.444444  0.250000      2.000000
  0.333333  0.444444  0.250000      2.000000
  0.444444  0.444444  0.250000      2.000000
 -0.444444  0.444444  0.250000      2.000000
 -0.333333  0.444444  0.250000      2.000000
 -0.222222  0.444444  0.250000      2.000000
 -0.111111  0.444444  0.250000      2.000000
  0.000000 -0.444444  0.250000      2.000000
  0.111111 -0.444444  0.250000      2.000000
  0.222222 -0.444444  0.250000      2.000000
  0.333333 -0.444444  0.250000      2.000000
  0.444444 -0.444444  0.250000      2.000000
 -0.444444 -0.444444  0.250000      2.000000
 -0.333333 -0.444444  0.250000      2.000000
 -0.222222 -0.444444  0.250000      2.000000
 -0.111111 -0.444444  0.250000      2.000000
  0.000000 -0.333333  0.250000      2.000000
  0.111111 -0.333333  0.250000      2.000000
  0.222222 -0.333333  0.250000      2.000000
  0.333333 -0.333333  0.250000      2.000000
  0.444444 -0.333333  0.250000      2.000000
 -0.444444 -0.333333  0.250000      2.000000
 -0.333333 -0.333333  0.250000      2.000000
 -0.222222 -0.333333  0.250000      2.000000
 -0.111111 -0.333333  0.250000      2.000000
  0.000000 -0.222222  0.250000      2.000000
  0.111111 -0.222222  0.250000      2.000000
  0.222222 -0.222222  0.250000      2.000000
  0.333333 -0.222222  0.250000      2.000000
  0.444444 -0.222222  0.250000      2.000000
 -0.444444 -0.222222  0.250000      2.000000
 -0.333333 -0.222222  0.250000      2.000000
 -0.222222 -0.222222  0.250000      2.000000
 -0.111111 -0.222222  0.250000      2.000000
  0.000000 -0.111111  0.250000      2.000000
  0.111111 -0.111111  0.250000      2.000000
  0.222222 -0.111111  0.250000      2.000000
  0.333333 -0.111111  0.250000      2.000000
  0.444444 -0.111111  0.250000      2.000000
 -0.444444 -0.111111  0.250000      2.000000
 -0.333333 -0.111111  0.250000      2.000000
 -0.222222 -0.111111  0.250000      2.000000
 -0.111111 -0.111111  0.250000      2.000000
  0.000000  0.000000  0.500000      1.000000
  0.111111 -0.000000  0.500000      2.000000
  0.222222  0.000000  0.500000      2.000000
  0.333333  0.000000  0.500000      2.000000
  0.444444  0.000000  0.500000      2.000000
  0.000000  0.111111  0.500000      2.000000
  0.111111  0.111111  0.500000      2.000000
  0.222222  0.111111  0.500000      2.000000
  0.333333  0.111111  0.500000      2.000000
  0.444444  0.111111  0.500000      2.000000
 -0.444444  0.111111  0.500000      2.000000
 -0.333333  0.111111  0.500000      2.000000
 -0.222222  0.111111  0.500000      2.000000
 -0.111111  0.111111  0.500000      2.000000
  0.000000  0.222222  0.500000      2.000000
  0.111111  0.222222  0.500000      2.000000
  0.222222  0.222222  0.500000      2.000000
  0.333333  0.222222  0.500000      2.000000
  0.444444  0.222222  0.500000      2.000000
 -0.444444  0.222222  0.500000      2.000000
 -0.333333  0.222222  0.500000      2.000000
 -0.222222  0.222222  0.500000      2.000000
 -0.111111  0.222222  0.500000      2.000000
  0.000000  0.333333  0.500000      2.000000
  0.111111  0.333333  0.500000      2.000000
  0.222222  0.333333  0.500000      2.000000
  0.333333  0.333333  0.500000      2.000000
  0.444444  0.333333  0.500000      2.000000
 -0.444444  0.333333  0.500000      2.000000
 -0.333333  0.333333  0.500000      2.000000
 -0.222222  0.333333  0.500000      2.000000
 -0.111111  0.333333  0.500000      2.000000
  0.000000  0.444444  0.500000      2.000000
  0.111111  0.444444  0.500000      2.000000
  0.222222  0.444444  0.500000      2.000000
  0.333333  0.444444  0.500000      2.000000
  0.444444  0.444444  0.500000      2.000000
 -0.444444  0.444444  0.500000      2.000000
 -0.333333  0.444444  0.500000      2.000000
 -0.222222  0.444444  0.500000      2.000000
 -0.111111  0.444444  0.500000      2.000000
 
 Following cartesian coordinates:
            Coordinates               Weight
  0.000000  0.000000  0.000000      1.000000
  0.023837  0.013762  0.000000      2.000000
  0.047673  0.027524  0.000000      2.000000
  0.071510  0.041286  0.000000      2.000000
  0.095347  0.055048  0.000000      2.000000
  0.000000  0.027524  0.000000      2.000000
  0.023837  0.041286  0.000000      2.000000
  0.047673  0.055048  0.000000      2.000000
  0.071510  0.068811  0.000000      2.000000
  0.095347  0.082573  0.000000      2.000000
 -0.095347 -0.027524  0.000000      2.000000
 -0.071510 -0.013762  0.000000      2.000000
 -0.047673 -0.000000  0.000000      2.000000
 -0.023837  0.013762  0.000000      2.000000
  0.000000  0.055048  0.000000      2.000000
  0.023837  0.068810  0.000000      2.000000
  0.047673  0.082573  0.000000      2.000000
  0.071510  0.096335  0.000000      2.000000
  0.095347  0.110097  0.000000      2.000000
 -0.095347 -0.000000  0.000000      2.000000
 -0.071510  0.013762  0.000000      2.000000
 -0.047673  0.027524  0.000000      2.000000
 -0.023837  0.041286  0.000000      2.000000
  0.000000  0.082573  0.000000      2.000000
  0.023837  0.096335  0.000000      2.000000
  0.047673  0.110097  0.000000      2.000000
  0.071510  0.123859  0.000000      2.000000
  0.095347  0.137621  0.000000      2.000000
 -0.095347  0.027524  0.000000      2.000000
 -0.071510  0.041286  0.000000      2.000000
 -0.047673  0.055048  0.000000      2.000000
 -0.023837  0.068810  0.000000      2.000000
  0.000000  0.110097  0.000000      2.000000
  0.023837  0.123859  0.000000      2.000000
  0.047673  0.137621  0.000000      2.000000
  0.071510  0.151383  0.000000      2.000000
  0.095347  0.165145  0.000000      2.000000
 -0.095347  0.055048  0.000000      2.000000
 -0.071510  0.068810  0.000000      2.000000
 -0.047673  0.082573  0.000000      2.000000
 -0.023837  0.096335  0.000000      2.000000
  0.000000  0.000000  0.016569      2.000000
  0.023837  0.013762  0.016569      2.000000
  0.047673  0.027524  0.016569      2.000000
  0.071510  0.041286  0.016569      2.000000
  0.095347  0.055048  0.016569      2.000000
 -0.095347 -0.055048  0.016569      2.000000
 -0.071510 -0.041286  0.016569      2.000000
 -0.047673 -0.027524  0.016569      2.000000
 -0.023837 -0.013762  0.016569      2.000000
  0.000000  0.027524  0.016569      2.000000
  0.023837  0.041286  0.016569      2.000000
  0.047673  0.055048  0.016569      2.000000
  0.071510  0.068811  0.016569      2.000000
  0.095347  0.082573  0.016569      2.000000
 -0.095347 -0.027524  0.016569      2.000000
 -0.071510 -0.013762  0.016569      2.000000
 -0.047673 -0.000000  0.016569      2.000000
 -0.023837  0.013762  0.016569      2.000000
  0.000000  0.055048  0.016569      2.000000
  0.023837  0.068810  0.016569      2.000000
  0.047673  0.082573  0.016569      2.000000
  0.071510  0.096335  0.016569      2.000000
  0.095347  0.110097  0.016569      2.000000
 -0.095347 -0.000000  0.016569      2.000000
 -0.071510  0.013762  0.016569      2.000000
 -0.047673  0.027524  0.016569      2.000000
 -0.023837  0.041286  0.016569      2.000000
  0.000000  0.082573  0.016569      2.000000
  0.023837  0.096335  0.016569      2.000000
  0.047673  0.110097  0.016569      2.000000
  0.071510  0.123859  0.016569      2.000000
  0.095347  0.137621  0.016569      2.000000
 -0.095347  0.027524  0.016569      2.000000
 -0.071510  0.041286  0.016569      2.000000
 -0.047673  0.055048  0.016569      2.000000
 -0.023837  0.068810  0.016569      2.000000
  0.000000  0.110097  0.016569      2.000000
  0.023837  0.123859  0.016569      2.000000
  0.047673  0.137621  0.016569      2.000000
  0.071510  0.151383  0.016569      2.000000
  0.095347  0.165145  0.016569      2.000000
 -0.095347  0.055048  0.016569      2.000000
 -0.071510  0.068810  0.016569      2.000000
 -0.047673  0.082573  0.016569      2.000000
 -0.023837  0.096335  0.016569      2.000000
  0.000000 -0.110097  0.016569      2.000000
  0.023837 -0.096335  0.016569      2.000000
  0.047673 -0.082573  0.016569      2.000000
  0.071510 -0.068810  0.016569      2.000000
  0.095347 -0.055048  0.016569      2.000000
 -0.095347 -0.165145  0.016569      2.000000
 -0.071510 -0.151383  0.016569      2.000000
 -0.047673 -0.137621  0.016569      2.000000
 -0.023837 -0.123859  0.016569      2.000000
  0.000000 -0.082573  0.016569      2.000000
  0.023837 -0.068810  0.016569      2.000000
  0.047673 -0.055048  0.016569      2.000000
  0.071510 -0.041286  0.016569      2.000000
  0.095347 -0.027524  0.016569      2.000000
 -0.095347 -0.137621  0.016569      2.000000
 -0.071510 -0.123859  0.016569      2.000000
 -0.047673 -0.110097  0.016569      2.000000
 -0.023837 -0.096335  0.016569      2.000000
  0.000000 -0.055048  0.016569      2.000000
  0.023837 -0.041286  0.016569      2.000000
  0.047673 -0.027524  0.016569      2.000000
  0.071510 -0.013762  0.016569      2.000000
  0.095347  0.000000  0.016569      2.000000
 -0.095347 -0.110097  0.016569      2.000000
 -0.071510 -0.096335  0.016569      2.000000
 -0.047673 -0.082573  0.016569      2.000000
 -0.023837 -0.068810  0.016569      2.000000
  0.000000 -0.027524  0.016569      2.000000
  0.023837 -0.013762  0.016569      2.000000
  0.047673  0.000000  0.016569      2.000000
  0.071510  0.013762  0.016569      2.000000
  0.095347  0.027524  0.016569      2.000000
 -0.095347 -0.082573  0.016569      2.000000
 -0.071510 -0.068811  0.016569      2.000000
 -0.047673 -0.055048  0.016569      2.000000
 -0.023837 -0.041286  0.016569      2.000000
  0.000000  0.000000  0.033138      1.000000
  0.023837  0.013762  0.033138      2.000000
  0.047673  0.027524  0.033138      2.000000
  0.071510  0.041286  0.033138      2.000000
  0.095347  0.055048  0.033138      2.000000
  0.000000  0.027524  0.033138      2.000000
  0.023837  0.041286  0.033138      2.000000
  0.047673  0.055048  0.033138      2.000000
  0.071510  0.068811  0.033138      2.000000
  0.095347  0.082573  0.033138      2.000000
 -0.095347 -0.027524  0.033138      2.000000
 -0.071510 -0.013762  0.033138      2.000000
 -0.047673 -0.000000  0.033138      2.000000
 -0.023837  0.013762  0.033138      2.000000
  0.000000  0.055048  0.033138      2.000000
  0.023837  0.068810  0.033138      2.000000
  0.047673  0.082573  0.033138      2.000000
  0.071510  0.096335  0.033138      2.000000
  0.095347  0.110097  0.033138      2.000000
 -0.095347 -0.000000  0.033138      2.000000
 -0.071510  0.013762  0.033138      2.000000
 -0.047673  0.027524  0.033138      2.000000
 -0.023837  0.041286  0.033138      2.000000
  0.000000  0.082573  0.033138      2.000000
  0.023837  0.096335  0.033138      2.000000
  0.047673  0.110097  0.033138      2.000000
  0.071510  0.123859  0.033138      2.000000
  0.095347  0.137621  0.033138      2.000000
 -0.095347  0.027524  0.033138      2.000000
 -0.071510  0.041286  0.033138      2.000000
 -0.047673  0.055048  0.033138      2.000000
 -0.023837  0.068810  0.033138      2.000000
  0.000000  0.110097  0.033138      2.000000
  0.023837  0.123859  0.033138      2.000000
  0.047673  0.137621  0.033138      2.000000
  0.071510  0.151383  0.033138      2.000000
  0.095347  0.165145  0.033138      2.000000
 -0.095347  0.055048  0.033138      2.000000
 -0.071510  0.068810  0.033138      2.000000
 -0.047673  0.082573  0.033138      2.000000
 -0.023837  0.096335  0.033138      2.000000
 
 TETIRR: Found    970 inequivalent tetrahedra from     1944
 
 Subroutine IBZKPT_HF returns following result:
 ==============================================
 
 Found    324 k-points in 1st BZ
 the following    324 k-points will be used (e.g. in the exchange kernel)
 Following reciprocal coordinates:   # in IRBZ
  0.000000  0.000000  0.000000    0.00308642   1 t-inv F
  0.111111 -0.000000  0.000000    0.00308642   2 t-inv F
  0.222222  0.000000  0.000000    0.00308642   3 t-inv F
  0.333333  0.000000  0.000000    0.00308642   4 t-inv F
  0.444444  0.000000  0.000000    0.00308642   5 t-inv F
  0.000000  0.111111  0.000000    0.00308642   6 t-inv F
  0.111111  0.111111  0.000000    0.00308642   7 t-inv F
  0.222222  0.111111  0.000000    0.00308642   8 t-inv F
  0.333333  0.111111  0.000000    0.00308642   9 t-inv F
  0.444444  0.111111  0.000000    0.00308642  10 t-inv F
 -0.444444  0.111111  0.000000    0.00308642  11 t-inv F
 -0.333333  0.111111  0.000000    0.00308642  12 t-inv F
 -0.222222  0.111111  0.000000    0.00308642  13 t-inv F
 -0.111111  0.111111  0.000000    0.00308642  14 t-inv F
  0.000000  0.222222  0.000000    0.00308642  15 t-inv F
  0.111111  0.222222  0.000000    0.00308642  16 t-inv F
  0.222222  0.222222  0.000000    0.00308642  17 t-inv F
  0.333333  0.222222  0.000000    0.00308642  18 t-inv F
  0.444444  0.222222  0.000000    0.00308642  19 t-inv F
 -0.444444  0.222222  0.000000    0.00308642  20 t-inv F
 -0.333333  0.222222  0.000000    0.00308642  21 t-inv F
 -0.222222  0.222222  0.000000    0.00308642  22 t-inv F
 -0.111111  0.222222  0.000000    0.00308642  23 t-inv F
  0.000000  0.333333  0.000000    0.00308642  24 t-inv F
  0.111111  0.333333  0.000000    0.00308642  25 t-inv F
  0.222222  0.333333  0.000000    0.00308642  26 t-inv F
  0.333333  0.333333  0.000000    0.00308642  27 t-inv F
  0.444444  0.333333  0.000000    0.00308642  28 t-inv F
 -0.444444  0.333333  0.000000    0.00308642  29 t-inv F
 -0.333333  0.333333  0.000000    0.00308642  30 t-inv F
 -0.222222  0.333333  0.000000    0.00308642  31 t-inv F
 -0.111111  0.333333  0.000000    0.00308642  32 t-inv F
  0.000000  0.444444  0.000000    0.00308642  33 t-inv F
  0.111111  0.444444  0.000000    0.00308642  34 t-inv F
  0.222222  0.444444  0.000000    0.00308642  35 t-inv F
  0.333333  0.444444  0.000000    0.00308642  36 t-inv F
  0.444444  0.444444  0.000000    0.00308642  37 t-inv F
 -0.444444  0.444444  0.000000    0.00308642  38 t-inv F
 -0.333333  0.444444  0.000000    0.00308642  39 t-inv F
 -0.222222  0.444444  0.000000    0.00308642  40 t-inv F
 -0.111111  0.444444  0.000000    0.00308642  41 t-inv F
  0.000000  0.000000  0.250000    0.00308642  42 t-inv F
  0.111111 -0.000000  0.250000    0.00308642  43 t-inv F
  0.222222  0.000000  0.250000    0.00308642  44 t-inv F
  0.333333  0.000000  0.250000    0.00308642  45 t-inv F
  0.444444  0.000000  0.250000    0.00308642  46 t-inv F
 -0.444444 -0.000000  0.250000    0.00308642  47 t-inv F
 -0.333333 -0.000000  0.250000    0.00308642  48 t-inv F
 -0.222222 -0.000000  0.250000    0.00308642  49 t-inv F
 -0.111111  0.000000  0.250000    0.00308642  50 t-inv F
  0.000000  0.111111  0.250000    0.00308642  51 t-inv F
  0.111111  0.111111  0.250000    0.00308642  52 t-inv F
  0.222222  0.111111  0.250000    0.00308642  53 t-inv F
  0.333333  0.111111  0.250000    0.00308642  54 t-inv F
  0.444444  0.111111  0.250000    0.00308642  55 t-inv F
 -0.444444  0.111111  0.250000    0.00308642  56 t-inv F
 -0.333333  0.111111  0.250000    0.00308642  57 t-inv F
 -0.222222  0.111111  0.250000    0.00308642  58 t-inv F
 -0.111111  0.111111  0.250000    0.00308642  59 t-inv F
  0.000000  0.222222  0.250000    0.00308642  60 t-inv F
  0.111111  0.222222  0.250000    0.00308642  61 t-inv F
  0.222222  0.222222  0.250000    0.00308642  62 t-inv F
  0.333333  0.222222  0.250000    0.00308642  63 t-inv F
  0.444444  0.222222  0.250000    0.00308642  64 t-inv F
 -0.444444  0.222222  0.250000    0.00308642  65 t-inv F
 -0.333333  0.222222  0.250000    0.00308642  66 t-inv F
 -0.222222  0.222222  0.250000    0.00308642  67 t-inv F
 -0.111111  0.222222  0.250000    0.00308642  68 t-inv F
  0.000000  0.333333  0.250000    0.00308642  69 t-inv F
  0.111111  0.333333  0.250000    0.00308642  70 t-inv F
  0.222222  0.333333  0.250000    0.00308642  71 t-inv F
  0.333333  0.333333  0.250000    0.00308642  72 t-inv F
  0.444444  0.333333  0.250000    0.00308642  73 t-inv F
 -0.444444  0.333333  0.250000    0.00308642  74 t-inv F
 -0.333333  0.333333  0.250000    0.00308642  75 t-inv F
 -0.222222  0.333333  0.250000    0.00308642  76 t-inv F
 -0.111111  0.333333  0.250000    0.00308642  77 t-inv F
  0.000000  0.444444  0.250000    0.00308642  78 t-inv F
  0.111111  0.444444  0.250000    0.00308642  79 t-inv F
  0.222222  0.444444  0.250000    0.00308642  80 t-inv F
  0.333333  0.444444  0.250000    0.00308642  81 t-inv F
  0.444444  0.444444  0.250000    0.00308642  82 t-inv F
 -0.444444  0.444444  0.250000    0.00308642  83 t-inv F
 -0.333333  0.444444  0.250000    0.00308642  84 t-inv F
 -0.222222  0.444444  0.250000    0.00308642  85 t-inv F
 -0.111111  0.444444  0.250000    0.00308642  86 t-inv F
  0.000000 -0.444444  0.250000    0.00308642  87 t-inv F
  0.111111 -0.444444  0.250000    0.00308642  88 t-inv F
  0.222222 -0.444444  0.250000    0.00308642  89 t-inv F
  0.333333 -0.444444  0.250000    0.00308642  90 t-inv F
  0.444444 -0.444444  0.250000    0.00308642  91 t-inv F
 -0.444444 -0.444444  0.250000    0.00308642  92 t-inv F
 -0.333333 -0.444444  0.250000    0.00308642  93 t-inv F
 -0.222222 -0.444444  0.250000    0.00308642  94 t-inv F
 -0.111111 -0.444444  0.250000    0.00308642  95 t-inv F
  0.000000 -0.333333  0.250000    0.00308642  96 t-inv F
  0.111111 -0.333333  0.250000    0.00308642  97 t-inv F
  0.222222 -0.333333  0.250000    0.00308642  98 t-inv F
  0.333333 -0.333333  0.250000    0.00308642  99 t-inv F
  0.444444 -0.333333  0.250000    0.00308642 100 t-inv F
 -0.444444 -0.333333  0.250000    0.00308642 101 t-inv F
 -0.333333 -0.333333  0.250000    0.00308642 102 t-inv F
 -0.222222 -0.333333  0.250000    0.00308642 103 t-inv F
 -0.111111 -0.333333  0.250000    0.00308642 104 t-inv F
  0.000000 -0.222222  0.250000    0.00308642 105 t-inv F
  0.111111 -0.222222  0.250000    0.00308642 106 t-inv F
  0.222222 -0.222222  0.250000    0.00308642 107 t-inv F
  0.333333 -0.222222  0.250000    0.00308642 108 t-inv F
  0.444444 -0.222222  0.250000    0.00308642 109 t-inv F
 -0.444444 -0.222222  0.250000    0.00308642 110 t-inv F
 -0.333333 -0.222222  0.250000    0.00308642 111 t-inv F
 -0.222222 -0.222222  0.250000    0.00308642 112 t-inv F
 -0.111111 -0.222222  0.250000    0.00308642 113 t-inv F
  0.000000 -0.111111  0.250000    0.00308642 114 t-inv F
  0.111111 -0.111111  0.250000    0.00308642 115 t-inv F
  0.222222 -0.111111  0.250000    0.00308642 116 t-inv F
  0.333333 -0.111111  0.250000    0.00308642 117 t-inv F
  0.444444 -0.111111  0.250000    0.00308642 118 t-inv F
 -0.444444 -0.111111  0.250000    0.00308642 119 t-inv F
 -0.333333 -0.111111  0.250000    0.00308642 120 t-inv F
 -0.222222 -0.111111  0.250000    0.00308642 121 t-inv F
 -0.111111 -0.111111  0.250000    0.00308642 122 t-inv F
  0.000000  0.000000  0.500000    0.00308642 123 t-inv F
  0.111111 -0.000000  0.500000    0.00308642 124 t-inv F
  0.222222  0.000000  0.500000    0.00308642 125 t-inv F
  0.333333  0.000000  0.500000    0.00308642 126 t-inv F
  0.444444  0.000000  0.500000    0.00308642 127 t-inv F
  0.000000  0.111111  0.500000    0.00308642 128 t-inv F
  0.111111  0.111111  0.500000    0.00308642 129 t-inv F
  0.222222  0.111111  0.500000    0.00308642 130 t-inv F
  0.333333  0.111111  0.500000    0.00308642 131 t-inv F
  0.444444  0.111111  0.500000    0.00308642 132 t-inv F
 -0.444444  0.111111  0.500000    0.00308642 133 t-inv F
 -0.333333  0.111111  0.500000    0.00308642 134 t-inv F
 -0.222222  0.111111  0.500000    0.00308642 135 t-inv F
 -0.111111  0.111111  0.500000    0.00308642 136 t-inv F
  0.000000  0.222222  0.500000    0.00308642 137 t-inv F
  0.111111  0.222222  0.500000    0.00308642 138 t-inv F
  0.222222  0.222222  0.500000    0.00308642 139 t-inv F
  0.333333  0.222222  0.500000    0.00308642 140 t-inv F
  0.444444  0.222222  0.500000    0.00308642 141 t-inv F
 -0.444444  0.222222  0.500000    0.00308642 142 t-inv F
 -0.333333  0.222222  0.500000    0.00308642 143 t-inv F
 -0.222222  0.222222  0.500000    0.00308642 144 t-inv F
 -0.111111  0.222222  0.500000    0.00308642 145 t-inv F
  0.000000  0.333333  0.500000    0.00308642 146 t-inv F
  0.111111  0.333333  0.500000    0.00308642 147 t-inv F
  0.222222  0.333333  0.500000    0.00308642 148 t-inv F
  0.333333  0.333333  0.500000    0.00308642 149 t-inv F
  0.444444  0.333333  0.500000    0.00308642 150 t-inv F
 -0.444444  0.333333  0.500000    0.00308642 151 t-inv F
 -0.333333  0.333333  0.500000    0.00308642 152 t-inv F
 -0.222222  0.333333  0.500000    0.00308642 153 t-inv F
 -0.111111  0.333333  0.500000    0.00308642 154 t-inv F
  0.000000  0.444444  0.500000    0.00308642 155 t-inv F
  0.111111  0.444444  0.500000    0.00308642 156 t-inv F
  0.222222  0.444444  0.500000    0.00308642 157 t-inv F
  0.333333  0.444444  0.500000    0.00308642 158 t-inv F
  0.444444  0.444444  0.500000    0.00308642 159 t-inv F
 -0.444444  0.444444  0.500000    0.00308642 160 t-inv F
 -0.333333  0.444444  0.500000    0.00308642 161 t-inv F
 -0.222222  0.444444  0.500000    0.00308642 162 t-inv F
 -0.111111  0.444444  0.500000    0.00308642 163 t-inv F
 -0.111111  0.000000  0.000000    0.00308642   2 t-inv T
 -0.222222 -0.000000  0.000000    0.00308642   3 t-inv T
 -0.333333 -0.000000  0.000000    0.00308642   4 t-inv T
 -0.444444 -0.000000  0.000000    0.00308642   5 t-inv T
  0.000000 -0.111111  0.000000    0.00308642   6 t-inv T
 -0.111111 -0.111111  0.000000    0.00308642   7 t-inv T
 -0.222222 -0.111111  0.000000    0.00308642   8 t-inv T
 -0.333333 -0.111111  0.000000    0.00308642   9 t-inv T
 -0.444444 -0.111111  0.000000    0.00308642  10 t-inv T
  0.444444 -0.111111  0.000000    0.00308642  11 t-inv T
  0.333333 -0.111111  0.000000    0.00308642  12 t-inv T
  0.222222 -0.111111  0.000000    0.00308642  13 t-inv T
  0.111111 -0.111111  0.000000    0.00308642  14 t-inv T
  0.000000 -0.222222  0.000000    0.00308642  15 t-inv T
 -0.111111 -0.222222  0.000000    0.00308642  16 t-inv T
 -0.222222 -0.222222  0.000000    0.00308642  17 t-inv T
 -0.333333 -0.222222  0.000000    0.00308642  18 t-inv T
 -0.444444 -0.222222  0.000000    0.00308642  19 t-inv T
  0.444444 -0.222222  0.000000    0.00308642  20 t-inv T
  0.333333 -0.222222  0.000000    0.00308642  21 t-inv T
  0.222222 -0.222222  0.000000    0.00308642  22 t-inv T
  0.111111 -0.222222  0.000000    0.00308642  23 t-inv T
  0.000000 -0.333333  0.000000    0.00308642  24 t-inv T
 -0.111111 -0.333333  0.000000    0.00308642  25 t-inv T
 -0.222222 -0.333333  0.000000    0.00308642  26 t-inv T
 -0.333333 -0.333333  0.000000    0.00308642  27 t-inv T
 -0.444444 -0.333333  0.000000    0.00308642  28 t-inv T
  0.444444 -0.333333  0.000000    0.00308642  29 t-inv T
  0.333333 -0.333333  0.000000    0.00308642  30 t-inv T
  0.222222 -0.333333  0.000000    0.00308642  31 t-inv T
  0.111111 -0.333333  0.000000    0.00308642  32 t-inv T
  0.000000 -0.444444  0.000000    0.00308642  33 t-inv T
 -0.111111 -0.444444  0.000000    0.00308642  34 t-inv T
 -0.222222 -0.444444  0.000000    0.00308642  35 t-inv T
 -0.333333 -0.444444  0.000000    0.00308642  36 t-inv T
 -0.444444 -0.444444  0.000000    0.00308642  37 t-inv T
  0.444444 -0.444444  0.000000    0.00308642  38 t-inv T
  0.333333 -0.444444  0.000000    0.00308642  39 t-inv T
  0.222222 -0.444444  0.000000    0.00308642  40 t-inv T
  0.111111 -0.444444  0.000000    0.00308642  41 t-inv T
  0.000000  0.000000 -0.250000    0.00308642  42 t-inv T
 -0.111111  0.000000 -0.250000    0.00308642  43 t-inv T
 -0.222222 -0.000000 -0.250000    0.00308642  44 t-inv T
 -0.333333 -0.000000 -0.250000    0.00308642  45 t-inv T
 -0.444444 -0.000000 -0.250000    0.00308642  46 t-inv T
  0.444444  0.000000 -0.250000    0.00308642  47 t-inv T
  0.333333  0.000000 -0.250000    0.00308642  48 t-inv T
  0.222222  0.000000 -0.250000    0.00308642  49 t-inv T
  0.111111 -0.000000 -0.250000    0.00308642  50 t-inv T
  0.000000 -0.111111 -0.250000    0.00308642  51 t-inv T
 -0.111111 -0.111111 -0.250000    0.00308642  52 t-inv T
 -0.222222 -0.111111 -0.250000    0.00308642  53 t-inv T
 -0.333333 -0.111111 -0.250000    0.00308642  54 t-inv T
 -0.444444 -0.111111 -0.250000    0.00308642  55 t-inv T
  0.444444 -0.111111 -0.250000    0.00308642  56 t-inv T
  0.333333 -0.111111 -0.250000    0.00308642  57 t-inv T
  0.222222 -0.111111 -0.250000    0.00308642  58 t-inv T
  0.111111 -0.111111 -0.250000    0.00308642  59 t-inv T
  0.000000 -0.222222 -0.250000    0.00308642  60 t-inv T
 -0.111111 -0.222222 -0.250000    0.00308642  61 t-inv T
 -0.222222 -0.222222 -0.250000    0.00308642  62 t-inv T
 -0.333333 -0.222222 -0.250000    0.00308642  63 t-inv T
 -0.444444 -0.222222 -0.250000    0.00308642  64 t-inv T
  0.444444 -0.222222 -0.250000    0.00308642  65 t-inv T
  0.333333 -0.222222 -0.250000    0.00308642  66 t-inv T
  0.222222 -0.222222 -0.250000    0.00308642  67 t-inv T
  0.111111 -0.222222 -0.250000    0.00308642  68 t-inv T
  0.000000 -0.333333 -0.250000    0.00308642  69 t-inv T
 -0.111111 -0.333333 -0.250000    0.00308642  70 t-inv T
 -0.222222 -0.333333 -0.250000    0.00308642  71 t-inv T
 -0.333333 -0.333333 -0.250000    0.00308642  72 t-inv T
 -0.444444 -0.333333 -0.250000    0.00308642  73 t-inv T
  0.444444 -0.333333 -0.250000    0.00308642  74 t-inv T
  0.333333 -0.333333 -0.250000    0.00308642  75 t-inv T
  0.222222 -0.333333 -0.250000    0.00308642  76 t-inv T
  0.111111 -0.333333 -0.250000    0.00308642  77 t-inv T
  0.000000 -0.444444 -0.250000    0.00308642  78 t-inv T
 -0.111111 -0.444444 -0.250000    0.00308642  79 t-inv T
 -0.222222 -0.444444 -0.250000    0.00308642  80 t-inv T
 -0.333333 -0.444444 -0.250000    0.00308642  81 t-inv T
 -0.444444 -0.444444 -0.250000    0.00308642  82 t-inv T
  0.444444 -0.444444 -0.250000    0.00308642  83 t-inv T
  0.333333 -0.444444 -0.250000    0.00308642  84 t-inv T
  0.222222 -0.444444 -0.250000    0.00308642  85 t-inv T
  0.111111 -0.444444 -0.250000    0.00308642  86 t-inv T
  0.000000  0.444444 -0.250000    0.00308642  87 t-inv T
 -0.111111  0.444444 -0.250000    0.00308642  88 t-inv T
 -0.222222  0.444444 -0.250000    0.00308642  89 t-inv T
 -0.333333  0.444444 -0.250000    0.00308642  90 t-inv T
 -0.444444  0.444444 -0.250000    0.00308642  91 t-inv T
  0.444444  0.444444 -0.250000    0.00308642  92 t-inv T
  0.333333  0.444444 -0.250000    0.00308642  93 t-inv T
  0.222222  0.444444 -0.250000    0.00308642  94 t-inv T
  0.111111  0.444444 -0.250000    0.00308642  95 t-inv T
  0.000000  0.333333 -0.250000    0.00308642  96 t-inv T
 -0.111111  0.333333 -0.250000    0.00308642  97 t-inv T
 -0.222222  0.333333 -0.250000    0.00308642  98 t-inv T
 -0.333333  0.333333 -0.250000    0.00308642  99 t-inv T
 -0.444444  0.333333 -0.250000    0.00308642 100 t-inv T
  0.444444  0.333333 -0.250000    0.00308642 101 t-inv T
  0.333333  0.333333 -0.250000    0.00308642 102 t-inv T
  0.222222  0.333333 -0.250000    0.00308642 103 t-inv T
  0.111111  0.333333 -0.250000    0.00308642 104 t-inv T
  0.000000  0.222222 -0.250000    0.00308642 105 t-inv T
 -0.111111  0.222222 -0.250000    0.00308642 106 t-inv T
 -0.222222  0.222222 -0.250000    0.00308642 107 t-inv T
 -0.333333  0.222222 -0.250000    0.00308642 108 t-inv T
 -0.444444  0.222222 -0.250000    0.00308642 109 t-inv T
  0.444444  0.222222 -0.250000    0.00308642 110 t-inv T
  0.333333  0.222222 -0.250000    0.00308642 111 t-inv T
  0.222222  0.222222 -0.250000    0.00308642 112 t-inv T
  0.111111  0.222222 -0.250000    0.00308642 113 t-inv T
  0.000000  0.111111 -0.250000    0.00308642 114 t-inv T
 -0.111111  0.111111 -0.250000    0.00308642 115 t-inv T
 -0.222222  0.111111 -0.250000    0.00308642 116 t-inv T
 -0.333333  0.111111 -0.250000    0.00308642 117 t-inv T
 -0.444444  0.111111 -0.250000    0.00308642 118 t-inv T
  0.444444  0.111111 -0.250000    0.00308642 119 t-inv T
  0.333333  0.111111 -0.250000    0.00308642 120 t-inv T
  0.222222  0.111111 -0.250000    0.00308642 121 t-inv T
  0.111111  0.111111 -0.250000    0.00308642 122 t-inv T
 -0.111111  0.000000 -0.500000    0.00308642 124 t-inv T
 -0.222222 -0.000000 -0.500000    0.00308642 125 t-inv T
 -0.333333 -0.000000 -0.500000    0.00308642 126 t-inv T
 -0.444444 -0.000000 -0.500000    0.00308642 127 t-inv T
  0.000000 -0.111111 -0.500000    0.00308642 128 t-inv T
 -0.111111 -0.111111 -0.500000    0.00308642 129 t-inv T
 -0.222222 -0.111111 -0.500000    0.00308642 130 t-inv T
 -0.333333 -0.111111 -0.500000    0.00308642 131 t-inv T
 -0.444444 -0.111111 -0.500000    0.00308642 132 t-inv T
  0.444444 -0.111111 -0.500000    0.00308642 133 t-inv T
  0.333333 -0.111111 -0.500000    0.00308642 134 t-inv T
  0.222222 -0.111111 -0.500000    0.00308642 135 t-inv T
  0.111111 -0.111111 -0.500000    0.00308642 136 t-inv T
  0.000000 -0.222222 -0.500000    0.00308642 137 t-inv T
 -0.111111 -0.222222 -0.500000    0.00308642 138 t-inv T
 -0.222222 -0.222222 -0.500000    0.00308642 139 t-inv T
 -0.333333 -0.222222 -0.500000    0.00308642 140 t-inv T
 -0.444444 -0.222222 -0.500000    0.00308642 141 t-inv T
  0.444444 -0.222222 -0.500000    0.00308642 142 t-inv T
  0.333333 -0.222222 -0.500000    0.00308642 143 t-inv T
  0.222222 -0.222222 -0.500000    0.00308642 144 t-inv T
  0.111111 -0.222222 -0.500000    0.00308642 145 t-inv T
  0.000000 -0.333333 -0.500000    0.00308642 146 t-inv T
 -0.111111 -0.333333 -0.500000    0.00308642 147 t-inv T
 -0.222222 -0.333333 -0.500000    0.00308642 148 t-inv T
 -0.333333 -0.333333 -0.500000    0.00308642 149 t-inv T
 -0.444444 -0.333333 -0.500000    0.00308642 150 t-inv T
  0.444444 -0.333333 -0.500000    0.00308642 151 t-inv T
  0.333333 -0.333333 -0.500000    0.00308642 152 t-inv T
  0.222222 -0.333333 -0.500000    0.00308642 153 t-inv T
  0.111111 -0.333333 -0.500000    0.00308642 154 t-inv T
  0.000000 -0.444444 -0.500000    0.00308642 155 t-inv T
 -0.111111 -0.444444 -0.500000    0.00308642 156 t-inv T
 -0.222222 -0.444444 -0.500000    0.00308642 157 t-inv T
 -0.333333 -0.444444 -0.500000    0.00308642 158 t-inv T
 -0.444444 -0.444444 -0.500000    0.00308642 159 t-inv T
  0.444444 -0.444444 -0.500000    0.00308642 160 t-inv T
  0.333333 -0.444444 -0.500000    0.00308642 161 t-inv T
  0.222222 -0.444444 -0.500000    0.00308642 162 t-inv T
  0.111111 -0.444444 -0.500000    0.00308642 163 t-inv T


--------------------------------------------------------------------------------------------------------




 Dimension of arrays:
   k-points           NKPTS =    163   k-points in BZ     NKDIM =    163   number of bands    NBANDS=    128
   number of dos      NEDOS =    301   number of ions     NIONS =     30
   non local maximal  LDIM  =      5   non local SUM 2l+1 LMDIM =     13
   total plane-waves  NPLWV = 524880
   max r-space proj   IRMAX =   7122   max aug-charges    IRDMAX=  25013
   dimension x,y,z NGX =    54 NGY =   54 NGZ =  180
   dimension x,y,z NGXF=   108 NGYF=  108 NGZF=  360
   support grid    NGXF=   108 NGYF=  108 NGZF=  360
   ions per type =               6   6  18
 NGX,Y,Z   is equivalent  to a cutoff of  19.26, 19.26, 19.83 a.u.
 NGXF,Y,Z  is equivalent  to a cutoff of  38.52, 38.52, 39.67 a.u.


 I would recommend the setting:
   dimension x,y,z NGX =    53 NGY =   53 NGZ =  172
 SYSTEM =  unknown system                          
 POSCAR =  Mg6 C6 O18                              

 Startparameter for this run:
   NWRITE =      2    write-flag & timer
   PREC   = accura    normal or accurate (medium, high low for compatibility)
   ISTART =      0    job   : 0-new  1-cont  2-samecut
   ICHARG =      2    charge: 1-file 2-atom 10-const
   ISPIN  =      1    spin polarized calculation?
   LNONCOLLINEAR =      F non collinear calculations
   LSORBIT =      F    spin-orbit coupling
   INIWAV =      1    electr: 0-lowe 1-rand  2-diag
   LASPH  =      F    aspherical Exc in radial PAW
   METAGGA=      F    non-selfconsistent MetaGGA calc.

 Electronic Relaxation 1
   ENCUT  = 1225.0 eV  90.03 Ry    9.49 a.u.  13.30 13.30 43.06*2*pi/ulx,y,z
   ENINI  = 1225.0     initial cutoff
   ENAUG  =  980.2 eV  augmentation charge cutoff
   NELM   =     60;   NELMIN=  5; NELMDL= -5     # of ELM steps 
   EDIFF  = 0.1E-09   stopping-criterion for ELM
   LREAL  =      T    real-space projection
   NLSPLINE    = F    spline interpolate recip. space projectors
   LCOMPAT=      F    compatible to vasp.4.4
   GGA_COMPAT  = T    GGA compatible to vasp.4.4-vasp.4.6
   LMAXPAW     = -100 max onsite density
   LMAXMIX     =    2 max onsite mixed and CHGCAR
   VOSKOWN=      0    Vosko Wilk Nusair interpolation
   ROPT   =   -0.00025  -0.00025  -0.00025
 Ionic relaxation
   EDIFFG = 0.1E-08   stopping-criterion for IOM
   NSW    =      0    number of steps for IOM
   NBLOCK =      1;   KBLOCK =      1    inner block; outer block 
   IBRION =     -1    ionic relax: 0-MD 1-quasi-New 2-CG
   NFREE  =      0    steps in history (QN), initial steepest desc. (CG)
   ISIF   =      2    stress and relaxation
   IWAVPR =     10    prediction:  0-non 1-charg 2-wave 3-comb
   ISYM   =      2    0-nonsym 1-usesym 2-fastsym
   LCORR  =      T    Harris-Foulkes like correction to forces

   POTIM  = 0.5000    time-step for ionic-motion
   TEIN   =    0.0    initial temperature
   TEBEG  =    0.0;   TEEND  =   0.0 temperature during run
   SMASS  =  -3.00    Nose mass-parameter (am)
   estimated Nose-frequenzy (Omega)   =  0.10E-29 period in steps =****** mass=  -0.497E-27a.u.
   SCALEE = 1.0000    scale energy and forces
   NPACO  =    256;   APACO  = 16.0  distance and # of slots for P.C.
   PSTRESS=    0.0 pullay stress

  Mass of Ions in am
   POMASS =  24.30 12.01 16.00
  Ionic Valenz
   ZVAL   =  10.00  4.00  6.00
  Atomic Wigner-Seitz radii
   RWIGS  =  -1.00 -1.00 -1.00
  virtual crystal weights 
   VCA    =   1.00  1.00  1.00
   NELECT =     192.0000    total number of electrons
   NUPDOWN=      -1.0000    fix difference up-down

 DOS related values:
   EMIN   =  10.00;   EMAX   =-10.00  energy-range for DOS
   EFERMI =   0.00
   ISMEAR =    -5;   SIGMA  =   0.01  broadening in eV -4-tet -1-fermi 0-gaus

 Electronic relaxation 2 (details)
   IALGO  =     38    algorithm
   LDIAG  =      T    sub-space diagonalisation (order eigenvalues)
   LSUBROT=      F    optimize rotation matrix (better conditioning)
   TURBO    =      0    0=normal 1=particle mesh
   IRESTART =      0    0=no restart 2=restart with 2 vectors
   NREBOOT  =      0    no. of reboots
   NMIN     =      0    reboot dimension
   EREF     =   0.00    reference energy to select bands
   IMIX   =      4    mixing-type and parameters
     AMIX     =   0.40;   BMIX     =  1.00
     AMIX_MAG =   1.60;   BMIX_MAG =  1.00
     AMIN     =   0.10
     WC   =   100.;   INIMIX=   1;  MIXPRE=   1;  MAXMIX= -45

 Intra band minimization:
   WEIMIN = 0.0000     energy-eigenvalue tresh-hold
   EBREAK =  0.20E-12  absolut break condition
   DEPER  =   0.30     relativ break condition  

   TIME   =   0.40     timestep for ELM

  volume/ion in A,a.u.               =       9.46        63.87
  Fermi-wavevector in a.u.,A,eV,Ry     =   1.436950  2.715442 28.093663  2.064826
  Thomas-Fermi vector in A             =   2.556082
 
 Write flags
   LWAVE  =      F    write WAVECAR
   LCHARG =      F    write CHGCAR
   LVTOT  =      F    write LOCPOT, total local potential
   LVHAR  =      F    write LOCPOT, Hartree potential only
   LELF   =      F    write electronic localiz. function (ELF)
   LORBIT =      0    0 simple, 1 ext, 2 COOP (PROOUT)


 Dipole corrections
   LMONO  =      F    monopole corrections only (constant potential shift)
   LDIPOL =      F    correct potential (dipole corrections)
   IDIPOL =      0    1-x, 2-y, 3-z, 4-all directions 
   EPSILON=  1.0000000 bulk dielectric constant

 Exchange correlation treatment:
   GGA     =    --    GGA type
   LEXCH   =     8    internal setting for exchange type
   VOSKOWN=      0    Vosko Wilk Nusair interpolation
   LHFCALC =     F    Hartree Fock is set to
   LHFONE  =     F    Hartree Fock one center treatment
   AEXX    =    0.0000 exact exchange contribution

 Linear response parameters
   LEPSILON=     F    determine dielectric tensor
   LRPA    =     F    only Hartree local field effects (RPA)
   LNABLA  =     F    use nabla operator in PAW spheres
   LVEL    =     F    velocity operator in full k-point grid
   LINTERFAST=   F  fast interpolation
   KINTER  =     0    interpolate to denser k-point grid
   CSHIFT  =0.1000    complex shift for real part using Kramers Kronig
   OMEGAMAX=  -1.0    maximum frequency
   DEG_THRESHOLD= 0.2000000E-02 threshold for treating states as degnerate
   RTIME   =    0.100 relaxation time in fs

 Orbital magnetization related:
   ORBITALMAG=     F  switch on orbital magnetization
   LMAGBLOCH =     F  use Bloch summation to obtain orbital mag.
   LCHIMAG   =     T  perturbation theory with respect to B field
   DQ        =  0.001000  dq finite difference perturbation B field
   LGAUGE    =     T  gauge transformation for 0 moment terms
   NUCIND    =     F  nuclear independent calculation        
   MAGPOS    =    0.0000    0.0000    0.0000  position of magnetic moment in nuclear independent calculation
   MAGATOM   =     0  atom on which magnetic dipole is placed
   JATOM     =     0  atom on which magnetic dipole is evaluated
   MAGDIPOL  =    0.0000    0.0000    0.0000 magnetic dipole

 Orbital magnetization related:
   ORBITALMAG=     F  switch on orbital magnetization
   LCHIMAG   =     T  perturbation theory with respect to B field
   DQ        =  0.001000  dq finite difference perturbation B field



--------------------------------------------------------------------------------------------------------


 Static calculation
 charge density and potential will be updated during run
 non-spin polarized calculation
 Variant of blocked Davidson
 Davidson routine will perform the subspace rotation
 perform sub-space diagonalisation
    after iterative eigenvector-optimisation
 modified Broyden-mixing scheme, WC =      100.0
 initial mixing is a Kerker type mixing with AMIX =  0.4000 and BMIX =      1.0000
 Hartree-type preconditioning will be used
 using additional bands           32
 real space projection scheme for non local part
 use partial core corrections
 calculate Harris-corrections to forces 
   (improved forces if not selfconsistent)
 use gradient corrections 
 use of overlap-Matrix (Vanderbilt PP)
 Fermi weights with tetrahedron method with Bloechl corrections


--------------------------------------------------------------------------------------------------------


  energy-cutoff  :     1225.00
  volume of cell :      283.92
      direct lattice vectors                 reciprocal lattice vectors
     4.661355000  0.000000000  0.000000000     0.214529895  0.123858915  0.000000000
    -2.330678000  4.036852000  0.000000000     0.000000000  0.247717776  0.000000000
     0.000000000  0.000000000 15.088481000     0.000000000  0.000000000  0.066275724

  length of vectors
     4.661355000  4.661355383 15.088481000     0.247717796  0.247717776  0.066275724


 
 k-points in units of 2pi/SCALE and weight: pymatgen generated KPOINTS with grid den
   0.00000000  0.00000000  0.00000000       0.003
   0.02383666  0.01376210  0.00000000       0.006
   0.04767331  0.02752420  0.00000000       0.006
   0.07150997  0.04128630  0.00000000       0.006
   0.09534662  0.05504841  0.00000000       0.006
   0.00000000  0.02752420  0.00000000       0.006
   0.02383666  0.04128630  0.00000000       0.006
   0.04767331  0.05504840  0.00000000       0.006
   0.07150997  0.06881050  0.00000000       0.006
   0.09534662  0.08257260  0.00000000       0.006
  -0.09534662 -0.02752421  0.00000000       0.006
  -0.07150997 -0.01376211  0.00000000       0.006
  -0.04767331 -0.00000001  0.00000000       0.006
  -0.02383666  0.01376210  0.00000000       0.006
   0.00000000  0.05504839  0.00000000       0.006
   0.02383666  0.06881050  0.00000000       0.006
   0.04767331  0.08257260  0.00000000       0.006
   0.07150997  0.09633470  0.00000000       0.006
   0.09534662  0.11009680  0.00000000       0.006
  -0.09534662 -0.00000001  0.00000000       0.006
  -0.07150997  0.01376209  0.00000000       0.006
  -0.04767331  0.02752419  0.00000000       0.006
  -0.02383666  0.04128629  0.00000000       0.006
   0.00000000  0.08257259  0.00000000       0.006
   0.02383666  0.09633469  0.00000000       0.006
   0.04767331  0.11009680  0.00000000       0.006
   0.07150997  0.12385890  0.00000000       0.006
   0.09534662  0.13762100  0.00000000       0.006
  -0.09534662  0.02752419  0.00000000       0.006
  -0.07150997  0.04128629  0.00000000       0.006
  -0.04767331  0.05504839  0.00000000       0.006
  -0.02383666  0.06881049  0.00000000       0.006
   0.00000000  0.11009679  0.00000000       0.006
   0.02383666  0.12385889  0.00000000       0.006
   0.04767331  0.13762099  0.00000000       0.006
   0.07150997  0.15138309  0.00000000       0.006
   0.09534662  0.16514520  0.00000000       0.006
  -0.09534662  0.05504838  0.00000000       0.006
  -0.07150997  0.06881048  0.00000000       0.006
  -0.04767331  0.08257259  0.00000000       0.006
  -0.02383666  0.09633469  0.00000000       0.006
   0.00000000  0.00000000  0.01656893       0.006
   0.02383666  0.01376210  0.01656893       0.006
   0.04767331  0.02752420  0.01656893       0.006
   0.07150997  0.04128630  0.01656893       0.006
   0.09534662  0.05504841  0.01656893       0.006
  -0.09534662 -0.05504841  0.01656893       0.006
  -0.07150997 -0.04128630  0.01656893       0.006
  -0.04767331 -0.02752420  0.01656893       0.006
  -0.02383666 -0.01376210  0.01656893       0.006
   0.00000000  0.02752420  0.01656893       0.006
   0.02383666  0.04128630  0.01656893       0.006
   0.04767331  0.05504840  0.01656893       0.006
   0.07150997  0.06881050  0.01656893       0.006
   0.09534662  0.08257260  0.01656893       0.006
  -0.09534662 -0.02752421  0.01656893       0.006
  -0.07150997 -0.01376211  0.01656893       0.006
  -0.04767331 -0.00000001  0.01656893       0.006
  -0.02383666  0.01376210  0.01656893       0.006
   0.00000000  0.05504839  0.01656893       0.006
   0.02383666  0.06881050  0.01656893       0.006
   0.04767331  0.08257260  0.01656893       0.006
   0.07150997  0.09633470  0.01656893       0.006
   0.09534662  0.11009680  0.01656893       0.006
  -0.09534662 -0.00000001  0.01656893       0.006
  -0.07150997  0.01376209  0.01656893       0.006
  -0.04767331  0.02752419  0.01656893       0.006
  -0.02383666  0.04128629  0.01656893       0.006
   0.00000000  0.08257259  0.01656893       0.006
   0.02383666  0.09633469  0.01656893       0.006
   0.04767331  0.11009680  0.01656893       0.006
   0.07150997  0.12385890  0.01656893       0.006
   0.09534662  0.13762100  0.01656893       0.006
  -0.09534662  0.02752419  0.01656893       0.006
  -0.07150997  0.04128629  0.01656893       0.006
  -0.04767331  0.05504839  0.01656893       0.006
  -0.02383666  0.06881049  0.01656893       0.006
   0.00000000  0.11009679  0.01656893       0.006
   0.02383666  0.12385889  0.01656893       0.006
   0.04767331  0.13762099  0.01656893       0.006
   0.07150997  0.15138309  0.01656893       0.006
   0.09534662  0.16514520  0.01656893       0.006
  -0.09534662  0.05504838  0.01656893       0.006
  -0.07150997  0.06881048  0.01656893       0.006
  -0.04767331  0.08257259  0.01656893       0.006
  -0.02383666  0.09633469  0.01656893       0.006
   0.00000000 -0.11009679  0.01656893       0.006
   0.02383666 -0.09633469  0.01656893       0.006
   0.04767331 -0.08257259  0.01656893       0.006
   0.07150997 -0.06881048  0.01656893       0.006
   0.09534662 -0.05504838  0.01656893       0.006
  -0.09534662 -0.16514520  0.01656893       0.006
  -0.07150997 -0.15138309  0.01656893       0.006
  -0.04767331 -0.13762099  0.01656893       0.006
  -0.02383666 -0.12385889  0.01656893       0.006
   0.00000000 -0.08257259  0.01656893       0.006
   0.02383666 -0.06881049  0.01656893       0.006
   0.04767331 -0.05504839  0.01656893       0.006
   0.07150997 -0.04128629  0.01656893       0.006
   0.09534662 -0.02752419  0.01656893       0.006
  -0.09534662 -0.13762100  0.01656893       0.006
  -0.07150997 -0.12385890  0.01656893       0.006
  -0.04767331 -0.11009680  0.01656893       0.006
  -0.02383666 -0.09633469  0.01656893       0.006
   0.00000000 -0.05504839  0.01656893       0.006
   0.02383666 -0.04128629  0.01656893       0.006
   0.04767331 -0.02752419  0.01656893       0.006
   0.07150997 -0.01376209  0.01656893       0.006
   0.09534662  0.00000001  0.01656893       0.006
  -0.09534662 -0.11009680  0.01656893       0.006
  -0.07150997 -0.09633470  0.01656893       0.006
  -0.04767331 -0.08257260  0.01656893       0.006
  -0.02383666 -0.06881050  0.01656893       0.006
   0.00000000 -0.02752420  0.01656893       0.006
   0.02383666 -0.01376210  0.01656893       0.006
   0.04767331  0.00000001  0.01656893       0.006
   0.07150997  0.01376211  0.01656893       0.006
   0.09534662  0.02752421  0.01656893       0.006
  -0.09534662 -0.08257260  0.01656893       0.006
  -0.07150997 -0.06881050  0.01656893       0.006
  -0.04767331 -0.05504840  0.01656893       0.006
  -0.02383666 -0.04128630  0.01656893       0.006
   0.00000000  0.00000000  0.03313786       0.003
   0.02383666  0.01376210  0.03313786       0.006
   0.04767331  0.02752420  0.03313786       0.006
   0.07150997  0.04128630  0.03313786       0.006
   0.09534662  0.05504841  0.03313786       0.006
   0.00000000  0.02752420  0.03313786       0.006
   0.02383666  0.04128630  0.03313786       0.006
   0.04767331  0.05504840  0.03313786       0.006
   0.07150997  0.06881050  0.03313786       0.006
   0.09534662  0.08257260  0.03313786       0.006
  -0.09534662 -0.02752421  0.03313786       0.006
  -0.07150997 -0.01376211  0.03313786       0.006
  -0.04767331 -0.00000001  0.03313786       0.006
  -0.02383666  0.01376210  0.03313786       0.006
   0.00000000  0.05504839  0.03313786       0.006
   0.02383666  0.06881050  0.03313786       0.006
   0.04767331  0.08257260  0.03313786       0.006
   0.07150997  0.09633470  0.03313786       0.006
   0.09534662  0.11009680  0.03313786       0.006
  -0.09534662 -0.00000001  0.03313786       0.006
  -0.07150997  0.01376209  0.03313786       0.006
  -0.04767331  0.02752419  0.03313786       0.006
  -0.02383666  0.04128629  0.03313786       0.006
   0.00000000  0.08257259  0.03313786       0.006
   0.02383666  0.09633469  0.03313786       0.006
   0.04767331  0.11009680  0.03313786       0.006
   0.07150997  0.12385890  0.03313786       0.006
   0.09534662  0.13762100  0.03313786       0.006
  -0.09534662  0.02752419  0.03313786       0.006
  -0.07150997  0.04128629  0.03313786       0.006
  -0.04767331  0.05504839  0.03313786       0.006
  -0.02383666  0.06881049  0.03313786       0.006
   0.00000000  0.11009679  0.03313786       0.006
   0.02383666  0.12385889  0.03313786       0.006
   0.04767331  0.13762099  0.03313786       0.006
   0.07150997  0.15138309  0.03313786       0.006
   0.09534662  0.16514520  0.03313786       0.006
  -0.09534662  0.05504838  0.03313786       0.006
  -0.07150997  0.06881048  0.03313786       0.006
  -0.04767331  0.08257259  0.03313786       0.006
  -0.02383666  0.09633469  0.03313786       0.006
 
 k-points in reciprocal lattice and weights: pymatgen generated KPOINTS with grid den
   0.00000000  0.00000000  0.00000000       0.003
   0.11111111 -0.00000000  0.00000000       0.006
   0.22222222  0.00000000  0.00000000       0.006
   0.33333333  0.00000000  0.00000000       0.006
   0.44444444  0.00000000  0.00000000       0.006
   0.00000000  0.11111111  0.00000000       0.006
   0.11111111  0.11111111  0.00000000       0.006
   0.22222222  0.11111111  0.00000000       0.006
   0.33333333  0.11111111  0.00000000       0.006
   0.44444444  0.11111111  0.00000000       0.006
  -0.44444444  0.11111111  0.00000000       0.006
  -0.33333333  0.11111111  0.00000000       0.006
  -0.22222222  0.11111111  0.00000000       0.006
  -0.11111111  0.11111111  0.00000000       0.006
   0.00000000  0.22222222  0.00000000       0.006
   0.11111111  0.22222222  0.00000000       0.006
   0.22222222  0.22222222  0.00000000       0.006
   0.33333333  0.22222222  0.00000000       0.006
   0.44444444  0.22222222  0.00000000       0.006
  -0.44444444  0.22222222  0.00000000       0.006
  -0.33333333  0.22222222  0.00000000       0.006
  -0.22222222  0.22222222  0.00000000       0.006
  -0.11111111  0.22222222  0.00000000       0.006
   0.00000000  0.33333333  0.00000000       0.006
   0.11111111  0.33333333  0.00000000       0.006
   0.22222222  0.33333333  0.00000000       0.006
   0.33333333  0.33333333  0.00000000       0.006
   0.44444444  0.33333333  0.00000000       0.006
  -0.44444444  0.33333333  0.00000000       0.006
  -0.33333333  0.33333333  0.00000000       0.006
  -0.22222222  0.33333333  0.00000000       0.006
  -0.11111111  0.33333333  0.00000000       0.006
   0.00000000  0.44444444  0.00000000       0.006
   0.11111111  0.44444444  0.00000000       0.006
   0.22222222  0.44444444  0.00000000       0.006
   0.33333333  0.44444444  0.00000000       0.006
   0.44444444  0.44444444  0.00000000       0.006
  -0.44444444  0.44444444  0.00000000       0.006
  -0.33333333  0.44444444  0.00000000       0.006
  -0.22222222  0.44444444  0.00000000       0.006
  -0.11111111  0.44444444  0.00000000       0.006
   0.00000000  0.00000000  0.25000000       0.006
   0.11111111 -0.00000000  0.25000000       0.006
   0.22222222  0.00000000  0.25000000       0.006
   0.33333333  0.00000000  0.25000000       0.006
   0.44444444  0.00000000  0.25000000       0.006
  -0.44444444 -0.00000000  0.25000000       0.006
  -0.33333333 -0.00000000  0.25000000       0.006
  -0.22222222 -0.00000000  0.25000000       0.006
  -0.11111111  0.00000000  0.25000000       0.006
   0.00000000  0.11111111  0.25000000       0.006
   0.11111111  0.11111111  0.25000000       0.006
   0.22222222  0.11111111  0.25000000       0.006
   0.33333333  0.11111111  0.25000000       0.006
   0.44444444  0.11111111  0.25000000       0.006
  -0.44444444  0.11111111  0.25000000       0.006
  -0.33333333  0.11111111  0.25000000       0.006
  -0.22222222  0.11111111  0.25000000       0.006
  -0.11111111  0.11111111  0.25000000       0.006
   0.00000000  0.22222222  0.25000000       0.006
   0.11111111  0.22222222  0.25000000       0.006
   0.22222222  0.22222222  0.25000000       0.006
   0.33333333  0.22222222  0.25000000       0.006
   0.44444444  0.22222222  0.25000000       0.006
  -0.44444444  0.22222222  0.25000000       0.006
  -0.33333333  0.22222222  0.25000000       0.006
  -0.22222222  0.22222222  0.25000000       0.006
  -0.11111111  0.22222222  0.25000000       0.006
   0.00000000  0.33333333  0.25000000       0.006
   0.11111111  0.33333333  0.25000000       0.006
   0.22222222  0.33333333  0.25000000       0.006
   0.33333333  0.33333333  0.25000000       0.006
   0.44444444  0.33333333  0.25000000       0.006
  -0.44444444  0.33333333  0.25000000       0.006
  -0.33333333  0.33333333  0.25000000       0.006
  -0.22222222  0.33333333  0.25000000       0.006
  -0.11111111  0.33333333  0.25000000       0.006
   0.00000000  0.44444444  0.25000000       0.006
   0.11111111  0.44444444  0.25000000       0.006
   0.22222222  0.44444444  0.25000000       0.006
   0.33333333  0.44444444  0.25000000       0.006
   0.44444444  0.44444444  0.25000000       0.006
  -0.44444444  0.44444444  0.25000000       0.006
  -0.33333333  0.44444444  0.25000000       0.006
  -0.22222222  0.44444444  0.25000000       0.006
  -0.11111111  0.44444444  0.25000000       0.006
   0.00000000 -0.44444444  0.25000000       0.006
   0.11111111 -0.44444444  0.25000000       0.006
   0.22222222 -0.44444444  0.25000000       0.006
   0.33333333 -0.44444444  0.25000000       0.006
   0.44444444 -0.44444444  0.25000000       0.006
  -0.44444444 -0.44444444  0.25000000       0.006
  -0.33333333 -0.44444444  0.25000000       0.006
  -0.22222222 -0.44444444  0.25000000       0.006
  -0.11111111 -0.44444444  0.25000000       0.006
   0.00000000 -0.33333333  0.25000000       0.006
   0.11111111 -0.33333333  0.25000000       0.006
   0.22222222 -0.33333333  0.25000000       0.006
   0.33333333 -0.33333333  0.25000000       0.006
   0.44444444 -0.33333333  0.25000000       0.006
  -0.44444444 -0.33333333  0.25000000       0.006
  -0.33333333 -0.33333333  0.25000000       0.006
  -0.22222222 -0.33333333  0.25000000       0.006
  -0.11111111 -0.33333333  0.25000000       0.006
   0.00000000 -0.22222222  0.25000000       0.006
   0.11111111 -0.22222222  0.25000000       0.006
   0.22222222 -0.22222222  0.25000000       0.006
   0.33333333 -0.22222222  0.25000000       0.006
   0.44444444 -0.22222222  0.25000000       0.006
  -0.44444444 -0.22222222  0.25000000       0.006
  -0.33333333 -0.22222222  0.25000000       0.006
  -0.22222222 -0.22222222  0.25000000       0.006
  -0.11111111 -0.22222222  0.25000000       0.006
   0.00000000 -0.11111111  0.25000000       0.006
   0.11111111 -0.11111111  0.25000000       0.006
   0.22222222 -0.11111111  0.25000000       0.006
   0.33333333 -0.11111111  0.25000000       0.006
   0.44444444 -0.11111111  0.25000000       0.006
  -0.44444444 -0.11111111  0.25000000       0.006
  -0.33333333 -0.11111111  0.25000000       0.006
  -0.22222222 -0.11111111  0.25000000       0.006
  -0.11111111 -0.11111111  0.25000000       0.006
   0.00000000  0.00000000  0.50000000       0.003
   0.11111111 -0.00000000  0.50000000       0.006
   0.22222222  0.00000000  0.50000000       0.006
   0.33333333  0.00000000  0.50000000       0.006
   0.44444444  0.00000000  0.50000000       0.006
   0.00000000  0.11111111  0.50000000       0.006
   0.11111111  0.11111111  0.50000000       0.006
   0.22222222  0.11111111  0.50000000       0.006
   0.33333333  0.11111111  0.50000000       0.006
   0.44444444  0.11111111  0.50000000       0.006
  -0.44444444  0.11111111  0.50000000       0.006
  -0.33333333  0.11111111  0.50000000       0.006
  -0.22222222  0.11111111  0.50000000       0.006
  -0.11111111  0.11111111  0.50000000       0.006
   0.00000000  0.22222222  0.50000000       0.006
   0.11111111  0.22222222  0.50000000       0.006
   0.22222222  0.22222222  0.50000000       0.006
   0.33333333  0.22222222  0.50000000       0.006
   0.44444444  0.22222222  0.50000000       0.006
  -0.44444444  0.22222222  0.50000000       0.006
  -0.33333333  0.22222222  0.50000000       0.006
  -0.22222222  0.22222222  0.50000000       0.006
  -0.11111111  0.22222222  0.50000000       0.006
   0.00000000  0.33333333  0.50000000       0.006
   0.11111111  0.33333333  0.50000000       0.006
   0.22222222  0.33333333  0.50000000       0.006
   0.33333333  0.33333333  0.50000000       0.006
   0.44444444  0.33333333  0.50000000       0.006
  -0.44444444  0.33333333  0.50000000       0.006
  -0.33333333  0.33333333  0.50000000       0.006
  -0.22222222  0.33333333  0.50000000       0.006
  -0.11111111  0.33333333  0.50000000       0.006
   0.00000000  0.44444444  0.50000000       0.006
   0.11111111  0.44444444  0.50000000       0.006
   0.22222222  0.44444444  0.50000000       0.006
   0.33333333  0.44444444  0.50000000       0.006
   0.44444444  0.44444444  0.50000000       0.006
  -0.44444444  0.44444444  0.50000000       0.006
  -0.33333333  0.44444444  0.50000000       0.006
  -0.22222222  0.44444444  0.50000000       0.006
  -0.11111111  0.44444444  0.50000000       0.006
 
 position of ions in fractional coordinates (direct lattice) 
   1.00000000  1.00000000  0.00000000
   0.66666792  0.33333209  0.33333309
   0.33333209  0.66666791  0.66666691
   1.00000000  1.00000000  0.50000000
   0.66666791  0.33333209  0.83333309
   0.33333209  0.66666791  0.16666691
   0.99999994  0.99999995  0.25000000
   0.66666699  0.33333307  0.58333200
   0.33333307  0.66666700  0.91666800
   0.00000005  0.00000005  0.75000000
   0.66666693  0.33333300  0.08333200
   0.33333301  0.66666715  0.41666800
   0.27711294  0.00000002  0.25000000
   0.94377996  0.33333307  0.58333207
   0.61044589  0.66666692  0.91666793
   0.00000002  0.27711293  0.25000000
   0.66666691  0.61044588  0.58333207
[...]
 -0.333333  0.111111  0.250000      2.000000
 -0.222222  0.111111  0.250000      2.000000
 -0.111111  0.111111  0.250000      2.000000
  0.000000  0.222222  0.250000      2.000000
  0.111111  0.222222  0.250000      2.000000
  0.222222  0.222222  0.250000      2.000000
  0.333333  0.222222  0.250000      2.000000
  0.444444  0.222222  0.250000      2.000000
 -0.444444  0.222222  0.250000      2.000000
 -0.333333  0.222222  0.250000      2.000000
 -0.222222  0.222222  0.250000      2.000000
 -0.111111  0.222222  0.250000      2.000000
  0.000000  0.333333  0.250000      2.000000
  0.111111  0.333333  0.250000      2.000000
  0.222222  0.333333  0.250000      2.000000
  0.333333  0.333333  0.250000      2.000000
  0.444444  0.333333  0.250000      2.000000
 -0.444444  0.333333  0.250000      2.000000
 -0.333333  0.333333  0.250000      2.000000
 -0.222222  0.333333  0.250000      2.000000
 -0.111111  0.333333  0.250000      2.000000
  0.000000  0.444444  0.250000      2.000000
  0.111111  0.444444  0.250000      2.000000
  0.222222  0.444444  0.250000      2.000000
  0.333333  0.444444  0.250000      2.000000
  0.444444  0.444444  0.250000      2.000000
 -0.444444  0.444444  0.250000      2.000000
 -0.333333  0.444444  0.250000      2.000000
 -0.222222  0.444444  0.250000      2.000000
 -0.111111  0.444444  0.250000      2.000000
  0.000000 -0.444444  0.250000      2.000000
  0.111111 -0.444444  0.250000      2.000000
  0.222222 -0.444444  0.250000      2.000000
  0.333333 -0.444444  0.250000      2.000000
  0.444444 -0.444444  0.250000      2.000000
 -0.444444 -0.444444  0.250000      2.000000
 -0.333333 -0.444444  0.250000      2.000000
 -0.222222 -0.444444  0.250000      2.000000
 -0.111111 -0.444444  0.250000      2.000000
  0.000000 -0.333333  0.250000      2.000000
  0.111111 -0.333333  0.250000      2.000000
  0.222222 -0.333333  0.250000      2.000000
  0.333333 -0.333333  0.250000      2.000000
  0.444444 -0.333333  0.250000      2.000000
 -0.444444 -0.333333  0.250000      2.000000
 -0.333333 -0.333333  0.250000      2.000000
 -0.222222 -0.333333  0.250000      2.000000
 -0.111111 -0.333333  0.250000      2.000000
  0.000000 -0.222222  0.250000      2.000000
  0.111111 -0.222222  0.250000      2.000000
  0.222222 -0.222222  0.250000      2.000000
  0.333333 -0.222222  0.250000      2.000000
  0.444444 -0.222222  0.250000      2.000000
 -0.444444 -0.222222  0.250000      2.000000
 -0.333333 -0.222222  0.250000      2.000000
 -0.222222 -0.222222  0.250000      2.000000
 -0.111111 -0.222222  0.250000      2.000000
  0.000000 -0.111111  0.250000      2.000000
  0.111111 -0.111111  0.250000      2.000000
  0.222222 -0.111111  0.250000      2.000000
  0.333333 -0.111111  0.250000      2.000000
  0.444444 -0.111111  0.250000      2.000000
 -0.444444 -0.111111  0.250000      2.000000
 -0.333333 -0.111111  0.250000      2.000000
 -0.222222 -0.111111  0.250000      2.000000
 -0.111111 -0.111111  0.250000      2.000000
  0.000000  0.000000  0.500000      1.000000
  0.111111 -0.000000  0.500000      2.000000
  0.222222  0.000000  0.500000      2.000000
  0.333333  0.000000  0.500000      2.000000
  0.444444  0.000000  0.500000      2.000000
  0.000000  0.111111  0.500000      2.000000
  0.111111  0.111111  0.500000      2.000000
  0.222222  0.111111  0.500000      2.000000
  0.333333  0.111111  0.500000      2.000000
  0.444444  0.111111  0.500000      2.000000
 -0.444444  0.111111  0.500000      2.000000
 -0.333333  0.111111  0.500000      2.000000
 -0.222222  0.111111  0.500000      2.000000
 -0.111111  0.111111  0.500000      2.000000
  0.000000  0.222222  0.500000      2.000000
  0.111111  0.222222  0.500000      2.000000
  0.222222  0.222222  0.500000      2.000000
  0.333333  0.222222  0.500000      2.000000
  0.444444  0.222222  0.500000      2.000000
 -0.444444  0.222222  0.500000      2.000000
 -0.333333  0.222222  0.500000      2.000000
 -0.222222  0.222222  0.500000      2.000000
 -0.111111  0.222222  0.500000      2.000000
  0.000000  0.333333  0.500000      2.000000
  0.111111  0.333333  0.500000      2.000000
  0.222222  0.333333  0.500000      2.000000
  0.333333  0.333333  0.500000      2.000000
  0.444444  0.333333  0.500000      2.000000
 -0.444444  0.333333  0.500000      2.000000
 -0.333333  0.333333  0.500000      2.000000
 -0.222222  0.333333  0.500000      2.000000
 -0.111111  0.333333  0.500000      2.000000
  0.000000  0.444444  0.500000      2.000000
  0.111111  0.444444  0.500000      2.000000
  0.222222  0.444444  0.500000      2.000000
  0.333333  0.444444  0.500000      2.000000
  0.444444  0.444444  0.500000      2.000000
 -0.444444  0.444444  0.500000      2.000000
 -0.333333  0.444444  0.500000      2.000000
 -0.222222  0.444444  0.500000      2.000000
 -0.111111  0.444444  0.500000      2.000000
 
 Following cartesian coordinates:
            Coordinates               Weight
  0.000000  0.000000  0.000000      1.000000
  0.023837  0.013762  0.000000      2.000000
  0.047673  0.027524  0.000000      2.000000
  0.071510  0.041286  0.000000      2.000000
  0.095347  0.055048  0.000000      2.000000
  0.000000  0.027524  0.000000      2.000000
  0.023837  0.041286  0.000000      2.000000
  0.047673  0.055048  0.000000      2.000000
  0.071510  0.068811  0.000000      2.000000
  0.095347  0.082573  0.000000      2.000000
 -0.095347 -0.027524  0.000000      2.000000
 -0.071510 -0.013762  0.000000      2.000000
 -0.047673 -0.000000  0.000000      2.000000
 -0.023837  0.013762  0.000000      2.000000
  0.000000  0.055048  0.000000      2.000000
  0.023837  0.068810  0.000000      2.000000
  0.047673  0.082573  0.000000      2.000000
  0.071510  0.096335  0.000000      2.000000
  0.095347  0.110097  0.000000      2.000000
 -0.095347 -0.000000  0.000000      2.000000
 -0.071510  0.013762  0.000000      2.000000
 -0.047673  0.027524  0.000000      2.000000
 -0.023837  0.041286  0.000000      2.000000
  0.000000  0.082573  0.000000      2.000000
  0.023837  0.096335  0.000000      2.000000
  0.047673  0.110097  0.000000      2.000000
  0.071510  0.123859  0.000000      2.000000
  0.095347  0.137621  0.000000      2.000000
 -0.095347  0.027524  0.000000      2.000000
 -0.071510  0.041286  0.000000      2.000000
 -0.047673  0.055048  0.000000      2.000000
 -0.023837  0.068810  0.000000      2.000000
  0.000000  0.110097  0.000000      2.000000
  0.023837  0.123859  0.000000      2.000000
  0.047673  0.137621  0.000000      2.000000
  0.071510  0.151383  0.000000      2.000000
  0.095347  0.165145  0.000000      2.000000
 -0.095347  0.055048  0.000000      2.000000
 -0.071510  0.068810  0.000000      2.000000
 -0.047673  0.082573  0.000000      2.000000
 -0.023837  0.096335  0.000000      2.000000
  0.000000  0.000000  0.016569      2.000000
  0.023837  0.013762  0.016569      2.000000
  0.047673  0.027524  0.016569      2.000000
  0.071510  0.041286  0.016569      2.000000
  0.095347  0.055048  0.016569      2.000000
 -0.095347 -0.055048  0.016569      2.000000
 -0.071510 -0.041286  0.016569      2.000000
 -0.047673 -0.027524  0.016569      2.000000
 -0.023837 -0.013762  0.016569      2.000000
  0.000000  0.027524  0.016569      2.000000
  0.023837  0.041286  0.016569      2.000000
  0.047673  0.055048  0.016569      2.000000
  0.071510  0.068811  0.016569      2.000000
  0.095347  0.082573  0.016569      2.000000
 -0.095347 -0.027524  0.016569      2.000000
 -0.071510 -0.013762  0.016569      2.000000
 -0.047673 -0.000000  0.016569      2.000000
 -0.023837  0.013762  0.016569      2.000000
  0.000000  0.055048  0.016569      2.000000
  0.023837  0.068810  0.016569      2.000000
  0.047673  0.082573  0.016569      2.000000
  0.071510  0.096335  0.016569      2.000000
  0.095347  0.110097  0.016569      2.000000
 -0.095347 -0.000000  0.016569      2.000000
 -0.071510  0.013762  0.016569      2.000000
 -0.047673  0.027524  0.016569      2.000000
 -0.023837  0.041286  0.016569      2.000000
  0.000000  0.082573  0.016569      2.000000
  0.023837  0.096335  0.016569      2.000000
  0.047673  0.110097  0.016569      2.000000
  0.071510  0.123859  0.016569      2.000000
  0.095347  0.137621  0.016569      2.000000
 -0.095347  0.027524  0.016569      2.000000
 -0.071510  0.041286  0.016569      2.000000
 -0.047673  0.055048  0.016569      2.000000
 -0.023837  0.068810  0.016569      2.000000
  0.000000  0.110097  0.016569      2.000000
  0.023837  0.123859  0.016569      2.000000
  0.047673  0.137621  0.016569      2.000000
  0.071510  0.151383  0.016569      2.000000
  0.095347  0.165145  0.016569      2.000000
 -0.095347  0.055048  0.016569      2.000000
 -0.071510  0.068810  0.016569      2.000000
 -0.047673  0.082573  0.016569      2.000000
 -0.023837  0.096335  0.016569      2.000000
  0.000000 -0.110097  0.016569      2.000000
  0.023837 -0.096335  0.016569      2.000000
  0.047673 -0.082573  0.016569      2.000000
  0.071510 -0.068810  0.016569      2.000000
  0.095347 -0.055048  0.016569      2.000000
 -0.095347 -0.165145  0.016569      2.000000
 -0.071510 -0.151383  0.016569      2.000000
 -0.047673 -0.137621  0.016569      2.000000
 -0.023837 -0.123859  0.016569      2.000000
  0.000000 -0.082573  0.016569      2.000000
  0.023837 -0.068810  0.016569      2.000000
  0.047673 -0.055048  0.016569      2.000000
  0.071510 -0.041286  0.016569      2.000000
  0.095347 -0.027524  0.016569      2.000000
 -0.095347 -0.137621  0.016569      2.000000
 -0.071510 -0.123859  0.016569      2.000000
 -0.047673 -0.110097  0.016569      2.000000
 -0.023837 -0.096335  0.016569      2.000000
  0.000000 -0.055048  0.016569      2.000000
  0.023837 -0.041286  0.016569      2.000000
  0.047673 -0.027524  0.016569      2.000000
  0.071510 -0.013762  0.016569      2.000000
  0.095347  0.000000  0.016569      2.000000
 -0.095347 -0.110097  0.016569      2.000000
 -0.071510 -0.096335  0.016569      2.000000
 -0.047673 -0.082573  0.016569      2.000000
 -0.023837 -0.068810  0.016569      2.000000
  0.000000 -0.027524  0.016569      2.000000
  0.023837 -0.013762  0.016569      2.000000
  0.047673  0.000000  0.016569      2.000000
  0.071510  0.013762  0.016569      2.000000
  0.095347  0.027524  0.016569      2.000000
 -0.095347 -0.082573  0.016569      2.000000
 -0.071510 -0.068811  0.016569      2.000000
 -0.047673 -0.055048  0.016569      2.000000
 -0.023837 -0.041286  0.016569      2.000000
  0.000000  0.000000  0.033138      1.000000
  0.023837  0.013762  0.033138      2.000000
  0.047673  0.027524  0.033138      2.000000
  0.071510  0.041286  0.033138      2.000000
  0.095347  0.055048  0.033138      2.000000
  0.000000  0.027524  0.033138      2.000000
  0.023837  0.041286  0.033138      2.000000
  0.047673  0.055048  0.033138      2.000000
  0.071510  0.068811  0.033138      2.000000
  0.095347  0.082573  0.033138      2.000000
 -0.095347 -0.027524  0.033138      2.000000
 -0.071510 -0.013762  0.033138      2.000000
 -0.047673 -0.000000  0.033138      2.000000
 -0.023837  0.013762  0.033138      2.000000
  0.000000  0.055048  0.033138      2.000000
  0.023837  0.068810  0.033138      2.000000
  0.047673  0.082573  0.033138      2.000000
  0.071510  0.096335  0.033138      2.000000
  0.095347  0.110097  0.033138      2.000000
 -0.095347 -0.000000  0.033138      2.000000
 -0.071510  0.013762  0.033138      2.000000
 -0.047673  0.027524  0.033138      2.000000
 -0.023837  0.041286  0.033138      2.000000
  0.000000  0.082573  0.033138      2.000000
  0.023837  0.096335  0.033138      2.000000
  0.047673  0.110097  0.033138      2.000000
  0.071510  0.123859  0.033138      2.000000
  0.095347  0.137621  0.033138      2.000000
 -0.095347  0.027524  0.033138      2.000000
 -0.071510  0.041286  0.033138      2.000000
 -0.047673  0.055048  0.033138      2.000000
 -0.023837  0.068810  0.033138      2.000000
  0.000000  0.110097  0.033138      2.000000
  0.023837  0.123859  0.033138      2.000000
  0.047673  0.137621  0.033138      2.000000
  0.071510  0.151383  0.033138      2.000000
  0.095347  0.165145  0.033138      2.000000
 -0.095347  0.055048  0.033138      2.000000
 -0.071510  0.068810  0.033138      2.000000
 -0.047673  0.082573  0.033138      2.000000
 -0.023837  0.096335  0.033138      2.000000
 
 TETIRR: Found    970 inequivalent tetrahedra from     1944
 --------------------------------------------------------------------------
  Core NMR properties        

  typ  El   Core shift (ppm)
 ----------------------------
    1  Mg    -412.8248405
    2  C     -200.5098812
    3  O     -271.0766979
 ----------------------------

  Core contribution to magnetic susceptibility:     -2.69  10^-6 cm^3/mole
 --------------------------------------------------------------------------
 
 
 ---------------------------------------------------------------------------------
  CSA tensor (J. Mason, Solid State Nucl. Magn. Reson. 2, 285 (1993))             
 ---------------------------------------------------------------------------------
             EXCLUDING G=0 CONTRIBUTION             INCLUDING G=0 CONTRIBUTION    
         -----------------------------------   -----------------------------------
  ATOM    ISO_SHIFT        SPAN        SKEW     ISO_SHIFT        SPAN        SKEW 
 ---------------------------------------------------------------------------------
  (absolute, valence only)                                                                  
     1    -144.8070      3.0205     -0.9984     -153.7627      2.4746     -0.9987
     2    -144.8101      3.0184     -0.9989     -153.7659      2.4725     -0.9992
     3    -144.8101      3.0185     -0.9988     -153.7658      2.4726     -0.9991
     4    -144.8070      3.0203     -0.9987     -153.7628      2.4744     -0.9991
     5    -144.8101      3.0186     -0.9986     -153.7659      2.4727     -0.9990
     6    -144.8101      3.0186     -0.9986     -153.7659      2.4727     -0.9990
     7     207.6566     73.2017      1.0000      198.7009     73.7484      1.0000
     8     207.6567     73.2016      1.0000      198.7009     73.7484      1.0000
     9     207.6567     73.2016      1.0000      198.7009     73.7484      1.0000
    10     207.6566     73.2017      1.0000      198.7009     73.7484      1.0000
    11     207.6567     73.2016      1.0000      198.7009     73.7484      1.0000
    12     207.6564     73.2017      1.0000      198.7007     73.7485      1.0000
    13     200.7843    233.4178     -0.0794      191.8285    233.9414     -0.0769
    14     200.7862    233.4190     -0.0794      191.8304    233.9426     -0.0769
    15     200.7870    233.4203     -0.0794      191.8313    233.9439     -0.0768
    16     200.7838    233.4187     -0.0794      191.8281    233.9648     -0.0769
    17     200.7866    233.4212     -0.0794      191.8308    233.9673     -0.0769
    18     200.7858    233.4198     -0.0794      191.8300    233.9660     -0.0769
    19     200.7856    233.4205     -0.0794      191.8298    233.9667     -0.0769
    20     200.7854    233.4196     -0.0794      191.8296    233.9657     -0.0769
    21     200.7854    233.4196     -0.0794      191.8296    233.9657     -0.0769
    22     200.7843    233.4178     -0.0794      191.8285    233.9414     -0.0769
    23     200.7870    233.4203     -0.0794      191.8313    233.9439     -0.0768
    24     200.7856    233.4183     -0.0794      191.8298    233.9419     -0.0769
    25     200.7838    233.4187     -0.0794      191.8281    233.9648     -0.0769
    26     200.7858    233.4198     -0.0794      191.8300    233.9660     -0.0769
    27     200.7862    233.4212     -0.0794      191.8304    233.9673     -0.0769
    28     200.7856    233.4206     -0.0794      191.8298    233.9667     -0.0769
    29     200.7854    233.4196     -0.0794      191.8296    233.9657     -0.0769
    30     200.7847    233.4189     -0.0794      191.8290    233.9650     -0.0769
 ---------------------------------------------------------------------------------
  (absolute, valence and core)                                                                  
     1    -557.6318      3.0205     -0.9984     -566.7192      2.4746     -0.9987
     2    -557.6350      3.0184     -0.9989     -566.7224      2.4725     -0.9992
     3    -557.6349      3.0185     -0.9988     -566.7223      2.4726     -0.9991
     4    -557.6318      3.0203     -0.9987     -566.7192      2.4744     -0.9991
     5    -557.6349      3.0186     -0.9986     -566.7223      2.4727     -0.9990
     6    -557.6349      3.0186     -0.9986     -566.7223      2.4727     -0.9990
     7       7.1468     73.2017      1.0000       -1.9406     73.7484      1.0000
     8       7.1468     73.2016      1.0000       -1.9406     73.7484      1.0000
     9       7.1468     73.2016      1.0000       -1.9406     73.7484      1.0000
    10       7.1468     73.2017      1.0000       -1.9406     73.7484      1.0000
    11       7.1468     73.2016      1.0000       -1.9406     73.7484      1.0000
    12       7.1466     73.2017      1.0000       -1.9408     73.7485      1.0000
    13     -70.2924    233.4178     -0.0794      -79.3798    233.9414     -0.0769
    14     -70.2905    233.4190     -0.0794      -79.3779    233.9426     -0.0769
    15     -70.2897    233.4203     -0.0794      -79.3770    233.9439     -0.0768
    16     -70.2929    233.4187     -0.0794      -79.3803    233.9648     -0.0769
    17     -70.2901    233.4212     -0.0794      -79.3775    233.9673     -0.0769
    18     -70.2909    233.4198     -0.0794      -79.3783    233.9660     -0.0769
    19     -70.2911    233.4205     -0.0794      -79.3785    233.9667     -0.0769
    20     -70.2913    233.4196     -0.0794      -79.3787    233.9657     -0.0769
    21     -70.2913    233.4196     -0.0794      -79.3787    233.9657     -0.0769
    22     -70.2924    233.4178     -0.0794      -79.3798    233.9414     -0.0769
    23     -70.2897    233.4203     -0.0794      -79.3770    233.9439     -0.0768
    24     -70.2911    233.4183     -0.0794      -79.3785    233.9419     -0.0769
    25     -70.2929    233.4187     -0.0794      -79.3802    233.9648     -0.0769
    26     -70.2909    233.4198     -0.0794      -79.3783    233.9660     -0.0769
    27     -70.2905    233.4212     -0.0794      -79.3779    233.9673     -0.0769
    28     -70.2911    233.4206     -0.0794      -79.3785    233.9667     -0.0769
    29     -70.2913    233.4196     -0.0794      -79.3787    233.9657     -0.0769
    30     -70.2920    233.4189     -0.0794      -79.3794    233.9650     -0.0769
 ---------------------------------------------------------------------------------
  IF SPAN.EQ.0, THEN SKEW IS ILL-DEFINED                                          
 ---------------------------------------------------------------------------------
 
 
     LOOP+:  cpu time15020.6267: real time15032.7907
    4ORBIT:  cpu time    0.0000: real time    0.0000
 BZINTS: Fermi energy:  2.718885;192.000000 electrons
         Band energy:***********;  BLOECHL correction:  0.000000

 total amount of memory used by VASP on root node   221630. kBytes
========================================================================

   base      :      30000. kBytes
   nonlr-proj:      14483. kBytes
   fftplans  :       4651. kBytes
   grid      :      26039. kBytes
   one-center:        243. kBytes
   wavefun   :     146214. kBytes
 
  
  
 General timing and accounting informations for this job:
 ========================================================
  
                  Total CPU time used (sec):    15055.285
                            User time (sec):    14440.935
                          System time (sec):      614.350
                         Elapsed time (sec):    15069.638
  
                   Maximum memory used (kb):     1587224.
                   Average memory used (kb):           0.
  
                          Minor page faults:      4721278
                          Major page faults:           19
                 Voluntary context switches:        63954
