22
 energy: -35.581688290771 gnorm: 0.000088295686 xtb: 6.4.1 (a3dbbd7)
O        30.36217612415854    3.27357104344845   12.00301019437238
H        29.66587383333680    3.45882532350072   11.35267941014505
H        31.19091658814050    3.52038137008030   11.56318866217235
O        28.28062217846024    4.17134620267409   10.30489375568455
H        28.27015664661692    4.00549984465202    9.35735840448539
H        27.42883732472584    3.87680546997689   10.63946907239004
O        32.76805301579714    4.20153858185886   10.79434441551755
H        33.42424989435931    4.36167007046640   11.47903391712802
H        33.17205305819390    3.61834001726073   10.14492442443803
O        27.42927982775721    7.79475994538946   11.22484823030407
H        26.70820437506605    7.97275431661836   11.83991706330107
H        27.12109281708609    8.14021674305825   10.37871708326364
O        31.25795704180614    6.48769137562773   10.04767737356281
H        31.81406931705100    5.71053139441032   10.23069740144974
H        31.59775704564111    6.83482217028212    9.21559586633685
O        30.55926917976580    8.83822766600866   12.81722595837357
H        30.63397080948442    8.97076472728808   13.76895932129161
H        30.97005111960346    9.61819101026393   12.42668964766998
O        29.74488145626091    5.34885607251498   13.68511153995844
H        29.97547425466495    4.50543034433492   13.24101459401340
H        29.63257328424526    5.10470769004591   14.60935114062469
K        29.61762080838006    6.80200861964532   11.77851252346587
