19
 energy: -30.609196699887 gnorm: 0.000139188539 xtb: 6.4.1 (a3dbbd7)
O        38.06618713088621   24.86078174696959   17.77661968759135
H        37.47769884811105   24.10235983490761   17.74497351266584
H        38.96140621425219   24.54515652233923   17.63026057356281
O        37.28457422663052   26.94773246897608   16.16810979431561
H        37.42527443960073   26.27008442350508   15.50212658183103
H        36.98751106681585   27.74339591073390   15.71965380115538
O        39.40825747981632   27.26246885910166   17.88966325323887
H        40.06643630170232   27.31666069007508   18.58719148626947
H        39.82544650039074   27.54137675415090   17.07065622889779
O        37.02915040672446   28.56479977554963   18.38961043749140
H        37.61678528673657   29.32390314303225   18.42055434035167
H        36.13368190350823   28.87945357503214   18.53647377474173
O        35.68712383319975   26.16304721299500   18.27642976728900
H        35.27060665729593   25.88334569979441   19.09550631791637
H        35.02846911139186   26.10938804597502   17.57930443811250
O        37.81058795184928   26.47803905561227   19.99804134480191
H        37.66936019770278   27.15596982706420   20.66361151542469
H        38.10814494731146   25.68284225589835   20.44698123768964
Mg       37.54775749607376   26.71277419828765   18.08299190665299
