------------------------------------------------------------
          Invoking FHI-aims ...

          When using FHI-aims, please cite the following reference:

            Volker Blum, Ralf Gehrke, Felix Hanke, Paula Havu,
            Ville Havu, Xinguo Ren, Karsten Reuter, and Matthias Scheffler,
            'Ab Initio Molecular Simulations with Numeric Atom-Centered Orbitals',
            Computer Physics Communications 180, 2175-2196 (2009)

          In addition, many other developments in FHI-aims are likely important for
          your particular application. A partial list of references is given at the end of
          this file. Thank you for giving credit to the authors of these developments.

          For any questions about FHI-aims, please visit our slack channel at

            https://fhi-aims.slack.com

          and our main development and support site at

            https://aims-git.rz-berlin.mpg.de .

          The latter site, in particular, has a wiki to collect information, as well
          as an issue tracker to log discussions, suggest improvements, and report issues
          or bugs. https://aims-git.rz-berlin.mpg.de is also the main development site
          of the project and all new and updated code versions can be obtained there.
          Please send an email to aims-coordinators@fhi-berlin.mpg.de and we will add
          you to these sites. They are for you and everyone is welcome there.

------------------------------------------------------------



  Date     :  20230628, Time     :  095500.899
  Time zero on CPU 1             :   0.163200300000000E+01  s.
  Internal wall clock time zero  :           457178100.899  s.

  FHI-aims created a unique identifier for this run for later identification
  aims_uuid : 099AC112-61D8-44F8-AB69-102154672282

  Build configuration of the current instance of FHI-aims
  -------------------------------------------------------
  FHI-aims version      : 220309
  Commit number         : 232d594a3
  CMake host system     : Linux-5.4.0-146-generic
  CMake version         : 3.26.3
  Fortran compiler      : /home/tpurcell/intel/oneapi/mpi/2021.6.0/bin/mpiifort (Intel) version 2021.6.0.20220226
  Fortran compiler flags: -O3 -ip -fp-model precise
  C compiler            : /home/tpurcell/intel/oneapi/compiler/2022.1.0/linux/bin/intel64/icc (Intel) version 2021.6.0.20220226
  C compiler flags      : -m64 -O3 -ip -fp-model precise -std=gnu99
  Using MPI
  Using ScaLAPACK
  Using LibXC
  Using i-PI
  Using RLSY
  Linking against: /home/tpurcell/intel/oneapi/mkl/2022.1.0/lib/intel64/libmkl_scalapack_lp64.so
                   /home/tpurcell/intel/oneapi/mkl/2022.1.0/lib/intel64/libmkl_blacs_intelmpi_lp64.so
                   /home/tpurcell/intel/oneapi/mkl/2022.1.0/lib/intel64/libmkl_intel_lp64.so
                   /home/tpurcell/intel/oneapi/mkl/2022.1.0/lib/intel64/libmkl_sequential.so
                   /home/tpurcell/intel/oneapi/mkl/2022.1.0/lib/intel64/libmkl_core.so

  Using        1 parallel tasks.
  Task        0 on host nomadbook-7 reporting.

  Performing system and environment tests:
  *** Environment variable OMP_NUM_THREADS is set to
  2
  *** For performance reasons you might want to set it to 1
  | Checking for ScaLAPACK...
  | Testing pdtran()...
  | All pdtran() tests passed.

  Obtaining array dimensions for all initial allocations:

  -----------------------------------------------------------------------
  Parsing control.in (first pass over file, find array dimensions only).
  The contents of control.in will be repeated verbatim below
  unless switched off by setting 'verbatim_writeout .false.' .
  in the first line of control.in .
  -----------------------------------------------------------------------

  #===============================================================================
  # Created using the Atomic Simulation Environment (ASE)

  # Tue Jun 27 18:06:33 2023

  #===============================================================================
  xc                                 pbe
  relativistic                       atomic_zora scalar
  relax_geometry                     trm 1e-3
  #===============================================================================

  ################################################################################
  #
  #  FHI-aims code project
  #  VB, Fritz-Haber Institut, 2009
  #
  #  Suggested "light" defaults for O atom (to be pasted into control.in file)
  #  Be sure to double-check any results obtained with these settings for post-processing,
  #  e.g., with the "tight" defaults and larger basis sets.
  #
  ################################################################################
    species        O
  #     global species definitions
      nucleus             8
      mass                15.9994
  #
      l_hartree           4
  #
      cut_pot             3.5  1.5  1.0
      basis_dep_cutoff    1e-4
  #
      radial_base         36 5.0
      radial_multiplier   1
       angular_grids specified
        division   0.2659   50
        division   0.4451  110
        division   0.6052  194
        division   0.7543  302
  #      division   0.8014  434
  #      division   0.8507  590
  #      division   0.8762  770
  #      division   0.9023  974
  #      division   1.2339 1202
  #      outer_grid 974
        outer_grid 302
  ################################################################################
  #
  #  Definition of "minimal" basis
  #
  ################################################################################
  #     valence basis states
      valence      2  s   2.
      valence      2  p   4.
  #     ion occupancy
      ion_occ      2  s   1.
      ion_occ      2  p   3.
  ################################################################################
  #
  #  Suggested additional basis functions. For production calculations,
  #  uncomment them one after another (the most important basis functions are
  #  listed first).
  #
  #  Constructed for dimers: 1.0 A, 1.208 A, 1.5 A, 2.0 A, 3.0 A
  #
  ################################################################################
  #  "First tier" - improvements: -699.05 meV to -159.38 meV
       hydro 2 p 1.8
       hydro 3 d 7.6
       hydro 3 s 6.4
  #  "Second tier" - improvements: -49.91 meV to -5.39 meV
  #     hydro 4 f 11.6
  #     hydro 3 p 6.2
  #     hydro 3 d 5.6
  #     hydro 5 g 17.6
  #     hydro 1 s 0.75
  #  "Third tier" - improvements: -2.83 meV to -0.50 meV
  #     ionic 2 p auto
  #     hydro 4 f 10.8
  #     hydro 4 d 4.7
  #     hydro 2 s 6.8
  #  "Fourth tier" - improvements: -0.40 meV to -0.12 meV
  #     hydro 3 p 5
  #     hydro 3 s 3.3
  #     hydro 5 g 15.6
  #     hydro 4 f 17.6
  #     hydro 4 d 14
  # Further basis functions - -0.08 meV and below
  #     hydro 3 s 2.1
  #     hydro 4 d 11.6
  #     hydro 3 p 16
  #     hydro 2 s 17.2
  ################################################################################
  #
  #  FHI-aims code project
  #  VB, Fritz-Haber Institut, 2009
  #
  #  Suggested "light" defaults for H atom (to be pasted into control.in file)
  #  Be sure to double-check any results obtained with these settings for post-processing,
  #  e.g., with the "tight" defaults and larger basis sets.
  #
  ################################################################################
    species        H
  #     global species definitions
      nucleus             1
      mass                1.00794
  #
      l_hartree           4
  #
      cut_pot             3.5  1.5  1.0
      basis_dep_cutoff    1e-4
  #
      radial_base         24 5.0
      radial_multiplier   1
      angular_grids       specified
        division   0.2421   50
        division   0.3822  110
        division   0.4799  194
        division   0.5341  302
  #      division   0.5626  434
  #      division   0.5922  590
  #      division   0.6542  770
  #      division   0.6868 1202
  #      outer_grid  770
        outer_grid  302
  ################################################################################
  #
  #  Definition of "minimal" basis
  #
  ################################################################################
  #     valence basis states
      valence      1  s   1.
  #     ion occupancy
      ion_occ      1  s   0.5
  ################################################################################
  #
  #  Suggested additional basis functions. For production calculations,
  #  uncomment them one after another (the most important basis functions are
  #  listed first).
  #
  #  Basis constructed for dimers: 0.5 A, 0.7 A, 1.0 A, 1.5 A, 2.5 A
  #
  ################################################################################
  #  "First tier" - improvements: -1014.90 meV to -62.69 meV
       hydro 2 s 2.1
       hydro 2 p 3.5
  #  "Second tier" - improvements: -12.89 meV to -1.83 meV
  #     hydro 1 s 0.85
  #     hydro 2 p 3.7
  #     hydro 2 s 1.2
  #     hydro 3 d 7
  #  "Third tier" - improvements: -0.25 meV to -0.12 meV
  #     hydro 4 f 11.2
  #     hydro 3 p 4.8
  #     hydro 4 d 9
  #     hydro 3 s 3.2

  -----------------------------------------------------------------------
  Completed first pass over input file control.in .
  -----------------------------------------------------------------------


  -----------------------------------------------------------------------
  Parsing geometry.in (first pass over file, find array dimensions only).
  The contents of geometry.in will be repeated verbatim below
  unless switched off by setting 'verbatim_writeout .false.' .
  in the first line of geometry.in .
  -----------------------------------------------------------------------

  #===============================================================================
  # Created using the Atomic Simulation Environment (ASE)

  # Tue Jun 27 18:06:33 2023

  #=======================================================
  atom 0.0000000000000000 0.0000000000000000 0.1192620000000000 O
  atom 0.0000000000000000 0.7632390000000000 -0.4770470000000000 H
  atom 0.0000000000000000 -0.7632390000000000 -0.4770470000000000 H

  -----------------------------------------------------------------------
  Completed first pass over input file geometry.in .
  -----------------------------------------------------------------------


  Basic array size parameters:
  | Number of species                 :        2
  | Number of atoms                   :        3
  | Max. basis fn. angular momentum   :        2
  | Max. atomic/ionic basis occupied n:        2
  | Max. number of basis fn. types    :        2
  | Max. radial fns per species/type  :        3
  | Max. logarithmic grid size        :     1301
  | Max. radial integration grid size :       36
  | Max. angular integration grid size:      302
  | Max. angular grid division number :        8
  | Radial grid for Hartree potential :     1301
  | Number of spin channels           :        1

------------------------------------------------------------
          Reading file control.in.
------------------------------------------------------------
  XC: Using PBE gradient-corrected functionals.
  Scalar relativistic treatment of kinetic energy: on-site free-atom approximation to ZORA.
  Geometry relaxation: Modified BFGS - TRM (trust radius method) for lattice optimization.
  Convergence accuracy for geometry relaxation: Maximum force <   0.100000E-02 eV/A.

  Reading configuration options for species O                   .
  | Found nuclear charge :   8.0000
  | Found atomic mass :    15.9994000000000      amu
  | Found l_max for Hartree potential  :   4
  | Found cutoff potl. onset [A], width [A], scale factor :    3.50000    1.50000    1.00000
  | Threshold for basis-dependent cutoff potential is   0.100000E-03
  | Found data for basic radial integration grid :    36 points, outermost radius =    5.000 A
  | Found multiplier for basic radial grid :   1
  | Found angular grid specification: user-specified.
  | Specified grid contains     5 separate shells.
  | Check grid settings after all constraints further below.
  | Found free-atom valence shell :  2 s   2.000
  | Found free-atom valence shell :  2 p   4.000
  | No ionic wave fns used. Skipping ion_occ.
  | No ionic wave fns used. Skipping ion_occ.
  | Found hydrogenic basis function :  2 p   1.800
  | Found hydrogenic basis function :  3 d   7.600
  | Found hydrogenic basis function :  3 s   6.400
  Species O                   : Missing cutoff potential type.
  Defaulting to exp(1/x)/(1-x)^2 type cutoff potential.
  Species O : No 'logarithmic' tag. Using default grid for free atom:
  | Default logarithmic grid data [bohr] : 0.1000E-03 0.1000E+03 0.1012E+01
  Species O : On-site basis accuracy parameter (for Gram-Schmidt orthonormalisation) not specified.
  Using default value basis_acc =  0.1000000E-03.
  Species O                   : Using default innermost maximum threshold i_radial=  2 for radial functions.
  Species O                   : Default cutoff onset for free atom density etc. : 0.35000000E+01 AA.
  Species O                   : Basic radial grid will be enhanced according to radial_multiplier =   1, to contain    36 grid points.

  Reading configuration options for species H                   .
  | Found nuclear charge :   1.0000
  | Found atomic mass :    1.00794000000000      amu
  | Found l_max for Hartree potential  :   4
  | Found cutoff potl. onset [A], width [A], scale factor :    3.50000    1.50000    1.00000
  | Threshold for basis-dependent cutoff potential is   0.100000E-03
  | Found data for basic radial integration grid :    24 points, outermost radius =    5.000 A
  | Found multiplier for basic radial grid :   1
  | Found angular grid specification: user-specified.
  | Specified grid contains     5 separate shells.
  | Check grid settings after all constraints further below.
  | Found free-atom valence shell :  1 s   1.000
  | No ionic wave fns used. Skipping ion_occ.
  | Found hydrogenic basis function :  2 s   2.100
  | Found hydrogenic basis function :  2 p   3.500
  Species H                   : Missing cutoff potential type.
  Defaulting to exp(1/x)/(1-x)^2 type cutoff potential.
  Species H : No 'logarithmic' tag. Using default grid for free atom:
  | Default logarithmic grid data [bohr] : 0.1000E-03 0.1000E+03 0.1012E+01
  Species H : On-site basis accuracy parameter (for Gram-Schmidt orthonormalisation) not specified.
  Using default value basis_acc =  0.1000000E-03.
  Species H                   : Using default innermost maximum threshold i_radial=  2 for radial functions.
  Species H                   : Default cutoff onset for free atom density etc. : 0.35000000E+01 AA.
  Species H                   : Basic radial grid will be enhanced according to radial_multiplier =   1, to contain    24 grid points.

  Finished reading input file 'control.in'.

------------------------------------------------------------


------------------------------------------------------------
          Reading geometry description geometry.in.
------------------------------------------------------------
  | The smallest distance between any two atoms is         0.96856502 AA.
  | The first atom of this pair is atom number                      1 .
  | The second atom of this pair is atom number                     2 .
  Input structure read successfully.
  The structure contains        3 atoms,  and a total of         10.000 electrons.

  Input geometry:
  | No unit cell requested.
  | Atomic structure:
  |       Atom                x [A]            y [A]            z [A]
  |    1: Species O             0.00000000        0.00000000        0.11926200
  |    2: Species H             0.00000000        0.76323900       -0.47704700
  |    3: Species H             0.00000000       -0.76323900       -0.47704700


  Finished reading input file 'control.in'.


------------------------------------------------------------
          Reading geometry description geometry.in.
------------------------------------------------------------

  Consistency checks for stacksize environment parameter are next.

  | Maximum stacksize for task 0: unlimited
  | Current stacksize for task 0: unlimited

  Consistency checks for the contents of control.in are next.

  MPI_IN_PLACE appears to work with this MPI implementation.
  | Keeping use_mpi_in_place .true. (see manual).
  Target number of points in a grid batch is not set. Defaulting to  100
  Method for grid partitioning is not set. Defaulting to parallel hash+maxmin partitioning.
  Batch size limit is not set. Defaulting to    200
  By default, will store active basis functions for each batch.
  If in need of memory, prune_basis_once .false. can be used to disable this option.
  communication_type for Hartree potential was not specified.
  Defaulting to calc_hartree .
  Defaulting to Pulay charge density mixer.
  Pulay mixer: Number of relevant iterations not set.
  Defaulting to    8 iterations.
  Pulay mixer: Number of initial linear mixing iterations not set.
  Defaulting to    0 iterations.
  Work space size for distributed Hartree potential not set.
  Defaulting to   0.200000E+03 MB.
  Mixing parameter for charge density mixing has not been set.
  Using default: charge_mix_param =     0.0500.
  The mixing parameter will be adjusted in iteration number     2 of the first full s.c.f. cycle only.
  Algorithm-dependent basis array size parameters:
  | n_max_pulay                         :        8
  Maximum number of self-consistency iterations not provided.
  Presetting  1000 iterations.
  Presetting      1001 iterations before the initial mixing cycle
  is restarted anyway using the sc_init_iter criterion / keyword.
  Presetting a factor      1.000 between actual scf density residual
  and density convergence criterion sc_accuracy_rho below which sc_init_iter
  takes no effect.
 * No s.c.f. convergence criteria (sc_accuracy_*) were provided in control.in.
 * The run will proceed with a reasonable default guess, but please check whether.
 * the s.c.f. cycles seem to take too much or too little time.
  No maximum number of relaxation steps, defaulting to     1000
  Default initial Hessian is Lindh matrix (thres = 15.00) plus  0.200000E+01 eV/A^2 times unity.
  No maximum energy tolerance for TRM/BFGS moves, defaulting to   0.100000E-02
  Maximum energy tolerance by which TRM/BFGS trajectory may increase over multiple steps:   0.300000E-02
  No harmonic length scale. Defaulting to   0.250000E-01 A.
  No trust radius initializer. Defaulting to   0.200000E+00 A.
  Forces evaluation will include force correction term due to incomplete self-consistency (default).
 * Notice: The s.c.f. convergence criterion sc_accuracy_rho was not provided.
 * We used to stop in this case, and ask the user to provide reasonable
 * scf convergence criteria. However, this led some users to employ criteria
 * that led to extremely long run times, e.g., for simple relaxation.
 * We now preset a default value for sc_accuracy_rho if it is not set.
 * You may still wish to check if this setting is too tight or too loose for your needs.
 * Based on n_atoms and forces and force-correction status, FHI-aims chose sc_accuracy_rho =  0.266667E-05 .
  Force calculation: scf convergence accuracy of forces not set.
  Defaulting to 'sc_accuracy_forces not_checked'.
  Handling of forces: Unphysical translation and rotation will be removed from forces.
  No accuracy limit for integral partition fn. given. Defaulting to  0.1000E-14.
  No threshold value for u(r) in integrations given. Defaulting to  0.1000E-05.
  No occupation type (smearing scheme) given. Defaulting to Gaussian broadening, width =  0.1000E-01 eV.
  The width will be adjusted in iteration number     2 of the first full s.c.f. cycle only.
  S.C.F. convergence parameters will be adjusted in iteration number     2 of the first full s.c.f. cycle only.
  No accuracy for occupation numbers given. Defaulting to  0.1000E-12.
  No threshold value for occupation numbers given. Defaulting to  0.0000E+00.
  No accuracy for fermi level given. Defaulting to  0.1000E-19.
  Maximum # of iterations to find E_F not set. Defaulting to  200.
  Preferred method for the eigenvalue solver ('KS_method') not specified in 'control.in'.
  Defaulting to serial version LAPACK (via ELSI).
  Will not use alltoall communication since running on < 1024 CPUs.
  Threshold for basis singularities not set.
  Default threshold for basis singularities:  0.1000E-04
  partition_type (choice of integration weights) for integrals was not specified.
  | Using a version of the partition function of Stratmann and coworkers ('stratmann_sparse').
  | At each grid point, the set of atoms used to build the partition table is smoothly restricted to
  | only those atoms whose free-atom density would be non-zero at that grid point.
  Partitioning for Hartree potential was not defined. Using partition_type for integrals.
  | Adjusted default value of keyword multip_moments_threshold to:       0.10000000E-11
  | This value may affect high angular momentum components of the Hartree potential in periodic systems.
  Spin handling was not defined in control.in. Defaulting to unpolarized case.
  No q(lm)/r^(l+1) cutoff set for long-range Hartree potential.
  | Using default value of  0.100000E-09 .
  | Verify using the multipole_threshold keyword.
  Defaulting to new monopole extrapolation.
  Density update method: automatic selection selected.
  Geometry relaxation: A file "geometry.in.next_step" is written out by default after each step.
  | This file contains the geometry of the current relaxation step as well as
  | the current Hessian matrix needed to restart the relaxation algorithm.
  | If you do not want part or all of this information, use the keywords
  | "write_restart_geometry" or "hessian_to_restart_geometry" to switch the output off.
  Charge integration errors on the 3D integration grid will be compensated
  by explicit normalization and distribution of residual charges.
  Use the "compensate_multipole_errors" flag to change this behaviour.
  Set 'collect_eigenvectors' to be '.true.' for all serial calculations. This is mandatory.
  Set 'collect_eigenvectors' to be '.true.' for use_density_matrix .false.
  Set 'collect_eigenvectors' to be '.true.' for KS_method lapack_fast and serial.

  Consistency checks for the contents of geometry.in are next.

  Number of empty states per atom not set in control.in - providing a guess from actual geometry.
  | Total number of empty states used during s.c.f. cycle:        6
  If you use a very high smearing, use empty_states (per atom!) in control.in to increase this value.

  Structure-dependent array size parameters:
  | Maximum number of distinct radial functions  :        9
  | Maximum number of basis functions            :       24
  | Number of Kohn-Sham states (occupied + empty):       11
------------------------------------------------------------

------------------------------------------------------------
          Preparing all fixed parts of the calculation.
------------------------------------------------------------
  Determining machine precision:
    2.225073858507201E-308
  Setting up grids for atomic and cluster calculations.

  Creating wave function, potential, and density for free atoms.
  Runtime choices for atomic solver:
  | atomic solver xc        : PBE
  | compute density gradient: 1
  | compute kinetic density : F

  Species: O

  List of occupied orbitals and eigenvalues:
    n    l              occ      energy [Ha]    energy [eV]
    1    0           2.0000       -18.926989      -515.0296
    2    0           2.0000        -0.880247       -23.9527
    2    1           4.0000        -0.331514        -9.0210


  Species: H

  List of occupied orbitals and eigenvalues:
    n    l              occ      energy [Ha]    energy [eV]
    1    0           1.0000        -0.237593        -6.4652


  Adding cutoff potential to free-atom effective potential.
  Creating fixed part of basis set: Ionic, confined, hydrogenic.

  O                    hydrogenic:

  List of hydrogenic basis orbitals:
    n    l      effective z      eigenvalue [eV]  inner max. [A]     outer max. [A]     outer radius [A]
    2    1         1.800000       -10.9749           1.164242           1.164242           4.578029
    3    2         7.600000       -87.3180           0.624125           0.624125           3.251020
    3    0         6.400000       -61.9207           0.061167           1.081902           4.001998


  H                    hydrogenic:

  List of hydrogenic basis orbitals:
    n    l      effective z      eigenvalue [eV]  inner max. [A]     outer max. [A]     outer radius [A]
    2    0         2.100000       -14.9728           0.193243           1.317208           4.583499
    2    1         3.500000       -41.6669           0.602369           0.602369           3.723403

  Creating atomic-like basis functions for current effective potential.

  Species O                   :

  List of atomic basis orbitals and eigenvalues:
    n    l      energy [Ha]    energy [eV]    outer radius [A]
    1    0       -18.926989      -515.0296       1.415765
    2    0        -0.880247       -23.9527       4.413171
    2    1        -0.331514        -9.0210       4.522403


  Species H                   :

  List of atomic basis orbitals and eigenvalues:
    n    l      energy [Ha]    energy [eV]    outer radius [A]
    1    0        -0.237593        -6.4652       4.527807

  Assembling full basis from fixed parts.
  | Species O :   atomic orbital   1 s accepted.
  | Species O :    hydro orbital   3 s accepted.
  | Species O :   atomic orbital   2 s accepted.
  | Species O :   atomic orbital   2 p accepted.
  | Species O :    hydro orbital   2 p accepted.
  | Species O :    hydro orbital   3 d accepted.
  | Species H :   atomic orbital   1 s accepted.
  | Species H :    hydro orbital   2 s accepted.
  | Species H :    hydro orbital   2 p accepted.

  Basis size parameters after reduction:
  | Total number of radial functions:        9
  | Total number of basis functions :       24

  Per-task memory consumption for arrays in subroutine allocate_ext:
  |           2.998708MB.
  Testing on-site integration grid accuracy.
  |  Species  Function  <phi|h_atom|phi> (log., in eV)  <phi|h_atom|phi> (rad., in eV)
           1        1               -515.0295626295               -515.0294562738
           1        2                 15.1698434419                 15.1699322204
           1        3                -21.6038822678                -21.6039118105
           1        4                 -9.0211123393                 -9.0212703513
           1        5                  8.3047696391                  8.2854840999
           1        6                 45.8428042125                 45.8427461222
           2        7                 -6.4664147733                 -6.4652229287
           2        8                 13.7099062243                 13.7158503352
           2        9                 25.2661739479                 25.2663166526

  Preparing densities etc. for the partition functions (integrals / Hartree potential).

  Preparations completed.
  max(cpu_time)          :      0.064 s.
  Wall clock time (cpu1) :      0.064 s.
------------------------------------------------------------

------------------------------------------------------------
          Begin self-consistency loop: Initialization.

          Date     :  20230628, Time     :  095500.973
------------------------------------------------------------

  Initializing index lists of integration centers etc. from given atomic structure:
  | Number of centers in hartree potential         :         3
  | Number of centers in hartree multipole         :         3
  | Number of centers in electron density summation:         3
  | Number of centers in basis integrals           :         3
  | Number of centers in integrals                 :         3
  | Number of centers in hamiltonian               :         3

  Initializing relaxation algorithms.
  Finished initialization of distributed Hessian storage.
  | Global dimension:         9
  | BLACS block size:         9
  | Number of workers:        1

  Partitioning the integration grid into batches with parallel hashing+maxmin method.
  | Number of batches:      256
  | Maximal batch size:      67
  | Minimal batch size:      58
  | Average batch size:      62.203
  | Standard deviation of batch sizes:       2.500

  Integration load balanced across     1 MPI tasks.
  Work distribution over tasks is as follows:
  Task     0 has      15924 integration points.
  Initializing partition tables, free-atom densities, potentials, etc. across the integration grid (initialize_grid_storage).
  | initialize_grid_storage: Actual outermost partition radius vs. multipole_radius_free
  | (-- VB: in principle, multipole_radius_free should be larger, hence this output)
  | Species        1: Confinement radius =              4.999999999999999 AA, multipole_radius_free =              5.048384829883283 AA.
  | Species        1: outer_partition_radius set to              5.048384829883283 AA .
  | Species        2: Confinement radius =              4.999999999999999 AA, multipole_radius_free =              5.054417573612229 AA.
  | Species        2: outer_partition_radius set to              5.054417573612229 AA .
  | The sparse table of interatomic distances needs          0.09 kbyte instead of         0.07 kbyte of memory.
  | Using the partition_type stratmann_smoother will reduce your memory usage.
  | Net number of integration points:    15924
  | of which are non-zero points    :    14536
  Renormalizing the initial density to the exact electron count on the 3D integration grid.
  | Initial density: Formal number of electrons (from input files) :      10.0000000000
  | Integrated number of electrons on 3D grid     :       9.9999431549
  | Charge integration error                      :      -0.0000568451
  | Normalization factor for density and gradient :       1.0000056845
  Renormalizing the free-atom superposition density to the exact electron count on the 3D integration grid.
  | Formal number of electrons (from input files) :      10.0000000000
  | Integrated number of electrons on 3D grid     :       9.9999431549
  | Charge integration error                      :      -0.0000568451
  | Normalization factor for density and gradient :       1.0000056845
  Obtaining max. number of non-zero basis functions in each batch (get_n_compute_maxes).
  | Maximal number of non-zero basis functions:       24 in task     0
  Selecting the method for density update.
  Loop over occupied states selected for charge density update.
  Allocating        0.002 MB for KS_eigenvector
  Integrating Hamiltonian matrix: batch-based integration.
  Time summed over all CPUs for integration: real work        0.021 s, elapsed        0.021 s
  Integrating overlap matrix.
  Time summed over all CPUs for integration: real work        0.006 s, elapsed        0.006 s

  Updating Kohn-Sham eigenvalues and eigenvectors using ELSI and the (modified) LAPACK eigensolver.
  Overlap matrix is not singular
  | Lowest and highest eigenvalues :  0.1639E-01,  0.2709E+01
  Finished singularity check of overlap matrix
  | Time :     0.000 s
  Starting LAPACK eigensolver
  Finished Cholesky decomposition
  | Time :     0.000 s
  Finished transformation to standard eigenproblem
  | Time :     0.000 s
  Finished solving standard eigenproblem
  | Time :     0.000 s
  Finished back-transformation of eigenvectors
  | Time :     0.000 s

  Obtaining occupation numbers and chemical potential using ELSI.
  | Chemical potential (Fermi level):    -2.79227000 eV
  Writing Kohn-Sham eigenvalues.

  State    Occupation    Eigenvalue [Ha]    Eigenvalue [eV]
      1       2.00000         -19.032811         -517.90915
      2       2.00000          -1.096687          -29.84238
      3       2.00000          -0.625757          -17.02772
      4       2.00000          -0.509068          -13.85246
      5       2.00000          -0.435914          -11.86183
      6       0.00000          -0.049192           -1.33858
      7       0.00000           0.033225            0.90409
      8       0.00000           0.215393            5.86114
      9       0.00000           0.249072            6.77760
     10       0.00000           0.301761            8.21135
     11       0.00000           0.508037           13.82440

  Highest occupied state (VBM) at    -11.86182706 eV
  | Occupation number:      2.00000000

  Lowest unoccupied state (CBM) at    -1.33858062 eV
  | Occupation number:      0.00000000

  Overall HOMO-LUMO gap:     10.52324644 eV.
  Calculating total energy contributions from superposition of free atom densities.

  Total energy components:
  | Sum of eigenvalues            :         -43.40047679 Ha       -1180.98706138 eV
  | XC energy correction          :          -9.02427629 Ha        -245.56305186 eV
  | XC potential correction       :          11.60300934 Ha         315.73394853 eV
  | Free-atom electrostatic energy:         -35.72127400 Ha        -972.02532155 eV
  | Hartree energy correction     :           0.00000000 Ha           0.00000000 eV
  | Entropy correction            :           0.00000000 Ha           0.00000000 eV
  | ---------------------------
  | Total energy                  :         -76.54301773 Ha       -2082.84148626 eV
  | Total energy, T -> 0          :         -76.54301773 Ha       -2082.84148626 eV  <-- do not rely on this value for anything but (periodic) metals
  | Electronic free energy        :         -76.54301773 Ha       -2082.84148626 eV

  Derived energy quantities:
  | Kinetic energy                :          75.72371465 Ha        2060.54711517 eV
  | Electrostatic energy          :        -143.24245610 Ha       -3897.82554957 eV
  | Energy correction for multipole
  | error in Hartree potential    :           0.00000000 Ha           0.00000000 eV
  | Sum of eigenvalues per atom                           :        -393.66235379 eV
  | Total energy (T->0) per atom                          :        -694.28049542 eV  <-- do not rely on this value for anything but (periodic) metals
  | Electronic free energy per atom                       :        -694.28049542 eV
  Initialize hartree_potential_storage
  Max. number of atoms included in rho_multipole:            3

  End scf initialization - timings             :  max(cpu_time)    wall_clock(cpu1)
  | Time for scf. initialization                :        0.058 s           0.058 s
  | Boundary condition initialization           :        0.000 s           0.000 s
  | Relaxation initialization                   :        0.000 s           0.000 s
  | Integration                                 :        0.028 s           0.027 s
  | Solution of K.-S. eqns.                     :        0.000 s           0.001 s
  | Grid partitioning                           :        0.012 s           0.012 s
  | Preloading free-atom quantities on grid     :        0.009 s           0.009 s
  | Free-atom superposition energy              :        0.008 s           0.008 s
  | Total energy evaluation                     :        0.000 s           0.000 s

  Partial memory accounting:
  | Current value for overall tracked memory usage:
  |   Minimum:        0.009 MB (on task 0)
  |   Maximum:        0.009 MB (on task 0)
  |   Average:        0.009 MB
  | Peak value for overall tracked memory usage:
  |   Minimum:        0.549 MB (on task 0 after allocating grid_partition)
  |   Maximum:        0.549 MB (on task 0 after allocating grid_partition)
  |   Average:        0.549 MB
  | Largest tracked array allocation so far:
  |   Minimum:        0.364 MB (all_coords on task 0)
  |   Maximum:        0.364 MB (all_coords on task 0)
  |   Average:        0.364 MB
  Note:  These values currently only include a subset of arrays which are explicitly tracked.
  The "true" memory usage will be greater.
------------------------------------------------------------
  Evaluating new KS density.
  Integration grid: deviation in total charge (<rho> - N_e) =  -8.881784E-15

  Time for density update prior                :  max(cpu_time)    wall_clock(cpu1)
  | self-consistency iterative process          :        0.014 s           0.013 s

------------------------------------------------------------
          Begin self-consistency iteration #    1

  Date     :  20230628, Time     :  095501.044
------------------------------------------------------------
  Pulay mixing of updated and previous charge densities.
  Renormalizing the density to the exact electron count on the 3D integration grid.
  | Formal number of electrons (from input files) :      10.0000000000
  | Integrated number of electrons on 3D grid     :      10.0000000000
  | Charge integration error                      :       0.0000000000
  | Normalization factor for density and gradient :       1.0000000000

  Evaluating partitioned Hartree potential by multipole expansion.
  | Original multipole sum: apparent total charge =   0.480609E-13
  | Sum of charges compensated after spline to logarithmic grids =   0.121981E-04
  | Analytical far-field extrapolation by fixed multipoles:
  | Hartree multipole sum: apparent total charge =   0.479102E-13
  Summing up the Hartree potential.
  Time summed over all CPUs for potential: real work        0.008 s, elapsed        0.008 s
  | RMS charge density error from multipole expansion :   0.353198E-03

  Integrating Hamiltonian matrix: batch-based integration.
  Time summed over all CPUs for integration: real work        0.021 s, elapsed        0.021 s

  Updating Kohn-Sham eigenvalues and eigenvectors using ELSI and the (modified) LAPACK eigensolver.
  Starting LAPACK eigensolver
  Finished Cholesky decomposition
  | Time :     0.000 s
  Finished transformation to standard eigenproblem
  | Time :     0.000 s
  Finished solving standard eigenproblem
  | Time :     0.000 s
  Finished back-transformation of eigenvectors
  | Time :     0.000 s

  Obtaining occupation numbers and chemical potential using ELSI.
  | Chemical potential (Fermi level):    -2.61100247 eV
  Writing Kohn-Sham eigenvalues.

  State    Occupation    Eigenvalue [Ha]    Eigenvalue [eV]
      1       2.00000         -18.993769         -516.84676
      2       2.00000          -1.077613          -29.32333
      3       2.00000          -0.609308          -16.58011
      4       2.00000          -0.489541          -13.32110
      5       2.00000          -0.415574          -11.30835
      6       0.00000          -0.044601           -1.21365
      7       0.00000           0.039616            1.07801
      8       0.00000           0.223818            6.09038
      9       0.00000           0.257915            7.01823
     10       0.00000           0.307769            8.37482
     11       0.00000           0.513654           13.97725

  Highest occupied state (VBM) at    -11.30835240 eV
  | Occupation number:      2.00000000

  Lowest unoccupied state (CBM) at    -1.21365069 eV
  | Occupation number:      0.00000000

  Overall HOMO-LUMO gap:     10.09470171 eV.

  Total energy components:
  | Sum of eigenvalues            :         -43.17161059 Ha       -1174.75929518 eV
  | XC energy correction          :          -9.04989993 Ha        -246.26030676 eV
  | XC potential correction       :          11.63658499 Ha         316.64758837 eV
  | Free-atom electrostatic energy:         -35.72127400 Ha        -972.02532155 eV
  | Hartree energy correction     :          -0.21960533 Ha          -5.97576519 eV
  | Entropy correction            :           0.00000000 Ha           0.00000000 eV
  | ---------------------------
  | Total energy                  :         -76.52580486 Ha       -2082.37310032 eV
  | Total energy, T -> 0          :         -76.52580486 Ha       -2082.37310032 eV  <-- do not rely on this value for anything but (periodic) metals
  | Electronic free energy        :         -76.52580486 Ha       -2082.37310032 eV

  Derived energy quantities:
  | Kinetic energy                :          75.87943483 Ha        2064.78447672 eV
  | Electrostatic energy          :        -143.35533976 Ha       -3900.89727028 eV
  | Energy correction for multipole
  | error in Hartree potential    :           0.00010724 Ha           0.00291817 eV
  | Sum of eigenvalues per atom                           :        -391.58643173 eV
  | Total energy (T->0) per atom                          :        -694.12436677 eV  <-- do not rely on this value for anything but (periodic) metals
  | Electronic free energy per atom                       :        -694.12436677 eV
  Evaluating new KS density.
  Integration grid: deviation in total charge (<rho> - N_e) =  -2.664535E-14

  Self-consistency convergence accuracy:
  | Change of charge density      :  0.3070E+00
  | Change of sum of eigenvalues  :  0.6228E+01 eV
  | Change of total energy        :  0.4684E+00 eV


------------------------------------------------------------
  End self-consistency iteration #     1       :  max(cpu_time)    wall_clock(cpu1)
  | Time for this iteration                     :        0.045 s           0.046 s
  | Charge density update                       :        0.013 s           0.013 s
  | Density mixing                              :        0.001 s           0.001 s
  | Hartree multipole update                    :        0.002 s           0.002 s
  | Hartree multipole summation                 :        0.008 s           0.008 s
  | Integration                                 :        0.022 s           0.021 s
  | Solution of K.-S. eqns.                     :        0.000 s           0.001 s
  | Total energy evaluation                     :        0.000 s           0.000 s

  Partial memory accounting:
  | Current value for overall tracked memory usage:
  |   Minimum:        0.009 MB (on task 0)
  |   Maximum:        0.009 MB (on task 0)
  |   Average:        0.009 MB
  | Peak value for overall tracked memory usage:
  |   Minimum:        0.549 MB (on task 0 after allocating grid_partition)
  |   Maximum:        0.549 MB (on task 0 after allocating grid_partition)
  |   Average:        0.549 MB
  | Largest tracked array allocation so far:
  |   Minimum:        0.364 MB (all_coords on task 0)
  |   Maximum:        0.364 MB (all_coords on task 0)
  |   Average:        0.364 MB
  Note:  These values currently only include a subset of arrays which are explicitly tracked.
  The "true" memory usage will be greater.
------------------------------------------------------------

------------------------------------------------------------
          Begin self-consistency iteration #    2

  Date     :  20230628, Time     :  095501.090
------------------------------------------------------------
  Pulay mixing of updated and previous charge densities.
  Renormalizing the density to the exact electron count on the 3D integration grid.
  | Formal number of electrons (from input files) :      10.0000000000
  | Integrated number of electrons on 3D grid     :      10.0000000000
  | Charge integration error                      :      -0.0000000000
  | Normalization factor for density and gradient :       1.0000000000

  Evaluating partitioned Hartree potential by multipole expansion.
  | Original multipole sum: apparent total charge =  -0.272912E-13
  | Sum of charges compensated after spline to logarithmic grids =   0.868881E-04
  | Analytical far-field extrapolation by fixed multipoles:
  | Hartree multipole sum: apparent total charge =  -0.276848E-13
  Summing up the Hartree potential.
  Time summed over all CPUs for potential: real work        0.008 s, elapsed        0.008 s
  | RMS charge density error from multipole expansion :   0.249403E-02

  Integrating Hamiltonian matrix: batch-based integration.
  Time summed over all CPUs for integration: real work        0.021 s, elapsed        0.021 s

  Updating Kohn-Sham eigenvalues and eigenvectors using ELSI and the (modified) LAPACK eigensolver.
  Starting LAPACK eigensolver
  Finished Cholesky decomposition
  | Time :     0.000 s
  Finished transformation to standard eigenproblem
  | Time :     0.000 s
  Finished solving standard eigenproblem
  | Time :     0.001 s
  Finished back-transformation of eigenvectors
  | Time :     0.000 s

  Obtaining occupation numbers and chemical potential using ELSI.
  | Chemical potential (Fermi level):    -1.50966676 eV
  Highest occupied state (VBM) at     -8.17692053 eV
  | Occupation number:      2.00000000

  Lowest unoccupied state (CBM) at    -0.44769917 eV
  | Occupation number:      0.00000000

  Overall HOMO-LUMO gap:      7.72922136 eV.

  Checking to see if s.c.f. parameters should be adjusted.
  The system likely has a gap. Increased the default Pulay mixing parameter (charge_mix_param). Value:   0.200000 .
  Kept the default occupation width. Value:   0.010000 eV.

  Total energy components:
  | Sum of eigenvalues            :         -41.86980201 Ha       -1139.33528147 eV
  | XC energy correction          :          -9.20277869 Ha        -250.42034953 eV
  | XC potential correction       :          11.83691214 Ha         322.09876756 eV
  | Free-atom electrostatic energy:         -35.72127400 Ha        -972.02532155 eV
  | Hartree energy correction     :          -1.51668467 Ha         -41.27108979 eV
  | Entropy correction            :           0.00000000 Ha           0.00000000 eV
  | ---------------------------
  | Total energy                  :         -76.47362723 Ha       -2080.95327478 eV
  | Total energy, T -> 0          :         -76.47362723 Ha       -2080.95327478 eV  <-- do not rely on this value for anything but (periodic) metals
  | Electronic free energy        :         -76.47362723 Ha       -2080.95327478 eV

  Derived energy quantities:
  | Kinetic energy                :          76.68903147 Ha        2086.81472232 eV
  | Electrostatic energy          :        -143.95988001 Ha       -3917.34764757 eV
  | Energy correction for multipole
  | error in Hartree potential    :           0.00051820 Ha           0.01410099 eV
  | Sum of eigenvalues per atom                           :        -379.77842716 eV
  | Total energy (T->0) per atom                          :        -693.65109159 eV  <-- do not rely on this value for anything but (periodic) metals
  | Electronic free energy per atom                       :        -693.65109159 eV
  Evaluating new KS density.
  Integration grid: deviation in total charge (<rho> - N_e) =   3.730349E-14

  Self-consistency convergence accuracy:
  | Change of charge density      :  0.2694E+00
  | Change of sum of eigenvalues  :  0.3542E+02 eV
  | Change of total energy        :  0.1420E+01 eV


------------------------------------------------------------
  End self-consistency iteration #     2       :  max(cpu_time)    wall_clock(cpu1)
  | Time for this iteration                     :        0.045 s           0.045 s
  | Charge density update                       :        0.013 s           0.013 s
  | Density mixing                              :        0.001 s           0.001 s
  | Hartree multipole update                    :        0.002 s           0.002 s
  | Hartree multipole summation                 :        0.008 s           0.008 s
  | Integration                                 :        0.021 s           0.020 s
  | Solution of K.-S. eqns.                     :        0.000 s           0.001 s
  | Total energy evaluation                     :        0.000 s           0.000 s

  Partial memory accounting:
  | Current value for overall tracked memory usage:
  |   Minimum:        0.009 MB (on task 0)
  |   Maximum:        0.009 MB (on task 0)
  |   Average:        0.009 MB
  | Peak value for overall tracked memory usage:
  |   Minimum:        0.549 MB (on task 0 after allocating grid_partition)
  |   Maximum:        0.549 MB (on task 0 after allocating grid_partition)
  |   Average:        0.549 MB
  | Largest tracked array allocation so far:
  |   Minimum:        0.364 MB (all_coords on task 0)
  |   Maximum:        0.364 MB (all_coords on task 0)
  |   Average:        0.364 MB
  Note:  These values currently only include a subset of arrays which are explicitly tracked.
  The "true" memory usage will be greater.
------------------------------------------------------------

------------------------------------------------------------
          Begin self-consistency iteration #    3

  Date     :  20230628, Time     :  095501.135
------------------------------------------------------------
  Pulay mixing of updated and previous charge densities.
  Renormalizing the density to the exact electron count on the 3D integration grid.
  | Formal number of electrons (from input files) :      10.0000000000
  | Integrated number of electrons on 3D grid     :      10.0000000000
  | Charge integration error                      :      -0.0000000000
  | Normalization factor for density and gradient :       1.0000000000

  Evaluating partitioned Hartree potential by multipole expansion.
  | Original multipole sum: apparent total charge =  -0.358512E-13
  | Sum of charges compensated after spline to logarithmic grids =   0.608613E-04
  | Analytical far-field extrapolation by fixed multipoles:
  | Hartree multipole sum: apparent total charge =  -0.356667E-13
  Summing up the Hartree potential.
  Time summed over all CPUs for potential: real work        0.008 s, elapsed        0.008 s
  | RMS charge density error from multipole expansion :   0.373864E-02

  Integrating Hamiltonian matrix: batch-based integration.
  Time summed over all CPUs for integration: real work        0.021 s, elapsed        0.021 s

  Updating Kohn-Sham eigenvalues and eigenvectors using ELSI and the (modified) LAPACK eigensolver.
  Starting LAPACK eigensolver
  Finished Cholesky decomposition
  | Time :     0.000 s
  Finished transformation to standard eigenproblem
  | Time :     0.000 s
  Finished solving standard eigenproblem
  | Time :     0.000 s
  Finished back-transformation of eigenvectors
  | Time :     0.000 s

  Obtaining occupation numbers and chemical potential using ELSI.
  | Chemical potential (Fermi level):    -1.83276307 eV
  Highest occupied state (VBM) at     -9.47939984 eV
  | Occupation number:      2.00000000

  Lowest unoccupied state (CBM) at    -0.67075811 eV
  | Occupation number:      0.00000000

  Overall HOMO-LUMO gap:      8.80864173 eV.

  Total energy components:
  | Sum of eigenvalues            :         -42.51834920 Ha       -1156.98314838 eV
  | XC energy correction          :          -9.12444892 Ha        -248.28888805 eV
  | XC potential correction       :          11.73383120 Ha         319.29379235 eV
  | Free-atom electrostatic energy:         -35.72127400 Ha        -972.02532155 eV
  | Hartree energy correction     :          -0.85867394 Ha         -23.36570686 eV
  | Entropy correction            :           0.00000000 Ha           0.00000000 eV
  | ---------------------------
  | Total energy                  :         -76.48891487 Ha       -2081.36927249 eV
  | Total energy, T -> 0          :         -76.48891487 Ha       -2081.36927249 eV  <-- do not rely on this value for anything but (periodic) metals
  | Electronic free energy        :         -76.48891487 Ha       -2081.36927249 eV

  Derived energy quantities:
  | Kinetic energy                :          75.97577172 Ha        2067.40593692 eV
  | Electrostatic energy          :        -143.34023766 Ha       -3900.48632136 eV
  | Energy correction for multipole
  | error in Hartree potential    :          -0.00170401 Ha          -0.04636857 eV
  | Sum of eigenvalues per atom                           :        -385.66104946 eV
  | Total energy (T->0) per atom                          :        -693.78975750 eV  <-- do not rely on this value for anything but (periodic) metals
  | Electronic free energy per atom                       :        -693.78975750 eV
  Evaluating new KS density.
  Integration grid: deviation in total charge (<rho> - N_e) =   0.000000E+00

  Self-consistency convergence accuracy:
  | Change of charge density      :  0.1194E+00
  | Change of sum of eigenvalues  : -0.1765E+02 eV
  | Change of total energy        : -0.4160E+00 eV


------------------------------------------------------------
  End self-consistency iteration #     3       :  max(cpu_time)    wall_clock(cpu1)
  | Time for this iteration                     :        0.046 s           0.045 s
  | Charge density update                       :        0.013 s           0.013 s
  | Density mixing                              :        0.002 s           0.001 s
  | Hartree multipole update                    :        0.002 s           0.002 s
  | Hartree multipole summation                 :        0.008 s           0.008 s
  | Integration                                 :        0.021 s           0.021 s
  | Solution of K.-S. eqns.                     :        0.000 s           0.000 s
  | Total energy evaluation                     :        0.000 s           0.000 s

  Partial memory accounting:
  | Current value for overall tracked memory usage:
  |   Minimum:        0.009 MB (on task 0)
  |   Maximum:        0.009 MB (on task 0)
  |   Average:        0.009 MB
  | Peak value for overall tracked memory usage:
  |   Minimum:        0.549 MB (on task 0 after allocating grid_partition)
  |   Maximum:        0.549 MB (on task 0 after allocating grid_partition)
  |   Average:        0.549 MB
  | Largest tracked array allocation so far:
  |   Minimum:        0.364 MB (all_coords on task 0)
  |   Maximum:        0.364 MB (all_coords on task 0)
  |   Average:        0.364 MB
  Note:  These values currently only include a subset of arrays which are explicitly tracked.
  The "true" memory usage will be greater.
------------------------------------------------------------

------------------------------------------------------------
          Begin self-consistency iteration #    4

  Date     :  20230628, Time     :  095501.181
------------------------------------------------------------
  Pulay mixing of updated and previous charge densities.
  Renormalizing the density to the exact electron count on the 3D integration grid.
  | Formal number of electrons (from input files) :      10.0000000000
  | Integrated number of electrons on 3D grid     :      10.0000000000
  | Charge integration error                      :      -0.0000000000
  | Normalization factor for density and gradient :       1.0000000000

  Evaluating partitioned Hartree potential by multipole expansion.
  | Original multipole sum: apparent total charge =   0.447679E-13
  | Sum of charges compensated after spline to logarithmic grids =   0.117137E-03
  | Analytical far-field extrapolation by fixed multipoles:
  | Hartree multipole sum: apparent total charge =   0.456534E-13
  Summing up the Hartree potential.
  Time summed over all CPUs for potential: real work        0.008 s, elapsed        0.008 s
  | RMS charge density error from multipole expansion :   0.612177E-02

  Integrating Hamiltonian matrix: batch-based integration.
  Time summed over all CPUs for integration: real work        0.021 s, elapsed        0.021 s

  Updating Kohn-Sham eigenvalues and eigenvectors using ELSI and the (modified) LAPACK eigensolver.
  Starting LAPACK eigensolver
  Finished Cholesky decomposition
  | Time :     0.000 s
  Finished transformation to standard eigenproblem
  | Time :     0.000 s
  Finished solving standard eigenproblem
  | Time :     0.001 s
  Finished back-transformation of eigenvectors
  | Time :     0.000 s

  Obtaining occupation numbers and chemical potential using ELSI.
  | Chemical potential (Fermi level):    -1.00486968 eV
  Highest occupied state (VBM) at     -7.58224787 eV
  | Occupation number:      2.00000000

  Lowest unoccupied state (CBM) at    -0.09841615 eV
  | Occupation number:      0.00000000

  Overall HOMO-LUMO gap:      7.48383172 eV.

  Total energy components:
  | Sum of eigenvalues            :         -41.78332068 Ha       -1136.98200470 eV
  | XC energy correction          :          -9.21749844 Ha        -250.82089418 eV
  | XC potential correction       :          11.85563613 Ha         322.60827311 eV
  | Free-atom electrostatic energy:         -35.72127400 Ha        -972.02532155 eV
  | Hartree energy correction     :          -1.60353532 Ha         -43.63441626 eV
  | Entropy correction            :           0.00000000 Ha           0.00000000 eV
  | ---------------------------
  | Total energy                  :         -76.46999231 Ha       -2080.85436358 eV
  | Total energy, T -> 0          :         -76.46999231 Ha       -2080.85436358 eV  <-- do not rely on this value for anything but (periodic) metals
  | Electronic free energy        :         -76.46999231 Ha       -2080.85436358 eV

  Derived energy quantities:
  | Kinetic energy                :          76.23184146 Ha        2074.37394903 eV
  | Electrostatic energy          :        -143.48433533 Ha       -3904.40741844 eV
  | Energy correction for multipole
  | error in Hartree potential    :          -0.00273119 Ha          -0.07431933 eV
  | Sum of eigenvalues per atom                           :        -378.99400157 eV
  | Total energy (T->0) per atom                          :        -693.61812119 eV  <-- do not rely on this value for anything but (periodic) metals
  | Electronic free energy per atom                       :        -693.61812119 eV
  Evaluating new KS density.
  Integration grid: deviation in total charge (<rho> - N_e) =   1.065814E-14

  Self-consistency convergence accuracy:
  | Change of charge density      :  0.1621E+00
  | Change of sum of eigenvalues  :  0.2000E+02 eV
  | Change of total energy        :  0.5149E+00 eV


------------------------------------------------------------
  End self-consistency iteration #     4       :  max(cpu_time)    wall_clock(cpu1)
  | Time for this iteration                     :        0.047 s           0.046 s
  | Charge density update                       :        0.013 s           0.012 s
  | Density mixing                              :        0.003 s           0.002 s
  | Hartree multipole update                    :        0.002 s           0.002 s
  | Hartree multipole summation                 :        0.008 s           0.008 s
  | Integration                                 :        0.021 s           0.021 s
  | Solution of K.-S. eqns.                     :        0.000 s           0.001 s
  | Total energy evaluation                     :        0.000 s           0.000 s

  Partial memory accounting:
  | Current value for overall tracked memory usage:
  |   Minimum:        0.009 MB (on task 0)
  |   Maximum:        0.009 MB (on task 0)
  |   Average:        0.009 MB
  | Peak value for overall tracked memory usage:
  |   Minimum:        0.549 MB (on task 0 after allocating grid_partition)
  |   Maximum:        0.549 MB (on task 0 after allocating grid_partition)
  |   Average:        0.549 MB
  | Largest tracked array allocation so far:
  |   Minimum:        0.364 MB (all_coords on task 0)
  |   Maximum:        0.364 MB (all_coords on task 0)
  |   Average:        0.364 MB
  Note:  These values currently only include a subset of arrays which are explicitly tracked.
  The "true" memory usage will be greater.
------------------------------------------------------------

------------------------------------------------------------
          Begin self-consistency iteration #    5

  Date     :  20230628, Time     :  095501.228
------------------------------------------------------------
  Pulay mixing of updated and previous charge densities.
  Renormalizing the density to the exact electron count on the 3D integration grid.
  | Formal number of electrons (from input files) :      10.0000000000
  | Integrated number of electrons on 3D grid     :      10.0000000000
  | Charge integration error                      :       0.0000000000
  | Normalization factor for density and gradient :       1.0000000000

  Evaluating partitioned Hartree potential by multipole expansion.
  | Original multipole sum: apparent total charge =   0.930286E-13
  | Sum of charges compensated after spline to logarithmic grids =   0.120298E-03
  | Analytical far-field extrapolation by fixed multipoles:
  | Hartree multipole sum: apparent total charge =   0.929549E-13
  Summing up the Hartree potential.
  Time summed over all CPUs for potential: real work        0.008 s, elapsed        0.008 s
  | RMS charge density error from multipole expansion :   0.613785E-02

  Integrating Hamiltonian matrix: batch-based integration.
  Time summed over all CPUs for integration: real work        0.022 s, elapsed        0.022 s

  Updating Kohn-Sham eigenvalues and eigenvectors using ELSI and the (modified) LAPACK eigensolver.
  Starting LAPACK eigensolver
  Finished Cholesky decomposition
  | Time :     0.000 s
  Finished transformation to standard eigenproblem
  | Time :     0.000 s
  Finished solving standard eigenproblem
  | Time :     0.000 s
  Finished back-transformation of eigenvectors
  | Time :     0.000 s

  Obtaining occupation numbers and chemical potential using ELSI.
  | Chemical potential (Fermi level):    -0.98598576 eV
  Highest occupied state (VBM) at     -7.54693784 eV
  | Occupation number:      2.00000000

  Lowest unoccupied state (CBM) at    -0.08558240 eV
  | Occupation number:      0.00000000

  Overall HOMO-LUMO gap:      7.46135544 eV.

  Total energy components:
  | Sum of eigenvalues            :         -41.76913271 Ha       -1136.59593031 eV
  | XC energy correction          :          -9.21934311 Ha        -250.87109021 eV
  | XC potential correction       :          11.85806416 Ha         322.67434318 eV
  | Free-atom electrostatic energy:         -35.72127400 Ha        -972.02532155 eV
  | Hartree energy correction     :          -1.61818974 Ha         -44.03318308 eV
  | Entropy correction            :           0.00000000 Ha           0.00000000 eV
  | ---------------------------
  | Total energy                  :         -76.46987539 Ha       -2080.85118197 eV
  | Total energy, T -> 0          :         -76.46987539 Ha       -2080.85118197 eV  <-- do not rely on this value for anything but (periodic) metals
  | Electronic free energy        :         -76.46987539 Ha       -2080.85118197 eV

  Derived energy quantities:
  | Kinetic energy                :          76.23723292 Ha        2074.52065823 eV
  | Electrostatic energy          :        -143.48776520 Ha       -3904.50074999 eV
  | Energy correction for multipole
  | error in Hartree potential    :          -0.00277183 Ha          -0.07542532 eV
  | Sum of eigenvalues per atom                           :        -378.86531010 eV
  | Total energy (T->0) per atom                          :        -693.61706066 eV  <-- do not rely on this value for anything but (periodic) metals
  | Electronic free energy per atom                       :        -693.61706066 eV
  Evaluating new KS density.
  Integration grid: deviation in total charge (<rho> - N_e) =  -2.486900E-14

  Self-consistency convergence accuracy:
  | Change of charge density      :  0.3224E-01
  | Change of sum of eigenvalues  :  0.3861E+00 eV
  | Change of total energy        :  0.3182E-02 eV


------------------------------------------------------------
  End self-consistency iteration #     5       :  max(cpu_time)    wall_clock(cpu1)
  | Time for this iteration                     :        0.047 s           0.047 s
  | Charge density update                       :        0.013 s           0.013 s
  | Density mixing                              :        0.003 s           0.002 s
  | Hartree multipole update                    :        0.002 s           0.002 s
  | Hartree multipole summation                 :        0.008 s           0.008 s
  | Integration                                 :        0.022 s           0.022 s
  | Solution of K.-S. eqns.                     :        0.000 s           0.000 s
  | Total energy evaluation                     :        0.000 s           0.000 s

  Partial memory accounting:
  | Current value for overall tracked memory usage:
  |   Minimum:        0.009 MB (on task 0)
  |   Maximum:        0.009 MB (on task 0)
  |   Average:        0.009 MB
  | Peak value for overall tracked memory usage:
  |   Minimum:        0.549 MB (on task 0 after allocating grid_partition)
  |   Maximum:        0.549 MB (on task 0 after allocating grid_partition)
  |   Average:        0.549 MB
  | Largest tracked array allocation so far:
  |   Minimum:        0.364 MB (all_coords on task 0)
  |   Maximum:        0.364 MB (all_coords on task 0)
  |   Average:        0.364 MB
  Note:  These values currently only include a subset of arrays which are explicitly tracked.
  The "true" memory usage will be greater.
------------------------------------------------------------

------------------------------------------------------------
          Begin self-consistency iteration #    6

  Date     :  20230628, Time     :  095501.275
------------------------------------------------------------
  Pulay mixing of updated and previous charge densities.
  Renormalizing the density to the exact electron count on the 3D integration grid.
  | Formal number of electrons (from input files) :      10.0000000000
  | Integrated number of electrons on 3D grid     :      10.0000000000
  | Charge integration error                      :      -0.0000000000
  | Normalization factor for density and gradient :       1.0000000000

  Evaluating partitioned Hartree potential by multipole expansion.
  | Original multipole sum: apparent total charge =   0.237368E-13
  | Sum of charges compensated after spline to logarithmic grids =   0.145012E-03
  | Analytical far-field extrapolation by fixed multipoles:
  | Hartree multipole sum: apparent total charge =   0.237860E-13
  Summing up the Hartree potential.
  Time summed over all CPUs for potential: real work        0.008 s, elapsed        0.008 s
  | RMS charge density error from multipole expansion :   0.636222E-02

  Integrating Hamiltonian matrix: batch-based integration.
  Time summed over all CPUs for integration: real work        0.021 s, elapsed        0.021 s

  Updating Kohn-Sham eigenvalues and eigenvectors using ELSI and the (modified) LAPACK eigensolver.
  Starting LAPACK eigensolver
  Finished Cholesky decomposition
  | Time :     0.000 s
  Finished transformation to standard eigenproblem
  | Time :     0.000 s
  Finished solving standard eigenproblem
  | Time :     0.000 s
  Finished back-transformation of eigenvectors
  | Time :     0.000 s

  Obtaining occupation numbers and chemical potential using ELSI.
  | Chemical potential (Fermi level):    -0.83114754 eV
  Highest occupied state (VBM) at     -7.26694753 eV
  | Occupation number:      2.00000000

  Lowest unoccupied state (CBM) at     0.02109373 eV
  | Occupation number:      0.00000000

  Overall HOMO-LUMO gap:      7.28804126 eV.

  Total energy components:
  | Sum of eigenvalues            :         -41.66008202 Ha       -1133.62851024 eV
  | XC energy correction          :          -9.23378999 Ha        -251.26420986 eV
  | XC potential correction       :          11.87707254 Ha         323.19158760 eV
  | Free-atom electrostatic energy:         -35.72127400 Ha        -972.02532155 eV
  | Hartree energy correction     :          -1.73119749 Ha         -47.10828065 eV
  | Entropy correction            :           0.00000000 Ha           0.00000000 eV
  | ---------------------------
  | Total energy                  :         -76.46927097 Ha       -2080.83473471 eV
  | Total energy, T -> 0          :         -76.46927097 Ha       -2080.83473471 eV  <-- do not rely on this value for anything but (periodic) metals
  | Electronic free energy        :         -76.46927097 Ha       -2080.83473471 eV

  Derived energy quantities:
  | Kinetic energy                :          76.26661039 Ha        2075.32005989 eV
  | Electrostatic energy          :        -143.50209137 Ha       -3904.89058474 eV
  | Energy correction for multipole
  | error in Hartree potential    :          -0.00315687 Ha          -0.08590286 eV
  | Sum of eigenvalues per atom                           :        -377.87617008 eV
  | Total energy (T->0) per atom                          :        -693.61157824 eV  <-- do not rely on this value for anything but (periodic) metals
  | Electronic free energy per atom                       :        -693.61157824 eV
  Evaluating new KS density.
  Integration grid: deviation in total charge (<rho> - N_e) =  -1.953993E-14

  Self-consistency convergence accuracy:
  | Change of charge density      :  0.2988E-01
  | Change of sum of eigenvalues  :  0.2967E+01 eV
  | Change of total energy        :  0.1645E-01 eV


------------------------------------------------------------
  End self-consistency iteration #     6       :  max(cpu_time)    wall_clock(cpu1)
  | Time for this iteration                     :        0.051 s           0.051 s
  | Charge density update                       :        0.013 s           0.013 s
  | Density mixing                              :        0.006 s           0.006 s
  | Hartree multipole update                    :        0.002 s           0.002 s
  | Hartree multipole summation                 :        0.008 s           0.008 s
  | Integration                                 :        0.022 s           0.022 s
  | Solution of K.-S. eqns.                     :        0.000 s           0.000 s
  | Total energy evaluation                     :        0.000 s           0.000 s

  Partial memory accounting:
  | Current value for overall tracked memory usage:
  |   Minimum:        0.009 MB (on task 0)
  |   Maximum:        0.009 MB (on task 0)
  |   Average:        0.009 MB
  | Peak value for overall tracked memory usage:
  |   Minimum:        0.549 MB (on task 0 after allocating grid_partition)
  |   Maximum:        0.549 MB (on task 0 after allocating grid_partition)
  |   Average:        0.549 MB
  | Largest tracked array allocation so far:
  |   Minimum:        0.364 MB (all_coords on task 0)
  |   Maximum:        0.364 MB (all_coords on task 0)
  |   Average:        0.364 MB
  Note:  These values currently only include a subset of arrays which are explicitly tracked.
  The "true" memory usage will be greater.
------------------------------------------------------------

------------------------------------------------------------
          Begin self-consistency iteration #    7

  Date     :  20230628, Time     :  095501.326
------------------------------------------------------------
  Pulay mixing of updated and previous charge densities.
  Renormalizing the density to the exact electron count on the 3D integration grid.
  | Formal number of electrons (from input files) :      10.0000000000
  | Integrated number of electrons on 3D grid     :      10.0000000000
  | Charge integration error                      :       0.0000000000
  | Normalization factor for density and gradient :       1.0000000000

  Evaluating partitioned Hartree potential by multipole expansion.
  | Original multipole sum: apparent total charge =   0.350518E-13
  | Sum of charges compensated after spline to logarithmic grids =   0.161509E-03
  | Analytical far-field extrapolation by fixed multipoles:
  | Hartree multipole sum: apparent total charge =   0.354207E-13
  Summing up the Hartree potential.
  Time summed over all CPUs for potential: real work        0.008 s, elapsed        0.008 s
  | RMS charge density error from multipole expansion :   0.647720E-02

  Integrating Hamiltonian matrix: batch-based integration.
  Time summed over all CPUs for integration: real work        0.021 s, elapsed        0.021 s

  Updating Kohn-Sham eigenvalues and eigenvectors using ELSI and the (modified) LAPACK eigensolver.
  Starting LAPACK eigensolver
  Finished Cholesky decomposition
  | Time :     0.000 s
  Finished transformation to standard eigenproblem
  | Time :     0.000 s
  Finished solving standard eigenproblem
  | Time :     0.000 s
  Finished back-transformation of eigenvectors
  | Time :     0.000 s

  Obtaining occupation numbers and chemical potential using ELSI.
  | Chemical potential (Fermi level):    -0.74168939 eV
  Highest occupied state (VBM) at     -7.09752919 eV
  | Occupation number:      2.00000000

  Lowest unoccupied state (CBM) at     0.08405329 eV
  | Occupation number:      0.00000000

  Overall HOMO-LUMO gap:      7.18158248 eV.

  Total energy components:
  | Sum of eigenvalues            :         -41.59374938 Ha       -1131.82350724 eV
  | XC energy correction          :          -9.24249280 Ha        -251.50102532 eV
  | XC potential correction       :          11.88854091 Ha         323.50365794 eV
  | Free-atom electrostatic energy:         -35.72127400 Ha        -972.02532155 eV
  | Hartree energy correction     :          -1.80017602 Ha         -48.98528182 eV
  | Entropy correction            :           0.00000000 Ha           0.00000000 eV
  | ---------------------------
  | Total energy                  :         -76.46915128 Ha       -2080.83147799 eV
  | Total energy, T -> 0          :         -76.46915128 Ha       -2080.83147799 eV  <-- do not rely on this value for anything but (periodic) metals
  | Electronic free energy        :         -76.46915128 Ha       -2080.83147799 eV

  Derived energy quantities:
  | Kinetic energy                :          76.28493278 Ha        2075.81863733 eV
  | Electrostatic energy          :        -143.51159126 Ha       -3905.14909000 eV
  | Energy correction for multipole
  | error in Hartree potential    :          -0.00340166 Ha          -0.09256383 eV
  | Sum of eigenvalues per atom                           :        -377.27450241 eV
  | Total energy (T->0) per atom                          :        -693.61049266 eV  <-- do not rely on this value for anything but (periodic) metals
  | Electronic free energy per atom                       :        -693.61049266 eV
  Evaluating new KS density.
  Integration grid: deviation in total charge (<rho> - N_e) =   2.842171E-14

  Self-consistency convergence accuracy:
  | Change of charge density      :  0.1231E-01
  | Change of sum of eigenvalues  :  0.1805E+01 eV
  | Change of total energy        :  0.3257E-02 eV


------------------------------------------------------------
  End self-consistency iteration #     7       :  max(cpu_time)    wall_clock(cpu1)
  | Time for this iteration                     :        0.049 s           0.049 s
  | Charge density update                       :        0.013 s           0.013 s
  | Density mixing                              :        0.004 s           0.004 s
  | Hartree multipole update                    :        0.002 s           0.002 s
  | Hartree multipole summation                 :        0.008 s           0.008 s
  | Integration                                 :        0.022 s           0.022 s
  | Solution of K.-S. eqns.                     :        0.000 s           0.000 s
  | Total energy evaluation                     :        0.000 s           0.000 s

  Partial memory accounting:
  | Current value for overall tracked memory usage:
  |   Minimum:        0.009 MB (on task 0)
  |   Maximum:        0.009 MB (on task 0)
  |   Average:        0.009 MB
  | Peak value for overall tracked memory usage:
  |   Minimum:        0.549 MB (on task 0 after allocating grid_partition)
  |   Maximum:        0.549 MB (on task 0 after allocating grid_partition)
  |   Average:        0.549 MB
  | Largest tracked array allocation so far:
  |   Minimum:        0.364 MB (all_coords on task 0)
  |   Maximum:        0.364 MB (all_coords on task 0)
  |   Average:        0.364 MB
  Note:  These values currently only include a subset of arrays which are explicitly tracked.
  The "true" memory usage will be greater.
------------------------------------------------------------

------------------------------------------------------------
          Begin self-consistency iteration #    8

  Date     :  20230628, Time     :  095501.375
------------------------------------------------------------
  Pulay mixing of updated and previous charge densities.
  Renormalizing the density to the exact electron count on the 3D integration grid.
  | Formal number of electrons (from input files) :      10.0000000000
  | Integrated number of electrons on 3D grid     :      10.0000000000
  | Charge integration error                      :       0.0000000000
  | Normalization factor for density and gradient :       1.0000000000

  Evaluating partitioned Hartree potential by multipole expansion.
  | Original multipole sum: apparent total charge =   0.404879E-13
  | Sum of charges compensated after spline to logarithmic grids =   0.164296E-03
  | Analytical far-field extrapolation by fixed multipoles:
  | Hartree multipole sum: apparent total charge =   0.404879E-13
  Summing up the Hartree potential.
  Time summed over all CPUs for potential: real work        0.008 s, elapsed        0.008 s
  | RMS charge density error from multipole expansion :   0.650047E-02

  Integrating Hamiltonian matrix: batch-based integration.
  Time summed over all CPUs for integration: real work        0.022 s, elapsed        0.022 s

  Updating Kohn-Sham eigenvalues and eigenvectors using ELSI and the (modified) LAPACK eigensolver.
  Starting LAPACK eigensolver
  Finished Cholesky decomposition
  | Time :     0.000 s
  Finished transformation to standard eigenproblem
  | Time :     0.000 s
  Finished solving standard eigenproblem
  | Time :     0.000 s
  Finished back-transformation of eigenvectors
  | Time :     0.000 s

  Obtaining occupation numbers and chemical potential using ELSI.
  | Chemical potential (Fermi level):    -0.72702459 eV
  Highest occupied state (VBM) at     -7.07120848 eV
  | Occupation number:      2.00000000

  Lowest unoccupied state (CBM) at     0.09449783 eV
  | Occupation number:      0.00000000

  Overall HOMO-LUMO gap:      7.16570631 eV.

  Total energy components:
  | Sum of eigenvalues            :         -41.58376611 Ha       -1131.55184853 eV
  | XC energy correction          :          -9.24381832 Ha        -251.53709447 eV
  | XC potential correction       :          11.89028876 Ha         323.55121924 eV
  | Free-atom electrostatic energy:         -35.72127400 Ha        -972.02532155 eV
  | Hartree energy correction     :          -1.81058075 Ha         -49.26840907 eV
  | Entropy correction            :           0.00000000 Ha           0.00000000 eV
  | ---------------------------
  | Total energy                  :         -76.46915042 Ha       -2080.83145438 eV
  | Total energy, T -> 0          :         -76.46915042 Ha       -2080.83145438 eV  <-- do not rely on this value for anything but (periodic) metals
  | Electronic free energy        :         -76.46915042 Ha       -2080.83145438 eV

  Derived energy quantities:
  | Kinetic energy                :          76.28672331 Ha        2075.86736033 eV
  | Electrostatic energy          :        -143.51205541 Ha       -3905.16172024 eV
  | Energy correction for multipole
  | error in Hartree potential    :          -0.00344832 Ha          -0.09383351 eV
  | Sum of eigenvalues per atom                           :        -377.18394951 eV
  | Total energy (T->0) per atom                          :        -693.61048479 eV  <-- do not rely on this value for anything but (periodic) metals
  | Electronic free energy per atom                       :        -693.61048479 eV
  Evaluating new KS density.
  Integration grid: deviation in total charge (<rho> - N_e) =   3.552714E-14

  Self-consistency convergence accuracy:
  | Change of charge density      :  0.1250E-02
  | Change of sum of eigenvalues  :  0.2717E+00 eV
[...]

  Electronic self-consistency reached - switching on the force computation.


------------------------------------------------------------
  End self-consistency iteration #     6       :  max(cpu_time)    wall_clock(cpu1)
  | Time for this iteration                     :        0.046 s           0.046 s
  | Charge density & force component update     :        0.013 s           0.013 s
  | Density mixing                              :        0.003 s           0.002 s
  | Hartree multipole update                    :        0.002 s           0.002 s
  | Hartree multipole summation                 :        0.008 s           0.008 s
  | Hartree pot. SCF incomplete forces          :        0.015 s           0.015 s
  | Integration                                 :        0.021 s           0.021 s
  | Solution of K.-S. eqns.                     :        0.000 s           0.000 s
  | Total energy evaluation                     :        0.000 s           0.000 s

  Partial memory accounting:
  | Current value for overall tracked memory usage:
  |   Minimum:        0.012 MB (on task 0)
  |   Maximum:        0.012 MB (on task 0)
  |   Average:        0.012 MB
  | Peak value for overall tracked memory usage:
  |   Minimum:        0.558 MB (on task 0 after allocating grid_partition)
  |   Maximum:        0.558 MB (on task 0 after allocating grid_partition)
  |   Average:        0.558 MB
  | Largest tracked array allocation so far:
  |   Minimum:        0.364 MB (all_coords on task 0)
  |   Maximum:        0.364 MB (all_coords on task 0)
  |   Average:        0.364 MB
  Note:  These values currently only include a subset of arrays which are explicitly tracked.
  The "true" memory usage will be greater.
------------------------------------------------------------

------------------------------------------------------------
          Begin self-consistency iteration #    7

  Date     :  20230628, Time     :  095502.561
------------------------------------------------------------
  Pulay mixing of updated and previous charge densities.
  Renormalizing the density to the exact electron count on the 3D integration grid.
  | Formal number of electrons (from input files) :      10.0000000000
  | Integrated number of electrons on 3D grid     :      10.0000000000
  | Charge integration error                      :       0.0000000000
  | Normalization factor for density and gradient :       1.0000000000

  Evaluating partitioned Hartree potential by multipole expansion.
  | Original multipole sum: apparent total charge =   0.228513E-13
  | Sum of charges compensated after spline to logarithmic grids =   0.163077E-03
  | Analytical far-field extrapolation by fixed multipoles:
  | Hartree multipole sum: apparent total charge =   0.225807E-13
  Summing up the Hartree potential.
  Time summed over all CPUs for potential: real work        0.024 s, elapsed        0.024 s
  | RMS charge density error from multipole expansion :   0.647129E-02

  Integrating Hamiltonian matrix: batch-based integration.
  Time summed over all CPUs for integration: real work        0.021 s, elapsed        0.021 s

  Updating Kohn-Sham eigenvalues and eigenvectors using ELSI and the (modified) LAPACK eigensolver.
  Starting LAPACK eigensolver
  Finished Cholesky decomposition
  | Time :     0.000 s
  Finished transformation to standard eigenproblem
  | Time :     0.000 s
  Finished solving standard eigenproblem
  | Time :     0.000 s
  Finished back-transformation of eigenvectors
  | Time :     0.000 s

  Obtaining occupation numbers and chemical potential using ELSI.
  | Chemical potential (Fermi level):    -0.81960980 eV
  Highest occupied state (VBM) at     -7.06938675 eV
  | Occupation number:      2.00000000

  Lowest unoccupied state (CBM) at     0.06782564 eV
  | Occupation number:      0.00000000

  Overall HOMO-LUMO gap:      7.13721240 eV.

  Total energy components:
  | Sum of eigenvalues            :         -41.58029708 Ha       -1131.45745146 eV
  | XC energy correction          :          -9.23994696 Ha        -251.43174949 eV
  | XC potential correction       :          11.88519811 Ha         323.41269575 eV
  | Free-atom electrostatic energy:         -35.73811056 Ha        -972.48346788 eV
  | Hartree energy correction     :          -1.79602337 Ha         -48.87228244 eV
  | Entropy correction            :           0.00000000 Ha           0.00000000 eV
  | ---------------------------
  | Total energy                  :         -76.46917986 Ha       -2080.83225551 eV
  | Total energy, T -> 0          :         -76.46917986 Ha       -2080.83225551 eV  <-- do not rely on this value for anything but (periodic) metals
  | Electronic free energy        :         -76.46917986 Ha       -2080.83225551 eV

  Derived energy quantities:
  | Kinetic energy                :          76.27406348 Ha        2075.52286864 eV
  | Electrostatic energy          :        -143.50329637 Ha       -3904.92337465 eV
  | Energy correction for multipole
  | error in Hartree potential    :          -0.00338854 Ha          -0.09220690 eV
  | Sum of eigenvalues per atom                           :        -377.15248382 eV
  | Total energy (T->0) per atom                          :        -693.61075184 eV  <-- do not rely on this value for anything but (periodic) metals
  | Electronic free energy per atom                       :        -693.61075184 eV
  Evaluating new KS density and force components.
  Integration grid: deviation in total charge (<rho> - N_e) =   3.375078E-14

  atomic forces [eV/Ang]:
  -----------------------
  atom #    1
   Hellmann-Feynman              : -0.748664E-13  0.595448E-11  0.175027E+02
   Ionic forces                  :  0.000000E+00  0.000000E+00  0.000000E+00
   Multipole                     :  0.290398E-13 -0.721957E-14 -0.902990E-01
   Hartree pot. SCF incomplete   : -0.278847E-12  0.302588E-12  0.116426E-04
   Pulay + GGA                   :  0.107576E-11 -0.100303E-10 -0.174195E+02
   ----------------------------------------------------------------
   Total forces(   1)            :  0.751090E-12 -0.378045E-11 -0.710329E-02
  atom #    2
   Hellmann-Feynman              : -0.105808E-13  0.296175E+00 -0.312050E+00
   Ionic forces                  :  0.000000E+00  0.000000E+00  0.000000E+00
   Multipole                     :  0.402699E-15 -0.451209E-02 -0.316561E-01
   Hartree pot. SCF incomplete   :  0.868541E-14  0.890914E-06  0.188241E-05
   Pulay + GGA                   :  0.851889E-14 -0.291007E+00  0.337412E+00
   ----------------------------------------------------------------
   Total forces(   2)            :  0.702617E-14  0.657031E-03 -0.629131E-02
  atom #    3
   Hellmann-Feynman              : -0.319427E-14 -0.296175E+00 -0.312050E+00
   Ionic forces                  :  0.000000E+00  0.000000E+00  0.000000E+00
   Multipole                     : -0.783889E-16  0.451209E-02 -0.316561E-01
   Hartree pot. SCF incomplete   :  0.781889E-14 -0.890914E-06  0.188241E-05
   Pulay + GGA                   : -0.101225E-13  0.291007E+00  0.337412E+00
   ----------------------------------------------------------------
   Total forces(   3)            : -0.557627E-14 -0.657031E-03 -0.629131E-02


  Self-consistency convergence accuracy:
  | Change of charge density      :  0.3543E-06
  | Change of sum of eigenvalues  :  0.4825E-04 eV
  | Change of total energy        :  0.5599E-08 eV
  | Change of forces              :  0.4731E+00 eV/A

  Writing Kohn-Sham eigenvalues.

  State    Occupation    Eigenvalue [Ha]    Eigenvalue [eV]
      1       2.00000         -18.788546         -511.26235
      2       2.00000          -0.925138          -25.17429
      3       2.00000          -0.478381          -13.01741
      4       2.00000          -0.338288           -9.20530
      5       2.00000          -0.259795           -7.06939
      6       0.00000           0.002493            0.06783
      7       0.00000           0.100448            2.73333
      8       0.00000           0.298234            8.11536
      9       0.00000           0.334240            9.09513
     10       0.00000           0.369680           10.05951
     11       0.00000           0.574990           15.64628

  Highest occupied state (VBM) at     -7.06938675 eV
  | Occupation number:      2.00000000

  Lowest unoccupied state (CBM) at     0.06782564 eV
  | Occupation number:      0.00000000

  Overall HOMO-LUMO gap:      7.13721240 eV.
  | Chemical Potential                          :    -0.81960980 eV

  Self-consistency cycle converged.


------------------------------------------------------------
  End self-consistency iteration #     7       :  max(cpu_time)    wall_clock(cpu1)
  | Time for this iteration                     :        0.118 s           0.119 s
  | Charge density & force component update     :        0.054 s           0.054 s
  | Density mixing                              :        0.003 s           0.003 s
  | Hartree multipole update                    :        0.002 s           0.002 s
  | Hartree multipole summation                 :        0.024 s           0.024 s
  | Hartree pot. SCF incomplete forces          :        0.015 s           0.015 s
  | Integration                                 :        0.021 s           0.021 s
  | Solution of K.-S. eqns.                     :        0.000 s           0.000 s
  | Total energy evaluation                     :        0.000 s           0.000 s

  Partial memory accounting:
  | Current value for overall tracked memory usage:
  |   Minimum:        0.012 MB (on task 0)
  |   Maximum:        0.012 MB (on task 0)
  |   Average:        0.012 MB
  | Peak value for overall tracked memory usage:
  |   Minimum:        0.558 MB (on task 0 after allocating grid_partition)
  |   Maximum:        0.558 MB (on task 0 after allocating grid_partition)
  |   Average:        0.558 MB
  | Largest tracked array allocation so far:
  |   Minimum:        0.364 MB (all_coords on task 0)
  |   Maximum:        0.364 MB (all_coords on task 0)
  |   Average:        0.364 MB
  Note:  These values currently only include a subset of arrays which are explicitly tracked.
  The "true" memory usage will be greater.
------------------------------------------------------------
  Removing unitary transformations (pure translations, rotations) from forces on atoms.
  Atomic forces before filtering:
  | Net force on center of mass :   0.752540E-12 -0.972825E-11 -0.196859E-01 eV/A
  | Net torque on center of mass:   0.387025E-11  0.298771E-12 -0.966938E-14 eV
  Atomic forces after filtering:
  | Net force on center of mass :  -0.202824E-27  0.000000E+00  0.696899E-17 eV/A
  | Net torque on center of mass:   0.103720E-17  0.646065E-28  0.133932E-36 eV

  Energy and forces in a compact form:
  | Total energy uncorrected      :         -0.208083225551071E+04 eV
  | Total energy corrected        :         -0.208083225551071E+04 eV  <-- do not rely on this value for anything but (periodic) metals
  | Electronic free energy        :         -0.208083225551071E+04 eV
  Total atomic forces (unitary forces cleaned) [eV/Ang]:
  |    1          0.405648561641326E-28          0.551198801267693E-12         -0.541321794005289E-03
  |    2         -0.121694568492398E-27          0.657031192731074E-03          0.270660897217135E-03
  |    3         -0.121694568492398E-27         -0.657031193282273E-03          0.270660896788161E-03

  ------------------------------------
  Start decomposition of the XC Energy
  ------------------------------------
  X and C from original XC functional choice
  Hartree-Fock Energy :          0.000000000 Ha              0.000000000 eV
  X Energy            :         -8.914983781 Ha           -242.589051486 eV
  C Energy            :         -0.324963179 Ha             -8.842698008 eV
  XC Energy w/o HF    :         -9.239946960 Ha           -251.431749494 eV
  Total XC Energy     :         -9.239946960 Ha           -251.431749494 eV
  ------------------------------------
  LDA X and C from self-consistent density
  X Energy LDA        :         -8.098845171 Ha           -220.380789948 eV
  C Energy LDA        :         -0.659361820 Ha            -17.942148003 eV
  ------------------------------------
  End decomposition of the XC Energy
  ------------------------------------

------------------------------------------------------------
  Relaxation / MD: End force evaluation.       :  max(cpu_time)    wall_clock(cpu1)
  | Time for this force evaluation              :        0.449 s           0.449 s

------------------------------------------------------------
  Geometry optimization: Attempting to predict improved coordinates.

  Removing unitary transformations (pure translations, rotations) from forces on atoms.
  Atomic forces before filtering:
  | Net force on center of mass :  -0.202824E-27  0.000000E+00  0.696899E-17 eV/A
  | Net torque on center of mass:   0.103720E-17  0.646065E-28  0.133932E-36 eV
  Atomic forces after filtering:
  | Net force on center of mass :   0.540432E-43 -0.871124E-19  0.000000E+00 eV/A
  | Net torque on center of mass:  -0.691468E-19  0.215273E-39  0.746290E-44 eV
  Net remaining forces (excluding translations, rotations) in present geometry:
  || Forces on atoms   || =   0.657031E-03 eV/A.
  Maximum force component is  0.657031E-03 eV/A.
  Present geometry is converged.

------------------------------------------------------------
  Final atomic structure:
                         x [A]             y [A]             z [A]
            atom         0.00000000       -0.00000000        0.11989040  O
            atom         0.00000000        0.76726299       -0.47736120  H
            atom        -0.00000000       -0.76726299       -0.47736120  H
------------------------------------------------------------

------------------------------------------------------------------------------
  Final output of selected total energy values:

  The following output summarizes some interesting total energy values
  at the end of a run (AFTER all relaxation, molecular dynamics, etc.).

  | Total energy of the DFT / Hartree-Fock s.c.f. calculation      :          -2080.832255511 eV
  | Final zero-broadening corrected energy (caution - metals only) :          -2080.832255511 eV
  | For reference only, the value of 1 Hartree used in FHI-aims is :             27.211384500 eV

  Before relying on these values, please be sure to understand exactly which
  total energy value is referred to by a given number. Different objects may
  all carry the same name 'total energy'. Definitions:

  Total energy of the DFT / Hartree-Fock s.c.f. calculation:
  | Note that this energy does not include ANY quantities calculated after the
  | s.c.f. cycle, in particular not ANY RPA, MP2, etc. many-body perturbation terms.

  Final zero-broadening corrected energy:
  | For metallic systems only, a broadening of the occupation numbers at the Fermi
  | level can be extrapolated back to zero broadening by an electron-gas inspired
  | formula. For all systems that are not real metals, this value can be
  | meaningless and should be avoided.

------------------------------------------------------------------------------
  Methods described in the following list of references were used in this FHI-aims run.
  If you publish the results, please make sure to cite these reference if they apply.
  FHI-aims is an academic code, and for our developers (often, Ph.D. students
  and postdocs), scientific credit in the community is essential.
  Thank you for helping us!

  For any use of FHI-aims, please cite:

    Volker Blum, Ralf Gehrke, Felix Hanke, Paula Havu, Ville Havu,
    Xinguo Ren, Karsten Reuter, and Matthias Scheffler
    'Ab initio molecular simulations with numeric atom-centered orbitals'
    Computer Physics Communications 180, 2175-2196 (2009)
    http://doi.org/10.1016/j.cpc.2009.06.022


  The ELSI infrastructure was used in your run to solve the Kohn-Sham electronic structure.
  Please check out http://elsi-interchange.org to learn more.
  If scalability is important for your project, please acknowledge ELSI by citing:

    V. W-z. Yu, F. Corsetti, A. Garcia, W. P. Huhn, M. Jacquelin, W. Jia,
    B. Lange, L. Lin, J. Lu, W. Mi, A. Seifitokaldani, A. Vazquez-Mayagoitia,
    C. Yang, H. Yang, and V. Blum
    'ELSI: A unified software interface for Kohn-Sham electronic structure solvers'
    Computer Physics Communications 222, 267-285 (2018).
    http://doi.org/10.1016/j.cpc.2017.09.007


  For the real-space grid partitioning and parallelization used in this calculation, please cite:

    Ville Havu, Volker Blum, Paula Havu, and Matthias Scheffler,
    'Efficient O(N) integration for all-electron electronic structure calculation'
    'using numerically tabulated basis functions'
    Journal of Computational Physics 228, 8367-8379 (2009).
    http://doi.org/10.1016/j.jcp.2009.08.008

  Of course, there are many other important community references, e.g., those cited in the
  above references. Our list is limited to references that describe implementations in the
  FHI-aims code. The reason is purely practical (length of this list) - please credit others as well.

------------------------------------------------------------
          Leaving FHI-aims.
          Date     :  20230628, Time     :  095502.689

          Computational steps:
          | Number of self-consistency cycles          :           28
          | Number of SCF (re)initializations          :            3
          | Number of relaxation steps                 :            2

          Detailed time accounting                     :  max(cpu_time)    wall_clock(cpu1)
          | Total time                                  :        1.789 s           1.790 s
          | Preparation time                            :        0.064 s           0.064 s
          | Boundary condition initialization           :        0.000 s           0.000 s
          | Grid partitioning                           :        0.035 s           0.036 s
          | Preloading free-atom quantities on grid     :        0.026 s           0.025 s
          | Free-atom superposition energy              :        0.024 s           0.024 s
          | Total time for integrations                 :        0.636 s           0.635 s
          | Total time for solution of K.-S. equations  :        0.006 s           0.004 s
          | Total time for EV reorthonormalization      :        0.000 s           0.000 s
          | Total time for density & force components   :        0.528 s           0.528 s
          | Total time for mixing                       :        0.064 s           0.062 s
          | Total time for Hartree multipole update     :        0.047 s           0.050 s
          | Total time for Hartree multipole sum        :        0.268 s           0.270 s
          | Total time for total energy evaluation      :        0.001 s           0.001 s
          | Total time NSC force correction             :        0.045 s           0.045 s
          | Total time for scaled ZORA corrections      :        0.000 s           0.000 s

          Partial memory accounting:
          | Residual value for overall tracked memory usage across tasks:     0.000000 MB (should be 0.000000 MB)
          | Peak values for overall tracked memory usage:
          |   Minimum:        0.558 MB (on task 0 after allocating grid_partition)
          |   Maximum:        0.558 MB (on task 0 after allocating grid_partition)
          |   Average:        0.558 MB
          | Largest tracked array allocation:
          |   Minimum:        0.364 MB (all_coords on task 0)
          |   Maximum:        0.364 MB (all_coords on task 0)
          |   Average:        0.364 MB
          Note:  These values currently only include a subset of arrays which are explicitly tracked.
          The "true" memory usage will be greater.

          Have a nice day.
------------------------------------------------------------
