------------------------------------------------------------
          Invoking FHI-aims ...

          When using FHI-aims, please cite the following reference:

            Volker Blum, Ralf Gehrke, Felix Hanke, Paula Havu,
            Ville Havu, Xinguo Ren, Karsten Reuter, and Matthias Scheffler,
            'Ab Initio Molecular Simulations with Numeric Atom-Centered Orbitals',
            Computer Physics Communications 180, 2175-2196 (2009)

          In addition, many other developments in FHI-aims are likely important for
          your particular application. A partial list of references is given at the end of
          this file. Thank you for giving credit to the authors of these developments.

          For any questions about FHI-aims, please visit our slack channel at

            https://fhi-aims.slack.com

          and our main development and support site at

            https://aims-git.rz-berlin.mpg.de .

          The latter site, in particular, has a wiki to collect information, as well
          as an issue tracker to log discussions, suggest improvements, and report issues
          or bugs. https://aims-git.rz-berlin.mpg.de is also the main development site
          of the project and all new and updated code versions can be obtained there.
          Please send an email to aims-coordinators@fhi-berlin.mpg.de and we will add
          you to these sites. They are for you and everyone is welcome there.

------------------------------------------------------------



  Date     :  20230628, Time     :  104123.048
  Time zero on CPU 1             :   0.162197700000000E+01  s.
  Internal wall clock time zero  :           457180883.048  s.

  FHI-aims created a unique identifier for this run for later identification
  aims_uuid : 7F959EC8-A7E1-43AC-A4DA-9302788CF7F6

  Build configuration of the current instance of FHI-aims
  -------------------------------------------------------
  FHI-aims version      : 220309
  Commit number         : 232d594a3
  CMake host system     : Linux-5.4.0-146-generic
  CMake version         : 3.26.3
  Fortran compiler      : /home/tpurcell/intel/oneapi/mpi/2021.6.0/bin/mpiifort (Intel) version 2021.6.0.20220226
  Fortran compiler flags: -O3 -ip -fp-model precise
  C compiler            : /home/tpurcell/intel/oneapi/compiler/2022.1.0/linux/bin/intel64/icc (Intel) version 2021.6.0.20220226
  C compiler flags      : -m64 -O3 -ip -fp-model precise -std=gnu99
  Using MPI
  Using ScaLAPACK
  Using LibXC
  Using i-PI
  Using RLSY
  Linking against: /home/tpurcell/intel/oneapi/mkl/2022.1.0/lib/intel64/libmkl_scalapack_lp64.so
                   /home/tpurcell/intel/oneapi/mkl/2022.1.0/lib/intel64/libmkl_blacs_intelmpi_lp64.so
                   /home/tpurcell/intel/oneapi/mkl/2022.1.0/lib/intel64/libmkl_intel_lp64.so
                   /home/tpurcell/intel/oneapi/mkl/2022.1.0/lib/intel64/libmkl_sequential.so
                   /home/tpurcell/intel/oneapi/mkl/2022.1.0/lib/intel64/libmkl_core.so

  Using        1 parallel tasks.
  Task        0 on host nomadbook-7 reporting.

  Performing system and environment tests:
  *** Environment variable OMP_NUM_THREADS is set to
  2
  *** For performance reasons you might want to set it to 1
  | Checking for ScaLAPACK...
  | Testing pdtran()...
  | All pdtran() tests passed.

  Obtaining array dimensions for all initial allocations:

  -----------------------------------------------------------------------
  Parsing control.in (first pass over file, find array dimensions only).
  The contents of control.in will be repeated verbatim below
  unless switched off by setting 'verbatim_writeout .false.' .
  in the first line of control.in .
  -----------------------------------------------------------------------

  #===============================================================================
  # Created using the Atomic Simulation Environment (ASE)

  # Tue Jun 27 18:06:33 2023

  #===============================================================================
  xc                                 pbe
  relativistic                       atomic_zora scalar
  relax_geometry                     trm 1e-3
  relax_unit_cell                    full
  k_grid                             2 2 2
  #===============================================================================

  ################################################################################
  #
  #  FHI-aims code project
  #  VB, Fritz-Haber Institut, 2009
  #
  #  Suggested "light" defaults for Si atom (to be pasted into control.in file)
  #  Be sure to double-check any results obtained with these settings for post-processing,
  #  e.g., with the "tight" defaults and larger basis sets.
  #
  #  2020/09/08 Added f function to "light" after reinspection of Delta test outcomes.
  #             This was done for all of Al-Cl and is a tricky decision since it makes
  #             "light" calculations measurably more expensive for these elements.
  #             Nevertheless, outcomes for P, S, Cl (and to some extent, Si) appear
  #             to justify this choice.
  #
  ################################################################################
    species        Si
  #     global species definitions
      nucleus             14
      mass                28.0855
  #
      l_hartree           4
  #
      cut_pot             3.5          1.5  1.0
      basis_dep_cutoff    1e-4
  #
      radial_base         42 5.0
      radial_multiplier   1
      angular_grids       specified
        division   0.5866   50
        division   0.9616  110
        division   1.2249  194
        division   1.3795  302
  #      division   1.4810  434
  #      division   1.5529  590
  #      division   1.6284  770
  #      division   1.7077  974
  #      division   2.4068 1202
  #      outer_grid   974
        outer_grid 302
  ################################################################################
  #
  #  Definition of "minimal" basis
  #
  ################################################################################
  #     valence basis states
      valence      3  s   2.
      valence      3  p   2.
  #     ion occupancy
      ion_occ      3  s   1.
      ion_occ      3  p   1.
  ################################################################################
  #
  #  Suggested additional basis functions. For production calculations,
  #  uncomment them one after another (the most important basis functions are
  #  listed first).
  #
  #  Constructed for dimers: 1.75 A, 2.0 A, 2.25 A, 2.75 A, 3.75 A
  #
  ################################################################################
  #  "First tier" - improvements: -571.96 meV to -37.03 meV
       hydro 3 d 4.2
       hydro 2 p 1.4
       hydro 4 f 6.2
       ionic 3 s auto
  #  "Second tier" - improvements: -16.76 meV to -3.03 meV
  #     hydro 3 d 9
  #     hydro 5 g 9.4
  #     hydro 4 p 4
  #     hydro 1 s 0.65
  #  "Third tier" - improvements: -3.89 meV to -0.60 meV
  #     ionic 3 d auto
  #     hydro 3 s 2.6
  #     hydro 4 f 8.4
  #     hydro 3 d 3.4
  #     hydro 3 p 7.8
  #  "Fourth tier" - improvements: -0.33 meV to -0.11 meV
  #     hydro 2 p 1.6
  #     hydro 5 g 10.8
  #     hydro 5 f 11.2
  #     hydro 3 d 1
  #     hydro 4 s 4.5
  #  Further basis functions that fell out of the optimization - noise
  #  level... < -0.08 meV
  #     hydro 4 d 6.6
  #     hydro 5 g 16.4
  #     hydro 4 d 9

  -----------------------------------------------------------------------
  Completed first pass over input file control.in .
  -----------------------------------------------------------------------


  -----------------------------------------------------------------------
  Parsing geometry.in (first pass over file, find array dimensions only).
  The contents of geometry.in will be repeated verbatim below
  unless switched off by setting 'verbatim_writeout .false.' .
  in the first line of geometry.in .
  -----------------------------------------------------------------------

  #===============================================================================
  # Created using the Atomic Simulation Environment (ASE)

  # Tue Jun 27 18:06:33 2023

  #=======================================================
  lattice_vector 0.0000000000000000 2.7549999999999999 2.7549999999999999
  lattice_vector 2.7549999999999999 0.0000000000000000 2.7549999999999999
  lattice_vector 2.7549999999999999 2.7549999999999999 0.0000000000000000
  atom_frac 0.0000000000000000 0.0000000000000000 -0.0000000000000000 Si
  atom_frac 0.2500000000000000 0.2500000000000000 0.2500000000000000 Si

  -----------------------------------------------------------------------
  Completed first pass over input file geometry.in .
  -----------------------------------------------------------------------


  Basic array size parameters:
  | Number of species                 :        1
  | Number of atoms                   :        2
  | Number of lattice vectors         :        3
  | Max. basis fn. angular momentum   :        3
  | Max. atomic/ionic basis occupied n:        3
  | Max. number of basis fn. types    :        3
  | Max. radial fns per species/type  :        5
  | Max. logarithmic grid size        :     1346
  | Max. radial integration grid size :       42
  | Max. angular integration grid size:      302
  | Max. angular grid division number :        8
  | Radial grid for Hartree potential :     1346
  | Number of spin channels           :        1

------------------------------------------------------------
          Reading file control.in.
------------------------------------------------------------
  XC: Using PBE gradient-corrected functionals.
  Scalar relativistic treatment of kinetic energy: on-site free-atom approximation to ZORA.
  Geometry relaxation: Modified BFGS - TRM (trust radius method) for lattice optimization.
  Convergence accuracy for geometry relaxation: Maximum force <   0.100000E-02 eV/A.
  Found k-point grid:         2         2         2

  Reading configuration options for species Si                  .
  | Found nuclear charge :  14.0000
  | Found atomic mass :    28.0855000000000      amu
  | Found l_max for Hartree potential  :   4
  | Found cutoff potl. onset [A], width [A], scale factor :    3.50000    1.50000    1.00000
  | Threshold for basis-dependent cutoff potential is   0.100000E-03
  | Found data for basic radial integration grid :    42 points, outermost radius =    5.000 A
  | Found multiplier for basic radial grid :   1
  | Found angular grid specification: user-specified.
  | Specified grid contains     5 separate shells.
  | Check grid settings after all constraints further below.
  | Found free-atom valence shell :  3 s   2.000
  | Found free-atom valence shell :  3 p   2.000
  | Found free-ion valence shell :  3 s   1.000
  | Found free-ion valence shell :  3 p   1.000
  | Found hydrogenic basis function :  3 d   4.200
  | Found hydrogenic basis function :  2 p   1.400
  | Found hydrogenic basis function :  4 f   6.200
  | Found ionic basis function :  3 s , default cutoff radius.
  Species Si                  : Missing cutoff potential type.
  Defaulting to exp(1/x)/(1-x)^2 type cutoff potential.
  Species Si: No 'logarithmic' tag. Using default grid for free atom:
  | Default logarithmic grid data [bohr] : 0.1000E-03 0.1000E+03 0.1012E+01
  | Will include ionic basis functions of  2.0-fold positive Si                   ion.
  Species Si: On-site basis accuracy parameter (for Gram-Schmidt orthonormalisation) not specified.
  Using default value basis_acc =  0.1000000E-03.
  Species Si                  : Using default innermost maximum threshold i_radial=  2 for radial functions.
  Species Si                  : Default cutoff onset for free atom density etc. : 0.35000000E+01 AA.
  Species Si                  : Basic radial grid will be enhanced according to radial_multiplier =   1, to contain    42 grid points.

  Finished reading input file 'control.in'.

------------------------------------------------------------


------------------------------------------------------------
          Reading geometry description geometry.in.
------------------------------------------------------------
  | The smallest distance between any two atoms is         2.38589999 AA.
  | The first atom of this pair is atom number                      1 .
  | The second atom of this pair is atom number                     2 .
  | Wigner-Seitz cell of the first atom image           0     1     0 .
  | (The Wigner-Seitz cell of the second atom is 0 0 0  by definition.)

  Symmetry information by spglib:
  | Precision set to  0.1E-04
  | Number of Operations  : 48
  | Space group           : 227
  | International         : Fd-3m
  | Schoenflies           : Oh^7
  Input structure read successfully.
  The structure contains        2 atoms,  and a total of         28.000 electrons.

  Input geometry:
  | Unit cell:
  |        0.00000000        2.75500000        2.75500000
  |        2.75500000        0.00000000        2.75500000
  |        2.75500000        2.75500000        0.00000000
  | Atomic structure:
  |       Atom                x [A]            y [A]            z [A]
  |    1: Species Si            0.00000000        0.00000000        0.00000000
  |    2: Species Si            1.37750000        1.37750000        1.37750000

  Lattice parameters for 3D lattice (in Angstroms) :     3.896158    3.896158    3.896158
  Angle(s) between unit vectors (in degrees)       :    60.000000   60.000000   60.000000


  Quantities derived from the lattice vectors:
  | Reciprocal lattice vector 1: -1.140324  1.140324  1.140324
  | Reciprocal lattice vector 2:  1.140324 -1.140324  1.140324
  | Reciprocal lattice vector 3:  1.140324  1.140324 -1.140324
  | Unit cell volume                               :   0.418210E+02  A^3

  Fractional coordinates:
                         L1                L2                L3
       atom_frac         0.00000000        0.00000000        0.00000000  Si
       atom_frac         0.25000000        0.25000000        0.25000000  Si


  Finished reading input file 'control.in'.


------------------------------------------------------------
          Reading geometry description geometry.in.
------------------------------------------------------------

  Consistency checks for stacksize environment parameter are next.

  | Maximum stacksize for task 0: unlimited
  | Current stacksize for task 0: unlimited

  Consistency checks for the contents of control.in are next.

  MPI_IN_PLACE appears to work with this MPI implementation.
  | Keeping use_mpi_in_place .true. (see manual).
  Target number of points in a grid batch is not set. Defaulting to  100
  Method for grid partitioning is not set. Defaulting to parallel hash+maxmin partitioning.
  Batch size limit is not set. Defaulting to    200
  By default, will store active basis functions for each batch.
  If in need of memory, prune_basis_once .false. can be used to disable this option.
  communication_type for Hartree potential was not specified.
  Defaulting to calc_hartree .
  Defaulting to Pulay charge density mixer.
  Pulay mixer: Number of relevant iterations not set.
  Defaulting to    8 iterations.
  Pulay mixer: Number of initial linear mixing iterations not set.
  Defaulting to    0 iterations.
  Work space size for distributed Hartree potential not set.
  Defaulting to   0.200000E+03 MB.
  Mixing parameter for charge density mixing has not been set.
  Using default: charge_mix_param =     0.0500.
  The mixing parameter will be adjusted in iteration number     2 of the first full s.c.f. cycle only.
  Algorithm-dependent basis array size parameters:
  | n_max_pulay                         :        8
  Maximum number of self-consistency iterations not provided.
  Presetting  1000 iterations.
  Presetting      1001 iterations before the initial mixing cycle
  is restarted anyway using the sc_init_iter criterion / keyword.
  Presetting a factor      1.000 between actual scf density residual
  and density convergence criterion sc_accuracy_rho below which sc_init_iter
  takes no effect.
 * No s.c.f. convergence criteria (sc_accuracy_*) were provided in control.in.
 * The run will proceed with a reasonable default guess, but please check whether.
 * the s.c.f. cycles seem to take too much or too little time.
  No maximum number of relaxation steps, defaulting to     1000
  Default initial Hessian is Lindh matrix (thres = 15.00) plus  0.200000E+01 eV/A^2 times unity.
  No maximum energy tolerance for TRM/BFGS moves, defaulting to   0.100000E-02
  Maximum energy tolerance by which TRM/BFGS trajectory may increase over multiple steps:   0.300000E-02
  No harmonic length scale. Defaulting to   0.250000E-01 A.
  No trust radius initializer. Defaulting to   0.200000E+00 A.
  Unit cell relaxation: Unit cell will be relaxed fully.
  Unit cell relaxation: Analytical stress will be used.
  Analytical stress will be computed.
  Analytical stress calculation: Only the upper triangle is calculated.
                                 Final output is symmetrized.
  Analytical stress calculation: scf convergence accuracy of stress not set.
                                 Analytical stress self-consistency will not be checked explicitly.
                                 Be sure to set other criteria like sc_accuracy_rho tight enough.
  Forces evaluation will include force correction term due to incomplete self-consistency (default).
 * Notice: The s.c.f. convergence criterion sc_accuracy_rho was not provided.
 * We used to stop in this case, and ask the user to provide reasonable
 * scf convergence criteria. However, this led some users to employ criteria
 * that led to extremely long run times, e.g., for simple relaxation.
 * We now preset a default value for sc_accuracy_rho if it is not set.
 * You may still wish to check if this setting is too tight or too loose for your needs.
 * Based on n_atoms and forces and force-correction status, FHI-aims chose sc_accuracy_rho =  0.500000E-06 .
  Force calculation: scf convergence accuracy of forces not set.
  Defaulting to 'sc_accuracy_forces not_checked'.
  Handling of forces: Unphysical translation and rotation will be removed from forces.
  No accuracy limit for integral partition fn. given. Defaulting to  0.1000E-14.
  No threshold value for u(r) in integrations given. Defaulting to  0.1000E-05.
  No occupation type (smearing scheme) given. Defaulting to Gaussian broadening, width =  0.1000E-01 eV.
  The width will be adjusted in iteration number     2 of the first full s.c.f. cycle only.
  S.C.F. convergence parameters will be adjusted in iteration number     2 of the first full s.c.f. cycle only.
  No accuracy for occupation numbers given. Defaulting to  0.1000E-12.
  No threshold value for occupation numbers given. Defaulting to  0.0000E+00.
  No accuracy for fermi level given. Defaulting to  0.1000E-19.
  Maximum # of iterations to find E_F not set. Defaulting to  200.
  Preferred method for the eigenvalue solver ('KS_method') not specified in 'control.in'.
  Defaulting to serial version LAPACK (via ELSI).
  Will not use alltoall communication since running on < 1024 CPUs.
  Threshold for basis singularities not set.
  Default threshold for basis singularities:  0.1000E-04
  partition_type (choice of integration weights) for integrals was not specified.
  | Using a version of the partition function of Stratmann and coworkers ('stratmann_sparse').
  | At each grid point, the set of atoms used to build the partition table is smoothly restricted to
  | only those atoms whose free-atom density would be non-zero at that grid point.
  Partitioning for Hartree potential was not defined. Using partition_type for integrals.
  | Adjusted default value of keyword multip_moments_threshold to:       0.10000000E-11
  | This value may affect high angular momentum components of the Hartree potential in periodic systems.
  Spin handling was not defined in control.in. Defaulting to unpolarized case.
  Angular momentum expansion for Kerker preconditioner not set explicitly.
  | Using default value of   0
  No explicit requirement for turning off preconditioner.
  | By default, it will be turned off when the charge convergence reaches
  | sc_accuracy_rho  =   0.500000E-06
  No special mixing parameter while Kerker preconditioner is on.
  Using default: charge_mix_param =     0.0500.
  No q(lm)/r^(l+1) cutoff set for long-range Hartree potential.
  | Using default value of  0.100000E-09 .
  | Verify using the multipole_threshold keyword.
  Defaulting to new monopole extrapolation.
  Density update method: automatic selection selected.
  Using density matrix based charge density update.
  Using density matrix based charge density update.
  Using packed matrix style: index .
  Geometry relaxation: A file "geometry.in.next_step" is written out by default after each step.
  | This file contains the geometry of the current relaxation step as well as
  | the current Hessian matrix needed to restart the relaxation algorithm.
  | If you do not want part or all of this information, use the keywords
  | "write_restart_geometry" or "hessian_to_restart_geometry" to switch the output off.
  Defaulting to use time-reversal symmetry for k-point grid.
  Charge integration errors on the 3D integration grid will be compensated
  by explicit normalization and distribution of residual charges.
  Use the "compensate_multipole_errors" flag to change this behaviour.
  Set 'collect_eigenvectors' to be '.true.' for all serial calculations. This is mandatory.
  Set 'collect_eigenvectors' to be '.true.' for KS_method lapack_fast and serial.

  Consistency checks for the contents of geometry.in are next.


  Range separation radius for Ewald summation (hartree_convergence_parameter):      3.95124372 bohr.
  Number of empty states per atom not set in control.in - providing a guess from actual geometry.
  | Total number of empty states used during s.c.f. cycle:        6
  If you use a very high smearing, use empty_states (per atom!) in control.in to increase this value.

  Structure-dependent array size parameters:
  | Maximum number of distinct radial functions  :        9
  | Maximum number of basis functions            :       50
  | Number of Kohn-Sham states (occupied + empty):       20
------------------------------------------------------------

------------------------------------------------------------
          Preparing all fixed parts of the calculation.
------------------------------------------------------------
  Determining machine precision:
    2.225073858507201E-308
  Setting up grids for atomic and cluster calculations.

  Creating wave function, potential, and density for free atoms.
  Runtime choices for atomic solver:
  | atomic solver xc        : PBE
  | compute density gradient: 1
  | compute kinetic density : F

  Species: Si

  List of occupied orbitals and eigenvalues:
    n    l              occ      energy [Ha]    energy [eV]
    1    0           2.0000       -65.767597     -1789.6274
    2    0           2.0000        -5.115610      -139.2028
    3    0           2.0000        -0.388877       -10.5819
    2    1           6.0000        -3.500197       -95.2452
    3    1           2.0000        -0.140803        -3.8315


  Adding cutoff potential to free-atom effective potential.
  Creating fixed part of basis set: Ionic, confined, hydrogenic.

  Si                   ion:

  List of free ionic orbitals and eigenvalues:
    n    l      energy [Ha]    energy [eV]
    1    0       -66.641157     -1813.3982
    2    0        -5.964274      -162.2962
    3    0        -1.073878       -29.2217
    2    1        -4.350005      -118.3697
    3    1        -0.776571       -21.1316


  List of ionic basis orbitals and eigenvalues:
    n    l      energy [Ha]    energy [eV]    outer radius [A]
    3    0        -1.073857       -29.2211       4.214062


  Si                   hydrogenic:

  List of hydrogenic basis orbitals:
    n    l      effective z      eigenvalue [eV]  inner max. [A]     outer max. [A]     outer radius [A]
    3    2         4.200000       -26.6624           1.139231           1.139231           4.534782
    2    1         1.400000        -6.4613           1.472672           1.472672           4.590560
    4    3         6.200000       -32.6778           1.368518           1.368518           4.534782

  Creating atomic-like basis functions for current effective potential.

  Species Si                  :

  List of atomic basis orbitals and eigenvalues:
    n    l      energy [Ha]    energy [eV]    outer radius [A]
    1    0       -65.767597     -1789.6274       0.789468
    2    0        -5.115610      -139.2028       2.815114
    3    0        -0.388877       -10.5819       4.534782
    2    1        -3.500197       -95.2452       3.259919
    3    1        -0.140803        -3.8315       4.590560

  Assembling full basis from fixed parts.
  | Species Si :   atomic orbital   1 s accepted.
  | Species Si :   atomic orbital   2 s accepted.
  | Species Si :    ionic orbital   3 s accepted.
  | Species Si :   atomic orbital   3 s accepted.
  | Species Si :   atomic orbital   2 p accepted.
  | Species Si :   atomic orbital   3 p accepted.
  | Species Si :    hydro orbital   2 p accepted.
  | Species Si :    hydro orbital   3 d accepted.
  | Species Si :    hydro orbital   4 f accepted.

  Basis size parameters after reduction:
  | Total number of radial functions:        9
  | Total number of basis functions :       50

  Per-task memory consumption for arrays in subroutine allocate_ext:
  |           3.102808MB.
  Testing on-site integration grid accuracy.
  |  Species  Function  <phi|h_atom|phi> (log., in eV)  <phi|h_atom|phi> (rad., in eV)
           1        1              -1789.6273740966              -1789.6266345813
           1        2               -139.2028173376               -139.2028132357
           1        3                -10.2237226190                -10.2235219160
           1        4                  5.6355365073                  5.5558633521 ***
           1        5                -95.2452114632                -95.2452114537
           1        6                 -3.8413965043                 -3.8571292824
           1        7                  6.4035522332                  6.2277973139 ***
           1        8                  6.3860095444                  6.3839142324
           1        9                 19.3722793793                 19.3677446767
 * Note: Onsite integrals marked "***" above are less accurate than
 * onsite_accuracy_threshold =    0.03000 eV. Usually, this is harmless.
 * When in doubt, tighten the "radial" and/or "radial_multiplier" flags to check.

  Preparing densities etc. for the partition functions (integrals / Hartree potential).

  Preparations completed.
  max(cpu_time)          :      0.110 s.
  Wall clock time (cpu1) :      0.111 s.
------------------------------------------------------------

------------------------------------------------------------
          Begin self-consistency loop: Initialization.

          Date     :  20230628, Time     :  104123.175
------------------------------------------------------------

  Initializing index lists of integration centers etc. from given atomic structure:
  Mapping all atomic coordinates to central unit cell.

  Initializing the k-points
  Using symmetry for reducing the k-points
  | k-points reduced from:        8 to        8
  | Number of k-points                             :         8
  The eigenvectors in the calculations are REAL.
  | K-points in task   0:         8
  | Number of basis functions in the Hamiltonian integrals :      2161
  | Number of basis functions in a single unit cell        :        50
  | Number of centers in hartree potential         :       708
  | Number of centers in hartree multipole         :       318
  | Number of centers in electron density summation:       190
  | Number of centers in basis integrals           :       198
  | Number of centers in integrals                 :       101
  | Number of centers in hamiltonian               :       190
  | Consuming         14 KiB for k_phase.
  | Number of super-cells (origin) [n_cells]                     :        2197
  | Number of super-cells (after PM_index) [n_cells]             :         112
  | Number of super-cells in hamiltonian [n_cells_in_hamiltonian]:         112
  | Size of matrix packed + index [n_hamiltonian_matrix_size] :       86003

  Initializing relaxation algorithms.
  Finished initialization of distributed Hessian storage.
  | Global dimension:        15
  | BLACS block size:        15
  | Number of workers:        1

  | Estimated reciprocal-space cutoff momentum G_max:         2.36080402 bohr^-1 .
  | Reciprocal lattice points for long-range Hartree potential:      58
  Partitioning the integration grid into batches with parallel hashing+maxmin method.
  | Number of batches:      128
  | Maximal batch size:      90
  | Minimal batch size:      85
  | Average batch size:      87.562
  | Standard deviation of batch sizes:       1.493

  Integration load balanced across     1 MPI tasks.
  Work distribution over tasks is as follows:
  Task     0 has      11208 integration points.
  Initializing partition tables, free-atom densities, potentials, etc. across the integration grid (initialize_grid_storage).
  | initialize_grid_storage: Actual outermost partition radius vs. multipole_radius_free
  | (-- VB: in principle, multipole_radius_free should be larger, hence this output)
  | Species        1: Confinement radius =              4.999999999999999 AA, multipole_radius_free =              5.000694715736543 AA.
  | Species        1: outer_partition_radius set to              5.000694715736543 AA .
  | The sparse table of interatomic distances needs        212.76 kbyte instead of       313.63 kbyte of memory.
  | Net number of integration points:    11208
  | of which are non-zero points    :     9844
  | Numerical average free-atom electrostatic potential    :    -12.56983149 eV
  Renormalizing the initial density to the exact electron count on the 3D integration grid.
  | Initial density: Formal number of electrons (from input files) :      28.0000000000
  | Integrated number of electrons on 3D grid     :      28.0044890464
  | Charge integration error                      :       0.0044890464
  | Normalization factor for density and gradient :       0.9998397026
  Renormalizing the free-atom superposition density to the exact electron count on the 3D integration grid.
  | Formal number of electrons (from input files) :      28.0000000000
  | Integrated number of electrons on 3D grid     :      28.0044890464
  | Charge integration error                      :       0.0044890464
  | Normalization factor for density and gradient :       0.9998397026
  Obtaining max. number of non-zero basis functions in each batch (get_n_compute_maxes).
  | Maximal number of non-zero basis functions:      673 in task     0
  Allocating        0.061 MB for KS_eigenvector
  Integrating Hamiltonian matrix: batch-based integration.
  Time summed over all CPUs for integration: real work        0.435 s, elapsed        0.435 s
  Integrating overlap matrix.
  Time summed over all CPUs for integration: real work        0.286 s, elapsed        0.286 s
  Decreasing sparse matrix size:
  | Tolerance:  0.1000E-12
  Hamiltonian matrix
  | Array has    76538 nonzero elements out of    86003 elements
  | Sparsity factor is 0.110
  Overlap matrix
  | Array has    69730 nonzero elements out of    86003 elements
  | Sparsity factor is 0.189
  New size of hamiltonian matrix:       77039

  Updating Kohn-Sham eigenvalues and eigenvectors using ELSI and the (modified) LAPACK eigensolver.
  Singularity check in k-point 1, task 0 (analysis for other k-points/tasks may follow below):
  Overlap matrix is not singular
  | Lowest and highest eigenvalues :  0.9901E-03,  0.6283E+01
  Finished singularity check of overlap matrix
  | Time :     0.000 s
  Starting LAPACK eigensolver
  Finished Cholesky decomposition
  | Time :     0.000 s
  Finished transformation to standard eigenproblem
  | Time :     0.000 s
  Finished solving standard eigenproblem
  | Time :     0.000 s
  Finished back-transformation of eigenvectors
  | Time :     0.000 s

  Obtaining occupation numbers and chemical potential using ELSI.
  | Chemical potential (Fermi level):    -5.54754229 eV
  Writing Kohn-Sham eigenvalues.
  K-point:       1 at    0.000000    0.000000    0.000000 (in units of recip. lattice)

  State    Occupation    Eigenvalue [Ha]    Eigenvalue [eV]
      1       2.00000         -65.786672        -1790.14643
      2       2.00000         -65.786672        -1790.14643
      3       2.00000          -5.138850         -139.83522
      4       2.00000          -5.138620         -139.82897
      5       2.00000          -3.523444          -95.87778
      6       2.00000          -3.523444          -95.87778
      7       2.00000          -3.523444          -95.87778
      8       2.00000          -3.522920          -95.86354
      9       2.00000          -3.522920          -95.86354
     10       2.00000          -3.522920          -95.86354
     11       2.00000          -0.648513          -17.64694
     12       2.00000          -0.222890           -6.06515
     13       2.00000          -0.222890           -6.06515
     14       2.00000          -0.222890           -6.06515
     15       0.00000          -0.122072           -3.32176
     16       0.00000          -0.122072           -3.32176
     17       0.00000          -0.122072           -3.32176
     18       0.00000          -0.117492           -3.19713
     19       0.00000           0.074623            2.03061
     20       0.00000           0.074623            2.03061

  What follows are estimated values for band gap, HOMO, LUMO, etc.
  | They are estimated on a discrete k-point grid and not necessarily exact.
  | For converged numbers, create a DOS and/or band structure plot on a denser k-grid.

  Highest occupied state (VBM) at     -6.06515226 eV (relative to internal zero)
  | Occupation number:      2.00000000
  | K-point:       1 at    0.000000    0.000000    0.000000 (in units of recip. lattice)

  Lowest unoccupied state (CBM) at    -4.99146902 eV (relative to internal zero)
  | Occupation number:      0.00000000
  | K-point:       6 at    0.500000    0.000000    0.500000 (in units of recip. lattice)

  ESTIMATED overall HOMO-LUMO gap:      1.07368323 eV between HOMO at k-point 1 and LUMO at k-point 6
  | This appears to be an indirect band gap.
  | Smallest direct gap :      2.62680162 eV for k_point 3 at    0.000000    0.500000    0.000000 (in units of recip. lattice)
  The gap value is above 0.2 eV. Unless you are using a very sparse k-point grid,
  this system is most likely an insulator or a semiconductor.
  Calculating total energy contributions from superposition of free atom densities.

  Total energy components:
  | Sum of eigenvalues            :        -329.10882970 Ha       -8955.50690722 eV
  | XC energy correction          :         -41.70173345 Ha       -1134.76190321 eV
  | XC potential correction       :          53.85472519 Ha        1465.46163427 eV
  | Free-atom electrostatic energy:        -263.69998542 Ha       -7175.64169592 eV
  | Hartree energy correction     :           0.00000000 Ha           0.00000000 eV
  | Entropy correction            :           0.00000000 Ha           0.00000000 eV
  | ---------------------------
  | Total energy                  :        -580.65582338 Ha      -15800.44887208 eV
  | Total energy, T -> 0          :        -580.65582338 Ha      -15800.44887208 eV  <-- do not rely on this value for anything but (periodic) metals
  | Electronic free energy        :        -580.65582338 Ha      -15800.44887208 eV

  Derived energy quantities:
  | Kinetic energy                :         582.33599532 Ha       15846.16867687 eV
  | Electrostatic energy          :       -1121.29008525 Ha      -30511.85564573 eV
  | Energy correction for multipole
  | error in Hartree potential    :           0.00000000 Ha           0.00000000 eV
  | Sum of eigenvalues per atom                           :       -4477.75345361 eV
  | Total energy (T->0) per atom                          :       -7900.22443604 eV  <-- do not rely on this value for anything but (periodic) metals
  | Electronic free energy per atom                       :       -7900.22443604 eV
  Initialize hartree_potential_storage
  Max. number of atoms included in rho_multipole:            2

  End scf initialization - timings             :  max(cpu_time)    wall_clock(cpu1)
  | Time for scf. initialization                :        1.052 s           1.052 s
  | Boundary condition initialization           :        0.062 s           0.061 s
  | Relaxation initialization                   :        0.000 s           0.001 s
  | Integration                                 :        0.723 s           0.723 s
  | Solution of K.-S. eqns.                     :        0.006 s           0.006 s
  | Grid partitioning                           :        0.037 s           0.036 s
  | Preloading free-atom quantities on grid     :        0.196 s           0.197 s
  | Free-atom superposition energy              :        0.028 s           0.028 s
  | Total energy evaluation                     :        0.000 s           0.000 s

  Partial memory accounting:
  | Current value for overall tracked memory usage:
  |   Minimum:        1.537 MB (on task 0)
  |   Maximum:        1.537 MB (on task 0)
  |   Average:        1.537 MB
  | Peak value for overall tracked memory usage:
  |   Minimum:        6.565 MB (on task 0 after allocating wave)
  |   Maximum:        6.565 MB (on task 0 after allocating wave)
  |   Average:        6.565 MB
  | Largest tracked array allocation so far:
  |   Minimum:        3.456 MB (hamiltonian_shell on task 0)
  |   Maximum:        3.456 MB (hamiltonian_shell on task 0)
  |   Average:        3.456 MB
  Note:  These values currently only include a subset of arrays which are explicitly tracked.
  The "true" memory usage will be greater.
------------------------------------------------------------
  Evaluating new KS density using the density matrix
  Evaluating density matrix
  Time summed over all CPUs for getting density from density matrix: real work        0.918 s, elapsed        0.918 s
  Integration grid: deviation in total charge (<rho> - N_e) =  -4.618528E-14

  Time for density update prior                :  max(cpu_time)    wall_clock(cpu1)
  | self-consistency iterative process          :        0.914 s           0.919 s

------------------------------------------------------------
          Begin self-consistency iteration #    1

  Date     :  20230628, Time     :  104125.146
------------------------------------------------------------
  Pulay mixing of updated and previous charge densities.
  Renormalizing the density to the exact electron count on the 3D integration grid.
  | Formal number of electrons (from input files) :      28.0000000000
  | Integrated number of electrons on 3D grid     :      27.9997706824
  | Charge integration error                      :      -0.0002293176
  | Normalization factor for density and gradient :       1.0000081900

  Evaluating partitioned Hartree potential by multipole expansion.
  | Original multipole sum: apparent total charge =   0.174607E-12
  | Sum of charges compensated after spline to logarithmic grids =  -0.539729E-05
  | Analytical far-field extrapolation by fixed multipoles:
  | Hartree multipole sum: apparent total charge =   0.000000E+00
  Summing up the Hartree potential.
  Time summed over all CPUs for potential: real work        0.329 s, elapsed        0.329 s
  | RMS charge density error from multipole expansion :   0.688731E-03
  | Average real-space part of the electrostatic potential :      0.02728917 eV

  Integrating Hamiltonian matrix: batch-based integration.
  Time summed over all CPUs for integration: real work        0.432 s, elapsed        0.432 s

  Updating Kohn-Sham eigenvalues and eigenvectors using ELSI and the (modified) LAPACK eigensolver.
  Starting LAPACK eigensolver
  Finished Cholesky decomposition
  | Time :     0.000 s
  Finished transformation to standard eigenproblem
  | Time :     0.000 s
  Finished solving standard eigenproblem
  | Time :     0.000 s
  Finished back-transformation of eigenvectors
  | Time :     0.000 s

  Obtaining occupation numbers and chemical potential using ELSI.
  | Chemical potential (Fermi level):    -5.51709006 eV
  Writing Kohn-Sham eigenvalues.
  K-point:       1 at    0.000000    0.000000    0.000000 (in units of recip. lattice)

  State    Occupation    Eigenvalue [Ha]    Eigenvalue [eV]
      1       2.00000         -65.783258        -1790.05352
      2       2.00000         -65.783258        -1790.05352
      3       2.00000          -5.136258         -139.76468
      4       2.00000          -5.136028         -139.75842
      5       2.00000          -3.520781          -95.80534
      6       2.00000          -3.520781          -95.80534
      7       2.00000          -3.520781          -95.80534
      8       2.00000          -3.520258          -95.79108
      9       2.00000          -3.520258          -95.79108
     10       2.00000          -3.520258          -95.79108
     11       2.00000          -0.647408          -17.61686
     12       2.00000          -0.221469           -6.02649
     13       2.00000          -0.221469           -6.02649
     14       2.00000          -0.221469           -6.02649
     15       0.00000          -0.121223           -3.29865
     16       0.00000          -0.121223           -3.29865
     17       0.00000          -0.121223           -3.29865
     18       0.00000          -0.115839           -3.15215
     19       0.00000           0.075426            2.05244
     20       0.00000           0.075426            2.05244

  What follows are estimated values for band gap, HOMO, LUMO, etc.
  | They are estimated on a discrete k-point grid and not necessarily exact.
  | For converged numbers, create a DOS and/or band structure plot on a denser k-grid.

  Highest occupied state (VBM) at     -6.02649044 eV (relative to internal zero)
  | Occupation number:      2.00000000
  | K-point:       1 at    0.000000    0.000000    0.000000 (in units of recip. lattice)

  Lowest unoccupied state (CBM) at    -4.97745287 eV (relative to internal zero)
  | Occupation number:      0.00000000
  | K-point:       6 at    0.500000    0.000000    0.500000 (in units of recip. lattice)

  ESTIMATED overall HOMO-LUMO gap:      1.04903757 eV between HOMO at k-point 1 and LUMO at k-point 6
  | This appears to be an indirect band gap.
  | Smallest direct gap :      2.62049196 eV for k_point 3 at    0.000000    0.500000    0.000000 (in units of recip. lattice)
  The gap value is above 0.2 eV. Unless you are using a very sparse k-point grid,
  this system is most likely an insulator or a semiconductor.

  Total energy components:
  | Sum of eigenvalues            :        -329.04311153 Ha       -8953.71862494 eV
  | XC energy correction          :         -41.70627212 Ha       -1134.88540669 eV
  | XC potential correction       :          53.86059820 Ha        1465.62144695 eV
  | Free-atom electrostatic energy:        -263.69998542 Ha       -7175.64169592 eV
  | Hartree energy correction     :          -0.06595607 Ha          -1.79475600 eV
  | Entropy correction            :           0.00000000 Ha           0.00000000 eV
  | ---------------------------
  | Total energy                  :        -580.65472694 Ha      -15800.41903659 eV
  | Total energy, T -> 0          :        -580.65472694 Ha      -15800.41903659 eV  <-- do not rely on this value for anything but (periodic) metals
  | Electronic free energy        :        -580.65472694 Ha      -15800.41903659 eV

  Derived energy quantities:
  | Kinetic energy                :         582.35664842 Ha       15846.73067623 eV
  | Electrostatic energy          :       -1121.30510324 Ha      -30512.26430613 eV
  | Energy correction for multipole
  | error in Hartree potential    :           0.00092076 Ha           0.02505523 eV
  | Sum of eigenvalues per atom                           :       -4476.85931247 eV
  | Total energy (T->0) per atom                          :       -7900.20951830 eV  <-- do not rely on this value for anything but (periodic) metals
  | Electronic free energy per atom                       :       -7900.20951830 eV
  Evaluating new KS density using the density matrix
  Evaluating density matrix
  Time summed over all CPUs for getting density from density matrix: real work        0.878 s, elapsed        0.878 s
  Integration grid: deviation in total charge (<rho> - N_e) =   5.684342E-14

  Self-consistency convergence accuracy:
  | Change of charge density      :  0.1472E+00
  | Change of sum of eigenvalues  :  0.1788E+01 eV
  | Change of total energy        :  0.2984E-01 eV


------------------------------------------------------------
  End self-consistency iteration #     1       :  max(cpu_time)    wall_clock(cpu1)
  | Time for this iteration                     :        1.820 s           1.831 s
  | Charge density update                       :        0.873 s           0.879 s
  | Density mixing & preconditioning            :        0.180 s           0.181 s
  | Hartree multipole update                    :        0.001 s           0.001 s
  | Hartree multipole summation                 :        0.329 s           0.332 s
  | Integration                                 :        0.431 s           0.433 s
  | Solution of K.-S. eqns.                     :        0.005 s           0.005 s
  | Total energy evaluation                     :        0.000 s           0.000 s

  Partial memory accounting:
  | Current value for overall tracked memory usage:
  |   Minimum:        1.537 MB (on task 0)
  |   Maximum:        1.537 MB (on task 0)
  |   Average:        1.537 MB
  | Peak value for overall tracked memory usage:
  |   Minimum:        7.765 MB (on task 0 after allocating gradient_basis_wave)
  |   Maximum:        7.765 MB (on task 0 after allocating gradient_basis_wave)
  |   Average:        7.765 MB
  | Largest tracked array allocation so far:
  |   Minimum:        3.456 MB (hamiltonian_shell on task 0)
  |   Maximum:        3.456 MB (hamiltonian_shell on task 0)
  |   Average:        3.456 MB
  Note:  These values currently only include a subset of arrays which are explicitly tracked.
  The "true" memory usage will be greater.
------------------------------------------------------------

------------------------------------------------------------
          Begin self-consistency iteration #    2

  Date     :  20230628, Time     :  104126.977
------------------------------------------------------------
  Pulay mixing of updated and previous charge densities.
  Renormalizing the density to the exact electron count on the 3D integration grid.
  | Formal number of electrons (from input files) :      28.0000000000
  | Integrated number of electrons on 3D grid     :      27.9958223750
  | Charge integration error                      :      -0.0041776250
  | Normalization factor for density and gradient :       1.0001492232

  Evaluating partitioned Hartree potential by multipole expansion.
  | Original multipole sum: apparent total charge =   0.248636E-12
  | Sum of charges compensated after spline to logarithmic grids =  -0.103125E-03
  | Analytical far-field extrapolation by fixed multipoles:
  | Hartree multipole sum: apparent total charge =   0.000000E+00
  Summing up the Hartree potential.
  Time summed over all CPUs for potential: real work        0.392 s, elapsed        0.392 s
  | RMS charge density error from multipole expansion :   0.131324E-01
  | Average real-space part of the electrostatic potential :      0.51574400 eV

  Integrating Hamiltonian matrix: batch-based integration.
  Time summed over all CPUs for integration: real work        0.432 s, elapsed        0.432 s

  Updating Kohn-Sham eigenvalues and eigenvectors using ELSI and the (modified) LAPACK eigensolver.
  Starting LAPACK eigensolver
  Finished Cholesky decomposition
  | Time :     0.000 s
  Finished transformation to standard eigenproblem
  | Time :     0.000 s
  Finished solving standard eigenproblem
  | Time :     0.000 s
  Finished back-transformation of eigenvectors
  | Time :     0.000 s

  Obtaining occupation numbers and chemical potential using ELSI.
  | Chemical potential (Fermi level):    -4.86564087 eV
  What follows are estimated values for band gap, HOMO, LUMO, etc.
  | They are estimated on a discrete k-point grid and not necessarily exact.
  | For converged numbers, create a DOS and/or band structure plot on a denser k-grid.

  Highest occupied state (VBM) at     -5.26885362 eV (relative to internal zero)
  | Occupation number:      2.00000000
  | K-point:       1 at    0.000000    0.000000    0.000000 (in units of recip. lattice)

  Lowest unoccupied state (CBM) at    -4.61373730 eV (relative to internal zero)
  | Occupation number:      0.00000000
  | K-point:       4 at    0.000000    0.500000    0.500000 (in units of recip. lattice)

  ESTIMATED overall HOMO-LUMO gap:      0.65511632 eV between HOMO at k-point 1 and LUMO at k-point 4
  | This appears to be an indirect band gap.
  | Smallest direct gap :      2.43194692 eV for k_point 1 at    0.000000    0.000000    0.000000 (in units of recip. lattice)
  The gap value is above 0.2 eV. Unless you are using a very sparse k-point grid,
  this system is most likely an insulator or a semiconductor.

  Checking to see if s.c.f. parameters should be adjusted.
  The system likely has a gap. Increased the default Pulay mixing parameter (charge_mix_param). Value:   0.200000 .
  Kept the default occupation width. Value:   0.010000 eV.

  Total energy components:
  | Sum of eigenvalues            :        -327.86163892 Ha       -8921.56911953 eV
  | XC energy correction          :         -41.81168620 Ha       -1137.75386970 eV
  | XC potential correction       :          53.99474106 Ha        1469.27165986 eV
  | Free-atom electrostatic energy:        -263.69998542 Ha       -7175.64169592 eV
  | Hartree energy correction     :          -1.26787332 Ha         -34.50058828 eV
  | Entropy correction            :          -0.00000000 Ha          -0.00000000 eV
  | ---------------------------
  | Total energy                  :        -580.64644280 Ha      -15800.19361357 eV
  | Total energy, T -> 0          :        -580.64644280 Ha      -15800.19361357 eV  <-- do not rely on this value for anything but (periodic) metals
  | Electronic free energy        :        -580.64644280 Ha      -15800.19361357 eV

  Derived energy quantities:
  | Kinetic energy                :         582.68623392 Ha       15855.69915398 eV
  | Electrostatic energy          :       -1121.52099052 Ha      -30518.13889784 eV
  | Energy correction for multipole
  | error in Hartree potential    :           0.01752068 Ha           0.47676194 eV
  | Sum of eigenvalues per atom                           :       -4460.78455977 eV
  | Total energy (T->0) per atom                          :       -7900.09680678 eV  <-- do not rely on this value for anything but (periodic) metals
  | Electronic free energy per atom                       :       -7900.09680678 eV
  Evaluating new KS density using the density matrix
  Evaluating density matrix
  Time summed over all CPUs for getting density from density matrix: real work        0.878 s, elapsed        0.878 s
  Integration grid: deviation in total charge (<rho> - N_e) =   1.065814E-13

  Self-consistency convergence accuracy:
  | Change of charge density      :  0.1397E+00
  | Change of sum of eigenvalues  :  0.3215E+02 eV
  | Change of total energy        :  0.2254E+00 eV


------------------------------------------------------------
  End self-consistency iteration #     2       :  max(cpu_time)    wall_clock(cpu1)
  | Time for this iteration                     :        1.879 s           1.891 s
  | Charge density update                       :        0.874 s           0.880 s
  | Density mixing & preconditioning            :        0.178 s           0.179 s
  | Hartree multipole update                    :        0.001 s           0.001 s
  | Hartree multipole summation                 :        0.392 s           0.394 s
  | Integration                                 :        0.430 s           0.433 s
  | Solution of K.-S. eqns.                     :        0.005 s           0.004 s
  | Total energy evaluation                     :        0.000 s           0.000 s

  Partial memory accounting:
  | Current value for overall tracked memory usage:
  |   Minimum:        1.537 MB (on task 0)
  |   Maximum:        1.537 MB (on task 0)
  |   Average:        1.537 MB
  | Peak value for overall tracked memory usage:
  |   Minimum:        7.766 MB (on task 0 after allocating gradient_basis_wave)
  |   Maximum:        7.766 MB (on task 0 after allocating gradient_basis_wave)
  |   Average:        7.766 MB
  | Largest tracked array allocation so far:
  |   Minimum:        3.456 MB (hamiltonian_shell on task 0)
  |   Maximum:        3.456 MB (hamiltonian_shell on task 0)
  |   Average:        3.456 MB
  Note:  These values currently only include a subset of arrays which are explicitly tracked.
  The "true" memory usage will be greater.
------------------------------------------------------------

------------------------------------------------------------
          Begin self-consistency iteration #    3

  Date     :  20230628, Time     :  104128.868
------------------------------------------------------------
  Pulay mixing of updated and previous charge densities.
  Renormalizing the density to the exact electron count on the 3D integration grid.
  | Formal number of electrons (from input files) :      28.0000000000
  | Integrated number of electrons on 3D grid     :      27.9993663856
  | Charge integration error                      :      -0.0006336144
  | Normalization factor for density and gradient :       1.0000226296

  Evaluating partitioned Hartree potential by multipole expansion.
  | Original multipole sum: apparent total charge =  -0.386371E-13
  | Sum of charges compensated after spline to logarithmic grids =  -0.111544E-03
  | Analytical far-field extrapolation by fixed multipoles:
  | Hartree multipole sum: apparent total charge =   0.000000E+00
  Summing up the Hartree potential.
  Time summed over all CPUs for potential: real work        0.392 s, elapsed        0.392 s
  | RMS charge density error from multipole expansion :   0.138367E-01
  | Average real-space part of the electrostatic potential :      0.50527974 eV

  Integrating Hamiltonian matrix: batch-based integration.
  Time summed over all CPUs for integration: real work        0.432 s, elapsed        0.433 s

  Updating Kohn-Sham eigenvalues and eigenvectors using ELSI and the (modified) LAPACK eigensolver.
  Starting LAPACK eigensolver
  Finished Cholesky decomposition
  | Time :     0.000 s
  Finished transformation to standard eigenproblem
  | Time :     0.000 s
  Finished solving standard eigenproblem
  | Time :     0.000 s
  Finished back-transformation of eigenvectors
  | Time :     0.000 s

  Obtaining occupation numbers and chemical potential using ELSI.
  | Chemical potential (Fermi level):    -4.88620788 eV
  What follows are estimated values for band gap, HOMO, LUMO, etc.
  | They are estimated on a discrete k-point grid and not necessarily exact.
  | For converged numbers, create a DOS and/or band structure plot on a denser k-grid.

  Highest occupied state (VBM) at     -5.29937334 eV (relative to internal zero)
  | Occupation number:      2.00000000
  | K-point:       1 at    0.000000    0.000000    0.000000 (in units of recip. lattice)

  Lowest unoccupied state (CBM) at    -4.61132158 eV (relative to internal zero)
  | Occupation number:      0.00000000
  | K-point:       6 at    0.500000    0.000000    0.500000 (in units of recip. lattice)

  ESTIMATED overall HOMO-LUMO gap:      0.68805176 eV between HOMO at k-point 1 and LUMO at k-point 6
  | This appears to be an indirect band gap.
  | Smallest direct gap :      2.43473574 eV for k_point 1 at    0.000000    0.000000    0.000000 (in units of recip. lattice)
  The gap value is above 0.2 eV. Unless you are using a very sparse k-point grid,
  this system is most likely an insulator or a semiconductor.

  Total energy components:
  | Sum of eigenvalues            :        -328.00561270 Ha       -8925.48684534 eV
  | XC energy correction          :         -41.79877840 Ha       -1137.40263057 eV
  | XC potential correction       :          53.97806660 Ha        1468.81792492 eV
  | Free-atom electrostatic energy:        -263.69998542 Ha       -7175.64169592 eV
  | Hartree energy correction     :          -1.12001652 Ha         -30.47720020 eV
  | Entropy correction            :           0.00000000 Ha           0.00000000 eV
  | ---------------------------
  | Total energy                  :        -580.64632643 Ha      -15800.19044711 eV
  | Total energy, T -> 0          :        -580.64632643 Ha      -15800.19044711 eV  <-- do not rely on this value for anything but (periodic) metals
  | Electronic free energy        :        -580.64632643 Ha      -15800.19044711 eV

  Derived energy quantities:
  | Kinetic energy                :         582.50125777 Ha       15850.66569691 eV
  | Electrostatic energy          :       -1121.34880581 Ha      -30513.45351345 eV
  | Energy correction for multipole
  | error in Hartree potential    :           0.01868691 Ha           0.50849666 eV
  | Sum of eigenvalues per atom                           :       -4462.74342267 eV
  | Total energy (T->0) per atom                          :       -7900.09522355 eV  <-- do not rely on this value for anything but (periodic) metals
  | Electronic free energy per atom                       :       -7900.09522355 eV
  Evaluating new KS density using the density matrix
  Evaluating density matrix
  Time summed over all CPUs for getting density from density matrix: real work        0.877 s, elapsed        0.877 s
  Integration grid: deviation in total charge (<rho> - N_e) =   2.842171E-14

  Self-consistency convergence accuracy:
  | Change of charge density      :  0.2064E-01
  | Change of sum of eigenvalues  : -0.3918E+01 eV
  | Change of total energy        :  0.3166E-02 eV


------------------------------------------------------------
  End self-consistency iteration #     3       :  max(cpu_time)    wall_clock(cpu1)
  | Time for this iteration                     :        1.881 s           1.893 s
  | Charge density update                       :        0.872 s           0.879 s
  | Density mixing & preconditioning            :        0.181 s           0.181 s
  | Hartree multipole update                    :        0.001 s           0.001 s
  | Hartree multipole summation                 :        0.392 s           0.394 s
  | Integration                                 :        0.430 s           0.433 s
  | Solution of K.-S. eqns.                     :        0.005 s           0.005 s
  | Total energy evaluation                     :        0.000 s           0.000 s

  Partial memory accounting:
  | Current value for overall tracked memory usage:
  |   Minimum:        1.538 MB (on task 0)
  |   Maximum:        1.538 MB (on task 0)
  |   Average:        1.538 MB
  | Peak value for overall tracked memory usage:
  |   Minimum:        7.766 MB (on task 0 after allocating gradient_basis_wave)
  |   Maximum:        7.766 MB (on task 0 after allocating gradient_basis_wave)
  |   Average:        7.766 MB
  | Largest tracked array allocation so far:
  |   Minimum:        3.456 MB (hamiltonian_shell on task 0)
  |   Maximum:        3.456 MB (hamiltonian_shell on task 0)
  |   Average:        3.456 MB
  Note:  These values currently only include a subset of arrays which are explicitly tracked.
  The "true" memory usage will be greater.
------------------------------------------------------------

------------------------------------------------------------
          Begin self-consistency iteration #    4

  Date     :  20230628, Time     :  104130.761
------------------------------------------------------------
  Pulay mixing of updated and previous charge densities.
  Renormalizing the density to the exact electron count on the 3D integration grid.
  | Formal number of electrons (from input files) :      28.0000000000
  | Integrated number of electrons on 3D grid     :      27.9993017485
  | Charge integration error                      :      -0.0006982515
  | Normalization factor for density and gradient :       1.0000249382

  Evaluating partitioned Hartree potential by multipole expansion.
  | Original multipole sum: apparent total charge =   0.127016E-12
  | Sum of charges compensated after spline to logarithmic grids =  -0.124177E-03
  | Analytical far-field extrapolation by fixed multipoles:
  | Hartree multipole sum: apparent total charge =   0.000000E+00
  Summing up the Hartree potential.
  Time summed over all CPUs for potential: real work        0.394 s, elapsed        0.394 s
  | RMS charge density error from multipole expansion :   0.151234E-01
  | Average real-space part of the electrostatic potential :      0.51490697 eV

  Integrating Hamiltonian matrix: batch-based integration.
  Time summed over all CPUs for integration: real work        0.432 s, elapsed        0.432 s

  Updating Kohn-Sham eigenvalues and eigenvectors using ELSI and the (modified) LAPACK eigensolver.
  Starting LAPACK eigensolver
  Finished Cholesky decomposition
  | Time :     0.001 s
  Finished transformation to standard eigenproblem
  | Time :     0.000 s
  Finished solving standard eigenproblem
  | Time :     0.000 s
  Finished back-transformation of eigenvectors
  | Time :     0.000 s

  Obtaining occupation numbers and chemical potential using ELSI.
  | Chemical potential (Fermi level):    -4.87204434 eV
  What follows are estimated values for band gap, HOMO, LUMO, etc.
  | They are estimated on a discrete k-point grid and not necessarily exact.
  | For converged numbers, create a DOS and/or band structure plot on a denser k-grid.

  Highest occupied state (VBM) at     -5.29286016 eV (relative to internal zero)
  | Occupation number:      2.00000000
  | K-point:       1 at    0.000000    0.000000    0.000000 (in units of recip. lattice)

  Lowest unoccupied state (CBM) at    -4.58355519 eV (relative to internal zero)
  | Occupation number:      0.00000000
  | K-point:       7 at    0.500000    0.500000    0.000000 (in units of recip. lattice)

  ESTIMATED overall HOMO-LUMO gap:      0.70930496 eV between HOMO at k-point 1 and LUMO at k-point 7
  | This appears to be an indirect band gap.
  | Smallest direct gap :      2.42480865 eV for k_point 1 at    0.000000    0.000000    0.000000 (in units of recip. lattice)
  The gap value is above 0.2 eV. Unless you are using a very sparse k-point grid,
  this system is most likely an insulator or a semiconductor.

  Total energy components:
  | Sum of eigenvalues            :        -328.10105415 Ha       -8928.08393921 eV
  | XC energy correction          :         -41.79191602 Ha       -1137.21589584 eV
  | XC potential correction       :          53.96893080 Ha        1468.56932705 eV
  | Free-atom electrostatic energy:        -263.69998542 Ha       -7175.64169592 eV
  | Hartree energy correction     :          -1.02214339 Ha         -27.81393683 eV
  | Entropy correction            :           0.00000000 Ha           0.00000000 eV
  | ---------------------------
  | Total energy                  :        -580.64616818 Ha      -15800.18614075 eV
  | Total energy, T -> 0          :        -580.64616818 Ha      -15800.18614075 eV  <-- do not rely on this value for anything but (periodic) metals
  | Electronic free energy        :        -580.64616818 Ha      -15800.18614075 eV

  Derived energy quantities:
  | Kinetic energy                :         582.32598076 Ha       15845.89616684 eV
  | Electrostatic energy          :       -1121.18023292 Ha      -30508.86641175 eV
  | Energy correction for multipole
  | error in Hartree potential    :           0.02061469 Ha           0.56095417 eV
  | Sum of eigenvalues per atom                           :       -4464.04196961 eV
  | Total energy (T->0) per atom                          :       -7900.09307038 eV  <-- do not rely on this value for anything but (periodic) metals
  | Electronic free energy per atom                       :       -7900.09307038 eV
  Evaluating new KS density using the density matrix
  Evaluating density matrix
  Time summed over all CPUs for getting density from density matrix: real work        0.878 s, elapsed        0.878 s
  Integration grid: deviation in total charge (<rho> - N_e) =   5.684342E-14

  Self-consistency convergence accuracy:
  | Change of charge density      :  0.1231E-01
  | Change of sum of eigenvalues  : -0.2597E+01 eV
  | Change of total energy        :  0.4306E-02 eV


------------------------------------------------------------
  End self-consistency iteration #     4       :  max(cpu_time)    wall_clock(cpu1)
  | Time for this iteration                     :        1.881 s           1.892 s
  | Charge density update                       :        0.874 s           0.879 s
  | Density mixing & preconditioning            :        0.178 s           0.179 s
  | Hartree multipole update                    :        0.001 s           0.001 s
  | Hartree multipole summation                 :        0.394 s           0.396 s
  | Integration                                 :        0.430 s           0.432 s
  | Solution of K.-S. eqns.                     :        0.005 s           0.005 s
  | Total energy evaluation                     :        0.000 s           0.000 s

  Partial memory accounting:
  | Current value for overall tracked memory usage:
  |   Minimum:        1.538 MB (on task 0)
  |   Maximum:        1.538 MB (on task 0)
  |   Average:        1.538 MB
  | Peak value for overall tracked memory usage:
  |   Minimum:        7.766 MB (on task 0 after allocating gradient_basis_wave)
  |   Maximum:        7.766 MB (on task 0 after allocating gradient_basis_wave)
  |   Average:        7.766 MB
  | Largest tracked array allocation so far:
  |   Minimum:        3.456 MB (hamiltonian_shell on task 0)
  |   Maximum:        3.456 MB (hamiltonian_shell on task 0)
  |   Average:        3.456 MB
  Note:  These values currently only include a subset of arrays which are explicitly tracked.
  The "true" memory usage will be greater.
------------------------------------------------------------

------------------------------------------------------------
          Begin self-consistency iteration #    5

  Date     :  20230628, Time     :  104132.653
------------------------------------------------------------
  Pulay mixing of updated and previous charge densities.
  Renormalizing the density to the exact electron count on the 3D integration grid.
  | Formal number of electrons (from input files) :      28.0000000000
  | Integrated number of electrons on 3D grid     :      28.0007654108
  | Charge integration error                      :       0.0007654108
  | Normalization factor for density and gradient :       0.9999726646

  Evaluating partitioned Hartree potential by multipole expansion.
  | Original multipole sum: apparent total charge =   0.113849E-12
  | Sum of charges compensated after spline to logarithmic grids =  -0.121847E-03
  | Analytical far-field extrapolation by fixed multipoles:
  | Hartree multipole sum: apparent total charge =   0.000000E+00
  Summing up the Hartree potential.
  Time summed over all CPUs for potential: real work        0.392 s, elapsed        0.392 s
  | RMS charge density error from multipole expansion :   0.150727E-01
  | Average real-space part of the electrostatic potential :      0.49589346 eV

  Integrating Hamiltonian matrix: batch-based integration.
  Time summed over all CPUs for integration: real work        0.432 s, elapsed        0.432 s

  Updating Kohn-Sham eigenvalues and eigenvectors using ELSI and the (modified) LAPACK eigensolver.
  Starting LAPACK eigensolver
  Finished Cholesky decomposition
  | Time :     0.000 s
  Finished transformation to standard eigenproblem
  | Time :     0.000 s
  Finished solving standard eigenproblem
  | Time :     0.000 s
  Finished back-transformation of eigenvectors
  | Time :     0.000 s

  Obtaining occupation numbers and chemical potential using ELSI.
  | Chemical potential (Fermi level):    -4.88328636 eV
  What follows are estimated values for band gap, HOMO, LUMO, etc.
  | They are estimated on a discrete k-point grid and not necessarily exact.
  | For converged numbers, create a DOS and/or band structure plot on a denser k-grid.

  Highest occupied state (VBM) at     -5.30466705 eV (relative to internal zero)
  | Occupation number:      2.00000000
  | K-point:       1 at    0.000000    0.000000    0.000000 (in units of recip. lattice)

  Lowest unoccupied state (CBM) at    -4.59249490 eV (relative to internal zero)
  | Occupation number:      0.00000000
  | K-point:       4 at    0.000000    0.500000    0.500000 (in units of recip. lattice)

  ESTIMATED overall HOMO-LUMO gap:      0.71217215 eV between HOMO at k-point 1 and LUMO at k-point 4
  | This appears to be an indirect band gap.
  | Smallest direct gap :      2.42925330 eV for k_point 1 at    0.000000    0.000000    0.000000 (in units of recip. lattice)
  The gap value is above 0.2 eV. Unless you are using a very sparse k-point grid,
  this system is most likely an insulator or a semiconductor.

  Total energy components:
  | Sum of eigenvalues            :        -328.15577741 Ha       -8929.57303500 eV
  | XC energy correction          :         -41.78965399 Ha       -1137.15434277 eV
  | XC potential correction       :          53.96575153 Ha        1468.48281475 eV
  | Free-atom electrostatic energy:        -263.69998542 Ha       -7175.64169592 eV
  | Hartree energy correction     :          -0.96645644 Ha         -26.29861771 eV
  | Entropy correction            :           0.00000000 Ha           0.00000000 eV
  | ---------------------------
  | Total energy                  :        -580.64612172 Ha      -15800.18487664 eV
  | Total energy, T -> 0          :        -580.64612172 Ha      -15800.18487664 eV  <-- do not rely on this value for anything but (periodic) metals
  | Electronic free energy        :        -580.64612172 Ha      -15800.18487664 eV

  Derived energy quantities:
  | Kinetic energy                :         582.29516914 Ha       15845.05773999 eV
  | Electrostatic energy          :       -1121.15163688 Ha      -30508.08827387 eV
  | Energy correction for multipole
  | error in Hartree potential    :           0.02040284 Ha           0.55518946 eV
  | Sum of eigenvalues per atom                           :       -4464.78651750 eV
  | Total energy (T->0) per atom                          :       -7900.09243832 eV  <-- do not rely on this value for anything but (periodic) metals
  | Electronic free energy per atom                       :       -7900.09243832 eV
  Evaluating new KS density using the density matrix
  Evaluating density matrix
  Time summed over all CPUs for getting density from density matrix: real work        0.878 s, elapsed        0.878 s
  Integration grid: deviation in total charge (<rho> - N_e) =   5.329071E-14

  Self-consistency convergence accuracy:
  | Change of charge density      :  0.3697E-02
  | Change of sum of eigenvalues  : -0.1489E+01 eV
  | Change of total energy        :  0.1264E-02 eV


------------------------------------------------------------
  End self-consistency iteration #     5       :  max(cpu_time)    wall_clock(cpu1)
  | Time for this iteration                     :        1.880 s           1.892 s
  | Charge density update                       :        0.874 s           0.880 s
  | Density mixing & preconditioning            :        0.178 s           0.179 s
  | Hartree multipole update                    :        0.001 s           0.001 s
  | Hartree multipole summation                 :        0.393 s           0.395 s
  | Integration                                 :        0.430 s           0.432 s
  | Solution of K.-S. eqns.                     :        0.005 s           0.005 s
  | Total energy evaluation                     :        0.000 s           0.000 s

  Partial memory accounting:
  | Current value for overall tracked memory usage:
  |   Minimum:        1.538 MB (on task 0)
  |   Maximum:        1.538 MB (on task 0)
  |   Average:        1.538 MB
  | Peak value for overall tracked memory usage:
  |   Minimum:        7.766 MB (on task 0 after allocating gradient_basis_wave)
  |   Maximum:        7.766 MB (on task 0 after allocating gradient_basis_wave)
  |   Average:        7.766 MB
  | Largest tracked array allocation so far:
  |   Minimum:        3.456 MB (hamiltonian_shell on task 0)
  |   Maximum:        3.456 MB (hamiltonian_shell on task 0)
  |   Average:        3.456 MB
  Note:  These values currently only include a subset of arrays which are explicitly tracked.
  The "true" memory usage will be greater.
------------------------------------------------------------

------------------------------------------------------------
          Begin self-consistency iteration #    6

  Date     :  20230628, Time     :  104134.545
------------------------------------------------------------
  Pulay mixing of updated and previous charge densities.
  Renormalizing the density to the exact electron count on the 3D integration grid.
  | Formal number of electrons (from input files) :      28.0000000000
  | Integrated number of electrons on 3D grid     :      28.0001271580
  | Charge integration error                      :       0.0001271580
  | Normalization factor for density and gradient :       0.9999954587

  Evaluating partitioned Hartree potential by multipole expansion.
  | Original multipole sum: apparent total charge =   0.170005E-12
  | Sum of charges compensated after spline to logarithmic grids =  -0.121146E-03
  | Analytical far-field extrapolation by fixed multipoles:
  | Hartree multipole sum: apparent total charge =   0.000000E+00
  Summing up the Hartree potential.
  Time summed over all CPUs for potential: real work        0.392 s, elapsed        0.392 s
  | RMS charge density error from multipole expansion :   0.149973E-01
  | Average real-space part of the electrostatic potential :      0.48838703 eV

  Integrating Hamiltonian matrix: batch-based integration.
  Time summed over all CPUs for integration: real work        0.432 s, elapsed        0.432 s

  Updating Kohn-Sham eigenvalues and eigenvectors using ELSI and the (modified) LAPACK eigensolver.
  Starting LAPACK eigensolver
  Finished Cholesky decomposition
  | Time :     0.000 s
  Finished transformation to standard eigenproblem
  | Time :     0.001 s
  Finished solving standard eigenproblem
  | Time :     0.000 s
  Finished back-transformation of eigenvectors
  | Time :     0.000 s

  Obtaining occupation numbers and chemical potential using ELSI.
  | Chemical potential (Fermi level):    -4.89304867 eV
  What follows are estimated values for band gap, HOMO, LUMO, etc.
  | They are estimated on a discrete k-point grid and not necessarily exact.
  | For converged numbers, create a DOS and/or band structure plot on a denser k-grid.

  Highest occupied state (VBM) at     -5.31568837 eV (relative to internal zero)
  | Occupation number:      2.00000000
  | K-point:       1 at    0.000000    0.000000    0.000000 (in units of recip. lattice)

  Lowest unoccupied state (CBM) at    -4.59826078 eV (relative to internal zero)
  | Occupation number:      0.00000000
  | K-point:       4 at    0.000000    0.500000    0.500000 (in units of recip. lattice)

  ESTIMATED overall HOMO-LUMO gap:      0.71742759 eV between HOMO at k-point 1 and LUMO at k-point 4
  | This appears to be an indirect band gap.
  | Smallest direct gap :      2.43284984 eV for k_point 1 at    0.000000    0.000000    0.000000 (in units of recip. lattice)
  The gap value is above 0.2 eV. Unless you are using a very sparse k-point grid,
  this system is most likely an insulator or a semiconductor.

  Total energy components:
  | Sum of eigenvalues            :        -328.17991453 Ha       -8930.22983952 eV
  | XC energy correction          :         -41.78779479 Ha       -1137.10375136 eV
  | XC potential correction       :          53.96336410 Ha        1468.41784950 eV
  | Free-atom electrostatic energy:        -263.69998542 Ha       -7175.64169592 eV
  | Hartree energy correction     :          -0.94177100 Ha         -25.62689267 eV
  | Entropy correction            :           0.00000000 Ha           0.00000000 eV
  | ---------------------------
  | Total energy                  :        -580.64610163 Ha      -15800.18432997 eV
  | Total energy, T -> 0          :        -580.64610163 Ha      -15800.18432997 eV  <-- do not rely on this value for anything but (periodic) metals
  | Electronic free energy        :        -580.64610163 Ha      -15800.18432997 eV

  Derived energy quantities:
  | Kinetic energy                :         582.28772081 Ha       15844.85506064 eV
  | Electrostatic energy          :       -1121.14602766 Ha      -30507.93563924 eV
  | Energy correction for multipole
  | error in Hartree potential    :           0.02029783 Ha           0.55233193 eV
  | Sum of eigenvalues per atom                           :       -4465.11491976 eV
  | Total energy (T->0) per atom                          :       -7900.09216498 eV  <-- do not rely on this value for anything but (periodic) metals
  | Electronic free energy per atom                       :       -7900.09216498 eV
  Evaluating new KS density using the density matrix
  Evaluating density matrix
  Time summed over all CPUs for getting density from density matrix: real work        0.878 s, elapsed        0.878 s
  Integration grid: deviation in total charge (<rho> - N_e) =  -5.684342E-14

  Self-consistency convergence accuracy:
  | Change of charge density      :  0.1082E-02
  | Change of sum of eigenvalues  : -0.6568E+00 eV
  | Change of total energy        :  0.5467E-03 eV


------------------------------------------------------------
  End self-consistency iteration #     6       :  max(cpu_time)    wall_clock(cpu1)
  | Time for this iteration                     :        1.880 s           1.891 s
  | Charge density update                       :        0.873 s           0.879 s
  | Density mixing & preconditioning            :        0.178 s           0.179 s
  | Hartree multipole update                    :        0.001 s           0.001 s
  | Hartree multipole summation                 :        0.392 s           0.394 s
  | Integration                                 :        0.430 s           0.433 s
  | Solution of K.-S. eqns.                     :        0.005 s           0.005 s
  | Total energy evaluation                     :        0.000 s           0.000 s

  Partial memory accounting:
  | Current value for overall tracked memory usage:
  |   Minimum:        1.538 MB (on task 0)
  |   Maximum:        1.538 MB (on task 0)
  |   Average:        1.538 MB
  | Peak value for overall tracked memory usage:
  |   Minimum:        7.766 MB (on task 0 after allocating gradient_basis_wave)
  |   Maximum:        7.766 MB (on task 0 after allocating gradient_basis_wave)
  |   Average:        7.766 MB
  | Largest tracked array allocation so far:
  |   Minimum:        3.456 MB (hamiltonian_shell on task 0)
  |   Maximum:        3.456 MB (hamiltonian_shell on task 0)
[...]
  | Electronic free energy per atom                       :       -7900.11277136 eV
  Evaluating new KS density using the density matrix
  Evaluating density matrix
  Time summed over all CPUs for getting density from density matrix: real work        0.800 s, elapsed        0.800 s

  Evaluating density-matrix-based force terms: batch-based integration
  Evaluating density matrix
  Evaluating density matrix
  Integration grid: deviation in total charge (<rho> - N_e) =   4.263256E-14

  atomic forces [eV/Ang]:
  -----------------------
  atom #    1
   Hellmann-Feynman              : -0.593616E-06  0.154244E-06  0.167646E-06
   Ionic forces                  :  0.000000E+00  0.000000E+00  0.000000E+00
   Multipole                     : -0.528170E-07  0.316161E-08  0.747925E-08
   Hartree pot. SCF incomplete   :  0.113701E-07 -0.273145E-08  0.453902E-08
   Pulay + GGA                   :  0.511538E-07 -0.880170E-07 -0.703409E-07
   ----------------------------------------------------------------
   Total forces(   1)            : -0.583909E-06  0.666570E-07  0.109323E-06
  atom #    2
   Hellmann-Feynman              :  0.598422E-06 -0.152266E-06 -0.161091E-06
   Ionic forces                  :  0.000000E+00  0.000000E+00  0.000000E+00
   Multipole                     :  0.528195E-07 -0.315968E-08 -0.747820E-08
   Hartree pot. SCF incomplete   : -0.117211E-07  0.229555E-08 -0.457792E-08
   Pulay + GGA                   : -0.678800E-07  0.867322E-07  0.606676E-07
   ----------------------------------------------------------------
   Total forces(   2)            :  0.571641E-06 -0.663978E-07 -0.112479E-06


  Analytical stress tensor components [eV]         xx                  yy                  zz                  xy                  xz                  yz
  -----------------------------------------------------------------------------------------------------------------------------------------------------------
    Nuclear Hellmann-Feynman      :    -0.1190475719E+02   -0.1190493809E+02   -0.1190493809E+02    0.1216492596E-06    0.5622001483E-07   -0.6683101677E-06
    Multipole Hellmann-Feynman    :    -0.2750159986E+02   -0.2750161039E+02   -0.2750161039E+02    0.3888406713E-06    0.2448907761E-06   -0.2201423316E-05
    On-site Multipole corrections :    -0.2840362645E+00   -0.2840362649E+00   -0.2840362649E+00   -0.4332915843E-10   -0.1151778884E-10    0.3636389044E-09
    Strain deriv. of the orbitals :     0.3969034003E+02    0.3969053146E+02    0.3969053146E+02   -0.5077012238E-06   -0.3198719154E-06    0.2664048369E-05
  -----------------------------------------------------------------------------------------------------------------------------------------------------------
  Sum of all contributions        :    -0.5328603275E-04   -0.5328338212E-04   -0.5328212227E-04    0.2745377944E-08   -0.1877264225E-07   -0.2053214757E-06

  +-------------------------------------------------------------------+
  |              Analytical stress tensor - Symmetrized               |
  |                  Cartesian components [eV/A**3]                   |
  +-------------------------------------------------------------------+
  |                x                y                z                |
  |                                                                   |
  |  x        -0.00000119       0.00000000      -0.00000000           |
  |  y         0.00000000      -0.00000119      -0.00000000           |
  |  z        -0.00000000      -0.00000000      -0.00000119           |
  |                                                                   |
  |  Pressure:       0.00000119   [eV/A**3]                           |
  |                                                                   |
  +-------------------------------------------------------------------+

 * Warning: Stress tensor is anisotropic. Be aware that pressure is an isotropic quantity.


  Self-consistency convergence accuracy:
  | Change of charge density      :  0.3462E-08
  | Change of sum of eigenvalues  : -0.8864E-07 eV
  | Change of total energy        :  0.2227E-09 eV
  | Change of forces              :  0.4388E-08 eV/A

  Writing Kohn-Sham eigenvalues.
  K-point:       1 at    0.000000    0.000000    0.000000 (in units of recip. lattice)

  State    Occupation    Eigenvalue [Ha]    Eigenvalue [eV]
      1       2.00000         -65.748401        -1789.10501
      2       2.00000         -65.748401        -1789.10501
      3       2.00000          -5.106132         -138.94492
      4       2.00000          -5.105967         -138.94044
      5       2.00000          -3.489905          -94.96516
      6       2.00000          -3.489905          -94.96516
      7       2.00000          -3.489905          -94.96516
      8       2.00000          -3.489510          -94.95440
      9       2.00000          -3.489510          -94.95440
     10       2.00000          -3.489510          -94.95440
     11       2.00000          -0.608072          -16.54648
     12       2.00000          -0.192606           -5.24107
     13       2.00000          -0.192606           -5.24107
     14       2.00000          -0.192606           -5.24107
     15       0.00000          -0.110992           -3.02024
     16       0.00000          -0.104018           -2.83046
     17       0.00000          -0.104018           -2.83046
     18       0.00000          -0.104018           -2.83046
     19       0.00000           0.092775            2.52455
     20       0.00000           0.092775            2.52455

  What follows are estimated values for band gap, HOMO, LUMO, etc.
  | They are estimated on a discrete k-point grid and not necessarily exact.
  | For converged numbers, create a DOS and/or band structure plot on a denser k-grid.

  Highest occupied state (VBM) at     -5.24107103 eV (relative to internal zero)
  | Occupation number:      2.00000000
  | K-point:       1 at    0.000000    0.000000    0.000000 (in units of recip. lattice)

  Lowest unoccupied state (CBM) at    -4.40317611 eV (relative to internal zero)
  | Occupation number:      0.00000000
  | K-point:       4 at    0.000000    0.500000    0.500000 (in units of recip. lattice)

  ESTIMATED overall HOMO-LUMO gap:      0.83789492 eV between HOMO at k-point 1 and LUMO at k-point 4
  | This appears to be an indirect band gap.
  | Smallest direct gap :      2.22083180 eV for k_point 1 at    0.000000    0.000000    0.000000 (in units of recip. lattice)
  The gap value is above 0.2 eV. Unless you are using a very sparse k-point grid,
  this system is most likely an insulator or a semiconductor.
  | Chemical Potential                          :    -5.01959746 eV

  Self-consistency cycle converged.


------------------------------------------------------------
  End self-consistency iteration #     7       :  max(cpu_time)    wall_clock(cpu1)
  | Time for this iteration                     :       18.939 s          19.008 s
  | Charge density & force component update     :       15.942 s          16.006 s
  | Density mixing                              :        0.001 s           0.001 s
  | Hartree multipole update                    :        0.001 s           0.002 s
  | Hartree multipole summation                 :        1.651 s           1.650 s
  | Hartree pot. SCF incomplete forces          :        0.941 s           0.946 s
  | Integration                                 :        0.398 s           0.398 s
  | Solution of K.-S. eqns.                     :        0.005 s           0.005 s
  | Total energy evaluation                     :        0.000 s           0.000 s

  Partial memory accounting:
  | Current value for overall tracked memory usage:
  |   Minimum:        1.553 MB (on task 0)
  |   Maximum:        1.553 MB (on task 0)
  |   Average:        1.553 MB
  | Peak value for overall tracked memory usage:
  |   Minimum:       14.236 MB (on task 0 after allocating d_wave)
  |   Maximum:       14.236 MB (on task 0 after allocating d_wave)
  |   Average:       14.236 MB
  | Largest tracked array allocation so far:
  |   Minimum:        3.456 MB (hamiltonian_shell on task 0)
  |   Maximum:        3.456 MB (hamiltonian_shell on task 0)
  |   Average:        3.456 MB
  Note:  These values currently only include a subset of arrays which are explicitly tracked.
  The "true" memory usage will be greater.
------------------------------------------------------------
  Removing unitary transformations (pure translations, rotations) from forces on atoms.
  Atomic forces before filtering:
  | Net force on center of mass :  -0.122682E-07  0.259215E-09 -0.315608E-08 eV/A
  Atomic forces after filtering:
  | Net force on center of mass :  -0.850707E-22  0.000000E+00 -0.212677E-22 eV/A

  Energy and forces in a compact form:
  | Total energy uncorrected      :         -0.158002255427229E+05 eV
  | Total energy corrected        :         -0.158002255427229E+05 eV  <-- do not rely on this value for anything but (periodic) metals
  | Electronic free energy        :         -0.158002255427229E+05 eV
  Total atomic forces (unitary forces cleaned) [eV/Ang]:
  |    1         -0.577774893695394E-06          0.665273903016273E-07          0.110901338442392E-06
  |    2          0.577774893695393E-06         -0.665273903016273E-07         -0.110901338442392E-06

  ------------------------------------
  Start decomposition of the XC Energy
  ------------------------------------
  X and C from original XC functional choice
  Hartree-Fock Energy :          0.000000000 Ha              0.000000000 eV
  X Energy            :        -40.666268639 Ha          -1106.585472109 eV
  C Energy            :         -1.082043167 Ha            -29.443892673 eV
  XC Energy w/o HF    :        -41.748311806 Ha          -1136.029364783 eV
  Total XC Energy     :        -41.748311806 Ha          -1136.029364783 eV
  ------------------------------------
  LDA X and C from self-consistent density
  X Energy LDA        :        -37.597186314 Ha          -1023.071492920 eV
  C Energy LDA        :         -2.143897994 Ha            -58.338432637 eV
  ------------------------------------
  End decomposition of the XC Energy
  ------------------------------------

------------------------------------------------------------
  Relaxation / MD: End force evaluation.       :  max(cpu_time)    wall_clock(cpu1)
  | Time for this force evaluation              :       32.785 s          32.854 s

------------------------------------------------------------
  Geometry optimization: Attempting to predict improved coordinates.

  +-------------------------------------------------------------------+
  | Generalized derivatives on lattice vectors [eV/A]                 |
  +-------------------------------------------------------------------+
  |lattice_vector       0.00000946      -0.00000950      -0.00000950  |
  |lattice_vector      -0.00000947       0.00000943      -0.00000943  |
  |lattice_vector      -0.00000946      -0.00000943       0.00000942  |
  +-------------------------------------------------------------------+
  | Forces on lattice vectors cleaned from atomic contributions [eV/A]|
  +-------------------------------------------------------------------+
  |lattice_vector      -0.00000946       0.00000950       0.00000950  |
  |lattice_vector       0.00000947      -0.00000943       0.00000943  |
  |lattice_vector       0.00000946       0.00000943      -0.00000942  |
  +-------------------------------------------------------------------+
  Removing unitary transformations (pure translations, rotations) from forces on atoms.
  Atomic forces before filtering:
  | Net force on center of mass :  -0.850707E-22  0.000000E+00 -0.212677E-22 eV/A
  Atomic forces after filtering:
  | Net force on center of mass :   0.850707E-22  0.000000E+00  0.212677E-22 eV/A
  Net remaining forces (excluding translations, rotations) in present geometry:
  || Forces on atoms   || =   0.577775E-06 eV/A.
  || Forces on lattice || =   0.950044E-05 eV/A^3.
  Maximum force component is  0.950044E-05 eV/A.
  Present geometry is converged.

------------------------------------------------------------
  Final atomic structure:
                         x [A]             y [A]             z [A]
  lattice_vector         0.00000007        2.81520842        2.81520842
  lattice_vector         2.81520832       -0.00000004        2.81520837
  lattice_vector         2.81520832        2.81520837       -0.00000004

            atom         0.00000002       -0.00000000       -0.00000000  Si
            atom         1.40760416        1.40760419        1.40760419  Si

  Fractional coordinates:
                         L1                L2                L3
       atom_frac        -0.00000000        0.00000000        0.00000000  Si
       atom_frac         0.25000000        0.25000000        0.25000000  Si
------------------------------------------------------------

------------------------------------------------------------------------------
  Final output of selected total energy values:

  The following output summarizes some interesting total energy values
  at the end of a run (AFTER all relaxation, molecular dynamics, etc.).

  | Total energy of the DFT / Hartree-Fock s.c.f. calculation      :         -15800.225542723 eV
  | Final zero-broadening corrected energy (caution - metals only) :         -15800.225542723 eV
  | For reference only, the value of 1 Hartree used in FHI-aims is :             27.211384500 eV
  | For reference only, the overall average (free atom contribution
  | + realspace contribution) of the electrostatic potential after
  | s.c.f. convergence is                                          :            -11.343876278 eV

  Before relying on these values, please be sure to understand exactly which
  total energy value is referred to by a given number. Different objects may
  all carry the same name 'total energy'. Definitions:

  Total energy of the DFT / Hartree-Fock s.c.f. calculation:
  | Note that this energy does not include ANY quantities calculated after the
  | s.c.f. cycle, in particular not ANY RPA, MP2, etc. many-body perturbation terms.

  Final zero-broadening corrected energy:
  | For metallic systems only, a broadening of the occupation numbers at the Fermi
  | level can be extrapolated back to zero broadening by an electron-gas inspired
  | formula. For all systems that are not real metals, this value can be
  | meaningless and should be avoided.

------------------------------------------------------------------------------
  Methods described in the following list of references were used in this FHI-aims run.
  If you publish the results, please make sure to cite these reference if they apply.
  FHI-aims is an academic code, and for our developers (often, Ph.D. students
  and postdocs), scientific credit in the community is essential.
  Thank you for helping us!

  For any use of FHI-aims, please cite:

    Volker Blum, Ralf Gehrke, Felix Hanke, Paula Havu, Ville Havu,
    Xinguo Ren, Karsten Reuter, and Matthias Scheffler
    'Ab initio molecular simulations with numeric atom-centered orbitals'
    Computer Physics Communications 180, 2175-2196 (2009)
    http://doi.org/10.1016/j.cpc.2009.06.022


  For the analytical stress tensor used in your run, please cite:

    Franz Knuth, Christian Carbogno, Viktor Atalla, Volker Blum, Matthias Scheffler
    'All-electron formalism for total energy strain derivatives and
    stress tensor components for numeric atom-centered orbitals'
    Computer Physics Communications 190, 33-50 (2015).
    http://doi.org/10.1016/j.cpc.2015.01.003


  The provided symmetry information was generated with SPGlib:

    Atsushi Togo, Yusuke Seto, Dimitar Pashov
    SPGlib 1.7.3 obtained from http://spglib.sourceforge.net
    Copyright (C) 2008 Atsushi Togo


  The ELSI infrastructure was used in your run to solve the Kohn-Sham electronic structure.
  Please check out http://elsi-interchange.org to learn more.
  If scalability is important for your project, please acknowledge ELSI by citing:

    V. W-z. Yu, F. Corsetti, A. Garcia, W. P. Huhn, M. Jacquelin, W. Jia,
    B. Lange, L. Lin, J. Lu, W. Mi, A. Seifitokaldani, A. Vazquez-Mayagoitia,
    C. Yang, H. Yang, and V. Blum
    'ELSI: A unified software interface for Kohn-Sham electronic structure solvers'
    Computer Physics Communications 222, 267-285 (2018).
    http://doi.org/10.1016/j.cpc.2017.09.007


  For the real-space grid partitioning and parallelization used in this calculation, please cite:

    Ville Havu, Volker Blum, Paula Havu, and Matthias Scheffler,
    'Efficient O(N) integration for all-electron electronic structure calculation'
    'using numerically tabulated basis functions'
    Journal of Computational Physics 228, 8367-8379 (2009).
    http://doi.org/10.1016/j.jcp.2009.08.008

  Of course, there are many other important community references, e.g., those cited in the
  above references. Our list is limited to references that describe implementations in the
  FHI-aims code. The reason is purely practical (length of this list) - please credit others as well.

------------------------------------------------------------
          Leaving FHI-aims.
          Date     :  20230628, Time     :  104439.986

          Computational steps:
          | Number of self-consistency cycles          :           50
          | Number of SCF (re)initializations          :            5
          | Number of relaxation steps                 :            4

          Detailed time accounting                     :  max(cpu_time)    wall_clock(cpu1)
          | Total time                                  :      196.060 s         196.938 s
          | Preparation time                            :        0.110 s           0.111 s
          | Boundary condition initialization           :        0.313 s           0.313 s
          | Grid partitioning                           :        0.169 s           0.168 s
          | Preloading free-atom quantities on grid     :        0.908 s           0.911 s
          | Free-atom superposition energy              :        0.137 s           0.137 s
          | Total time for integrations                 :       22.234 s          22.335 s
          | Total time for solution of K.-S. equations  :        0.238 s           0.235 s
          | Total time for EV reorthonormalization      :        0.003 s           0.003 s
          | Total time for density & force components   :      123.835 s         124.446 s
          | Total time for mixing & preconditioning     :        6.421 s           6.446 s
          | Total time for Hartree multipole update     :        0.059 s           0.059 s
          | Total time for Hartree multipole sum        :       32.131 s          32.238 s
          | Total time for total energy evaluation      :        0.002 s           0.002 s
          | Total time NSC force correction             :        9.394 s           9.429 s
          | Total time for scaled ZORA corrections      :        0.000 s           0.000 s

          Partial memory accounting:
          | Residual value for overall tracked memory usage across tasks:     0.000000 MB (should be 0.000000 MB)
          | Peak values for overall tracked memory usage:
          |   Minimum:       14.236 MB (on task 0 after allocating d_wave)
          |   Maximum:       14.236 MB (on task 0 after allocating d_wave)
          |   Average:       14.236 MB
          | Largest tracked array allocation:
          |   Minimum:        3.456 MB (hamiltonian_shell on task 0)
          |   Maximum:        3.456 MB (hamiltonian_shell on task 0)
          |   Average:        3.456 MB
          Note:  These values currently only include a subset of arrays which are explicitly tracked.
          The "true" memory usage will be greater.

          Have a nice day.
------------------------------------------------------------
