
*************** JDFTx 1.7.0 (git hash e155c65d) ***************

Start date and time: Wed Jun  5 01:17:22 2024
Executable /global/cfs/cdirs/m4025/Software/Perlmutter/JDFTx/build-gpu/jdftx_gpu with command-line: -i in -o out
Running on hosts (process indices):  nid001652 (0-3)
Divided in process groups (process indices):  0 (0)  1 (1)  2 (2)  3 (3)
gpuInit: Found compatible cuda device 0 'NVIDIA A100-SXM4-40GB'
gpuInit: Found compatible cuda device 1 'NVIDIA A100-SXM4-40GB'
gpuInit: Found compatible cuda device 2 'NVIDIA A100-SXM4-40GB'
gpuInit: Found compatible cuda device 3 'NVIDIA A100-SXM4-40GB'
gpuInit: Selected device 0
Resource initialization completed at t[s]:      1.89
Run totals: 4 processes, 128 threads, 4 GPUs
Memory pool size: 36000 MB (per process)


Input parsed successfully to the following command list (including defaults):

band-projection-params yes no
basis kpoint-dependent
converge-empty-states yes
coords-type Cartesian
core-overlap-check none
coulomb-interaction Slab 001
coulomb-truncation-embed 8.21814 4.57743 20.4455
davidson-band-ratio 1.1
dump End State Forces ElecDensity BandEigs BandProjections EigStats Fillings Ecomponents Kpoints
dump
dump
dump
dump-name $VAR
elec-cutoff 25 100
elec-eigen-algo Davidson
elec-ex-corr gga-PBE
elec-initial-magnetization 0.000000 no
elec-n-bands 195
elec-smearing Fermi 0.001
electronic-minimize  \
	dirUpdateScheme      FletcherReeves \
	linminMethod         DirUpdateRecommended \
	nIterations          100 \
	history              15 \
	knormThreshold       0 \
	maxThreshold         no \
	energyDiffThreshold  1e-07 \
	nEnergyDiff          2 \
	alphaTstart          1 \
	alphaTmin            1e-10 \
	updateTestStepSize   yes \
	alphaTreduceFactor   0.1 \
	alphaTincreaseFactor 3 \
	nAlphaAdjustMax      3 \
	wolfeEnergy          0.0001 \
	wolfeGradient        0.9 \
	fdTest               no
exchange-regularization WignerSeitzTruncated
fluid LinearPCM 298.000000 1.013250
fluid-anion F- 0.5 MeanFieldLJ \
	epsBulk 1 \
	pMol 0 \
	epsInf 1 \
	Pvap 0 \
	sigmaBulk 0 \
	Rvdw 2.24877 \
	Res 0 \
	tauNuc 343133
fluid-cation Na+ 0.5 MeanFieldLJ \
	epsBulk 1 \
	pMol 0 \
	epsInf 1 \
	Pvap 0 \
	sigmaBulk 0 \
	Rvdw 2.19208 \
	Res 0 \
	tauNuc 343133
fluid-gummel-loop 10 1.000000e-05
fluid-minimize  \
	dirUpdateScheme      PolakRibiere \
	linminMethod         DirUpdateRecommended \
	nIterations          400 \
	history              15 \
	knormThreshold       1e-11 \
	maxThreshold         no \
	energyDiffThreshold  0 \
	nEnergyDiff          2 \
	alphaTstart          1 \
	alphaTmin            1e-10 \
	updateTestStepSize   yes \
	alphaTreduceFactor   0.1 \
	alphaTincreaseFactor 3 \
	nAlphaAdjustMax      6 \
	wolfeEnergy          0.0001 \
	wolfeGradient        0.9 \
	fdTest               no
fluid-solvent H2O 55.338 ScalarEOS \
	epsBulk 78.4 \
	pMol 0.92466 \
	epsInf 1.77 \
	Pvap 1.06736e-10 \
	sigmaBulk 4.62e-05 \
	Rvdw 2.61727 \
	Res 1.42 \
	tauNuc 343133 \
	poleEl 15 7 1
forces-output-coords Positions
initial-state $VAR
ion C  15.516924000000003   8.971564000000003  29.481543000000002 1
ion C   6.488065000000001   0.181361000000000  23.691129000000000 1
ion C  12.871087000000003   7.441810000000000  19.096961000000004 0
ion C  16.176427000000000   9.352893000000000  14.236068000000001 0
ion C   7.146270000000000   0.561911000000000   8.565711000000002 0
ion C   9.342517000000004   8.971586000000002  29.211711000000012 1
ion C   0.313658000000000   0.181361000000000  23.421311000000003 1
ion C   6.696680000000001   7.441810000000000  18.827140000000004 0
ion C  10.002020000000002   9.352893000000000  13.966247000000001 0
ion C   0.971863000000000   0.561911000000000   8.295891000000001 0
ion C  12.436398000000002   3.620570000000000  29.211701000000005 1
ion C   9.568610000000000   5.532394000000000  23.960954000000005 1
ion C   9.790542000000000   2.090778000000000  18.827140000000000 0
ion C  13.095882000000001   4.001861000000000  13.966247000000001 0
ion C  10.226815000000002   5.912944000000001   8.835533000000002 0
ion C   6.261955000000000   3.620568000000000  28.941891999999999 1
ion C   3.394203000000001   5.532394000000000  23.691130000000005 1
ion C   3.616135000000000   2.090778000000000  18.557319000000000 0
ion C   6.921475000000001   4.001861000000000  13.696426000000004 0
ion C   4.052408000000001   5.912944000000001   8.565712000000001 0
ion Hf   6.174400000000000   0.000001000000000  30.996452000000009 1
ion Hf  12.551139000000001   7.256820000000001  26.543905000000002 1
ion Hf  15.845893000000004   9.161785000000002  21.797228000000008 0
ion Hf   6.815736000000001   0.370803000000000  16.126872000000002 0
ion Hf  13.201620999999999   7.632919000000001  11.535799000000003 0
ion Hf   0.000002000000000   0.000003000000000  30.726629000000006 1
ion Hf   6.376730000000000   7.256823000000001  26.274084000000002 1
ion Hf   9.671486000000002   9.161785000000002  21.527407000000000 0
ion Hf   0.641329000000000   0.370803000000000  15.857051000000004 0
ion Hf   7.027214000000002   7.632919000000001  11.265979000000003 0
ion Hf   9.254951999999999   5.351033000000001  31.266273000000005 1
ion Hf   9.470594000000002   1.905795000000000  26.274069000000008 1
ion Hf  12.765348000000001   3.810752000000000  21.527407000000007 0
ion Hf   9.896281000000002   5.721835000000000  16.396693000000003 0
ion Hf  10.121076000000002   2.281886000000000  11.265979000000002 0
ion Hf  15.429351000000002   5.351028000000001  31.536115000000006 1
ion Hf   3.296185000000000   1.905795000000000  26.004261000000003 1
ion Hf   6.590941000000001   3.810752000000000  21.257586000000003 0
ion Hf   3.721874000000001   5.721835000000000  16.126872000000002 0
ion Hf   3.946669000000001   2.281886000000000  10.996158000000003 0
ion N   9.254951999999999   5.351033000000001  35.914999000000009 1
ion-species /global/homes/b/beri9208/pseudopotentials/GBRV/C.uspp
ion-species /global/homes/b/beri9208/pseudopotentials/GBRV/Hf.uspp
ion-species /global/homes/b/beri9208/pseudopotentials/GBRV/N.uspp
ion-species GBRV/$ID_pbe.uspp
ion-width Ecut
ionic-minimize  \
	dirUpdateScheme      L-BFGS \
	linminMethod         DirUpdateRecommended \
	nIterations          100 \
	history              15 \
	knormThreshold       0.0001 \
	maxThreshold         no \
	energyDiffThreshold  1e-06 \
	nEnergyDiff          2 \
	alphaTstart          1 \
	alphaTmin            1e-10 \
	updateTestStepSize   yes \
	alphaTreduceFactor   0.1 \
	alphaTincreaseFactor 3 \
	nAlphaAdjustMax      3 \
	wolfeEnergy          0.0001 \
	wolfeGradient        0.9 \
	fdTest               no
kpoint   0.000000000000   0.000000000000   0.000000000000  1.00000000000000
kpoint-folding 4 4 1
latt-move-scale 0 0 0
latt-scale 1 1 1
lattice  \
	  12.348814000000001    6.161090000000000    0.000000000000000  \
	   0.000000000000000   10.702064999999999    0.000000000000000  \
	   0.539642000000000    0.539642000000000   70.750715000000000
lattice-minimize  \
	dirUpdateScheme      L-BFGS \
	linminMethod         DirUpdateRecommended \
	nIterations          0 \
	history              15 \
	knormThreshold       0 \
	maxThreshold         no \
	energyDiffThreshold  1e-06 \
	nEnergyDiff          2 \
	alphaTstart          1 \
	alphaTmin            1e-10 \
	updateTestStepSize   yes \
	alphaTreduceFactor   0.1 \
	alphaTincreaseFactor 3 \
	nAlphaAdjustMax      3 \
	wolfeEnergy          0.0001 \
	wolfeGradient        0.9 \
	fdTest               no
lcao-params -1 1e-06 0.001
pcm-variant CANDLE
perturb-minimize  \
	nIterations            0 \
	algorithm              MINRES \
	residualTol            0.0001 \
	residualDiffThreshold  0.0001 \
	CGBypass               no \
	recomputeResidual      no
spintype z-spin
subspace-rotation-factor 1 yes
symmetries none
symmetry-threshold 0.0001
target-mu -0.19 no

van-der-waals D3


Applied RMS atom displacement 0 bohrs to make symmetries exact.

---------- Initializing the Grid ----------
R =
[      12.3488      6.16109            0  ]
[            0      10.7021            0  ]
[     0.539642     0.539642      70.7507  ]
unit cell volume = 9350.26
G =
[   0.508809  -0.292917          0  ]
[          0     0.5871          0  ]
[ -0.00388087 -0.00224385  0.0888074  ]
Minimum fftbox size, Smin = [  56  56  320  ]
Chosen fftbox size, S = [  56  56  320  ]

---------- Exchange Correlation functional ----------
Initalized PBE GGA exchange.
Initalized PBE GGA correlation.

---------- Setting up pseudopotentials ----------
Width of ionic core gaussian charges (only for fluid interactions / plotting) set to 0.355431

Reading pseudopotential file '/global/homes/b/beri9208/pseudopotentials/GBRV/C.uspp':
  Title: C.  Created by USPP 7.3.6 on 3-2-2014
  Reference state energy: -5.406344.  4 valence electrons in orbitals:
    |200>  occupation: 2  eigenvalue: -0.504890
    |210>  occupation: 2  eigenvalue: -0.194356
  lMax: 1  lLocal: 2  QijEcut: 5
  4 projectors sampled on a log grid with 503 points:
    l: 0  eig: -0.504890  rCut: 1.3
    l: 0  eig: 0.000000  rCut: 1.3
    l: 1  eig: -0.194357  rCut: 1.3
    l: 1  eig: 0.000000  rCut: 1.3
  Partial core density with radius 1.1
  Transforming core density to a uniform radial grid of dG=0.02 with 1597 points.
  Transforming local potential to a uniform radial grid of dG=0.02 with 1597 points.
  Transforming nonlocal projectors to a uniform radial grid of dG=0.02 with 483 points.
  Transforming density augmentations to a uniform radial grid of dG=0.02 with 1597 points.
  Transforming atomic orbitals to a uniform radial grid of dG=0.02 with 483 points.
  Core radius for overlap checks: 1.30 bohrs.

Reading pseudopotential file '/global/homes/b/beri9208/pseudopotentials/GBRV/Hf.uspp':
  Title: Hf.  Created by USPP 7.3.6 on 14-9-2013
  Reference state energy: -78.399178.  12 valence electrons in orbitals:
    |500>  occupation: 2  eigenvalue: -3.016121
    |510>  occupation: 6  eigenvalue: -1.860466
    |600>  occupation: 0  eigenvalue: -0.643057
    |610>  occupation: 0  eigenvalue: -0.441591
    |520>  occupation: 2  eigenvalue: -0.613878
  lMax: 3  lLocal: 3  QijEcut: 5
  8 projectors sampled on a log grid with 679 points:
    l: 0  eig: -3.016122  rCut: 1.5
    l: 0  eig: -0.643058  rCut: 1.5
    l: 0  eig: 1.000000  rCut: 1.5
    l: 1  eig: -1.860465  rCut: 1.6
    l: 1  eig: -0.441594  rCut: 1.6
    l: 2  eig: -0.613878  rCut: 1.75
    l: 2  eig: 1.000000  rCut: 1.75
    l: 3  eig: 1.000000  rCut: 2.3
  Partial core density with radius 1
  Transforming core density to a uniform radial grid of dG=0.02 with 1597 points.
  Transforming local potential to a uniform radial grid of dG=0.02 with 1597 points.
  Transforming nonlocal projectors to a uniform radial grid of dG=0.02 with 483 points.
  Transforming density augmentations to a uniform radial grid of dG=0.02 with 1597 points.
  Transforming atomic orbitals to a uniform radial grid of dG=0.02 with 483 points.
  Core radius for overlap checks: 2.30 bohrs.

Reading pseudopotential file '/global/homes/b/beri9208/pseudopotentials/GBRV/N.uspp':
  Title: N.  Created by USPP 7.3.6 on 3-2-2014
  Reference state energy: -9.763716.  5 valence electrons in orbitals:
    |200>  occupation: 2  eigenvalue: -0.681964
    |210>  occupation: 3  eigenvalue: -0.260726
  lMax: 1  lLocal: 2  QijEcut: 6
  4 projectors sampled on a log grid with 491 points:
    l: 0  eig: -0.681964  rCut: 1.15
    l: 0  eig: 0.000000  rCut: 1.15
    l: 1  eig: -0.260729  rCut: 1.2
    l: 1  eig: 0.500000  rCut: 1.2
  Partial core density with radius 0.8
  Transforming core density to a uniform radial grid of dG=0.02 with 1597 points.
  Transforming local potential to a uniform radial grid of dG=0.02 with 1597 points.
  Transforming nonlocal projectors to a uniform radial grid of dG=0.02 with 483 points.
  Transforming density augmentations to a uniform radial grid of dG=0.02 with 1597 points.
  Transforming atomic orbitals to a uniform radial grid of dG=0.02 with 483 points.
  Core radius for overlap checks: 1.20 bohrs.

Initialized 3 species with 41 total atoms.

Folded 1 k-points by 4x4x1 to 16 k-points.

---------- Setting up k-points, bands, fillings ----------
No reducable k-points.
Computing the number of bands and number of electrons
Calculating initial fillings.
nElectrons: 325.000000   nBands: 195   nStates: 32

----- Setting up reduced wavefunction bases (one per k-point) -----
average nbasis = 55826.812 , ideal nbasis = 55824.864

---------- Setting up coulomb interaction ----------
Fluid mode embedding: using embedded box, but periodic Coulomb kernel.
(Fluid response is responsible for (approximate) separation between periodic images.)
Setting up double-sized grid for truncated Coulomb potentials:
R =
[      12.3488      6.16109            0  ]
[            0      10.7021            0  ]
[     0.539642     0.539642      141.501  ]
unit cell volume = 18700.5
G =
[   0.508809  -0.292917          0  ]
[          0     0.5871          0  ]
[ -0.00194044 -0.00112192  0.0444037  ]
Chosen fftbox size, S = [  56  56  640  ]
Integer grid location selected as the embedding center:
   Grid: [  25  24  90  ]
   Lattice: [  0.452104  0.427715  0.282269  ]
   Cartesian: [  8.21814  4.57743  20.4455  ]
Constructing Wigner-Seitz cell: 12 faces (8 quadrilaterals, 4 hexagons)
Range-separation parameter for embedded mesh potentials due to point charges: 0.593199 bohrs.

Initializing DFT-D3 calculator:
	Parameters set for gga-PBE functional
	s6:  1.000  s_r6:  1.217
	s8:  0.722  s_r8:  1.000
	Per-atom parameters loaded for:
	 C:  sqrtQ[a0]:  3.105  Rcov[a0]:  1.417  CN: [ 0.00 0.99 2.00 3.00 3.98 ]
	Hf:  sqrtQ[a0]:  8.207  Rcov[a0]:  2.589  CN: [ 0.00 1.93 3.88 ]
	 N:  sqrtQ[a0]:  2.712  Rcov[a0]:  1.342  CN: [ 0.00 0.99 2.01 2.99 ]

Initializing DFT-D2 calculator for fluid / solvation:
	 C:  C6:   30.35 Eh-a0^6  R0: 2.744 a0
	Hf:  C6:  815.23 Eh-a0^6  R0: 3.326 a0 (WARNING: beyond Grimme's data set)
	 N:  C6:   21.33 Eh-a0^6  R0: 2.640 a0

---------- Setting up ewald sum ----------
Optimum gaussian width for ewald sums = 5.703087 bohr.
Real space sum over 1125 unit cells with max indices [  7  7  2  ]
Reciprocal space sum over 9559 terms with max indices [  5  5  39  ]

Computing DFT-D3 correction:
# coordination-number C 5.917 5.981 5.956 5.940 2.985 5.917 5.981 5.956 5.940 2.985 5.917 5.981 5.956 5.940 2.985 5.917 5.981 5.956 5.940 2.985
# coordination-number Hf 11.130 16.778 16.735 16.625 13.885 11.129 16.778 16.735 16.625 13.885 12.003 16.778 16.735 16.625 13.885 11.130 16.778 16.735 16.625 13.885
# coordination-number N 0.927
# diagonal-C6 C 18.21 18.21 18.21 18.21 25.70 18.21 18.21 18.21 18.21 25.70 18.21 18.21 18.21 18.21 25.70 18.21 18.21 18.21 18.21 25.70
# diagonal-C6 Hf 420.98 420.98 420.98 420.98 420.98 420.98 420.98 420.98 420.98 420.98 420.98 420.98 420.98 420.98 420.98 420.98 420.98 420.98 420.98 420.98
# diagonal-C6 N 22.20
EvdW_6 =   -0.120307
EvdW_8 =   -0.212388

---------- Allocating electronic variables ----------
Initializing wave functions:  linear combination of atomic orbitals
C pseudo-atom occupations:   s ( 2 )  p ( 2 )
Hf pseudo-atom occupations:   s ( 2 2 )  p ( 6 0 )  d ( 2 )
N pseudo-atom occupations:   s ( 2 )  p ( 3 )
	FillingsUpdate:  mu: -0.190000000  nElectrons: 325.000000  magneticMoment: [ Abs: 0.00092  Tot: -0.00002 ]
LCAOMinimize: Iter:   0  G: -1030.0136869927484895  |grad|_K:  9.111e-03  alpha:  1.000e+00
	FillingsUpdate:  mu: -0.190000000  nElectrons: 325.000000  magneticMoment: [ Abs: 0.00230  Tot: -0.00029 ]
LCAOMinimize: Iter:   1  G: -1051.1835761760626156  |grad|_K:  5.741e-03  alpha:  1.647e-02  linmin:  6.084e-02  cgtest:  3.007e-02  t[s]:     30.65
LCAOMinimize: 	Bad step direction: g.d > 0.
LCAOMinimize: 	Undoing step.
LCAOMinimize: 	Step failed: resetting search direction.
	FillingsUpdate:  mu: -0.190000000  nElectrons: 325.000000  magneticMoment: [ Abs: 0.00230  Tot: -0.00029 ]
LCAOMinimize: Iter:   2  G: -1051.1835761760623882  |grad|_K:  5.741e-03  alpha:  0.000e+00
	FillingsUpdate:  mu: -0.190000000  nElectrons: 325.000000  magneticMoment: [ Abs: 0.00240  Tot: -0.00014 ]
LCAOMinimize: Iter:   3  G: -1051.5050612838151665  |grad|_K:  3.444e-03  alpha:  3.484e-03  linmin: -1.624e-01  cgtest:  7.940e-01  t[s]:     34.09
LCAOMinimize: Encountered beta<0, resetting CG.
LCAOMinimize: 	Predicted alpha/alphaT>3.000000, increasing alphaT to 1.045188e-02.
	FillingsUpdate:  mu: -0.190000000  nElectrons: 325.000000  magneticMoment: [ Abs: 0.00220  Tot: +0.00040 ]
LCAOMinimize: Iter:   4  G: -1051.5625942767267134  |grad|_K:  1.606e-02  alpha:  2.923e-02  linmin:  1.766e-02  cgtest: -8.678e-02  t[s]:     36.51
LCAOMinimize: 	Bad step direction: g.d > 0.
LCAOMinimize: 	Undoing step.
LCAOMinimize: 	Step failed: resetting search direction.
	FillingsUpdate:  mu: -0.190000000  nElectrons: 325.000000  magneticMoment: [ Abs: 0.00220  Tot: +0.00040 ]
LCAOMinimize: Iter:   5  G: -1051.5625942767267134  |grad|_K:  1.606e-02  alpha:  0.000e+00
LCAOMinimize: 	Step increased G by 5.777931e-01, reducing alpha to 7.814873e-04.
	FillingsUpdate:  mu: -0.190000000  nElectrons: 325.000000  magneticMoment: [ Abs: 0.00225  Tot: +0.00040 ]
LCAOMinimize: Iter:   6  G: -1052.2101088507374698  |grad|_K:  1.100e-02  alpha:  7.815e-04  linmin: -1.502e-01  cgtest:  1.005e+00  t[s]:     41.38
LCAOMinimize: Encountered beta<0, resetting CG.
LCAOMinimize: 	Predicted alpha/alphaT>3.000000, increasing alphaT to 2.344462e-03.
	FillingsUpdate:  mu: -0.190000000  nElectrons: 325.000000  magneticMoment: [ Abs: 0.00226  Tot: +0.00023 ]
LCAOMinimize: Iter:   7  G: -1052.8183926531824000  |grad|_K:  3.165e-03  alpha:  2.591e-03  linmin: -2.172e-01  cgtest:  4.936e-01  t[s]:     43.82
LCAOMinimize: Encountered beta<0, resetting CG.
LCAOMinimize: 	Predicted alpha/alphaT>3.000000, increasing alphaT to 7.774348e-03.
LCAOMinimize: 	Predicted alpha/alphaT>3.000000, increasing alphaT to 2.332304e-02.
LCAOMinimize: 	Predicted alpha/alphaT>3.000000, increasing alphaT to 6.996913e-02.
	FillingsUpdate:  mu: -0.190000000  nElectrons: 325.000000  magneticMoment: [ Abs: 0.00231  Tot: -0.00059 ]
LCAOMinimize: Iter:   8  G: -1054.7584848979945491  |grad|_K:  8.442e-03  alpha:  1.691e-01  linmin:  1.607e-02  cgtest: -2.255e-01  t[s]:     46.67
	FillingsUpdate:  mu: -0.190000000  nElectrons: 325.000000  magneticMoment: [ Abs: 0.00225  Tot: -0.00030 ]
LCAOMinimize: Iter:   9  G: -1055.0637268259988559  |grad|_K:  5.236e-03  alpha:  2.801e-03  linmin: -1.592e-02  cgtest:  9.669e-01  t[s]:     48.61
LCAOMinimize: Encountered beta<0, resetting CG.
LCAOMinimize: 	Predicted alpha/alphaT>3.000000, increasing alphaT to 8.404456e-03.
	FillingsUpdate:  mu: -0.190000000  nElectrons: 325.000000  magneticMoment: [ Abs: 0.00243  Tot: +0.00056 ]
LCAOMinimize: Iter:  10  G: -1055.5200889504160386  |grad|_K:  6.185e-03  alpha:  8.862e-03  linmin:  1.137e-02  cgtest: -7.707e-02  t[s]:     51.00
LCAOMinimize: 	Wrong curvature in test step, increasing alphaT to 2.658593e-02.
	FillingsUpdate:  mu: -0.190000000  nElectrons: 325.000000  magneticMoment: [ Abs: 0.00234  Tot: -0.00006 ]
LCAOMinimize: Iter:  11  G: -1056.7453347241726078  |grad|_K:  7.835e-03  alpha: -3.862e-02  linmin: -3.970e-02  cgtest:  9.538e-01  t[s]:     52.86
LCAOMinimize: 	Step increased G by 6.062266e+01, reducing alpha to 1.093620e-02.
LCAOMinimize: 	Step increased G by 2.825207e-01, reducing alpha to 1.093620e-03.
	FillingsUpdate:  mu: -0.190000000  nElectrons: 325.000000  magneticMoment: [ Abs: 0.00236  Tot: -0.00012 ]
LCAOMinimize: Iter:  12  G: -1057.0208928498025216  |grad|_K:  6.247e-03  alpha:  1.094e-03  linmin: -1.625e-01  cgtest:  9.874e-01  t[s]:     57.77
LCAOMinimize: Encountered beta<0, resetting CG.
LCAOMinimize: 	Predicted alpha/alphaT>3.000000, increasing alphaT to 3.280859e-03.
	FillingsUpdate:  mu: -0.190000000  nElectrons: 325.000000  magneticMoment: [ Abs: 0.00249  Tot: -0.00014 ]
LCAOMinimize: Iter:  13  G: -1057.3844322587156057  |grad|_K:  3.527e-03  alpha:  5.271e-03  linmin:  4.804e-02  cgtest: -2.629e-01  t[s]:     60.20
LCAOMinimize: 	Predicted alpha/alphaT>3.000000, increasing alphaT to 1.581301e-02.
	FillingsUpdate:  mu: -0.190000000  nElectrons: 325.000000  magneticMoment: [ Abs: 0.00259  Tot: -0.00052 ]
LCAOMinimize: Iter:  14  G: -1057.7863869132870605  |grad|_K:  6.167e-03  alpha:  2.211e-02  linmin: -6.110e-03  cgtest:  7.469e-01  t[s]:     62.59
	FillingsUpdate:  mu: -0.190000000  nElectrons: 325.000000  magneticMoment: [ Abs: 0.00258  Tot: -0.00013 ]
LCAOMinimize: Iter:  15  G: -1058.0947463864763449  |grad|_K:  1.420e-03  alpha:  3.907e-03  linmin:  1.868e-02  cgtest: -5.870e-01  t[s]:     64.55
LCAOMinimize: 	Predicted alpha/alphaT>3.000000, increasing alphaT to 1.172118e-02.
	FillingsUpdate:  mu: -0.190000000  nElectrons: 325.000000  magneticMoment: [ Abs: 0.00262  Tot: -0.00032 ]
LCAOMinimize: Iter:  16  G: -1058.1771697264157410  |grad|_K:  2.606e-03  alpha:  2.728e-02  linmin:  1.239e-03  cgtest:  8.265e-01  t[s]:     66.93
	FillingsUpdate:  mu: -0.190000000  nElectrons: 325.000000  magneticMoment: [ Abs: 0.00266  Tot: -0.00053 ]
LCAOMinimize: Iter:  17  G: -1058.2239692670764271  |grad|_K:  1.486e-03  alpha:  5.188e-03  linmin:  1.859e-02  cgtest: -5.395e-01  t[s]:     68.85
LCAOMinimize: 	Predicted alpha/alphaT>3.000000, increasing alphaT to 1.556303e-02.
	FillingsUpdate:  mu: -0.190000000  nElectrons: 325.000000  magneticMoment: [ Abs: 0.00273  Tot: -0.00067 ]
LCAOMinimize: Iter:  18  G: -1058.2586270937820245  |grad|_K:  2.115e-03  alpha:  1.690e-02  linmin: -2.863e-05  cgtest:  9.651e-01  t[s]:     71.23
	FillingsUpdate:  mu: -0.190000000  nElectrons: 325.000000  magneticMoment: [ Abs: 0.00271  Tot: -0.00062 ]
LCAOMinimize: Iter:  19  G: -1058.2952920440711750  |grad|_K:  1.503e-03  alpha:  5.138e-03  linmin:  1.528e-02  cgtest: -2.804e-01  t[s]:     73.16
LCAOMinimize: 	Predicted alpha/alphaT>3.000000, increasing alphaT to 1.541303e-02.
	FillingsUpdate:  mu: -0.190000000  nElectrons: 325.000000  magneticMoment: [ Abs: 0.00250  Tot: -0.00005 ]
LCAOMinimize: Iter:  20  G: -1058.4315728930389469  |grad|_K:  2.806e-03  alpha:  4.379e-02  linmin:  3.331e-03  cgtest:  7.602e-01  t[s]:     75.54
	FillingsUpdate:  mu: -0.190000000  nElectrons: 325.000000  magneticMoment: [ Abs: 0.00259  Tot: -0.00006 ]
LCAOMinimize: Iter:  21  G: -1058.4319256027911251  |grad|_K:  2.659e-03  alpha:  7.090e-03  linmin:  4.041e-02  cgtest: -9.328e-01  t[s]:     77.47
LCAOMinimize: 	Bad step direction: g.d > 0.
LCAOMinimize: 	Undoing step.
LCAOMinimize: 	Step failed: resetting search direction.
	FillingsUpdate:  mu: -0.190000000  nElectrons: 325.000000  magneticMoment: [ Abs: 0.00259  Tot: -0.00006 ]
LCAOMinimize: Iter:  22  G: -1058.4319256027911251  |grad|_K:  2.659e-03  alpha:  0.000e+00
	FillingsUpdate:  mu: -0.190000000  nElectrons: 325.000000  magneticMoment: [ Abs: 0.00255  Tot: +0.00002 ]
LCAOMinimize: Iter:  23  G: -1058.4764724389544881  |grad|_K:  5.259e-04  alpha:  3.441e-03  linmin:  3.014e-02  cgtest: -1.630e-01  t[s]:     80.86
LCAOMinimize: 	Predicted alpha/alphaT>3.000000, increasing alphaT to 1.032415e-02.
LCAOMinimize: 	Predicted alpha/alphaT>3.000000, increasing alphaT to 3.097244e-02.
	FillingsUpdate:  mu: -0.190000000  nElectrons: 325.000000  magneticMoment: [ Abs: 0.00261  Tot: +0.00002 ]
LCAOMinimize: Iter:  24  G: -1058.4987989863111579  |grad|_K:  3.495e-04  alpha:  4.394e-02  linmin: -5.095e-03  cgtest:  3.661e-01  t[s]:     83.71
	FillingsUpdate:  mu: -0.190000000  nElectrons: 325.000000  magneticMoment: [ Abs: 0.00262  Tot: +0.00001 ]
LCAOMinimize: Iter:  25  G: -1058.4997024773399517  |grad|_K:  1.512e-04  alpha:  3.757e-03  linmin: -1.417e-02  cgtest:  3.897e-02  t[s]:     85.63
LCAOMinimize: 	Predicted alpha/alphaT>3.000000, increasing alphaT to 1.127116e-02.
LCAOMinimize: 	Predicted alpha/alphaT>3.000000, increasing alphaT to 3.381347e-02.
	FillingsUpdate:  mu: -0.190000000  nElectrons: 325.000000  magneticMoment: [ Abs: 0.00265  Tot: +0.00002 ]
LCAOMinimize: Iter:  26  G: -1058.5024418729590252  |grad|_K:  8.741e-05  alpha:  5.815e-02  linmin: -1.530e-02  cgtest:  2.010e-02  t[s]:     88.43
	FillingsUpdate:  mu: -0.190000000  nElectrons: 325.000000  magneticMoment: [ Abs: 0.00268  Tot: +0.00004 ]
LCAOMinimize: Iter:  27  G: -1058.5031634566926186  |grad|_K:  2.742e-04  alpha:  4.368e-02  linmin:  2.153e-03  cgtest: -8.895e-02  t[s]:     90.38
	FillingsUpdate:  mu: -0.190000000  nElectrons: 325.000000  magneticMoment: [ Abs: 0.00273  Tot: +0.00009 ]
LCAOMinimize: Iter:  28  G: -1058.5042718512668216  |grad|_K:  1.644e-04  alpha:  7.406e-03  linmin:  1.800e-03  cgtest:  9.187e-01  t[s]:     92.31
LCAOMinimize: Encountered beta<0, resetting CG.
	FillingsUpdate:  mu: -0.190000000  nElectrons: 325.000000  magneticMoment: [ Abs: 0.00273  Tot: +0.00010 ]
LCAOMinimize: Iter:  29  G: -1058.5044811876480253  |grad|_K:  7.603e-05  alpha:  4.102e-03  linmin: -1.073e-04  cgtest: -4.202e-04  t[s]:     94.24
LCAOMinimize: 	Predicted alpha/alphaT>3.000000, increasing alphaT to 1.230740e-02.
LCAOMinimize: 	Predicted alpha/alphaT>3.000000, increasing alphaT to 3.692219e-02.
	FillingsUpdate:  mu: -0.190000000  nElectrons: 325.000000  magneticMoment: [ Abs: 0.00276  Tot: +0.00012 ]
LCAOMinimize: Iter:  30  G: -1058.5050952745821178  |grad|_K:  4.416e-05  alpha:  5.276e-02  linmin: -3.317e-02  cgtest:  2.992e-01  t[s]:     97.08
LCAOMinimize: None of the convergence criteria satisfied after 30 iterations.
----- createFluidSolver() ----- (Fluid-side solver setup)
   Initializing fluid molecule 'H2O'
     Initializing site 'O'
       Electron density: proportional to exp(-r/0.36935)*erfc((r-0.51523)/0.36823) with norm 6.826
       Charge density: gaussian nuclear width 0.478731 with net site charge 0.826
       Polarizability: cuspless exponential with width 0.32 and norm 3.73
       Hard sphere radius: 2.57003 bohrs
       Positions in reference frame:
         [ +0.000000 +0.000000 +0.000000 ]
     Initializing site 'H'
       Electron density: proportional to exp(-r/0.34641)*erfc((r-0)/0.390882) with norm 0.587
       Charge density: gaussian nuclear width 0.377945 with net site charge -0.413
       Polarizability: cuspless exponential with width 0.39 and norm 3.3
       Positions in reference frame:
         [ +0.000000 -1.441945 +1.122523 ]
         [ +0.000000 +1.441945 +1.122523 ]
     Net charge: 0   dipole magnitude: 0.927204
     Initializing spherical shell mfKernel with radius 2.61727 Bohr
     deltaS corrections:
       site 'O': -7.54299
       site 'H': -6.83917
   Initializing fluid molecule 'Na+'
     Initializing site 'Na'
       Electron density: proportional to exp(-r/0.19682)*erfc((r-0.71491)/0.41314) with norm 8.1383
       Charge density: gaussian nuclear width 0.365347 with net site charge -1
       Hard sphere radius: 1.86327 bohrs
       Positions in reference frame:
         [ +0.000000 +0.000000 +0.000000 ]
     Net charge: -1   dipole magnitude: 0
     Initializing gaussian mfKernel with width: 1.55004 Bohr
     deltaS corrections:
       site 'Na': -22.3555
   Initializing fluid molecule 'F-'
     Initializing site 'F'
       Electron density: proportional to exp(-r/0.38886)*erfc((r-0)/0.438782) with norm 8
       Charge density: gaussian nuclear width 0.374796 with net site charge 1
       Hard sphere radius: 2.39995 bohrs
       Positions in reference frame:
         [ +0.000000 +0.000000 +0.000000 ]
     Net charge: 1   dipole magnitude: 0
     Initializing gaussian mfKernel with width: 1.59012 Bohr
     deltaS corrections:
       site 'F': -9.04335

Correction to mu due to finite nuclear width = -0.0137949
   Cavity determined by nc: 0.00142 and sigma: 0.707107
   Nonlocal vdW cavity from gaussian model electron density with norm = 8 and sigma = 0.993594 bohr
   Charge asymmetry in cavity with sensitivity pCavity = 36.5 e-bohr/Eh
   Electrostatic cavity expanded by eta = 1.46 bohrs
   Weighted density cavitation model constrained by Nbulk: 0.0049383 bohr^-3, Pvap: 3.14029 kPa, Rvdw: 2.61727 bohr and sigmaBulk: 4.62e-05 Eh/bohr^2 at T: 298 K.
   Weighted density dispersion model using vdW pair potentials with single solvent site with sqrtC6eff: 0.77 SI.


---- Citations for features of the code used in this run ----

   Software package:
      R. Sundararaman, K. Letchworth-Weaver, K.A. Schwarz, D. Gunceler, Y. Ozhabes and T.A. Arias, 'JDFTx: software for joint density-functional theory', SoftwareX 6, 278 (2017)

   gga-PBE exchange-correlation functional:
      J.P. Perdew, K. Burke and M. Ernzerhof, Phys. Rev. Lett. 77, 3865 (1996)

   Pseudopotentials:
      KF Garrity, JW Bennett, KM Rabe and D Vanderbilt, Comput. Mater. Sci. 81, 446 (2014)

   Truncated Coulomb potentials:
      R. Sundararaman and T.A. Arias, Phys. Rev. B 87, 165122 (2013)

   DFT-D3 dispersion correction:
      S. Grimme, J. Antony, S. Ehrlich and H. Krieg, J. Chem. Phys. 132, 154104 (2010)

   DFT-D2 dispersion correction:
      S. Grimme, J. Comput. Chem. 27, 1787 (2006)

   Charge-asymmetric nonlocally-determined local-electric (CANDLE) solvation model:
      R. Sundararaman and W.A. Goddard III, J. Chem. Phys. 142, 064107 (2015)

   Total energy minimization with Auxiliary Hamiltonian:
      C. Freysoldt, S. Boeck, and J. Neugebauer, Phys. Rev. B 79, 241103(R) (2009)

   Grand-canonical (fixed-potential) DFT:
      R. Sundararaman, W. A. Goddard III and T. A. Arias, J. Chem. Phys. 146, 114104 (2017)

This list may not be complete. Please suggest additional citations or
report any other bugs at https://github.com/shankar1729/jdftx/issues

Initialization completed successfully at t[s]:     97.80


Computing DFT-D3 correction:
# coordination-number C 5.917 5.981 5.956 5.940 2.985 5.917 5.981 5.956 5.940 2.985 5.917 5.981 5.956 5.940 2.985 5.917 5.981 5.956 5.940 2.985
# coordination-number Hf 11.130 16.778 16.735 16.625 13.885 11.129 16.778 16.735 16.625 13.885 12.003 16.778 16.735 16.625 13.885 11.130 16.778 16.735 16.625 13.885
# coordination-number N 0.927
# diagonal-C6 C 18.21 18.21 18.21 18.21 25.70 18.21 18.21 18.21 18.21 25.70 18.21 18.21 18.21 18.21 25.70 18.21 18.21 18.21 18.21 25.70
# diagonal-C6 Hf 420.98 420.98 420.98 420.98 420.98 420.98 420.98 420.98 420.98 420.98 420.98 420.98 420.98 420.98 420.98 420.98 420.98 420.98 420.98 420.98
# diagonal-C6 N 22.20
EvdW_6 =   -0.120307
EvdW_8 =   -0.212388
Fluid solver invoked on fresh (random / LCAO) wavefunctions
Running a vacuum solve first:

-------- Initial electronic minimization -----------
	FillingsUpdate:  mu: -0.094373879  nElectrons: 325.000000  magneticMoment: [ Abs: 0.00276  Tot: +0.00012 ]
ElecMinimize: Iter:   0  G: -1058.504944771530745  |grad|_K:  3.849e-05  alpha:  1.000e+00
	FillingsUpdate:  mu: -0.125373596  nElectrons: 325.000000  magneticMoment: [ Abs: 0.00286  Tot: +0.00035 ]
	SubspaceRotationAdjust: set factor to 0.53
ElecMinimize: Iter:   1  G: -1058.834042213076145  |grad|_K:  6.844e-05  alpha:  6.386e-01  linmin:  2.100e-04  t[s]:    102.56
	FillingsUpdate:  mu: -0.103836623  nElectrons: 325.000000  magneticMoment: [ Abs: 0.00277  Tot: +0.00054 ]
	SubspaceRotationAdjust: set factor to 0.255
ElecMinimize: Iter:   2  G: -1058.834930873450503  |grad|_K:  5.703e-05  alpha:  9.859e-03  linmin:  3.651e-02  t[s]:    104.62
ElecMinimize: 	Predicted alpha/alphaT>3.000000, increasing alphaT to 2.957704e-02.
	FillingsUpdate:  mu: -0.076572152  nElectrons: 325.000000  magneticMoment: [ Abs: 0.00275  Tot: +0.00059 ]
	SubspaceRotationAdjust: set factor to 0.153
ElecMinimize: Iter:   3  G: -1058.846426540816992  |grad|_K:  4.106e-05  alpha:  3.424e-02  linmin:  2.068e-04  t[s]:    107.24
	FillingsUpdate:  mu: -0.076467690  nElectrons: 325.000000  magneticMoment: [ Abs: 0.00284  Tot: +0.00056 ]
	SubspaceRotationAdjust: set factor to 0.109
	SubspaceRotationAdjust: resetting CG because factor has changed by 0.109225
ElecMinimize: 	State modified externally: resetting search direction.
ElecMinimize: Iter:   4  G: -1058.858141535923096  |grad|_K:  1.607e-05  alpha:  1.925e-02
ElecMinimize: 	Predicted alpha/alphaT>3.000000, increasing alphaT to 5.775676e-02.
ElecMinimize: 	Predicted alpha/alphaT>3.000000, increasing alphaT to 1.732703e-01.
	FillingsUpdate:  mu: -0.090573115  nElectrons: 325.000000  magneticMoment: [ Abs: 0.00270  Tot: +0.00070 ]
	SubspaceRotationAdjust: set factor to 0.0676
ElecMinimize: Iter:   5  G: -1058.895252477901295  |grad|_K:  1.666e-05  alpha:  4.085e-01  linmin: -1.454e-03  t[s]:    113.67
	FillingsUpdate:  mu: -0.090204359  nElectrons: 325.000000  magneticMoment: [ Abs: 0.00273  Tot: +0.00069 ]
	SubspaceRotationAdjust: set factor to 0.13
ElecMinimize: Iter:   6  G: -1058.900325477176239  |grad|_K:  6.706e-06  alpha:  3.959e-02  linmin: -2.280e-02  t[s]:    115.70
ElecMinimize: 	Predicted alpha/alphaT>3.000000, increasing alphaT to 1.187718e-01.
	FillingsUpdate:  mu: -0.085362701  nElectrons: 325.000000  magneticMoment: [ Abs: 0.00274  Tot: +0.00067 ]
	SubspaceRotationAdjust: set factor to 0.0795
ElecMinimize: Iter:   7  G: -1058.903016553206953  |grad|_K:  1.252e-05  alpha:  1.326e-01  linmin:  1.097e-03  t[s]:    118.31
	FillingsUpdate:  mu: -0.077380693  nElectrons: 325.000000  magneticMoment: [ Abs: 0.00269  Tot: +0.00074 ]
	SubspaceRotationAdjust: set factor to 0.0473
ElecMinimize: Iter:   8  G: -1058.909066350292505  |grad|_K:  1.216e-05  alpha:  1.130e-01  linmin:  1.489e-05  t[s]:    120.36
	FillingsUpdate:  mu: -0.078522813  nElectrons: 325.000000  magneticMoment: [ Abs: 0.00264  Tot: +0.00081 ]
	SubspaceRotationAdjust: set factor to 0.0842
ElecMinimize: Iter:   9  G: -1058.911594329985292  |grad|_K:  5.490e-06  alpha:  5.238e-02  linmin:  1.303e-03  t[s]:    122.38
	FillingsUpdate:  mu: -0.080102422  nElectrons: 325.000000  magneticMoment: [ Abs: 0.00260  Tot: +0.00087 ]
	SubspaceRotationAdjust: set factor to 0.0671
ElecMinimize: Iter:  10  G: -1058.913009996389746  |grad|_K:  6.954e-06  alpha:  1.355e-01  linmin: -1.211e-03  t[s]:    124.48
	FillingsUpdate:  mu: -0.086420174  nElectrons: 325.000000  magneticMoment: [ Abs: 0.00263  Tot: +0.00097 ]
	SubspaceRotationAdjust: set factor to 0.055
ElecMinimize: Iter:  11  G: -1058.915992957032358  |grad|_K:  3.739e-06  alpha:  1.682e-01  linmin:  1.806e-05  t[s]:    126.54
	FillingsUpdate:  mu: -0.084532077  nElectrons: 325.000000  magneticMoment: [ Abs: 0.00265  Tot: +0.00098 ]
	SubspaceRotationAdjust: set factor to 0.0427
ElecMinimize: Iter:  12  G: -1058.916422106638265  |grad|_K:  2.394e-06  alpha:  8.719e-02  linmin: -1.200e-04  t[s]:    128.61
ElecMinimize: 	Predicted alpha/alphaT>3.000000, increasing alphaT to 2.615600e-01.
	FillingsUpdate:  mu: -0.088368320  nElectrons: 325.000000  magneticMoment: [ Abs: 0.00268  Tot: +0.00105 ]
	SubspaceRotationAdjust: set factor to 0.0291
ElecMinimize: Iter:  13  G: -1058.917109017649182  |grad|_K:  3.172e-06  alpha:  3.419e-01  linmin: -9.213e-06  t[s]:    131.23
	FillingsUpdate:  mu: -0.085028893  nElectrons: 325.000000  magneticMoment: [ Abs: 0.00269  Tot: +0.00112 ]
	SubspaceRotationAdjust: set factor to 0.041
ElecMinimize: Iter:  14  G: -1058.917644293140938  |grad|_K:  1.945e-06  alpha:  1.566e-01  linmin:  2.406e-04  t[s]:    133.26
	FillingsUpdate:  mu: -0.086865462  nElectrons: 325.000000  magneticMoment: [ Abs: 0.00270  Tot: +0.00119 ]
	SubspaceRotationAdjust: set factor to 0.036
ElecMinimize: Iter:  15  G: -1058.918034711385872  |grad|_K:  2.382e-06  alpha:  2.961e-01  linmin: -4.353e-04  t[s]:    135.34
	FillingsUpdate:  mu: -0.087421796  nElectrons: 325.000000  magneticMoment: [ Abs: 0.00276  Tot: +0.00130 ]
	SubspaceRotationAdjust: set factor to 0.0529
ElecMinimize: Iter:  16  G: -1058.918566427393898  |grad|_K:  1.666e-06  alpha:  2.612e-01  linmin:  1.721e-05  t[s]:    137.36
	FillingsUpdate:  mu: -0.085572455  nElectrons: 325.000000  magneticMoment: [ Abs: 0.00281  Tot: +0.00137 ]
	SubspaceRotationAdjust: set factor to 0.0456
ElecMinimize: Iter:  17  G: -1058.918835267699478  |grad|_K:  1.917e-06  alpha:  2.779e-01  linmin:  1.942e-05  t[s]:    139.43
	FillingsUpdate:  mu: -0.086982861  nElectrons: 325.000000  magneticMoment: [ Abs: 0.00287  Tot: +0.00149 ]
	SubspaceRotationAdjust: set factor to 0.0585
ElecMinimize: Iter:  18  G: -1058.919146240264126  |grad|_K:  1.371e-06  alpha:  2.435e-01  linmin: -5.710e-05  t[s]:    141.47
	FillingsUpdate:  mu: -0.087254851  nElectrons: 325.000000  magneticMoment: [ Abs: 0.00295  Tot: +0.00164 ]
	SubspaceRotationAdjust: set factor to 0.0461
ElecMinimize: Iter:  19  G: -1058.919452619417825  |grad|_K:  2.049e-06  alpha:  4.568e-01  linmin: -2.864e-04  t[s]:    143.55
	FillingsUpdate:  mu: -0.085891182  nElectrons: 325.000000  magneticMoment: [ Abs: 0.00309  Tot: +0.00183 ]
	SubspaceRotationAdjust: set factor to 0.0403
ElecMinimize: Iter:  20  G: -1058.919773764641377  |grad|_K:  1.467e-06  alpha:  2.090e-01  linmin: -5.673e-05  t[s]:    145.58
	FillingsUpdate:  mu: -0.084772449  nElectrons: 325.000000  magneticMoment: [ Abs: 0.00331  Tot: +0.00211 ]
	SubspaceRotationAdjust: set factor to 0.042
ElecMinimize: Iter:  21  G: -1058.920139994908595  |grad|_K:  1.591e-06  alpha:  4.866e-01  linmin:  1.082e-04  t[s]:    147.64
	FillingsUpdate:  mu: -0.087151811  nElectrons: 325.000000  magneticMoment: [ Abs: 0.00344  Tot: +0.00229 ]
	SubspaceRotationAdjust: set factor to 0.0349
ElecMinimize: Iter:  22  G: -1058.920340617297825  |grad|_K:  1.234e-06  alpha:  2.394e-01  linmin:  1.221e-04  t[s]:    149.67
	FillingsUpdate:  mu: -0.087283037  nElectrons: 325.000000  magneticMoment: [ Abs: 0.00370  Tot: +0.00260 ]
	SubspaceRotationAdjust: set factor to 0.042
ElecMinimize: Iter:  23  G: -1058.920606749597937  |grad|_K:  1.159e-06  alpha:  5.091e-01  linmin: -3.311e-05  t[s]:    151.73
	FillingsUpdate:  mu: -0.085432960  nElectrons: 325.000000  magneticMoment: [ Abs: 0.00389  Tot: +0.00281 ]
	SubspaceRotationAdjust: set factor to 0.0338
ElecMinimize: Iter:  24  G: -1058.920755539539641  |grad|_K:  1.072e-06  alpha:  3.140e-01  linmin: -9.709e-06  t[s]:    153.75
	FillingsUpdate:  mu: -0.087028257  nElectrons: 325.000000  magneticMoment: [ Abs: 0.00415  Tot: +0.00310 ]
	SubspaceRotationAdjust: set factor to 0.0405
ElecMinimize: Iter:  25  G: -1058.920916231488718  |grad|_K:  7.237e-07  alpha:  4.001e-01  linmin: -3.182e-05  t[s]:    155.81
	FillingsUpdate:  mu: -0.088083732  nElectrons: 325.000000  magneticMoment: [ Abs: 0.00432  Tot: +0.00328 ]
	SubspaceRotationAdjust: set factor to 0.0376
ElecMinimize: Iter:  26  G: -1058.920988059698402  |grad|_K:  6.490e-07  alpha:  3.915e-01  linmin: -2.353e-05  t[s]:    157.84
	FillingsUpdate:  mu: -0.087104501  nElectrons: 325.000000  magneticMoment: [ Abs: 0.00449  Tot: +0.00345 ]
	SubspaceRotationAdjust: set factor to 0.0311
ElecMinimize: Iter:  27  G: -1058.921032299705075  |grad|_K:  4.744e-07  alpha:  3.001e-01  linmin:  7.860e-06  t[s]:    159.92
	FillingsUpdate:  mu: -0.087026970  nElectrons: 325.000000  magneticMoment: [ Abs: 0.00472  Tot: +0.00368 ]
	SubspaceRotationAdjust: set factor to 0.0371
ElecMinimize: Iter:  28  G: -1058.921069971624547  |grad|_K:  3.914e-07  alpha:  4.800e-01  linmin:  1.488e-06  t[s]:    161.97
	FillingsUpdate:  mu: -0.087785719  nElectrons: 325.000000  magneticMoment: [ Abs: 0.00490  Tot: +0.00387 ]
	SubspaceRotationAdjust: set factor to 0.0333
ElecMinimize: Iter:  29  G: -1058.921091315100057  |grad|_K:  3.280e-07  alpha:  3.994e-01  linmin: -3.309e-06  t[s]:    164.03
	FillingsUpdate:  mu: -0.087135656  nElectrons: 325.000000  magneticMoment: [ Abs: 0.00509  Tot: +0.00406 ]
	SubspaceRotationAdjust: set factor to 0.0315
ElecMinimize: Iter:  30  G: -1058.921104216627555  |grad|_K:  2.453e-07  alpha:  3.434e-01  linmin:  1.034e-05  t[s]:    166.06
	FillingsUpdate:  mu: -0.087112660  nElectrons: 325.000000  magneticMoment: [ Abs: 0.00535  Tot: +0.00432 ]
	SubspaceRotationAdjust: set factor to 0.0377
ElecMinimize: Iter:  31  G: -1058.921115662288912  |grad|_K:  2.177e-07  alpha:  5.453e-01  linmin:  9.313e-07  t[s]:    168.13
	FillingsUpdate:  mu: -0.087690371  nElectrons: 325.000000  magneticMoment: [ Abs: 0.00563  Tot: +0.00460 ]
	SubspaceRotationAdjust: set factor to 0.0354
ElecMinimize: Iter:  32  G: -1058.921123813510803  |grad|_K:  2.282e-07  alpha:  4.927e-01  linmin: -5.661e-08  t[s]:    170.19
	FillingsUpdate:  mu: -0.087231768  nElectrons: 325.000000  magneticMoment: [ Abs: 0.00596  Tot: +0.00492 ]
	SubspaceRotationAdjust: set factor to 0.0338
ElecMinimize: Iter:  33  G: -1058.921130567777482  |grad|_K:  1.737e-07  alpha:  3.711e-01  linmin:  9.511e-06  t[s]:    172.26
	FillingsUpdate:  mu: -0.087258697  nElectrons: 325.000000  magneticMoment: [ Abs: 0.00639  Tot: +0.00534 ]
	SubspaceRotationAdjust: set factor to 0.0397
ElecMinimize: Iter:  34  G: -1058.921136735621303  |grad|_K:  1.631e-07  alpha:  5.861e-01  linmin: -2.237e-07  t[s]:    174.31
	FillingsUpdate:  mu: -0.087588247  nElectrons: 325.000000  magneticMoment: [ Abs: 0.00687  Tot: +0.00581 ]
	SubspaceRotationAdjust: set factor to 0.0391
ElecMinimize: Iter:  35  G: -1058.921141673111151  |grad|_K:  1.735e-07  alpha:  5.322e-01  linmin: -5.251e-06  t[s]:    176.38
	FillingsUpdate:  mu: -0.087083488  nElectrons: 325.000000  magneticMoment: [ Abs: 0.00741  Tot: +0.00634 ]
	SubspaceRotationAdjust: set factor to 0.0331
ElecMinimize: Iter:  36  G: -1058.921145870112923  |grad|_K:  1.627e-07  alpha:  3.986e-01  linmin:  1.295e-05  t[s]:    178.41
	FillingsUpdate:  mu: -0.087313645  nElectrons: 325.000000  magneticMoment: [ Abs: 0.00812  Tot: +0.00704 ]
	SubspaceRotationAdjust: set factor to 0.0349
ElecMinimize: Iter:  37  G: -1058.921150182576639  |grad|_K:  1.296e-07  alpha:  4.674e-01  linmin: -1.081e-05  t[s]:    180.46
	FillingsUpdate:  mu: -0.087424070  nElectrons: 325.000000  magneticMoment: [ Abs: 0.00884  Tot: +0.00775 ]
	SubspaceRotationAdjust: set factor to 0.0369
ElecMinimize: Iter:  38  G: -1058.921153505075608  |grad|_K:  1.194e-07  alpha:  5.664e-01  linmin: -7.275e-06  t[s]:    182.53
	FillingsUpdate:  mu: -0.087084835  nElectrons: 325.000000  magneticMoment: [ Abs: 0.00951  Tot: +0.00839 ]
	SubspaceRotationAdjust: set factor to 0.0319
ElecMinimize: Iter:  39  G: -1058.921155743858662  |grad|_K:  1.170e-07  alpha:  4.493e-01  linmin:  1.456e-05  t[s]:    184.65
	FillingsUpdate:  mu: -0.087367159  nElectrons: 325.000000  magneticMoment: [ Abs: 0.01020  Tot: +0.00908 ]
	SubspaceRotationAdjust: set factor to 0.0284
ElecMinimize: Iter:  40  G: -1058.921157569463958  |grad|_K:  8.583e-08  alpha:  3.827e-01  linmin: -4.815e-06  t[s]:    186.67
	FillingsUpdate:  mu: -0.087353241  nElectrons: 325.000000  magneticMoment: [ Abs: 0.01094  Tot: +0.00979 ]
	SubspaceRotationAdjust: set factor to 0.0317
ElecMinimize: Iter:  41  G: -1058.921158928452996  |grad|_K:  7.084e-08  alpha:  5.285e-01  linmin:  3.145e-06  t[s]:    188.73
	FillingsUpdate:  mu: -0.087194446  nElectrons: 325.000000  magneticMoment: [ Abs: 0.01156  Tot: +0.01039 ]
	SubspaceRotationAdjust: set factor to 0.0303
ElecMinimize: Iter:  42  G: -1058.921159751069354  |grad|_K:  6.211e-08  alpha:  4.697e-01  linmin:  9.207e-06  t[s]:    190.75
	FillingsUpdate:  mu: -0.087339396  nElectrons: 325.000000  magneticMoment: [ Abs: 0.01221  Tot: +0.01102 ]
	SubspaceRotationAdjust: set factor to 0.0272
ElecMinimize: Iter:  43  G: -1058.921160340225924  |grad|_K:  5.278e-08  alpha:  4.379e-01  linmin: -2.408e-06  t[s]:    192.85
	FillingsUpdate:  mu: -0.087271991  nElectrons: 325.000000  magneticMoment: [ Abs: 0.01293  Tot: +0.01172 ]
	SubspaceRotationAdjust: set factor to 0.0301
ElecMinimize: Iter:  44  G: -1058.921160802538907  |grad|_K:  4.078e-08  alpha:  4.755e-01  linmin:  7.201e-06  t[s]:    194.91
	FillingsUpdate:  mu: -0.087216101  nElectrons: 325.000000  magneticMoment: [ Abs: 0.01365  Tot: +0.01242 ]
	SubspaceRotationAdjust: set factor to 0.0324
ElecMinimize: Iter:  45  G: -1058.921161112823256  |grad|_K:  3.588e-08  alpha:  5.348e-01  linmin: -5.281e-06  t[s]:    196.99
	FillingsUpdate:  mu: -0.087314636  nElectrons: 325.000000  magneticMoment: [ Abs: 0.01437  Tot: +0.01311 ]
	SubspaceRotationAdjust: set factor to 0.0306
ElecMinimize: Iter:  46  G: -1058.921161321312411  |grad|_K:  3.434e-08  alpha:  4.639e-01  linmin: -3.518e-07  t[s]:    199.06
	FillingsUpdate:  mu: -0.087249331  nElectrons: 325.000000  magneticMoment: [ Abs: 0.01536  Tot: +0.01407 ]
	SubspaceRotationAdjust: set factor to 0.032
ElecMinimize: Iter:  47  G: -1058.921161524438276  |grad|_K:  2.972e-08  alpha:  4.936e-01  linmin:  7.363e-06  t[s]:    201.13
	FillingsUpdate:  mu: -0.087247848  nElectrons: 325.000000  magneticMoment: [ Abs: 0.01668  Tot: +0.01535 ]
	SubspaceRotationAdjust: set factor to 0.0366
ElecMinimize: Iter:  48  G: -1058.921161718944177  |grad|_K:  2.959e-08  alpha:  6.313e-01  linmin:  1.377e-06  t[s]:    203.20
	FillingsUpdate:  mu: -0.087309626  nElectrons: 325.000000  magneticMoment: [ Abs: 0.01831  Tot: +0.01693 ]
	SubspaceRotationAdjust: set factor to 0.0377
ElecMinimize: Iter:  49  G: -1058.921161901095047  |grad|_K:  3.289e-08  alpha:  5.964e-01  linmin:  1.492e-06  t[s]:    205.31
	FillingsUpdate:  mu: -0.087204280  nElectrons: 325.000000  magneticMoment: [ Abs: 0.02034  Tot: +0.01890 ]
	SubspaceRotationAdjust: set factor to 0.0349
ElecMinimize: Iter:  50  G: -1058.921162081653847  |grad|_K:  3.625e-08  alpha:  4.781e-01  linmin:  5.080e-06  t[s]:    207.33
	FillingsUpdate:  mu: -0.087272964  nElectrons: 325.000000  magneticMoment: [ Abs: 0.02421  Tot: +0.02265 ]
	SubspaceRotationAdjust: set factor to 0.0362
ElecMinimize: Iter:  51  G: -1058.921162372239905  |grad|_K:  4.153e-08  alpha:  6.339e-01  linmin: -1.257e-05  t[s]:    209.40
	FillingsUpdate:  mu: -0.087266910  nElectrons: 325.000000  magneticMoment: [ Abs: 0.03189  Tot: +0.03008 ]
	SubspaceRotationAdjust: set factor to 0.0396
ElecMinimize: Iter:  52  G: -1058.921162880751808  |grad|_K:  5.578e-08  alpha:  8.437e-01  linmin:  3.115e-06  t[s]:    211.44
	FillingsUpdate:  mu: -0.087094511  nElectrons: 325.000000  magneticMoment: [ Abs: 0.05226  Tot: +0.04972 ]
	SubspaceRotationAdjust: set factor to 0.0409
ElecMinimize: Iter:  53  G: -1058.921164104674290  |grad|_K:  1.109e-07  alpha:  1.138e+00  linmin:  8.533e-05  t[s]:    213.53
	FillingsUpdate:  mu: -0.087459008  nElectrons: 325.000000  magneticMoment: [ Abs: 0.13928  Tot: +0.13314 ]
	SubspaceRotationAdjust: set factor to 0.0417
ElecMinimize: Iter:  54  G: -1058.921169143443421  |grad|_K:  2.810e-07  alpha:  1.204e+00  linmin: -1.016e-05  t[s]:    215.59
	FillingsUpdate:  mu: -0.087470946  nElectrons: 325.000000  magneticMoment: [ Abs: 0.15378  Tot: +0.14706 ]
	SubspaceRotationAdjust: set factor to 0.0479
ElecMinimize: Iter:  55  G: -1058.921170952838338  |grad|_K:  3.012e-07  alpha:  3.159e-02  linmin: -1.297e-03  t[s]:    217.65
ElecMinimize: 	Wrong curvature in test step, increasing alphaT to 9.475977e-02.
	FillingsUpdate:  mu: -0.087397244  nElectrons: 325.000000  magneticMoment: [ Abs: 0.17063  Tot: +0.16315 ]
	SubspaceRotationAdjust: set factor to 0.0553
ElecMinimize: Iter:  56  G: -1058.921175253557749  |grad|_K:  3.113e-07  alpha: -1.517e+01  linmin: -2.455e-03  t[s]:    219.55
	FillingsUpdate:  mu: -0.087136401  nElectrons: 325.000000  magneticMoment: [ Abs: 0.20851  Tot: +0.19932 ]
	SubspaceRotationAdjust: set factor to 0.0664
ElecMinimize: Iter:  57  G: -1058.921185293065946  |grad|_K:  3.466e-07  alpha:  6.641e-02  linmin: -3.913e-03  t[s]:    221.63
ElecMinimize: 	Predicted alpha/alphaT>3.000000, increasing alphaT to 1.992374e-01.
	FillingsUpdate:  mu: -0.085878551  nElectrons: 325.000000  magneticMoment: [ Abs: 0.36283  Tot: +0.34540 ]
	SubspaceRotationAdjust: set factor to 0.0406
ElecMinimize: Iter:  58  G: -1058.921219394243280  |grad|_K:  1.184e-06  alpha:  2.274e-01  linmin:  1.484e-03  t[s]:    224.25
ElecMinimize: 	Bad step direction: g.d > 0.
ElecMinimize: 	Undoing step.
ElecMinimize: 	Step failed: resetting search direction.
	FillingsUpdate:  mu: -0.085878551  nElectrons: 325.000000  magneticMoment: [ Abs: 0.36283  Tot: +0.34540 ]
	SubspaceRotationAdjust: set factor to 0.0277
ElecMinimize: Iter:  59  G: -1058.921219394243735  |grad|_K:  9.773e-07  alpha:  0.000e+00
	FillingsUpdate:  mu: -0.088031323  nElectrons: 325.000000  magneticMoment: [ Abs: 0.36392  Tot: +0.34632 ]
	SubspaceRotationAdjust: set factor to 0.018
ElecMinimize: Iter:  60  G: -1058.921270065711042  |grad|_K:  3.929e-07  alpha:  1.528e-01  linmin: -2.703e-05  t[s]:    227.80
ElecMinimize: 	Predicted alpha/alphaT>3.000000, increasing alphaT to 4.584126e-01.
	FillingsUpdate:  mu: -0.087602885  nElectrons: 325.000000  magneticMoment: [ Abs: 0.37483  Tot: +0.35663 ]
	SubspaceRotationAdjust: set factor to 0.0226
ElecMinimize: Iter:  61  G: -1058.921319109788783  |grad|_K:  4.616e-07  alpha:  9.104e-01  linmin:  2.290e-06  t[s]:    230.42
	FillingsUpdate:  mu: -0.086590283  nElectrons: 325.000000  magneticMoment: [ Abs: 0.39049  Tot: +0.37129 ]
	SubspaceRotationAdjust: set factor to 0.0253
ElecMinimize: Iter:  62  G: -1058.921367615614827  |grad|_K:  4.284e-07  alpha:  6.520e-01  linmin:  1.641e-05  t[s]:    232.44
	FillingsUpdate:  mu: -0.087615618  nElectrons: 325.000000  magneticMoment: [ Abs: 0.41007  Tot: +0.38942 ]
	SubspaceRotationAdjust: set factor to 0.0253
ElecMinimize: Iter:  63  G: -1058.921411292928497  |grad|_K:  5.004e-07  alpha:  6.819e-01  linmin: -7.843e-05  t[s]:    234.54
	FillingsUpdate:  mu: -0.087020497  nElectrons: 325.000000  magneticMoment: [ Abs: 0.45177  Tot: +0.42831 ]
	SubspaceRotationAdjust: set factor to 0.024
ElecMinimize: Iter:  64  G: -1058.921484132644991  |grad|_K:  6.084e-07  alpha:  8.328e-01  linmin:  1.276e-04  t[s]:    236.58
	FillingsUpdate:  mu: -0.087755463  nElectrons: 325.000000  magneticMoment: [ Abs: 0.51697  Tot: +0.48868 ]
	SubspaceRotationAdjust: set factor to 0.0267
ElecMinimize: Iter:  65  G: -1058.921589967373166  |grad|_K:  6.270e-07  alpha:  8.249e-01  linmin:  1.279e-05  t[s]:    238.65
	FillingsUpdate:  mu: -0.088150716  nElectrons: 325.000000  magneticMoment: [ Abs: 0.58959  Tot: +0.55542 ]
	SubspaceRotationAdjust: set factor to 0.0273
ElecMinimize: Iter:  66  G: -1058.921703607528571  |grad|_K:  6.754e-07  alpha:  8.291e-01  linmin:  4.478e-05  t[s]:    240.68
	FillingsUpdate:  mu: -0.086879357  nElectrons: 325.000000  magneticMoment: [ Abs: 0.65495  Tot: +0.61538 ]
	SubspaceRotationAdjust: set factor to 0.0243
ElecMinimize: Iter:  67  G: -1058.921798979706409  |grad|_K:  6.933e-07  alpha:  6.064e-01  linmin: -4.874e-05  t[s]:    242.82
	FillingsUpdate:  mu: -0.088624674  nElectrons: 325.000000  magneticMoment: [ Abs: 0.72431  Tot: +0.67809 ]
	SubspaceRotationAdjust: set factor to 0.0223
ElecMinimize: Iter:  68  G: -1058.921900502864673  |grad|_K:  6.732e-07  alpha:  6.032e-01  linmin:  1.773e-04  t[s]:    244.85
	FillingsUpdate:  mu: -0.088728366  nElectrons: 325.000000  magneticMoment: [ Abs: 0.80921  Tot: +0.75404 ]
	SubspaceRotationAdjust: set factor to 0.0261
ElecMinimize: Iter:  69  G: -1058.922020554288338  |grad|_K:  6.777e-07  alpha:  7.670e-01  linmin: -1.084e-04  t[s]:    246.93
	FillingsUpdate:  mu: -0.087524842  nElectrons: 325.000000  magneticMoment: [ Abs: 0.89727  Tot: +0.83137 ]
	SubspaceRotationAdjust: set factor to 0.0273
ElecMinimize: Iter:  70  G: -1058.922148440226010  |grad|_K:  7.308e-07  alpha:  7.900e-01  linmin: -2.459e-04  t[s]:    249.03
	FillingsUpdate:  mu: -0.088434211  nElectrons: 325.000000  magneticMoment: [ Abs: 0.97831  Tot: +0.90041 ]
	SubspaceRotationAdjust: set factor to 0.0256
ElecMinimize: Iter:  71  G: -1058.922268873064013  |grad|_K:  7.876e-07  alpha:  6.293e-01  linmin:  1.211e-04  t[s]:    251.07
	FillingsUpdate:  mu: -0.088680606  nElectrons: 325.000000  magneticMoment: [ Abs: 1.07798  Tot: +0.98342 ]
	SubspaceRotationAdjust: set factor to 0.0275
ElecMinimize: Iter:  72  G: -1058.922411638324547  |grad|_K:  7.414e-07  alpha:  6.650e-01  linmin: -1.134e-04  t[s]:    253.17
	FillingsUpdate:  mu: -0.088270678  nElectrons: 325.000000  magneticMoment: [ Abs: 1.17359  Tot: +1.05944 ]
	SubspaceRotationAdjust: set factor to 0.0322
ElecMinimize: Iter:  73  G: -1058.922551011693713  |grad|_K:  7.963e-07  alpha:  7.205e-01  linmin:  7.606e-05  t[s]:    255.24
	FillingsUpdate:  mu: -0.088796011  nElectrons: 325.000000  magneticMoment: [ Abs: 1.28013  Tot: +1.13837 ]
	SubspaceRotationAdjust: set factor to 0.0343
ElecMinimize: Iter:  74  G: -1058.922703415594015  |grad|_K:  7.909e-07  alpha:  6.951e-01  linmin: -4.797e-04  t[s]:    257.29
	FillingsUpdate:  mu: -0.087247089  nElectrons: 325.000000  magneticMoment: [ Abs: 1.36929  Tot: +1.20062 ]
	SubspaceRotationAdjust: set factor to 0.033
ElecMinimize: Iter:  75  G: -1058.922835999132985  |grad|_K:  9.445e-07  alpha:  5.698e-01  linmin:  4.752e-04  t[s]:    259.32
	FillingsUpdate:  mu: -0.088216027  nElectrons: 325.000000  magneticMoment: [ Abs: 1.49791  Tot: +1.28054 ]
	SubspaceRotationAdjust: set factor to 0.0423
ElecMinimize: Iter:  76  G: -1058.923010647675255  |grad|_K:  9.405e-07  alpha:  5.813e-01  linmin: -3.682e-04  t[s]:    261.37
	FillingsUpdate:  mu: -0.087419930  nElectrons: 325.000000  magneticMoment: [ Abs: 1.61179  Tot: +1.34525 ]
	SubspaceRotationAdjust: set factor to 0.0412
ElecMinimize: Iter:  77  G: -1058.923179338777572  |grad|_K:  1.153e-06  alpha:  5.250e-01  linmin:  2.936e-04  t[s]:    263.39
	FillingsUpdate:  mu: -0.088652691  nElectrons: 325.000000  magneticMoment: [ Abs: 1.74796  Tot: +1.42565 ]
	SubspaceRotationAdjust: set factor to 0.0482
ElecMinimize: Iter:  78  G: -1058.923359828352204  |grad|_K:  1.023e-06  alpha:  4.091e-01  linmin: -2.479e-04  t[s]:    265.49
	FillingsUpdate:  mu: -0.087515694  nElectrons: 325.000000  magneticMoment: [ Abs: 1.89608  Tot: +1.51356 ]
	SubspaceRotationAdjust: set factor to 0.0513
ElecMinimize: Iter:  79  G: -1058.923563893240726  |grad|_K:  1.014e-06  alpha:  5.378e-01  linmin: -6.567e-04  t[s]:    267.54
	FillingsUpdate:  mu: -0.087629954  nElectrons: 325.000000  magneticMoment: [ Abs: 2.00144  Tot: +1.57091 ]
	SubspaceRotationAdjust: set factor to 0.0448
ElecMinimize: Iter:  80  G: -1058.923703148265986  |grad|_K:  1.121e-06  alpha:  3.696e-01  linmin:  9.702e-05  t[s]:    269.61
	FillingsUpdate:  mu: -0.088702013  nElectrons: 325.000000  magneticMoment: [ Abs: 2.13866  Tot: +1.64103 ]
	SubspaceRotationAdjust: set factor to 0.0475
ElecMinimize: Iter:  81  G: -1058.923873998659019  |grad|_K:  9.290e-07  alpha:  3.926e-01  linmin:  2.429e-04  t[s]:    271.64
	FillingsUpdate:  mu: -0.087248504  nElectrons: 325.000000  magneticMoment: [ Abs: 2.25908  Tot: +1.69086 ]
	SubspaceRotationAdjust: set factor to 0.0507
ElecMinimize: Iter:  82  G: -1058.924022124135718  |grad|_K:  1.019e-06  alpha:  5.064e-01  linmin:  7.897e-04  t[s]:    273.70
	FillingsUpdate:  mu: -0.088074846  nElectrons: 325.000000  magneticMoment: [ Abs: 2.34616  Tot: +1.71770 ]
	SubspaceRotationAdjust: set factor to 0.0501
ElecMinimize: Iter:  83  G: -1058.924123538987033  |grad|_K:  8.760e-07  alpha:  3.078e-01  linmin:  1.783e-04  t[s]:    275.78
	FillingsUpdate:  mu: -0.088109857  nElectrons: 325.000000  magneticMoment: [ Abs: 2.46801  Tot: +1.74703 ]
	SubspaceRotationAdjust: set factor to 0.0606
ElecMinimize: Iter:  84  G: -1058.924275792896651  |grad|_K:  8.632e-07  alpha:  5.751e-01  linmin:  1.363e-04  t[s]:    277.85
	FillingsUpdate:  mu: -0.087194745  nElectrons: 325.000000  magneticMoment: [ Abs: 2.57932  Tot: +1.76591 ]
	SubspaceRotationAdjust: set factor to 0.0595
ElecMinimize: Iter:  85  G: -1058.924412618059932  |grad|_K:  1.032e-06  alpha:  5.287e-01  linmin:  2.379e-04  t[s]:    279.88
	FillingsUpdate:  mu: -0.087798211  nElectrons: 325.000000  magneticMoment: [ Abs: 2.67266  Tot: +1.77332 ]
	SubspaceRotationAdjust: set factor to 0.0553
ElecMinimize: Iter:  86  G: -1058.924521292847658  |grad|_K:  9.605e-07  alpha:  3.041e-01  linmin:  9.121e-05  t[s]:    281.96
	FillingsUpdate:  mu: -0.087514414  nElectrons: 325.000000  magneticMoment: [ Abs: 2.84163  Tot: +1.78067 ]
	SubspaceRotationAdjust: set factor to 0.0645
ElecMinimize: Iter:  87  G: -1058.924714108257831  |grad|_K:  9.855e-07  alpha:  6.086e-01  linmin:  2.096e-04  t[s]:    284.00
	FillingsUpdate:  mu: -0.086217642  nElectrons: 325.000000  magneticMoment: [ Abs: 3.03893  Tot: +1.78261 ]
	SubspaceRotationAdjust: set factor to 0.0716
ElecMinimize: Iter:  88  G: -1058.924929890864860  |grad|_K:  1.223e-06  alpha:  6.505e-01  linmin:  8.751e-05  t[s]:    286.06
	FillingsUpdate:  mu: -0.085633429  nElectrons: 325.000000  magneticMoment: [ Abs: 3.22114  Tot: +1.77846 ]
	SubspaceRotationAdjust: set factor to 0.0641
ElecMinimize: Iter:  89  G: -1058.925127335307479  |grad|_K:  1.496e-06  alpha:  3.821e-01  linmin:  9.471e-06  t[s]:    288.14
	FillingsUpdate:  mu: -0.086223782  nElectrons: 325.000000  magneticMoment: [ Abs: 3.46886  Tot: +1.77286 ]
	SubspaceRotationAdjust: set factor to 0.0594
ElecMinimize: Iter:  90  G: -1058.925392121551795  |grad|_K:  1.293e-06  alpha:  3.381e-01  linmin:  7.235e-05  t[s]:    290.22
	FillingsUpdate:  mu: -0.085815581  nElectrons: 325.000000  magneticMoment: [ Abs: 3.78538  Tot: +1.75588 ]
	SubspaceRotationAdjust: set factor to 0.0687
ElecMinimize: Iter:  91  G: -1058.925718164657610  |grad|_K:  1.352e-06  alpha:  5.717e-01  linmin:  1.589e-04  t[s]:    292.29
	FillingsUpdate:  mu: -0.084188089  nElectrons: 325.000000  magneticMoment: [ Abs: 4.13473  Tot: +1.73246 ]
	SubspaceRotationAdjust: set factor to 0.0781
ElecMinimize: Iter:  92  G: -1058.926074462775432  |grad|_K:  1.477e-06  alpha:  5.737e-01  linmin:  1.090e-04  t[s]:    294.36
	FillingsUpdate:  mu: -0.082803058  nElectrons: 325.000000  magneticMoment: [ Abs: 4.42538  Tot: +1.71310 ]
	SubspaceRotationAdjust: set factor to 0.078
ElecMinimize: Iter:  93  G: -1058.926378537217943  |grad|_K:  1.771e-06  alpha:  3.970e-01  linmin:  5.666e-06  t[s]:    296.42
	FillingsUpdate:  mu: -0.082700923  nElectrons: 325.000000  magneticMoment: [ Abs: 4.67177  Tot: +1.69446 ]
	SubspaceRotationAdjust: set factor to 0.0757
ElecMinimize: Iter:  94  G: -1058.926639337059214  |grad|_K:  1.644e-06  alpha:  2.400e-01  linmin:  4.135e-06  t[s]:    298.49
	FillingsUpdate:  mu: -0.082672232  nElectrons: 325.000000  magneticMoment: [ Abs: 5.01213  Tot: +1.66764 ]
	SubspaceRotationAdjust: set factor to 0.0846
ElecMinimize: Iter:  95  G: -1058.926996890779719  |grad|_K:  1.648e-06  alpha:  3.856e-01  linmin:  1.828e-04  t[s]:    300.51
	FillingsUpdate:  mu: -0.081723266  nElectrons: 325.000000  magneticMoment: [ Abs: 5.34954  Tot: +1.63475 ]
	SubspaceRotationAdjust: set factor to 0.102
ElecMinimize: Iter:  96  G: -1058.927359880013682  |grad|_K:  1.636e-06  alpha:  3.976e-01  linmin:  6.109e-06  t[s]:    302.59
	FillingsUpdate:  mu: -0.080036034  nElectrons: 325.000000  magneticMoment: [ Abs: 5.63709  Tot: +1.60299 ]
	SubspaceRotationAdjust: set factor to 0.0995
ElecMinimize: Iter:  97  G: -1058.927694355586254  |grad|_K:  1.861e-06  alpha:  3.565e-01  linmin:  9.520e-05  t[s]:    304.62
	FillingsUpdate:  mu: -0.078901643  nElectrons: 325.000000  magneticMoment: [ Abs: 5.82435  Tot: +1.58003 ]
	SubspaceRotationAdjust: set factor to 0.0917
ElecMinimize: Iter:  98  G: -1058.927924245694157  |grad|_K:  1.982e-06  alpha:  1.946e-01  linmin:  1.199e-05  t[s]:    306.73
	FillingsUpdate:  mu: -0.079586137  nElectrons: 325.000000  magneticMoment: [ Abs: 6.05038  Tot: +1.55334 ]
	SubspaceRotationAdjust: set factor to 0.0977
ElecMinimize: Iter:  99  G: -1058.928213259987160  |grad|_K:  1.659e-06  alpha:  2.118e-01  linmin:  9.604e-05  t[s]:    308.76
	FillingsUpdate:  mu: -0.079612201  nElectrons: 325.000000  magneticMoment: [ Abs: 6.24143  Tot: +1.52785 ]
	SubspaceRotationAdjust: set factor to 0.118
ElecMinimize: Iter: 100  G: -1058.928482659418250  |grad|_K:  1.511e-06  alpha:  2.846e-01  linmin: -5.350e-05  t[s]:    310.81
ElecMinimize: None of the convergence criteria satisfied after 100 iterations.
Setting wave functions to eigenvectors of Hamiltonian
Converging empty states (this may take a while): |deigs|: 1.184e-03
Vacuum energy after initial minimize, F = -1058.928482659418250

Shifting auxilliary hamiltonian by -0.110388 to set nElectrons=325.000000

-------- Electronic minimization -----------
	Linear fluid (dielectric constant: 78.4, screening length: 8.12261 Bohr) occupying 0.751750 of unit cell:	Completed after 31 iterations at t[s]:    338.72
	FillingsUpdate:  mu: -0.190000000  nElectrons: 325.000000  magneticMoment: [ Abs: 6.09232  Tot: +1.45163 ]
ElecMinimize: Iter:   0  G: -1058.886535965587882  |grad|_K:  3.178e-05  alpha:  1.000e+00
	Linear fluid (dielectric constant: 78.4, screening length: 8.12261 Bohr) occupying 0.766098 of unit cell:	Completed after 37 iterations at t[s]:    340.35
	Linear fluid (dielectric constant: 78.4, screening length: 8.12261 Bohr) occupying 0.752266 of unit cell:	Completed after 34 iterations at t[s]:    340.99
	FillingsUpdate:  mu: -0.190000000  nElectrons: 325.171350  magneticMoment: [ Abs: 5.91582  Tot: +1.56093 ]
	SubspaceRotationAdjust: set factor to 0.0488
ElecMinimize: Iter:   1  G: -1058.941946304823432  |grad|_K:  7.296e-06  alpha:  1.899e-01  linmin:  3.196e-02  t[s]:    341.95
	Linear fluid (dielectric constant: 78.4, screening length: 8.12261 Bohr) occupying 0.753664 of unit cell:	Completed after 26 iterations at t[s]:    342.54
	Linear fluid (dielectric constant: 78.4, screening length: 8.12261 Bohr) occupying 0.754116 of unit cell:	Completed after 23 iterations at t[s]:    343.15
	FillingsUpdate:  mu: -0.190000000  nElectrons: 325.300391  magneticMoment: [ Abs: 5.92764  Tot: +1.62516 ]
	SubspaceRotationAdjust: set factor to 0.0247
ElecMinimize: Iter:   2  G: -1058.945784322822419  |grad|_K:  3.804e-06  alpha:  2.392e-01  linmin:  2.053e-03  t[s]:    344.13
	Linear fluid (dielectric constant: 78.4, screening length: 8.12261 Bohr) occupying 0.754142 of unit cell:	Completed after 21 iterations at t[s]:    344.70
	Linear fluid (dielectric constant: 78.4, screening length: 8.12261 Bohr) occupying 0.754175 of unit cell:	Completed after 24 iterations at t[s]:    345.32
	FillingsUpdate:  mu: -0.190000000  nElectrons: 325.308453  magneticMoment: [ Abs: 5.91265  Tot: +1.64177 ]
	SubspaceRotationAdjust: set factor to 0.0305
ElecMinimize: Iter:   3  G: -1058.948804048427291  |grad|_K:  2.878e-06  alpha:  6.176e-01  linmin:  1.982e-03  t[s]:    346.32
	Linear fluid (dielectric constant: 78.4, screening length: 8.12261 Bohr) occupying 0.754552 of unit cell:	Completed after 24 iterations at t[s]:    346.90
	Linear fluid (dielectric constant: 78.4, screening length: 8.12261 Bohr) occupying 0.754677 of unit cell:	Completed after 16 iterations at t[s]:    347.51
	FillingsUpdate:  mu: -0.190000000  nElectrons: 325.336031  magneticMoment: [ Abs: 5.89067  Tot: +1.63672 ]
	SubspaceRotationAdjust: set factor to 0.0335
ElecMinimize: Iter:   4  G: -1058.951183633209212  |grad|_K:  2.667e-06  alpha:  8.353e-01  linmin: -6.262e-04  t[s]:    348.49
	Linear fluid (dielectric constant: 78.4, screening length: 8.12261 Bohr) occupying 0.757575 of unit cell:	Completed after 21 iterations at t[s]:    349.05
	Linear fluid (dielectric constant: 78.4, screening length: 8.12261 Bohr) occupying 0.757161 of unit cell:	Completed after 18 iterations at t[s]:    349.67
	FillingsUpdate:  mu: -0.190000000  nElectrons: 325.454043  magneticMoment: [ Abs: 5.88759  Tot: +1.63735 ]
	SubspaceRotationAdjust: set factor to 0.0339
ElecMinimize: Iter:   5  G: -1058.953017296308872  |grad|_K:  2.350e-06  alpha:  7.283e-01  linmin:  1.514e-03  t[s]:    350.65
	Linear fluid (dielectric constant: 78.4, screening length: 8.12261 Bohr) occupying 0.759449 of unit cell:	Completed after 22 iterations at t[s]:    351.22
	Linear fluid (dielectric constant: 78.4, screening length: 8.12261 Bohr) occupying 0.759267 of unit cell:	Completed after 14 iterations at t[s]:    351.82
	FillingsUpdate:  mu: -0.190000000  nElectrons: 325.548745  magneticMoment: [ Abs: 5.89073  Tot: +1.63170 ]
	SubspaceRotationAdjust: set factor to 0.0425
ElecMinimize: Iter:   6  G: -1058.954286851370398  |grad|_K:  1.763e-06  alpha:  6.727e-01  linmin:  1.319e-04  t[s]:    352.79
	Linear fluid (dielectric constant: 78.4, screening length: 8.12261 Bohr) occupying 0.760113 of unit cell:	Completed after 22 iterations at t[s]:    353.36
	Linear fluid (dielectric constant: 78.4, screening length: 8.12261 Bohr) occupying 0.760070 of unit cell:	Completed after 7 iterations at t[s]:    353.95
	FillingsUpdate:  mu: -0.190000000  nElectrons: 325.584199  magneticMoment: [ Abs: 5.88429  Tot: +1.62807 ]
	SubspaceRotationAdjust: set factor to 0.0439
ElecMinimize: Iter:   7  G: -1058.954978094094258  |grad|_K:  1.707e-06  alpha:  6.386e-01  linmin: -2.445e-04  t[s]:    354.91
	Linear fluid (dielectric constant: 78.4, screening length: 8.12261 Bohr) occupying 0.761739 of unit cell:	Completed after 26 iterations at t[s]:    355.48
	Linear fluid (dielectric constant: 78.4, screening length: 8.12261 Bohr) occupying 0.761601 of unit cell:	Completed after 14 iterations at t[s]:    356.10
	FillingsUpdate:  mu: -0.190000000  nElectrons: 325.656208  magneticMoment: [ Abs: 5.87381  Tot: +1.63478 ]
	SubspaceRotationAdjust: set factor to 0.0458
ElecMinimize: Iter:   8  G: -1058.955576823361753  |grad|_K:  1.552e-06  alpha:  5.860e-01  linmin:  4.892e-04  t[s]:    357.06
	Linear fluid (dielectric constant: 78.4, screening length: 8.12261 Bohr) occupying 0.762340 of unit cell:	Completed after 18 iterations at t[s]:    357.63
	Linear fluid (dielectric constant: 78.4, screening length: 8.12261 Bohr) occupying 0.762789 of unit cell:	Completed after 11 iterations at t[s]:    358.23
	FillingsUpdate:  mu: -0.190000000  nElectrons: 325.713809  magneticMoment: [ Abs: 5.83533  Tot: +1.64128 ]
	SubspaceRotationAdjust: set factor to 0.0551
ElecMinimize: Iter:   9  G: -1058.956369767151955  |grad|_K:  1.681e-06  alpha:  9.486e-01  linmin: -3.298e-04  t[s]:    359.21
	Linear fluid (dielectric constant: 78.4, screening length: 8.12261 Bohr) occupying 0.763832 of unit cell:	Completed after 26 iterations at t[s]:    359.79
	Linear fluid (dielectric constant: 78.4, screening length: 8.12261 Bohr) occupying 0.763715 of unit cell:	Completed after 16 iterations at t[s]:    360.44
	FillingsUpdate:  mu: -0.190000000  nElectrons: 325.760120  magneticMoment: [ Abs: 5.78013  Tot: +1.65388 ]
	SubspaceRotationAdjust: set factor to 0.0554
ElecMinimize: Iter:  10  G: -1058.957200658944885  |grad|_K:  2.092e-06  alpha:  8.386e-01  linmin: -3.807e-04  t[s]:    361.41
	Linear fluid (dielectric constant: 78.4, screening length: 8.12261 Bohr) occupying 0.767116 of unit cell:	Completed after 30 iterations at t[s]:    362.00
	Linear fluid (dielectric constant: 78.4, screening length: 8.12261 Bohr) occupying 0.765508 of unit cell:	Completed after 28 iterations at t[s]:    362.62
	FillingsUpdate:  mu: -0.190000000  nElectrons: 325.859454  magneticMoment: [ Abs: 5.73640  Tot: +1.67652 ]
	SubspaceRotationAdjust: set factor to 0.0441
ElecMinimize: Iter:  11  G: -1058.957885239456346  |grad|_K:  2.045e-06  alpha:  4.293e-01  linmin: -4.732e-04  t[s]:    363.61
	Linear fluid (dielectric constant: 78.4, screening length: 8.12261 Bohr) occupying 0.766265 of unit cell:	Completed after 20 iterations at t[s]:    364.17
	Linear fluid (dielectric constant: 78.4, screening length: 8.12261 Bohr) occupying 0.767363 of unit cell:	Completed after 22 iterations at t[s]:    364.80
	FillingsUpdate:  mu: -0.190000000  nElectrons: 325.963231  magneticMoment: [ Abs: 5.57941  Tot: +1.72197 ]
	SubspaceRotationAdjust: set factor to 0.0478
ElecMinimize: Iter:  12  G: -1058.959578673400301  |grad|_K:  2.852e-06  alpha:  1.090e+00  linmin: -1.079e-03  t[s]:    365.75
	Linear fluid (dielectric constant: 78.4, screening length: 8.12261 Bohr) occupying 0.770675 of unit cell:	Completed after 34 iterations at t[s]:    366.34
	Linear fluid (dielectric constant: 78.4, screening length: 8.12261 Bohr) occupying 0.771003 of unit cell:	Completed after 22 iterations at t[s]:    366.95
	FillingsUpdate:  mu: -0.190000000  nElectrons: 326.221754  magneticMoment: [ Abs: 5.22398  Tot: +1.77933 ]
	SubspaceRotationAdjust: set factor to 0.0496
ElecMinimize: Iter:  13  G: -1058.962834999104643  |grad|_K:  4.984e-06  alpha:  1.220e+00  linmin:  6.972e-03  t[s]:    367.90
	Linear fluid (dielectric constant: 78.4, screening length: 8.12261 Bohr) occupying 0.774607 of unit cell:	Completed after 34 iterations at t[s]:    368.51
	Linear fluid (dielectric constant: 78.4, screening length: 8.12261 Bohr) occupying 0.771248 of unit cell:	Completed after 32 iterations at t[s]:    369.14
	FillingsUpdate:  mu: -0.190000000  nElectrons: 326.245442  magneticMoment: [ Abs: 5.17555  Tot: +1.78083 ]
	SubspaceRotationAdjust: set factor to 0.0649
ElecMinimize: Iter:  14  G: -1058.962914105448363  |grad|_K:  5.106e-06  alpha:  5.327e-02  linmin: -3.825e-04  t[s]:    370.13
	Linear fluid (dielectric constant: 78.4, screening length: 8.12261 Bohr) occupying 0.771348 of unit cell:	Completed after 21 iterations at t[s]:    370.72
	Linear fluid (dielectric constant: 78.4, screening length: 8.12261 Bohr) occupying 0.771518 of unit cell:	Completed after 24 iterations at t[s]:    371.34
	FillingsUpdate:  mu: -0.190000000  nElectrons: 326.268120  magneticMoment: [ Abs: 5.00913  Tot: +1.77084 ]
	SubspaceRotationAdjust: set factor to 0.0832
ElecMinimize: Iter:  15  G: -1058.964317960613016  |grad|_K:  4.458e-06  alpha:  1.491e-01  linmin:  2.217e-05  t[s]:    372.32
	Linear fluid (dielectric constant: 78.4, screening length: 8.12261 Bohr) occupying 0.771399 of unit cell:	Completed after 27 iterations at t[s]:    372.94
	Linear fluid (dielectric constant: 78.4, screening length: 8.12261 Bohr) occupying 0.771408 of unit cell:	Completed after 14 iterations at t[s]:    373.58
	FillingsUpdate:  mu: -0.190000000  nElectrons: 326.249320  magneticMoment: [ Abs: 4.87385  Tot: +1.74847 ]
	SubspaceRotationAdjust: set factor to 0.101
ElecMinimize: Iter:  16  G: -1058.965281320450003  |grad|_K:  4.294e-06  alpha:  1.391e-01  linmin: -1.888e-05  t[s]:    374.56
	Linear fluid (dielectric constant: 78.4, screening length: 8.12261 Bohr) occupying 0.771265 of unit cell:	Completed after 21 iterations at t[s]:    375.13
	Linear fluid (dielectric constant: 78.4, screening length: 8.12261 Bohr) occupying 0.771269 of unit cell:	Completed after 4 iterations at t[s]:    375.72
	FillingsUpdate:  mu: -0.190000000  nElectrons: 326.226349  magneticMoment: [ Abs: 4.73585  Tot: +1.71719 ]
	SubspaceRotationAdjust: set factor to 0.108
ElecMinimize: Iter:  17  G: -1058.966152408508378  |grad|_K:  4.091e-06  alpha:  1.352e-01  linmin: -4.020e-05  t[s]:    376.70
	Linear fluid (dielectric constant: 78.4, screening length: 8.12261 Bohr) occupying 0.771169 of unit cell:	Completed after 27 iterations at t[s]:    377.28
	Linear fluid (dielectric constant: 78.4, screening length: 8.12261 Bohr) occupying 0.771185 of unit cell:	Completed after 15 iterations at t[s]:    377.89
	FillingsUpdate:  mu: -0.190000000  nElectrons: 326.209584  magneticMoment: [ Abs: 4.61649  Tot: +1.68435 ]
	SubspaceRotationAdjust: set factor to 0.14
ElecMinimize: Iter:  18  G: -1058.966827309490100  |grad|_K:  3.852e-06  alpha:  1.155e-01  linmin: -6.244e-05  t[s]:    378.83
	Linear fluid (dielectric constant: 78.4, screening length: 8.12261 Bohr) occupying 0.770913 of unit cell:	Completed after 22 iterations at t[s]:    379.40
	Linear fluid (dielectric constant: 78.4, screening length: 8.12261 Bohr) occupying 0.770832 of unit cell:	Completed after 15 iterations at t[s]:    380.00
	FillingsUpdate:  mu: -0.190000000  nElectrons: 326.155032  magneticMoment: [ Abs: 4.46525  Tot: +1.62834 ]
	SubspaceRotationAdjust: set factor to 0.164
ElecMinimize: Iter:  19  G: -1058.967595329021833  |grad|_K:  4.507e-06  alpha:  1.474e-01  linmin: -1.304e-04  t[s]:    380.98
	Linear fluid (dielectric constant: 78.4, screening length: 8.12261 Bohr) occupying 0.769788 of unit cell:	Completed after 28 iterations at t[s]:    381.56
	Linear fluid (dielectric constant: 78.4, screening length: 8.12261 Bohr) occupying 0.770056 of unit cell:	Completed after 19 iterations at t[s]:    382.21
	FillingsUpdate:  mu: -0.190000000  nElectrons: 326.050361  magneticMoment: [ Abs: 4.29517  Tot: +1.55011 ]
	SubspaceRotationAdjust: set factor to 0.209
ElecMinimize: Iter:  20  G: -1058.968388815348590  |grad|_K:  4.595e-06  alpha:  1.103e-01  linmin:  1.035e-04  t[s]:    383.19
	Linear fluid (dielectric constant: 78.4, screening length: 8.12261 Bohr) occupying 0.769382 of unit cell:	Completed after 22 iterations at t[s]:    383.76
	Linear fluid (dielectric constant: 78.4, screening length: 8.12261 Bohr) occupying 0.769283 of unit cell:	Completed after 11 iterations at t[s]:    384.36
	FillingsUpdate:  mu: -0.190000000  nElectrons: 325.948887  magneticMoment: [ Abs: 4.09819  Tot: +1.47094 ]
	SubspaceRotationAdjust: set factor to 0.229
ElecMinimize: Iter:  21  G: -1058.969340129472357  |grad|_K:  5.401e-06  alpha:  1.284e-01  linmin: -7.146e-04  t[s]:    385.34
	Linear fluid (dielectric constant: 78.4, screening length: 8.12261 Bohr) occupying 0.769147 of unit cell:	Completed after 27 iterations at t[s]:    385.92
	Linear fluid (dielectric constant: 78.4, screening length: 8.12261 Bohr) occupying 0.769171 of unit cell:	Completed after 18 iterations at t[s]:    386.53
	FillingsUpdate:  mu: -0.190000000  nElectrons: 325.910222  magneticMoment: [ Abs: 3.89163  Tot: +1.41426 ]
	SubspaceRotationAdjust: set factor to 0.282
ElecMinimize: Iter:  22  G: -1058.970497384401142  |grad|_K:  5.519e-06  alpha:  1.071e-01  linmin:  7.975e-05  t[s]:    387.48
	Linear fluid (dielectric constant: 78.4, screening length: 8.12261 Bohr) occupying 0.768807 of unit cell:	Completed after 22 iterations at t[s]:    388.05
	Linear fluid (dielectric constant: 78.4, screening length: 8.12261 Bohr) occupying 0.768791 of unit cell:	Completed after 7 iterations at t[s]:    388.64
	FillingsUpdate:  mu: -0.190000000  nElectrons: 325.843539  magneticMoment: [ Abs: 3.66585  Tot: +1.35410 ]
	SubspaceRotationAdjust: set factor to 0.358
ElecMinimize: Iter:  23  G: -1058.971672641777786  |grad|_K:  5.708e-06  alpha:  1.115e-01  linmin: -5.987e-05  t[s]:    389.61
	Linear fluid (dielectric constant: 78.4, screening length: 8.12261 Bohr) occupying 0.767898 of unit cell:	Completed after 22 iterations at t[s]:    390.18
	Linear fluid (dielectric constant: 78.4, screening length: 8.12261 Bohr) occupying 0.768034 of unit cell:	Completed after 11 iterations at t[s]:    390.80
	FillingsUpdate:  mu: -0.190000000  nElectrons: 325.754880  magneticMoment: [ Abs: 3.45923  Tot: +1.30411 ]
	SubspaceRotationAdjust: set factor to 0.383
ElecMinimize: Iter:  24  G: -1058.972752654749911  |grad|_K:  6.088e-06  alpha:  9.449e-02  linmin: -4.731e-05  t[s]:    391.77
	Linear fluid (dielectric constant: 78.4, screening length: 8.12261 Bohr) occupying 0.768160 of unit cell:	Completed after 27 iterations at t[s]:    392.35
	Linear fluid (dielectric constant: 78.4, screening length: 8.12261 Bohr) occupying 0.768123 of unit cell:	Completed after 18 iterations at t[s]:    392.96
	FillingsUpdate:  mu: -0.190000000  nElectrons: 325.732924  magneticMoment: [ Abs: 3.25378  Tot: +1.26623 ]
	SubspaceRotationAdjust: set factor to 0.409
ElecMinimize: Iter:  25  G: -1058.973829328368311  |grad|_K:  6.227e-06  alpha:  8.137e-02  linmin:  1.885e-04  t[s]:    393.96
	Linear fluid (dielectric constant: 78.4, screening length: 8.12261 Bohr) occupying 0.767655 of unit cell:	Completed after 25 iterations at t[s]:    394.53
	Linear fluid (dielectric constant: 78.4, screening length: 8.12261 Bohr) occupying 0.767664 of unit cell:	Completed after 4 iterations at t[s]:    395.13
	FillingsUpdate:  mu: -0.190000000  nElectrons: 325.673451  magneticMoment: [ Abs: 3.03521  Tot: +1.22540 ]
	SubspaceRotationAdjust: set factor to 0.54
ElecMinimize: Iter:  26  G: -1058.974874237125277  |grad|_K:  6.604e-06  alpha:  7.970e-02  linmin:  6.689e-05  t[s]:    396.09
	Linear fluid (dielectric constant: 78.4, screening length: 8.12261 Bohr) occupying 0.765835 of unit cell:	Completed after 28 iterations at t[s]:    396.67
	Linear fluid (dielectric constant: 78.4, screening length: 8.12261 Bohr) occupying 0.766439 of unit cell:	Completed after 17 iterations at t[s]:    397.28
	FillingsUpdate:  mu: -0.190000000  nElectrons: 325.579221  magneticMoment: [ Abs: 2.85515  Tot: +1.18738 ]
	SubspaceRotationAdjust: set factor to 0.598
ElecMinimize: Iter:  27  G: -1058.975716792050662  |grad|_K:  6.549e-06  alpha:  5.590e-02  linmin: -1.613e-05  t[s]:    398.24
	Linear fluid (dielectric constant: 78.4, screening length: 8.12261 Bohr) occupying 0.765852 of unit cell:	Completed after 21 iterations at t[s]:    398.82
	Linear fluid (dielectric constant: 78.4, screening length: 8.12261 Bohr) occupying 0.765891 of unit cell:	Completed after 11 iterations at t[s]:    399.41
	FillingsUpdate:  mu: -0.190000000  nElectrons: 325.530892  magneticMoment: [ Abs: 2.67469  Tot: +1.14549 ]
	SubspaceRotationAdjust: set factor to 0.68
ElecMinimize: Iter:  28  G: -1058.976501837729529  |grad|_K:  5.508e-06  alpha:  5.229e-02  linmin:  9.108e-06  t[s]:    400.39
	Linear fluid (dielectric constant: 78.4, screening length: 8.12261 Bohr) occupying 0.765231 of unit cell:	Completed after 21 iterations at t[s]:    400.96
	Linear fluid (dielectric constant: 78.4, screening length: 8.12261 Bohr) occupying 0.765026 of unit cell:	Completed after 17 iterations at t[s]:    401.56
	FillingsUpdate:  mu: -0.190000000  nElectrons: 325.471388  magneticMoment: [ Abs: 2.48435  Tot: +1.10028 ]
	SubspaceRotationAdjust: set factor to 0.764
ElecMinimize: Iter:  29  G: -1058.977234720248816  |grad|_K:  6.175e-06  alpha:  6.920e-02  linmin: -3.165e-05  t[s]:    402.63
	Linear fluid (dielectric constant: 78.4, screening length: 8.12261 Bohr) occupying 0.762441 of unit cell:	Completed after 27 iterations at t[s]:    403.20
	Linear fluid (dielectric constant: 78.4, screening length: 8.12261 Bohr) occupying 0.763171 of unit cell:	Completed after 19 iterations at t[s]:    403.82
	FillingsUpdate:  mu: -0.190000000  nElectrons: 325.377169  magneticMoment: [ Abs: 2.30176  Tot: +1.05530 ]
	SubspaceRotationAdjust: set factor to 0.753
ElecMinimize: Iter:  30  G: -1058.977868888655394  |grad|_K:  6.516e-06  alpha:  4.914e-02  linmin: -5.431e-05  t[s]:    404.88
	Linear fluid (dielectric constant: 78.4, screening length: 8.12261 Bohr) occupying 0.763868 of unit cell:	Completed after 25 iterations at t[s]:    405.46
	Linear fluid (dielectric constant: 78.4, screening length: 8.12261 Bohr) occupying 0.763633 of unit cell:	Completed after 19 iterations at t[s]:    406.07
	FillingsUpdate:  mu: -0.190000000  nElectrons: 325.383655  magneticMoment: [ Abs: 2.14967  Tot: +1.01983 ]
	SubspaceRotationAdjust: set factor to 0.678
ElecMinimize: Iter:  31  G: -1058.978411661153132  |grad|_K:  6.218e-06  alpha:  3.522e-02  linmin:  6.474e-05  t[s]:    407.14
[...]
	Linear fluid (dielectric constant: 78.4, screening length: 8.12261 Bohr) occupying 0.771583 of unit cell:	Completed after 15 iterations at t[s]:   1998.12
	FillingsUpdate:  mu: -0.190000000  nElectrons: 325.541001  magneticMoment: [ Abs: 1.11143  Tot: -0.28564 ]
ElecMinimize: Iter:   0  G: -1059.062582854710854  |grad|_K:  2.936e-07  alpha:  1.000e+00
	Linear fluid (dielectric constant: 78.4, screening length: 8.12261 Bohr) occupying 0.771314 of unit cell:	Completed after 24 iterations at t[s]:   1999.73
	Linear fluid (dielectric constant: 78.4, screening length: 8.12261 Bohr) occupying 0.771526 of unit cell:	Completed after 24 iterations at t[s]:   2000.40
	FillingsUpdate:  mu: -0.190000000  nElectrons: 325.537156  magneticMoment: [ Abs: 1.11129  Tot: -0.28472 ]
	SubspaceRotationAdjust: set factor to 0.0334
ElecMinimize: Iter:   1  G: -1059.062589143843070  |grad|_K:  1.166e-07  alpha:  2.118e-01  linmin:  6.488e-04  t[s]:   2001.40
	Linear fluid (dielectric constant: 78.4, screening length: 8.12261 Bohr) occupying 0.771549 of unit cell:	Completed after 6 iterations at t[s]:   2001.94
	Linear fluid (dielectric constant: 78.4, screening length: 8.12261 Bohr) occupying 0.771575 of unit cell:	Completed after 9 iterations at t[s]:   2002.54
	FillingsUpdate:  mu: -0.190000000  nElectrons: 325.540215  magneticMoment: [ Abs: 1.11248  Tot: -0.28585 ]
	SubspaceRotationAdjust: set factor to 0.0402
ElecMinimize: Iter:   2  G: -1059.062591299306632  |grad|_K:  4.866e-08  alpha:  4.616e-01  linmin:  1.139e-04  t[s]:   2003.50
	Linear fluid (dielectric constant: 78.4, screening length: 8.12261 Bohr) occupying 0.771583 of unit cell:	Completed after 3 iterations at t[s]:   2004.04
	Linear fluid (dielectric constant: 78.4, screening length: 8.12261 Bohr) occupying 0.771586 of unit cell:	Completed after 3 iterations at t[s]:   2004.62
	FillingsUpdate:  mu: -0.190000000  nElectrons: 325.540933  magneticMoment: [ Abs: 1.11277  Tot: -0.28598 ]
	SubspaceRotationAdjust: set factor to 0.0431
ElecMinimize: Iter:   3  G: -1059.062591808310572  |grad|_K:  3.838e-08  alpha:  6.192e-01  linmin: -1.674e-02  t[s]:   2005.61
	Linear fluid (dielectric constant: 78.4, screening length: 8.12261 Bohr) occupying 0.771576 of unit cell:	Completed after 4 iterations at t[s]:   2006.14
	Linear fluid (dielectric constant: 78.4, screening length: 8.12261 Bohr) occupying 0.771573 of unit cell:	Completed after 4 iterations at t[s]:   2006.73
	FillingsUpdate:  mu: -0.190000000  nElectrons: 325.540175  magneticMoment: [ Abs: 1.11299  Tot: -0.28562 ]
	SubspaceRotationAdjust: set factor to 0.0374
ElecMinimize: Iter:   4  G: -1059.062592220866236  |grad|_K:  3.907e-08  alpha:  7.990e-01  linmin:  7.126e-03  t[s]:   2007.71
	Linear fluid (dielectric constant: 78.4, screening length: 8.12261 Bohr) occupying 0.771587 of unit cell:	Completed after 4 iterations at t[s]:   2008.25
	Linear fluid (dielectric constant: 78.4, screening length: 8.12261 Bohr) occupying 0.771585 of unit cell:	Completed after 0 iterations at t[s]:   2008.84
	FillingsUpdate:  mu: -0.190000000  nElectrons: 325.541041  magneticMoment: [ Abs: 1.11363  Tot: -0.28575 ]
	SubspaceRotationAdjust: set factor to 0.0408
ElecMinimize: Iter:   5  G: -1059.062592537862656  |grad|_K:  2.985e-08  alpha:  6.920e-01  linmin:  2.348e-03  t[s]:   2009.80
	Linear fluid (dielectric constant: 78.4, screening length: 8.12261 Bohr) occupying 0.771590 of unit cell:	Completed after 3 iterations at t[s]:   2010.35
	Linear fluid (dielectric constant: 78.4, screening length: 8.12261 Bohr) occupying 0.771590 of unit cell:	Completed after 0 iterations at t[s]:   2010.92
	FillingsUpdate:  mu: -0.190000000  nElectrons: 325.541417  magneticMoment: [ Abs: 1.11400  Tot: -0.28565 ]
	SubspaceRotationAdjust: set factor to 0.0477
ElecMinimize: Iter:   6  G: -1059.062592760482858  |grad|_K:  2.371e-08  alpha:  7.414e-01  linmin: -3.590e-03  t[s]:   2011.91
	Linear fluid (dielectric constant: 78.4, screening length: 8.12261 Bohr) occupying 0.771588 of unit cell:	Completed after 0 iterations at t[s]:   2012.44
	Linear fluid (dielectric constant: 78.4, screening length: 8.12261 Bohr) occupying 0.771587 of unit cell:	Completed after 3 iterations at t[s]:   2013.02
	FillingsUpdate:  mu: -0.190000000  nElectrons: 325.541290  magneticMoment: [ Abs: 1.11450  Tot: -0.28534 ]
	SubspaceRotationAdjust: set factor to 0.0525
ElecMinimize: Iter:   7  G: -1059.062592951424676  |grad|_K:  2.680e-08  alpha:  1.135e+00  linmin:  6.144e-03  t[s]:   2013.99
	Linear fluid (dielectric constant: 78.4, screening length: 8.12261 Bohr) occupying 0.771583 of unit cell:	Completed after 3 iterations at t[s]:   2014.53
	Linear fluid (dielectric constant: 78.4, screening length: 8.12261 Bohr) occupying 0.771584 of unit cell:	Completed after 0 iterations at t[s]:   2015.11
	FillingsUpdate:  mu: -0.190000000  nElectrons: 325.541130  magneticMoment: [ Abs: 1.11503  Tot: -0.28493 ]
	SubspaceRotationAdjust: set factor to 0.0578
ElecMinimize: Iter:   8  G: -1059.062593114163974  |grad|_K:  2.759e-08  alpha:  8.186e-01  linmin:  5.603e-04  t[s]:   2016.09
	Linear fluid (dielectric constant: 78.4, screening length: 8.12261 Bohr) occupying 0.771597 of unit cell:	Completed after 4 iterations at t[s]:   2016.63
	Linear fluid (dielectric constant: 78.4, screening length: 8.12261 Bohr) occupying 0.771593 of unit cell:	Completed after 2 iterations at t[s]:   2017.21
	FillingsUpdate:  mu: -0.190000000  nElectrons: 325.541704  magneticMoment: [ Abs: 1.11555  Tot: -0.28480 ]
	SubspaceRotationAdjust: set factor to 0.0486
ElecMinimize: Iter:   9  G: -1059.062593242929552  |grad|_K:  2.867e-08  alpha:  5.183e-01  linmin:  2.858e-03  t[s]:   2018.17
	Linear fluid (dielectric constant: 78.4, screening length: 8.12261 Bohr) occupying 0.771586 of unit cell:	Completed after 2 iterations at t[s]:   2018.70
	Linear fluid (dielectric constant: 78.4, screening length: 8.12261 Bohr) occupying 0.771586 of unit cell:	Completed after 0 iterations at t[s]:   2019.29
	FillingsUpdate:  mu: -0.190000000  nElectrons: 325.541296  magneticMoment: [ Abs: 1.11599  Tot: -0.28426 ]
	SubspaceRotationAdjust: set factor to 0.0552
ElecMinimize: Iter:  10  G: -1059.062593377242138  |grad|_K:  2.218e-08  alpha:  5.177e-01  linmin: -8.834e-04  t[s]:   2020.25
	Linear fluid (dielectric constant: 78.4, screening length: 8.12261 Bohr) occupying 0.771581 of unit cell:	Completed after 3 iterations at t[s]:   2020.80
	Linear fluid (dielectric constant: 78.4, screening length: 8.12261 Bohr) occupying 0.771583 of unit cell:	Completed after 0 iterations at t[s]:   2021.39
	FillingsUpdate:  mu: -0.190000000  nElectrons: 325.541066  magneticMoment: [ Abs: 1.11623  Tot: -0.28401 ]
	SubspaceRotationAdjust: set factor to 0.0406
ElecMinimize: Iter:  11  G: -1059.062593437017540  |grad|_K:  3.067e-08  alpha:  3.591e-01  linmin:  1.728e-03  t[s]:   2022.37
	Linear fluid (dielectric constant: 78.4, screening length: 8.12261 Bohr) occupying 0.771591 of unit cell:	Completed after 3 iterations at t[s]:   2022.91
	Linear fluid (dielectric constant: 78.4, screening length: 8.12261 Bohr) occupying 0.771588 of unit cell:	Completed after 0 iterations at t[s]:   2023.49
	FillingsUpdate:  mu: -0.190000000  nElectrons: 325.541406  magneticMoment: [ Abs: 1.11668  Tot: -0.28390 ]
	SubspaceRotationAdjust: set factor to 0.0599
ElecMinimize: Iter:  12  G: -1059.062593502930213  |grad|_K:  2.015e-08  alpha:  2.353e-01  linmin:  1.020e-03  t[s]:   2024.44
ElecMinimize: Converged (|Delta G|<1.000000e-07 for 2 iters).
Setting wave functions to eigenvectors of Hamiltonian
Converging empty states (this may take a while): |deigs|: 4.921e-09

Computing DFT-D3 correction:
# coordination-number C 5.818 5.972 5.955 5.940 2.985 5.924 5.971 5.955 5.940 2.985 5.924 5.971 5.955 5.940 2.985 5.920 5.972 5.956 5.940 2.985
# coordination-number Hf 11.024 16.673 16.706 16.624 13.885 11.023 16.670 16.693 16.624 13.885 12.271 16.670 16.693 16.623 13.885 11.022 16.814 16.693 16.624 13.885
# coordination-number N 1.119
# diagonal-C6 C 18.21 18.21 18.21 18.21 25.70 18.21 18.21 18.21 18.21 25.70 18.21 18.21 18.21 18.21 25.70 18.21 18.21 18.21 18.21 25.70
# diagonal-C6 Hf 420.98 420.98 420.98 420.98 420.98 420.98 420.98 420.98 420.98 420.98 420.98 420.98 420.98 420.98 420.98 420.98 420.98 420.98 420.98 420.98
# diagonal-C6 N 22.04
EvdW_6 =   -0.120419
EvdW_8 =   -0.213217

# Ionic positions in cartesian coordinates:
ion C  15.505072617851525   8.964716885163671  29.752526743233275 1
ion C   6.498621040324195   0.174822109636378  23.721440218962844 1
ion C  12.871087000000003   7.441810000000000  19.096961000000004 0
ion C  16.176427000000000   9.352893000000000  14.236068000000001 0
ion C   7.146270000000000   0.561911000000000   8.565711000000002 0
ion C   9.343420096812295   9.102615079621096  29.222238377233175 1
ion C   0.301240389849733   0.174165479170511  23.452042134375699 1
ion C   6.696680000000001   7.441810000000000  18.827140000000004 0
ion C  10.002020000000002   9.352893000000000  13.966247000000001 0
ion C   0.971863000000000   0.561911000000000   8.295891000000001 0
ion C  12.550393279147317   3.555786330066360  29.222717490819132 1
ion C   9.566211522898232   5.530948643830505  24.014312691207000 1
ion C   9.790542000000000   2.090778000000000  18.827140000000000 0
ion C  13.095882000000001   4.001861000000000  13.966247000000001 0
ion C  10.226815000000002   5.912944000000001   8.835533000000002 0
ion C   6.147221765801707   3.554221289332464  28.952670473999117 1
ion C   3.393811735576005   5.544782637382902  23.721477677367631 1
ion C   3.616135000000000   2.090778000000000  18.557319000000000 0
ion C   6.921475000000001   4.001861000000000  13.696426000000004 0
ion C   4.052408000000001   5.912944000000001   8.565712000000001 0
ion Hf   6.066593470873394   0.053085319947538  31.121767350625053 1
ion Hf  12.567689612585013   7.266328644136936  26.586577135926916 1
ion Hf  15.845893000000004   9.161785000000002  21.797228000000008 0
ion Hf   6.815736000000001   0.370803000000000  16.126872000000002 0
ion Hf  13.201620999999999   7.632919000000001  11.535799000000003 0
ion Hf   0.091941992211668   0.052733582018360  30.861027770733610 1
ion Hf   6.358264297689752   7.265718435722798  26.318080488883385 1
ion Hf   9.671486000000002   9.161785000000002  21.527407000000000 0
ion Hf   0.641329000000000   0.370803000000000  15.857051000000004 0
ion Hf   7.027214000000002   7.632919000000001  11.265979000000003 0
ion Hf   9.272621226877984   5.361275002611817  31.047025422738511 1
ion Hf   9.469172713338526   1.885310467936926  26.317915021058656 1
ion Hf  12.765348000000001   3.810752000000000  21.527407000000007 0
ion Hf   9.896281000000002   5.721835000000000  16.396693000000003 0
ion Hf  10.121076000000002   2.281886000000000  11.265979000000002 0
ion Hf  15.421833253794592   5.231480890721502  31.662995959664524 1
ion Hf   3.296068864243650   1.905775606009592  26.020339206201118 1
ion Hf   6.590941000000001   3.810752000000000  21.257586000000003 0
ion Hf   3.721874000000001   5.721835000000000  16.126872000000002 0
ion Hf   3.946669000000001   2.281886000000000  10.996158000000003 0
ion N   9.204966846025284   5.319435786903973  34.675058196657417 1

# Forces in Cartesian coordinates:
force C  -0.000043722706030  -0.000022162640250   0.000011884714733 1
force C   0.000004947055832   0.000003478659278  -0.000014900860408 1
force C   0.000222046306325   0.000126823690663  -0.002516645628332 0
force C   0.000161510277144   0.000094140111687  -0.003761242165868 0
force C  -0.000904099412396  -0.000702566273274   0.023164541965863 0
force C   0.000023684377817  -0.000110830919008   0.000008880500446 1
force C  -0.000010320869873  -0.000006653775836  -0.000013401943069 1
force C   0.000098034324745   0.000156476383614  -0.002557926863480 0
force C   0.000149329165773  -0.000223470946680  -0.003473526977469 0
force C  -0.001170346345782  -0.000678096899255   0.023204450939465 0
force C  -0.000086146806251   0.000083844841309   0.000042051860206 1
force C  -0.000008795815564  -0.000002621631895  -0.000047308913389 1
force C   0.000185523305779   0.000007606907165  -0.002557678672865 0
force C  -0.000120285749549   0.000241774259901  -0.003473793207330 0
force C  -0.000979897231441  -0.000566864065124   0.022659559218582 0
force C  -0.000059323606383  -0.000046859653693   0.000025921983284 1
force C   0.000006548957607   0.000005397722309  -0.000006186395249 1
force C   0.000060860962725   0.000035898657055  -0.000956046068471 0
force C   0.000420975718847   0.000243629052033  -0.003418830890396 0
force C  -0.001058761354245  -0.000434472860893   0.023162055499131 0
force Hf  -0.000009658341659  -0.000030381986449   0.000150373877313 1
force Hf   0.000005037392177  -0.000013481288516   0.000073951101526 1
force Hf   0.000531064884470   0.000305362512773  -0.002599002518479 0
force Hf  -0.000335893506676  -0.000163127056291   0.011112909831469 0
force Hf   0.001163840373416   0.000673119216217  -0.024164484953055 0
force Hf  -0.000031216502821   0.000020418505126  -0.000024343467638 1
force Hf  -0.000011758304300  -0.000012744889660   0.000004564046810 1
force Hf   0.000458843565111  -0.001500412669869  -0.001909300393284 0
force Hf  -0.000338978883154  -0.000196115970916   0.011136825468282 0
force Hf   0.001265571397487   0.000708590847105  -0.024240863914173 0
force Hf   0.000057980240298   0.000000837211648   0.000020159988326 1
force Hf  -0.000008091252762   0.000004864096405   0.000021289909599 1
force Hf  -0.001071044418723   0.001144393048201  -0.001921234482431 0
force Hf  -0.000386149982687  -0.000222205769005   0.012216787718060 0
force Hf   0.001244744699569   0.000742748220915  -0.024238317335268 0
force Hf  -0.000035228559529  -0.000010273506393   0.000160806469407 1
force Hf   0.000013253302202   0.000020966177360  -0.000038920204730 1
force Hf   0.001986211852619   0.001146552556480  -0.001766451790641 0
force Hf  -0.000308035744616  -0.000208384912478   0.011111487745187 0
force Hf   0.001199439766516   0.000693113009285  -0.024264155420871 0
force N  -0.000340230636707  -0.000215181447749  -0.000027265801504 1

# Energy components:
   A_diel =       -0.7269950599345385
   Eewald =    38803.1912795634780196
       EH =    39775.3166089357473538
     Eloc =   -79647.5920994735934073
      Enl =     -270.1618154209642739
     EvdW =       -0.3336358293145684
      Exc =     -796.7101488293942566
 Exc_core =      594.6258099922279143
       KE =      421.4844651353773770
  MuShift =       -0.0074686521623701
-------------------------------------
     Etot =    -1120.9139996385417817
       TS =        0.0014609776617570
-------------------------------------
        F =    -1120.9154606162035179
      muN =      -61.8528671132733550
-------------------------------------
        G =    -1059.0625935029302127

IonicMinimize: Iter:  14  G: -1059.062593502930213  |grad|_K:  7.265e-05  alpha:  1.000e+00  linmin: -2.000e-03  t[s]:   2028.57
IonicMinimize: Converged (|grad|_K<1.000000e-04).

#--- Lowdin population analysis ---
# oxidation-state C -0.251 -0.235 -0.235 -0.210 -0.219 -0.232 -0.235 -0.235 -0.211 -0.220 -0.233 -0.229 -0.235 -0.211 -0.220 -0.234 -0.235 -0.234 -0.211 -0.219
# magnetic-moments C -0.005 +0.001 -0.004 -0.010 -0.131 -0.001 +0.001 -0.004 -0.013 -0.141 -0.001 +0.002 -0.004 -0.013 -0.178 -0.001 +0.001 -0.004 -0.013 -0.131
# oxidation-state Hf +0.646 +0.251 +0.245 +0.242 +0.114 +0.648 +0.253 +0.249 +0.242 +0.115 -0.116 +0.253 +0.249 +0.243 +0.115 +0.647 +0.242 +0.248 +0.242 +0.116
# magnetic-moments Hf +0.088 +0.010 +0.001 +0.001 -0.002 +0.090 +0.009 +0.002 +0.001 -0.000 +0.075 +0.009 +0.002 +0.000 -0.000 +0.088 +0.004 +0.002 +0.001 -0.012
# oxidation-state N -0.850
# magnetic-moments N -0.005


Dumping 'fillings' ... done
Dumping 'wfns' ... done
Dumping 'fluidState' ... done
Dumping 'ionpos' ... done
Dumping 'force' ... done
Dumping 'n_up' ... done
Dumping 'n_dn' ... done
Dumping 'eigenvals' ... done
Dumping 'bandProjections' ... done
Dumping 'eigStats' ...
	eMin: -2.488051 at state 0 ( [ +0.000000 +0.000000 +0.000000 ] spin 1 )
	HOMO: -0.190949 at state 8 ( [ +0.500000 +0.000000 +0.000000 ] spin 1 )
	mu  : -0.190000
	LUMO: -0.189724 at state 0 ( [ +0.000000 +0.000000 +0.000000 ] spin 1 )
	eMax: -0.042437 at state 16 ( [ +0.000000 +0.000000 +0.000000 ] spin -1 )
	HOMO-LUMO gap: +0.001225
	Optical gap  : +0.001235 at state 16 ( [ +0.000000 +0.000000 +0.000000 ] spin -1 )
Dumping 'Ecomponents' ... done
Dumping 'kPts' ... done
End date and time: Wed Jun  5 01:51:17 2024  (Duration: 0-0:33:55.30)
Done!

PROFILER:             augmentDensityGrid     0.005104 +/-     0.005407 s, 5169 calls,     26.383014 s total
PROFILER:         augmentDensityGridGrad     0.091116 +/-     0.073054 s, 2622 calls,    238.905731 s total
PROFILER:        augmentDensitySpherical     0.004964 +/-     0.005060 s, 41352 calls,    205.262754 s total
PROFILER:    augmentDensitySphericalGrad     0.005148 +/-     0.005171 s, 23967 calls,    123.370324 s total
PROFILER:                 augmentOverlap     0.003035 +/-     0.002446 s, 84318 calls,    255.930409 s total
PROFILER:        ColumnBundle::randomize     0.028362 +/-     0.000316 s,    8 calls,      0.226898 s total
PROFILER:                     diagouterI     0.014959 +/-     0.002284 s, 13784 calls,    206.192556 s total
PROFILER:              EdensityAndVscloc     0.065853 +/-     0.024700 s, 1724 calls,    113.531207 s total
PROFILER:                     EnlAndGrad     0.003455 +/-     0.002303 s, 42927 calls,    148.322824 s total
PROFILER:            ExCorrCommunication     0.005736 +/-     0.008881 s, 10533 calls,     60.412164 s total
PROFILER:               ExCorrFunctional     0.000160 +/-     0.000037 s, 1776 calls,      0.284167 s total
PROFILER:                    ExCorrTotal     0.034807 +/-     0.013578 s, 1776 calls,     61.817627 s total
PROFILER:                   Idag_DiagV_I     0.026230 +/-     0.007804 s, 7853 calls,    205.980480 s total
PROFILER:                    initWeights     0.446743 +/-     0.000000 s,    1 calls,      0.446743 s total
PROFILER:                    inv(matrix)     0.000862 +/-     0.000088 s, 13032 calls,     11.235937 s total
PROFILER:            matrix::diagonalize     0.003505 +/-     0.001030 s, 21581 calls,     75.633292 s total
PROFILER:                    matrix::set     0.000010 +/-     0.000006 s, 921110 calls,      9.459410 s total
PROFILER:            orthoMatrix(matrix)     0.000651 +/-     0.000515 s, 13989 calls,      9.102869 s total
PROFILER:     RadialFunctionR::transform     0.005138 +/-     0.016527 s,  134 calls,      0.688532 s total
PROFILER:                    reduceKmesh     0.000016 +/-     0.000000 s,    1 calls,      0.000016 s total
PROFILER:   VanDerWaalsD3::energyAndGrad     0.889684 +/-     0.011137 s,   35 calls,     31.138937 s total
PROFILER:               WavefunctionDrag     0.371920 +/-     0.045976 s,   17 calls,      6.322635 s total
PROFILER:                            Y*M     0.001287 +/-     0.000884 s, 164527 calls,    211.746822 s total
PROFILER:                          Y1^Y2     0.001294 +/-     0.001023 s, 115954 calls,    150.056913 s total

MEMUSAGE:                   ColumnBundle     5.784960 GB
MEMUSAGE:        complexScalarFieldTilde     0.014954 GB
MEMUSAGE:                    IndexArrays     0.030359 GB
MEMUSAGE:                         matrix     0.171459 GB
MEMUSAGE:                           misc     0.008798 GB
MEMUSAGE:                     RealKernel     0.003762 GB
MEMUSAGE:                    ScalarField     0.381317 GB
MEMUSAGE:               ScalarFieldTilde     0.270287 GB
MEMUSAGE:                          Total     6.116683 GB
