ITEM: TIMESTEP
50
ITEM: NUMBER OF ATOMS
21
ITEM: BOX BOUNDS pp pp pp
3.5000000000000000e+01 4.8000000000000000e+01
3.5000000000000000e+01 4.8000000000000000e+01
3.5000000000000000e+01 4.8000000000000000e+01
ITEM: ATOMS id type xs ys zs
1 1 0.328032 0.494124 0.304756
6 4 0.407084 0.431909 0.254604
7 4 0.242632 0.436379 0.475149
9 4 0.355412 0.311795 0.226241
10 3 0.162973 0.418921 0.419308
14 3 0.423937 0.242342 0.211618
15 3 0.258168 0.314341 0.209928
16 2 0.248244 0.471143 0.28001
4 4 0.512888 0.43207 0.419135
5 1 0.505162 0.417604 0.305608
8 4 0.515838 0.31664 0.478194
13 3 0.558523 0.244142 0.424928
20 2 0.551039 0.486436 0.275711
21 2 0.542981 0.342807 0.283276
2 4 0.334052 0.511146 0.414826
3 1 0.431431 0.498211 0.466509
17 2 0.34861 0.573901 0.274417
18 2 0.466954 0.578323 0.459088
11 3 0.260311 0.422076 0.571358
12 3 0.490907 0.318937 0.574576
19 2 0.421211 0.476096 0.549656
