gethugepagesize()=2097152
hugetlb_default_page_size=2097152
_SC_PAGESIZE=4096
comex_page_size=2097152
comex_is_using_huge_pages=1
malloc_is_using_huge_pages=1
 argument  1 = mol.nw
                                         
                                         
 
 
              Northwest Computational Chemistry Package (NWChem) 6.3
              ------------------------------------------------------
 
 
                    Environmental Molecular Sciences Laboratory
                       Pacific Northwest National Laboratory
                                Richland, WA 99352
 
                              Copyright (c) 1994-2012
                       Pacific Northwest National Laboratory
                            Battelle Memorial Institute
 
             NWChem is an open-source computational chemistry package
                        distributed under the terms of the
                      Educational Community License (ECL) 2.0
             A copy of the license is included with this distribution
                              in the LICENSE.TXT file
 
                                  ACKNOWLEDGMENT
                                  --------------

            This software and its documentation were developed at the
            EMSL at Pacific Northwest National Laboratory, a multiprogram
            national laboratory, operated for the U.S. Department of Energy
            by Battelle under Contract Number DE-AC05-76RL01830. Support
            for this work was provided by the Department of Energy Office
            of Biological and Environmental Research, Office of Basic
            Energy Sciences, and the Office of Advanced Scientific Computing.


           Job information
           ---------------

    hostname        = nid06424
    program         = nwchem
    date            = Mon Sep 23 03:15:40 2013

    compiled        = Sat_Aug_31_14:18:53_2013
    source          = /usr/common/usg/nwchem/Build/nwchem-6.3-src.2013-05-28
    nwchem branch   = 6.3
    nwchem revision = 24277
    ga revision     = 10379
    input           = mol.nw
    prefix          = mol.
    data base       = ./mol.db
    status          = startup
    nproc           =       24
    time left       =     -1s



           Memory information
           ------------------

    heap     =   13107201 doubles =    100.0 Mbytes
    stack    =   13107201 doubles =    100.0 Mbytes
    global   =   26214400 doubles =    200.0 Mbytes (distinct from heap & stack)
    total    =   52428802 doubles =    400.0 Mbytes
    verify   = yes
    hardfail = no 


           Directory information
           ---------------------
 
  0 permanent = .
  0 scratch   = .
 
 
 
 
                                NWChem Input Module
                                -------------------
 
 

 Scaling coordinates for geometry "geometry" by  1.889725989
 (inverse scale =  0.529177249)

 C1  symmetry detected

          ------
          auto-z
          ------
 
 
                             Geometry "geometry" -> ""
                             -------------------------
 
 Output coordinates in angstroms (scale by  1.889725989 to convert to a.u.)
 
  No.       Tag          Charge          X              Y              Z
 ---- ---------------- ---------- -------------- -------------- --------------
    1 C                    6.0000    -0.87050493    -3.28150440     0.19463736
    2 C                    6.0000     0.22656599    -2.39252528     0.23993467
    3 C                    6.0000     0.05289756    -0.94306541     0.18893743
    4 C                    6.0000    -1.31255722    -0.47334032     0.05796911
    5 C                    6.0000    -2.35566735    -1.43604068     0.03093164
    6 C                    6.0000    -2.15716586    -2.80658527     0.10110118
    7 C                    6.0000     1.13863900     0.03432080     0.25668854
    8 C                    6.0000    -1.68582383     0.91538879    -0.05414150
    9 C                    6.0000    -0.59528318     1.84128907    -0.03248964
   10 C                    6.0000     0.76064064     1.42093723     0.12184394
   11 C                    6.0000     1.75423144     2.44229460     0.13380191
   12 H                    1.0000     2.79454685     2.14409717     0.25147478
   13 C                    6.0000     1.47625467     3.80283624    -0.00426293
   14 C                    6.0000     0.16698095     4.20431457    -0.15729472
   15 C                    6.0000    -0.83862879     3.23790832    -0.16677111
   16 H                    1.0000    -0.70774447    -4.35349890     0.22614207
   17 H                    1.0000    -3.38275881    -1.08431716    -0.05648993
   18 H                    1.0000    -3.00473729    -3.47862870     0.06829633
   19 H                    1.0000     2.28581576     4.52107894     0.00829385
   20 H                    1.0000    -0.08924249     5.24989840    -0.26939843
   21 H                    1.0000    -1.86819460     3.56991008    -0.28737175
   22 O                    8.0000    -2.91843839     1.30667617    -0.17566599
   23 O                    8.0000     2.37957425    -0.28788356     0.42955685
   24 C                    6.0000     1.58192923    -3.08334848     0.28857969
   25 C                    6.0000     2.22504121    -3.19678963    -1.08904888
   26 H                    1.0000     2.24725576    -2.62668232     1.02474064
   27 H                    1.0000     1.45487673    -4.10373083     0.67703877
   28 H                    1.0000     1.61081776    -3.81087784    -1.75669766
   29 H                    1.0000     2.35620499    -2.22427155    -1.57212606
   30 H                    1.0000     3.20877556    -3.66985907    -1.00752963
 
      Atomic Mass 
      ----------- 
 
      C                 12.000000
      H                  1.007825
      O                 15.994910
 

 Effective nuclear repulsion energy (a.u.)    1211.5801045643

            Nuclear Dipole moment (a.u.) 
            ----------------------------
        X                 Y               Z
 ---------------- ---------------- ----------------
    -0.0000000000     0.0000000000     0.0000000000
 


                                Z-matrix (autoz)
                                -------- 

 Units are Angstrom for bonds and degrees for angles
 
      Type          Name      I     J     K     L     M      Value
      ----------- --------  ----- ----- ----- ----- ----- ----------
    1 Stretch                  1     2                       1.41276
    2 Stretch                  1     6                       1.37470
    3 Stretch                  1    16                       1.08474
    4 Stretch                  2     3                       1.46072
    5 Stretch                  2    24                       1.52204
    6 Stretch                  3     4                       1.44992
    7 Stretch                  3     7                       1.46243
    8 Stretch                  4     5                       1.41972
    9 Stretch                  4     8                       1.44238
   10 Stretch                  5     6                       1.38662
   11 Stretch                  5    17                       1.08916
   12 Stretch                  6    18                       1.08217
   13 Stretch                  7    10                       1.44353
   14 Stretch                  7    23                       1.29368
   15 Stretch                  8     9                       1.43075
   16 Stretch                  8    22                       1.29893
   17 Stretch                  9    10                       1.42795
   18 Stretch                  9    15                       1.42401
   19 Stretch                 10    11                       1.42497
   20 Stretch                 11    12                       1.08859
   21 Stretch                 11    13                       1.39549
   22 Stretch                 13    14                       1.37797
   23 Stretch                 13    19                       1.08232
   24 Stretch                 14    15                       1.39473
   25 Stretch                 14    20                       1.08234
   26 Stretch                 15    21                       1.08847
   27 Stretch                 24    25                       1.52457
   28 Stretch                 24    26                       1.09231
   29 Stretch                 24    27                       1.09919
   30 Stretch                 25    28                       1.09550
   31 Stretch                 25    29                       1.09378
   32 Stretch                 25    30                       1.09461
   33 Bend                     1     2     3               122.06996
   34 Bend                     1     2    24               114.01184
   35 Bend                     1     6     5               118.61335
   36 Bend                     1     6    18               121.37088
   37 Bend                     2     1     6               120.77088
   38 Bend                     2     1    16               120.29206
   39 Bend                     2     3     4               115.88652
   40 Bend                     2     3     7               124.98015
   41 Bend                     2    24    25               112.36644
   42 Bend                     2    24    26               111.97384
   43 Bend                     2    24    27               109.25073
   44 Bend                     3     2    24               123.87408
   45 Bend                     3     4     5               118.29233
   46 Bend                     3     4     8               124.23903
   47 Bend                     3     7    10               116.31105
   48 Bend                     3     7    23               123.49654
   49 Bend                     4     3     7               119.13317
   50 Bend                     4     5     6               124.33887
   51 Bend                     4     5    17               118.38613
   52 Bend                     4     8     9               115.12824
   53 Bend                     4     8    22               122.87983
   54 Bend                     5     4     8               117.46791
   55 Bend                     5     6    18               120.01050
   56 Bend                     6     1    16               118.93560
   57 Bend                     6     5    17               117.27395
   58 Bend                     7    10     9               122.78675
   59 Bend                     7    10    11               120.33997
   60 Bend                     8     9    10               122.33736
   61 Bend                     8     9    15               120.19983
   62 Bend                     9     8    22               121.99028
   63 Bend                     9    10    11               116.87291
   64 Bend                     9    15    14               123.76024
   65 Bend                     9    15    21               118.11464
   66 Bend                    10     7    23               120.19225
   67 Bend                    10     9    15               117.46281
   68 Bend                    10    11    12               118.09384
   69 Bend                    10    11    13               123.99226
   70 Bend                    11    13    14               118.96727
   71 Bend                    11    13    19               119.79168
   72 Bend                    12    11    13               117.91274
   73 Bend                    13    14    15               118.94280
   74 Bend                    13    14    20               121.19093
   75 Bend                    14    13    19               121.24093
   76 Bend                    14    15    21               118.12473
   77 Bend                    15    14    20               119.86627
   78 Bend                    24    25    28               110.84879
   79 Bend                    24    25    29               112.55157
   80 Bend                    24    25    30               110.11863
   81 Bend                    25    24    26               112.52971
   82 Bend                    25    24    27               107.39914
   83 Bend                    26    24    27               102.72825
   84 Bend                    28    25    29               107.24605
   85 Bend                    28    25    30               107.87919
   86 Bend                    29    25    30               108.02229
   87 Torsion                  1     2     3     4          -1.36504
   88 Torsion                  1     2     3     7         178.77821
   89 Torsion                  1     2    24    25          96.58886
   90 Torsion                  1     2    24    26        -135.61726
   91 Torsion                  1     2    24    27         -22.50270
   92 Torsion                  1     6     5     4          -0.44429
   93 Torsion                  1     6     5    17         179.17749
   94 Torsion                  2     1     6     5           0.99528
   95 Torsion                  2     1     6    18        -179.84015
   96 Torsion                  2     3     4     5           1.84243
   97 Torsion                  2     3     4     8        -177.83814
   98 Torsion                  2     3     7    10         176.99638
   99 Torsion                  2     3     7    23          -3.14593
  100 Torsion                  2    24    25    28         -62.44682
  101 Torsion                  2    24    25    29          57.66344
  102 Torsion                  2    24    25    30         178.25350
  103 Torsion                  3     2     1     6          -0.06839
  104 Torsion                  3     2     1    16         179.48766
  105 Torsion                  3     2    24    25         -81.03444
  106 Torsion                  3     2    24    26          46.75945
  107 Torsion                  3     2    24    27         159.87400
  108 Torsion                  3     4     5     6          -1.03718
  109 Torsion                  3     4     5    17         179.34494
  110 Torsion                  3     4     8     9           0.18374
  111 Torsion                  3     4     8    22         179.72396
  112 Torsion                  3     7    10     9           1.70256
  113 Torsion                  3     7    10    11        -178.06709
  114 Torsion                  4     3     2    24         176.07285
  115 Torsion                  4     3     7    10          -2.85609
  116 Torsion                  4     3     7    23         177.00160
  117 Torsion                  4     5     6    18        -179.62056
  118 Torsion                  4     8     9    10          -1.46310
  119 Torsion                  4     8     9    15         178.56137
  120 Torsion                  5     4     3     7        -178.29194
  121 Torsion                  5     4     8     9        -179.49925
  122 Torsion                  5     4     8    22           0.04097
  123 Torsion                  5     6     1    16        -178.56670
  124 Torsion                  6     1     2    24        -177.73977
  125 Torsion                  6     5     4     8         178.66520
  126 Torsion                  7     3     2    24          -3.78390
  127 Torsion                  7     3     4     8           2.02749
  128 Torsion                  7    10     9     8           0.52020
  129 Torsion                  7    10     9    15        -179.50363
  130 Torsion                  7    10    11    12          -0.28299
  131 Torsion                  7    10    11    13         179.31687
  132 Torsion                  8     4     5    17          -0.95269
  133 Torsion                  8     9    10    11        -179.70268
  134 Torsion                  8     9    15    14        -179.93149
  135 Torsion                  8     9    15    21          -0.16427
  136 Torsion                  9    10     7    23        -178.16014
  137 Torsion                  9    10    11    12         179.93412
  138 Torsion                  9    10    11    13          -0.46603
  139 Torsion                  9    15    14    13          -0.29909
  140 Torsion                  9    15    14    20         179.68991
  141 Torsion                 10     9     8    22         178.99217
  142 Torsion                 10     9    15    14           0.09180
  143 Torsion                 10     9    15    21         179.85903
  144 Torsion                 10    11    13    14           0.26944
  145 Torsion                 10    11    13    19        -179.60599
  146 Torsion                 11    10     7    23           2.07021
  147 Torsion                 11    10     9    15           0.27350
  148 Torsion                 11    13    14    15           0.11798
  149 Torsion                 11    13    14    20        -179.87087
  150 Torsion                 12    11    13    14         179.86996
  151 Torsion                 12    11    13    19          -0.00546
  152 Torsion                 13    14    15    21         179.93370
  153 Torsion                 15     9     8    22          -0.98337
  154 Torsion                 15    14    13    19         179.99153
  155 Torsion                 16     1     2    24           1.81628
  156 Torsion                 16     1     6    18           0.59787
  157 Torsion                 17     5     6    18           0.00123
  158 Torsion                 19    13    14    20           0.00268
  159 Torsion                 20    14    15    21          -0.07730
  160 Torsion                 26    24    25    28         170.05413
  161 Torsion                 26    24    25    29         -69.83561
  162 Torsion                 26    24    25    30          50.75446
  163 Torsion                 27    24    25    28          57.72297
  164 Torsion                 27    24    25    29         177.83323
  165 Torsion                 27    24    25    30         -61.57670
 
 
            XYZ format geometry
            -------------------
    30
 geometry
 C                    -0.87050493    -3.28150440     0.19463736
 C                     0.22656599    -2.39252528     0.23993467
 C                     0.05289756    -0.94306541     0.18893743
 C                    -1.31255722    -0.47334032     0.05796911
 C                    -2.35566735    -1.43604068     0.03093164
 C                    -2.15716586    -2.80658527     0.10110118
 C                     1.13863900     0.03432080     0.25668854
 C                    -1.68582383     0.91538879    -0.05414150
 C                    -0.59528318     1.84128907    -0.03248964
 C                     0.76064064     1.42093723     0.12184394
 C                     1.75423144     2.44229460     0.13380191
 H                     2.79454685     2.14409717     0.25147478
 C                     1.47625467     3.80283624    -0.00426293
 C                     0.16698095     4.20431457    -0.15729472
 C                    -0.83862879     3.23790832    -0.16677111
 H                    -0.70774447    -4.35349890     0.22614207
 H                    -3.38275881    -1.08431716    -0.05648993
 H                    -3.00473729    -3.47862870     0.06829633
 H                     2.28581576     4.52107894     0.00829385
 H                    -0.08924249     5.24989840    -0.26939843
 H                    -1.86819460     3.56991008    -0.28737175
 O                    -2.91843839     1.30667617    -0.17566599
 O                     2.37957425    -0.28788356     0.42955685
 C                     1.58192923    -3.08334848     0.28857969
 C                     2.22504121    -3.19678963    -1.08904888
 H                     2.24725576    -2.62668232     1.02474064
 H                     1.45487673    -4.10373083     0.67703877
 H                     1.61081776    -3.81087784    -1.75669766
 H                     2.35620499    -2.22427155    -1.57212606
 H                     3.20877556    -3.66985907    -1.00752963
 
 ==============================================================================
                                internuclear distances
 ------------------------------------------------------------------------------
       center one      |      center two      | atomic units |  angstroms
 ------------------------------------------------------------------------------
    2 C                |   1 C                |     2.66974  |     1.41276
    3 C                |   2 C                |     2.76036  |     1.46072
    4 C                |   3 C                |     2.73995  |     1.44992
    5 C                |   4 C                |     2.68288  |     1.41972
    6 C                |   1 C                |     2.59780  |     1.37470
    6 C                |   5 C                |     2.62033  |     1.38662
    7 C                |   3 C                |     2.76360  |     1.46243
    8 C                |   4 C                |     2.72571  |     1.44238
    9 C                |   8 C                |     2.70372  |     1.43075
   10 C                |   7 C                |     2.72787  |     1.44353
   10 C                |   9 C                |     2.69844  |     1.42795
   11 C                |  10 C                |     2.69280  |     1.42497
   12 H                |  11 C                |     2.05713  |     1.08859
   13 C                |  11 C                |     2.63710  |     1.39550
   14 C                |  13 C                |     2.60399  |     1.37797
   15 C                |   9 C                |     2.69098  |     1.42401
   15 C                |  14 C                |     2.63566  |     1.39473
   16 H                |   1 C                |     2.04986  |     1.08474
   17 H                |   5 C                |     2.05821  |     1.08916
   18 H                |   6 C                |     2.04501  |     1.08217
   19 H                |  13 C                |     2.04529  |     1.08232
   20 H                |  14 C                |     2.04533  |     1.08234
   21 H                |  15 C                |     2.05692  |     1.08847
   22 O                |   8 C                |     2.45462  |     1.29893
   23 O                |   7 C                |     2.44471  |     1.29368
   24 C                |   2 C                |     2.87624  |     1.52204
   25 C                |  24 C                |     2.88102  |     1.52457
   26 H                |  24 C                |     2.06416  |     1.09231
   27 H                |  24 C                |     2.07717  |     1.09919
   28 H                |  25 C                |     2.07020  |     1.09550
   29 H                |  25 C                |     2.06695  |     1.09378
   30 H                |  25 C                |     2.06851  |     1.09461
 ------------------------------------------------------------------------------
                         number of included internuclear distances:         32
 ==============================================================================



 ==============================================================================
                                 internuclear angles
 ------------------------------------------------------------------------------
        center 1       |       center 2       |       center 3       |  degrees
 ------------------------------------------------------------------------------
    2 C                |   1 C                |   6 C                |   120.77
    2 C                |   1 C                |  16 H                |   120.29
    6 C                |   1 C                |  16 H                |   118.94
    1 C                |   2 C                |   3 C                |   122.07
    1 C                |   2 C                |  24 C                |   114.01
    3 C                |   2 C                |  24 C                |   123.87
    2 C                |   3 C                |   4 C                |   115.89
    2 C                |   3 C                |   7 C                |   124.98
    4 C                |   3 C                |   7 C                |   119.13
    3 C                |   4 C                |   5 C                |   118.29
    3 C                |   4 C                |   8 C                |   124.24
    5 C                |   4 C                |   8 C                |   117.47
    4 C                |   5 C                |   6 C                |   124.34
    4 C                |   5 C                |  17 H                |   118.39
    6 C                |   5 C                |  17 H                |   117.27
    1 C                |   6 C                |   5 C                |   118.61
    1 C                |   6 C                |  18 H                |   121.37
    5 C                |   6 C                |  18 H                |   120.01
    3 C                |   7 C                |  10 C                |   116.31
    3 C                |   7 C                |  23 O                |   123.50
   10 C                |   7 C                |  23 O                |   120.19
    4 C                |   8 C                |   9 C                |   115.13
    4 C                |   8 C                |  22 O                |   122.88
    9 C                |   8 C                |  22 O                |   121.99
    8 C                |   9 C                |  10 C                |   122.34
    8 C                |   9 C                |  15 C                |   120.20
   10 C                |   9 C                |  15 C                |   117.46
    7 C                |  10 C                |   9 C                |   122.79
    7 C                |  10 C                |  11 C                |   120.34
    9 C                |  10 C                |  11 C                |   116.87
   10 C                |  11 C                |  12 H                |   118.09
   10 C                |  11 C                |  13 C                |   123.99
   12 H                |  11 C                |  13 C                |   117.91
   11 C                |  13 C                |  14 C                |   118.97
   11 C                |  13 C                |  19 H                |   119.79
   14 C                |  13 C                |  19 H                |   121.24
   13 C                |  14 C                |  15 C                |   118.94
   13 C                |  14 C                |  20 H                |   121.19
   15 C                |  14 C                |  20 H                |   119.87
    9 C                |  15 C                |  14 C                |   123.76
    9 C                |  15 C                |  21 H                |   118.11
   14 C                |  15 C                |  21 H                |   118.12
    2 C                |  24 C                |  25 C                |   112.37
    2 C                |  24 C                |  26 H                |   111.97
    2 C                |  24 C                |  27 H                |   109.25
   25 C                |  24 C                |  26 H                |   112.53
   25 C                |  24 C                |  27 H                |   107.40
   26 H                |  24 C                |  27 H                |   102.73
   24 C                |  25 C                |  28 H                |   110.85
   24 C                |  25 C                |  29 H                |   112.55
   24 C                |  25 C                |  30 H                |   110.12
   28 H                |  25 C                |  29 H                |   107.25
   28 H                |  25 C                |  30 H                |   107.88
   29 H                |  25 C                |  30 H                |   108.02
 ------------------------------------------------------------------------------
                            number of included internuclear angles:         54
 ==============================================================================



                               H12C16O2 dft optimize
                               ---------------------
  library name resolved from: environment
  library file name is: </usr/common/usg/nwchem/6.3/data/libraries/>
  
                      Basis "ao basis" -> "" (cartesian)
                      -----
  H (Hydrogen)
  ------------
            Exponent  Coefficients 
       -------------- ---------------------------------------------------------
  1 S  1.87311370E+01  0.033495
  1 S  2.82539370E+00  0.234727
  1 S  6.40121700E-01  0.813757
 
  2 S  1.61277800E-01  1.000000
 
  C (Carbon)
  ----------
            Exponent  Coefficients 
       -------------- ---------------------------------------------------------
  1 S  3.04752490E+03  0.001835
  1 S  4.57369510E+02  0.014037
  1 S  1.03948690E+02  0.068843
  1 S  2.92101550E+01  0.232184
  1 S  9.28666300E+00  0.467941
  1 S  3.16392700E+00  0.362312
 
  2 S  7.86827240E+00 -0.119332
  2 S  1.88128850E+00 -0.160854
  2 S  5.44249300E-01  1.143456
 
  3 P  7.86827240E+00  0.068999
  3 P  1.88128850E+00  0.316424
  3 P  5.44249300E-01  0.744308
 
  4 S  1.68714400E-01  1.000000
 
  5 P  1.68714400E-01  1.000000
 
  6 S  4.38000000E-02  1.000000
 
  7 P  4.38000000E-02  1.000000
 
  8 D  8.00000000E-01  1.000000
 
  O (Oxygen)
  ----------
            Exponent  Coefficients 
       -------------- ---------------------------------------------------------
  1 S  5.48467170E+03  0.001831
  1 S  8.25234950E+02  0.013950
  1 S  1.88046960E+02  0.068445
  1 S  5.29645000E+01  0.232714
  1 S  1.68975700E+01  0.470193
  1 S  5.79963530E+00  0.358521
 
  2 S  1.55396160E+01 -0.110778
  2 S  3.59993360E+00 -0.148026
  2 S  1.01376180E+00  1.130767
 
  3 P  1.55396160E+01  0.070874
  3 P  3.59993360E+00  0.339753
  3 P  1.01376180E+00  0.727159
 
  4 S  2.70005800E-01  1.000000
 
  5 P  2.70005800E-01  1.000000
 
  6 S  8.45000000E-02  1.000000
 
  7 P  8.45000000E-02  1.000000
 
  8 D  8.00000000E-01  1.000000
 


 Summary of "ao basis" -> "" (cartesian)
 ------------------------------------------------------------------------------
       Tag                 Description            Shells   Functions and Types
 ---------------- ------------------------------  ------  ---------------------
 H                          6-31+G*                  2        2   2s
 C                          6-31+G*                  8       19   4s3p1d
 O                          6-31+G*                  8       19   4s3p1d


 
 
                           NWChem Geometry Optimization
                           ----------------------------
 
 
 
 
                               H12C16O2 dft optimize
 
 
 maximum gradient threshold         (gmax) =   0.000450
 rms gradient threshold             (grms) =   0.000300
 maximum cartesian step threshold   (xmax) =   0.001800
 rms cartesian step threshold       (xrms) =   0.001200
 fixed trust radius                (trust) =   0.300000
 maximum step size to saddle      (sadstp) =   0.100000
 energy precision                  (eprec) =   5.0D-06
 maximum number of steps          (nptopt) =   20
 initial hessian option           (inhess) =    0
 line search option               (linopt) =    1
 hessian update option            (modupd) =    1
 saddle point option              (modsad) =    0
 initial eigen-mode to follow     (moddir) =    0
 initial variable to follow       (vardir) =    0
 follow first negative mode     (firstneg) =    T
 apply conjugacy                    (opcg) =    F
 source of zmatrix                         =   autoz   


          -------------------
          Energy Minimization
          -------------------

 
 Names of Z-matrix variables 
    1              2              3              4              5         
    6              7              8              9             10         
   11             12             13             14             15         
   16             17             18             19             20         
   21             22             23             24             25         
   26             27             28             29             30         
   31             32             33             34             35         
   36             37             38             39             40         
   41             42             43             44             45         
   46             47             48             49             50         
   51             52             53             54             55         
   56             57             58             59             60         
   61             62             63             64             65         
   66             67             68             69             70         
   71             72             73             74             75         
   76             77             78             79             80         
   81             82             83             84             85         
   86             87             88             89             90         
   91             92             93             94             95         
   96             97             98             99            100         
  101            102            103            104            105         
  106            107            108            109            110         
  111            112            113            114            115         
  116            117            118            119            120         
  121            122            123            124            125         
  126            127            128            129            130         
  131            132            133            134            135         
  136            137            138            139            140         
  141            142            143            144            145         
  146            147            148            149            150         
  151            152            153            154            155         
  156            157            158            159            160         
  161            162            163            164            165         
 
 Variables with the same non-blank name are constrained to be equal
 
 
 Using diagonal initial Hessian 
 Scaling for Hessian diagonals: bonds = 1.00  angles = 0.25  torsions = 0.10

          --------
          Step   0
          --------
 
 
                         Geometry "geometry" -> "geometry"
                         ---------------------------------
 
 Output coordinates in angstroms (scale by  1.889725989 to convert to a.u.)
 
  No.       Tag          Charge          X              Y              Z
 ---- ---------------- ---------- -------------- -------------- --------------
    1 C                    6.0000    -0.87050493    -3.28150440     0.19463736
    2 C                    6.0000     0.22656599    -2.39252528     0.23993467
    3 C                    6.0000     0.05289756    -0.94306541     0.18893743
    4 C                    6.0000    -1.31255722    -0.47334032     0.05796911
    5 C                    6.0000    -2.35566735    -1.43604068     0.03093164
    6 C                    6.0000    -2.15716586    -2.80658527     0.10110118
    7 C                    6.0000     1.13863900     0.03432080     0.25668854
    8 C                    6.0000    -1.68582383     0.91538879    -0.05414150
    9 C                    6.0000    -0.59528318     1.84128907    -0.03248964
   10 C                    6.0000     0.76064064     1.42093723     0.12184394
   11 C                    6.0000     1.75423144     2.44229460     0.13380191
   12 H                    1.0000     2.79454685     2.14409717     0.25147478
   13 C                    6.0000     1.47625467     3.80283624    -0.00426293
   14 C                    6.0000     0.16698095     4.20431457    -0.15729472
   15 C                    6.0000    -0.83862879     3.23790832    -0.16677111
   16 H                    1.0000    -0.70774447    -4.35349890     0.22614207
   17 H                    1.0000    -3.38275881    -1.08431716    -0.05648993
   18 H                    1.0000    -3.00473729    -3.47862870     0.06829633
   19 H                    1.0000     2.28581576     4.52107894     0.00829385
   20 H                    1.0000    -0.08924249     5.24989840    -0.26939843
   21 H                    1.0000    -1.86819460     3.56991008    -0.28737175
   22 O                    8.0000    -2.91843839     1.30667617    -0.17566599
   23 O                    8.0000     2.37957425    -0.28788356     0.42955685
   24 C                    6.0000     1.58192923    -3.08334848     0.28857969
   25 C                    6.0000     2.22504121    -3.19678963    -1.08904888
   26 H                    1.0000     2.24725576    -2.62668232     1.02474064
   27 H                    1.0000     1.45487673    -4.10373083     0.67703877
   28 H                    1.0000     1.61081776    -3.81087784    -1.75669766
   29 H                    1.0000     2.35620499    -2.22427155    -1.57212606
   30 H                    1.0000     3.20877556    -3.66985907    -1.00752963
 
      Atomic Mass 
      ----------- 
 
      C                 12.000000
      H                  1.007825
      O                 15.994910
 

 Effective nuclear repulsion energy (a.u.)    1211.5801045643

            Nuclear Dipole moment (a.u.) 
            ----------------------------
        X                 Y               Z
 ---------------- ---------------- ----------------
    -0.0000000000     0.0000000000     0.0000000000
 
 
                                 NWChem DFT Module
                                 -----------------
 
 
                               H12C16O2 dft optimize
 
 
  Caching 1-el integrals 
 
            General Information
            -------------------
          SCF calculation type: DFT
          Wavefunction type:  closed shell.
          No. of atoms     :    30
          No. of electrons :   124
           Alpha electrons :    62
            Beta electrons :    62
          Charge           :     0
          Spin multiplicity:     1
          Use of symmetry is: off; symmetry adaption is: off
          Maximum number of iterations: 300
          AO basis - number of functions:   366
                     number of shells:   168
          Convergence on energy requested: 1.00D-06
          Convergence on density requested: 1.00D-05
          Convergence on gradient requested: 5.00D-04
 
              XC Information
              --------------
                         B3LYP Method XC Potential
                     Hartree-Fock (Exact) Exchange  0.200          
                        Slater Exchange Functional  0.800 local    
                    Becke 1988 Exchange Functional  0.720 non-local
              Lee-Yang-Parr Correlation Functional  0.810          
                  VWN I RPA Correlation Functional  0.190 local    
 
             Grid Information
             ----------------
          Grid used for XC integration:  medium    
          Radial quadrature: Mura-Knowles        
          Angular quadrature: Lebedev. 
          Tag              B.-S. Rad. Rad. Pts. Rad. Cut. Ang. Pts.
          ---              ---------- --------- --------- ---------
          C                   0.70       49          20.0       434
          H                   0.35       45          21.0       434
          O                   0.60       49          18.0       434
          Grid pruning is: on 
          Number of quadrature shells:  1422
          Spatial weights used:  Erf1
 
          Convergence Information
          -----------------------
          Convergence aids based upon iterative change in 
          total energy or number of iterations. 
          Levelshifting, if invoked, occurs when the 
          HOMO/LUMO gap drops below (HL_TOL): 1.00D-02
          DIIS, if invoked, will attempt to extrapolate 
          using up to (NFOCK): 10 stored Fock matrices.

                    Damping( 0%)  Levelshifting(0.5)       DIIS
                  --------------- ------------------- ---------------
          dE  on:    start            ASAP                start   
          dE off:    2 iters        300 iters           300 iters 

 
      Screening Tolerance Information
      -------------------------------
          Density screening/tol_rho: 1.00D-10
          AO Gaussian exp screening on grid/accAOfunc:  14
          CD Gaussian exp screening on grid/accCDfunc:  20
          XC Gaussian exp screening on grid/accXCfunc:  20
          Schwarz screening/accCoul: 1.00D-08

 
 WARNING : Found    13 linear dependencies 
 S eigenvalue threshold:     1.00000E-05
 Smallest S eigenvalue :     7.55501E-08
 Largest  S eigenvalue :     9.50217E-06
 

 !! The overlap matrix has  13 vectors deemed linearly dependent with
    eigenvalues:
 7.56D-08 9.24D-08 2.46D-07 4.88D-07 5.97D-07 9.03D-07 1.10D-06 2.56D-06
 2.76D-06 4.35D-06 6.99D-06 7.78D-06 9.50D-06
 
 
      Superposition of Atomic Density Guess
      -------------------------------------
 
 Sum of atomic energies:        -758.10813995
 
      Non-variational initial energy
      ------------------------------

 Total energy =    -770.265225
 1-e energy   =   -3431.486808
 2-e energy   =    1449.641479
 HOMO         =      -0.287864
 LUMO         =      -0.157643
 
   Time after variat. SCF:     13.3
   Time prior to 1st pass:     13.3

 Grid_pts file          = ./mol.gridpts.00
 Record size in doubles =  12289        No. of grid_pts per rec  =   3070
 Max. records in memory =     11        Max. recs in file   =  42218779

 Grid integrated density:     123.762193854974
 Requested integration accuracy:   0.10E-05

           Memory utilization after 1st SCF pass: 
           Heap Space remaining (MW):        6.64             6640044
          Stack Space remaining (MW):       13.10            13104177

   convergence    iter        energy       DeltaE   RMS-Dens  Diis-err    time
 ---------------- ----- ----------------- --------- --------- ---------  ------
 d= 0,ls=0.0,diis     1   -753.8104694366 -1.97D+03  2.27D+02  7.82D+02    27.8
 Grid integrated density:     123.999862832985
 Requested integration accuracy:   0.10E-05
 d= 0,ls=0.5,diis     2   -745.8550275210  7.96D+00  1.63D+02  8.69D+01    45.6
 d= 0,ls=0.5,diis     3   -583.3521287284  1.63D+02  7.86D+00  8.19D+02    63.3
 Grid integrated density:     123.999785152275
 Requested integration accuracy:   0.10E-05
 d= 0,ls=0.5,diis     4   -705.1012044628 -1.22D+02  5.38D+00  3.24D+02    81.1
 Grid integrated density:     123.999815779519
 Requested integration accuracy:   0.10E-05
 d= 0,ls=0.5,diis     5   -741.5485306810 -3.64D+01  5.24D-01  1.74D+02    98.8
 Grid integrated density:     123.999807786312
 Requested integration accuracy:   0.10E-05
 d= 0,ls=0.5,diis     6   -754.4426982086 -1.29D+01  8.85D-01  8.81D+01   116.6
 Grid integrated density:     123.999803957700
 Requested integration accuracy:   0.10E-05
 d= 0,ls=0.5,diis     7   -760.0029417750 -5.56D+00  2.48D+01  3.31D+01   134.4
 d= 0,ls=0.5,diis     8   -764.7680175745 -4.77D+00  2.14D+00  7.32D+00   152.1
 d= 0,ls=0.5,diis     9   -765.5313473034 -7.63D-01  3.46D+00  2.78D+00   169.7
 d= 0,ls=0.5,diis    10   -765.8803417353 -3.49D-01  6.52D+00  1.29D+00   187.4
 d= 0,ls=0.5,diis    11   -766.1522381164 -2.72D-01  9.91D+01  7.77D-01   205.0
 d= 0,ls=0.5,diis    12   -767.1554372103 -1.00D+00  1.75D+01  5.99D-01   222.4
 d= 0,ls=0.5,diis    13   -767.3263966783 -1.71D-01  4.78D+00  1.90D-01   239.4
 d= 0,ls=0.5,diis    14   -767.3811749095 -5.48D-02  1.25D+00  5.23D-02   256.0
  Resetting Diis
 d= 0,ls=0.5,diis    15   -767.3966339504 -1.55D-02  3.22D-01  1.41D-02   272.0
 d= 0,ls=0.5,diis    16   -767.4011330404 -4.50D-03  8.21D-02  3.92D-03   287.6
 d= 0,ls=0.5,diis    17   -767.4025710001 -1.44D-03  2.54D-02  1.30D-03   302.7
 d= 0,ls=0.5,diis    18   -767.4030433882 -4.72D-04  8.58D-03  4.56D-04   317.7
 d= 0,ls=0.5,diis    19   -767.4032189492 -1.76D-04  3.18D-03  2.26D-04   332.6
 d= 0,ls=0.5,diis    20   -767.4033019145 -8.30D-05  1.34D-03  7.31D-05   347.6
 d= 0,ls=0.5,diis    21   -767.4033385728 -3.67D-05  6.25D-04  3.25D-05   362.5
 d= 0,ls=0.5,diis    22   -767.4033559307 -1.74D-05  3.10D-04  1.48D-05   377.5
 d= 0,ls=0.5,diis    23   -767.4033643067 -8.38D-06  1.64D-04  7.95D-06   392.5
 d= 0,ls=0.5,diis    24   -767.4033685981 -4.29D-06  8.82D-05  4.07D-06   407.4
 d= 0,ls=0.5,diis    25   -767.4033707365 -2.14D-06  4.90D-05  2.69D-06   422.4
 d= 0,ls=0.5,diis    26   -767.4033719608 -1.22D-06  2.80D-05  1.57D-06   437.4
 d= 0,ls=0.5,diis    27   -767.4033726216 -6.61D-07  1.66D-05  1.09D-06   452.3
 d= 0,ls=0.5,diis    28   -767.4033730139 -3.92D-07  9.44D-06  6.92D-07   467.3


         Total DFT energy =     -767.403373240803
      One electron energy =    -3444.715305182869
           Coulomb energy =     1574.029840070485
    Exchange-Corr. energy =     -108.298012692688
 Nuclear repulsion energy =     1211.580104564268

 Numeric. integr. density =      123.999982476351

     Total iterative time =    468.8s


 
                       DFT Final Molecular Orbital Analysis
                       ------------------------------------
 
 Vector   18  Occ=2.000000D+00  E=-1.018083D+01
              MO Center=  2.2D+00, -3.2D+00, -1.1D+00, r^2= 2.8D-02
   Bfn.  Coefficient  Atom+Function         Bfn.  Coefficient  Atom+Function  
  ----- ------------  ---------------      ----- ------------  ---------------
   338      0.992999  25 C  s         
 
 Vector   19  Occ=2.000000D+00  E=-1.022149D+00
              MO Center=  1.4D+00,  9.2D-03,  3.0D-01, r^2= 3.1D+00
   Bfn.  Coefficient  Atom+Function         Bfn.  Coefficient  Atom+Function  
  ----- ------------  ---------------      ----- ------------  ---------------
   305      0.444125  23 O  s               301      0.375524  23 O  s         
   116      0.212230   7 C  s               300     -0.176826  23 O  s         
   286      0.154140  22 O  s         
 
 Vector   20  Occ=2.000000D+00  E=-1.016774D+00
              MO Center= -1.9D+00,  9.9D-01, -6.6D-02, r^2= 3.3D+00
   Bfn.  Coefficient  Atom+Function         Bfn.  Coefficient  Atom+Function  
  ----- ------------  ---------------      ----- ------------  ---------------
   286      0.458225  22 O  s               282      0.377633  22 O  s         
   135      0.209812   8 C  s               305     -0.195936  23 O  s         
   281     -0.178187  22 O  s               301     -0.151774  23 O  s         
 
 Vector   21  Occ=2.000000D+00  E=-8.941757D-01
              MO Center= -2.3D-01,  6.5D-01,  6.4D-02, r^2= 6.3D+00
   Bfn.  Coefficient  Atom+Function         Bfn.  Coefficient  Atom+Function  
  ----- ------------  ---------------      ----- ------------  ---------------
   154      0.156486   9 C  s               173      0.155497  10 C  s         
 
 Vector   22  Occ=2.000000D+00  E=-8.806962D-01
              MO Center= -3.2D-01,  1.1D-01,  6.7D-02, r^2= 9.0D+00
   Bfn.  Coefficient  Atom+Function         Bfn.  Coefficient  Atom+Function  
  ----- ------------  ---------------      ----- ------------  ---------------
     2      0.143692   1 C  s                21      0.143054   2 C  s         
    97      0.139314   6 C  s         
 
 Vector   23  Occ=2.000000D+00  E=-8.275622D-01
              MO Center= -1.4D-01,  5.4D-01,  5.0D-02, r^2= 9.1D+00
   Bfn.  Coefficient  Atom+Function         Bfn.  Coefficient  Atom+Function  
  ----- ------------  ---------------      ----- ------------  ---------------
   213      0.161611  13 C  s               232      0.160726  14 C  s         
 
 Vector   24  Occ=2.000000D+00  E=-8.026231D-01
              MO Center= -2.5D-02, -2.2D+00,  2.7D-02, r^2= 5.4D+00
   Bfn.  Coefficient  Atom+Function         Bfn.  Coefficient  Atom+Function  
  ----- ------------  ---------------      ----- ------------  ---------------
   320      0.208022  24 C  s                78     -0.192783   5 C  s         
    21      0.184292   2 C  s               324      0.175031  24 C  s         
    97     -0.156637   6 C  s                82     -0.153770   5 C  s         
 
 Vector   25  Occ=2.000000D+00  E=-7.774253D-01
              MO Center=  3.2D-01,  2.3D+00,  6.3D-04, r^2= 4.0D+00
   Bfn.  Coefficient  Atom+Function         Bfn.  Coefficient  Atom+Function  
  ----- ------------  ---------------      ----- ------------  ---------------
   251     -0.228130  15 C  s               192      0.226361  11 C  s         
   255     -0.193106  15 C  s               196      0.192014  11 C  s         
   154     -0.166283   9 C  s               158     -0.163328   9 C  s         
 
 Vector   26  Occ=2.000000D+00  E=-7.756441D-01
              MO Center= -3.3D-01,  3.9D-01,  6.1D-02, r^2= 9.0D+00
   Bfn.  Coefficient  Atom+Function         Bfn.  Coefficient  Atom+Function  
  ----- ------------  ---------------      ----- ------------  ---------------
    59     -0.169713   4 C  s               173      0.168527  10 C  s         
    40     -0.160978   3 C  s               232     -0.159629  14 C  s         
    97      0.157112   6 C  s                 2      0.155287   1 C  s         
 
 Vector   27  Occ=2.000000D+00  E=-7.440369D-01
              MO Center=  5.2D-01, -1.7D+00, -2.0D-01, r^2= 7.6D+00
   Bfn.  Coefficient  Atom+Function         Bfn.  Coefficient  Atom+Function  
  ----- ------------  ---------------      ----- ------------  ---------------
   339      0.211759  25 C  s               343      0.196494  25 C  s         
   320      0.166430  24 C  s                40     -0.154950   3 C  s         
    44     -0.152504   3 C  s               324      0.152519  24 C  s         
 
 Vector   28  Occ=2.000000D+00  E=-7.057227D-01
              MO Center= -1.5D-01,  5.6D-02, -2.3D-02, r^2= 9.1D+00
   Bfn.  Coefficient  Atom+Function         Bfn.  Coefficient  Atom+Function  
  ----- ------------  ---------------      ----- ------------  ---------------
   135     -0.166706   8 C  s               116      0.154654   7 C  s         
 
 Vector   29  Occ=2.000000D+00  E=-6.754358D-01
              MO Center= -1.4D-01,  2.2D-01, -1.7D-02, r^2= 1.0D+01
   Bfn.  Coefficient  Atom+Function         Bfn.  Coefficient  Atom+Function  
  ----- ------------  ---------------      ----- ------------  ---------------
   156      0.133879   9 C  py              175      0.127453  10 C  py        
    42     -0.126319   3 C  py               21      0.124637   2 C  s         
    61     -0.125205   4 C  py              251      0.123799  15 C  s         
 
 Vector   30  Occ=2.000000D+00  E=-6.495993D-01
              MO Center= -3.5D-02,  3.9D-01,  1.6D-02, r^2= 9.8D+00
   Bfn.  Coefficient  Atom+Function         Bfn.  Coefficient  Atom+Function  
  ----- ------------  ---------------      ----- ------------  ---------------
   118     -0.157515   7 C  py               44      0.155868   3 C  s         
    40      0.150731   3 C  s         
 
 Vector   31  Occ=2.000000D+00  E=-6.347775D-01
              MO Center=  5.5D-01, -1.6D+00, -2.2D-01, r^2= 1.0D+01
   Bfn.  Coefficient  Atom+Function         Bfn.  Coefficient  Atom+Function  
  ----- ------------  ---------------      ----- ------------  ---------------
   343      0.213888  25 C  s               339      0.195416  25 C  s         
   324     -0.173066  24 C  s               320     -0.161025  24 C  s         
 
 Vector   32  Occ=2.000000D+00  E=-6.031023D-01
              MO Center=  2.8D-01,  6.3D-01, -1.7D-03, r^2= 1.1D+01
   Bfn.  Coefficient  Atom+Function         Bfn.  Coefficient  Atom+Function  
  ----- ------------  ---------------      ----- ------------  ---------------
   192     -0.146796  11 C  s               251     -0.146474  15 C  s         
   255     -0.142184  15 C  s               328     -0.141358  24 C  s         
   174     -0.138639  10 C  px              196     -0.139331  11 C  s         
   233      0.138268  14 C  px              155      0.134506   9 C  px        
 
 Vector   33  Occ=2.000000D+00  E=-5.736872D-01
              MO Center= -1.6D-02, -4.6D-02,  6.7D-02, r^2= 1.0D+01
   Bfn.  Coefficient  Atom+Function         Bfn.  Coefficient  Atom+Function  
  ----- ------------  ---------------      ----- ------------  ---------------
   328     -0.179460  24 C  s               120      0.171234   7 C  s         
   175     -0.170782  10 C  py              155     -0.169903   9 C  px        
 
 Vector   34  Occ=2.000000D+00  E=-5.653926D-01
              MO Center= -2.1D-01,  5.7D-01,  5.0D-02, r^2= 1.1D+01
   Bfn.  Coefficient  Atom+Function         Bfn.  Coefficient  Atom+Function  
  ----- ------------  ---------------      ----- ------------  ---------------
   139      0.255501   8 C  s               120     -0.222838   7 C  s         
    25      0.175708   2 C  s                42     -0.155554   3 C  py        
   236      0.155567  14 C  s               156     -0.151144   9 C  py        
   196      0.150998  11 C  s         
 
 Vector   35  Occ=2.000000D+00  E=-5.473166D-01
              MO Center= -2.8D-01, -3.5D-01,  7.3D-02, r^2= 9.1D+00
   Bfn.  Coefficient  Atom+Function         Bfn.  Coefficient  Atom+Function  
  ----- ------------  ---------------      ----- ------------  ---------------
    41      0.215044   3 C  px              328     -0.215951  24 C  s         
    61      0.175440   4 C  py              118     -0.166988   7 C  py        
    79     -0.160496   5 C  px        
 
 Vector   36  Occ=2.000000D+00  E=-5.030782D-01
              MO Center= -3.3D-01,  3.3D-01,  6.6D-02, r^2= 1.1D+01
   Bfn.  Coefficient  Atom+Function         Bfn.  Coefficient  Atom+Function  
  ----- ------------  ---------------      ----- ------------  ---------------
   240      0.270297  14 C  s               328      0.261043  24 C  s         
    10      0.255003   1 C  s                86     -0.210035   5 C  s         
   305     -0.205426  23 O  s               286     -0.187928  22 O  s         
   221      0.180540  13 C  s                29     -0.173719   2 C  s         
   120      0.167658   7 C  s                98      0.166384   6 C  px        
 
 Vector   37  Occ=2.000000D+00  E=-4.971106D-01
              MO Center= -1.3D-01,  4.5D-01,  4.4D-02, r^2= 1.3D+01
   Bfn.  Coefficient  Atom+Function         Bfn.  Coefficient  Atom+Function  
  ----- ------------  ---------------      ----- ------------  ---------------
   240      0.299392  14 C  s                10      0.247032   1 C  s         
    99     -0.211379   6 C  py              328      0.206687  24 C  s         
   215      0.205583  13 C  py               86     -0.188862   5 C  s         
   221      0.180783  13 C  s                80      0.173624   5 C  py        
    29     -0.160533   2 C  s                23      0.159066   2 C  py        
 
 Vector   38  Occ=2.000000D+00  E=-4.936219D-01
              MO Center= -2.7D-01,  4.3D-01,  4.8D-02, r^2= 1.2D+01
   Bfn.  Coefficient  Atom+Function         Bfn.  Coefficient  Atom+Function  
  ----- ------------  ---------------      ----- ------------  ---------------
   118      0.185205   7 C  py              137     -0.183515   8 C  py        
   234     -0.171440  14 C  py               25      0.159087   2 C  s         
    82     -0.155931   5 C  s               196     -0.151710  11 C  s         
 
 Vector   39  Occ=2.000000D+00  E=-4.879538D-01
              MO Center= -3.4D-01, -3.3D-02,  6.3D-02, r^2= 1.1D+01
   Bfn.  Coefficient  Atom+Function         Bfn.  Coefficient  Atom+Function  
  ----- ------------  ---------------      ----- ------------  ---------------
    98      0.222362   6 C  px              174     -0.192124  10 C  px        
   233     -0.180613  14 C  px              214      0.172748  13 C  px        
   155      0.154267   9 C  px                4      0.152646   1 C  py        
    63     -0.150375   4 C  s         
 
 Vector   40  Occ=2.000000D+00  E=-4.516484D-01
              MO Center=  3.1D-01, -1.0D+00, -4.5D-02, r^2= 8.0D+00
   Bfn.  Coefficient  Atom+Function         Bfn.  Coefficient  Atom+Function  
  ----- ------------  ---------------      ----- ------------  ---------------
   340      0.159320  25 C  px              119      0.154841   7 C  pz        
 
 Vector   41  Occ=2.000000D+00  E=-4.500333D-01
              MO Center=  5.3D-01, -3.0D-01,  1.9D-03, r^2= 1.1D+01
   Bfn.  Coefficient  Atom+Function         Bfn.  Coefficient  Atom+Function  
  ----- ------------  ---------------      ----- ------------  ---------------
   118      0.188722   7 C  py              175     -0.178903  10 C  py        
   302      0.175229  23 O  px              234     -0.153034  14 C  py        
   322      0.153622  24 C  py        
 
 Vector   42  Occ=2.000000D+00  E=-4.431032D-01
              MO Center=  1.3D-01,  4.9D-01,  2.9D-02, r^2= 9.1D+00
   Bfn.  Coefficient  Atom+Function         Bfn.  Coefficient  Atom+Function  
  ----- ------------  ---------------      ----- ------------  ---------------
   302      0.174195  23 O  px              193     -0.159565  11 C  px        
   252     -0.159582  15 C  px              158     -0.151271   9 C  s         
 
 Vector   43  Occ=2.000000D+00  E=-4.406918D-01
              MO Center=  3.1D-01,  1.5D+00, -3.4D-02, r^2= 8.8D+00
   Bfn.  Coefficient  Atom+Function         Bfn.  Coefficient  Atom+Function  
  ----- ------------  ---------------      ----- ------------  ---------------
   193      0.270758  11 C  px              252      0.255722  15 C  px        
   210      0.161886  12 H  s               279     -0.162274  21 H  s         
 
 Vector   44  Occ=2.000000D+00  E=-4.380391D-01
              MO Center=  8.8D-01, -3.3D-01,  1.7D-02, r^2= 9.0D+00
   Bfn.  Coefficient  Atom+Function         Bfn.  Coefficient  Atom+Function  
  ----- ------------  ---------------      ----- ------------  ---------------
   302      0.231539  23 O  px              117     -0.206133   7 C  px        
    42      0.169726   3 C  py              305      0.155846  23 O  s         
 
 Vector   45  Occ=2.000000D+00  E=-4.339295D-01
              MO Center= -1.3D+00,  5.6D-01, -1.1D-01, r^2= 8.8D+00
   Bfn.  Coefficient  Atom+Function         Bfn.  Coefficient  Atom+Function  
  ----- ------------  ---------------      ----- ------------  ---------------
   283      0.383348  22 O  px              286     -0.264615  22 O  s         
   136     -0.256985   8 C  px              287      0.177244  22 O  px        
 
 Vector   46  Occ=2.000000D+00  E=-4.188111D-01
              MO Center=  6.0D-01, -1.6D+00, -2.4D-01, r^2= 9.9D+00
   Bfn.  Coefficient  Atom+Function         Bfn.  Coefficient  Atom+Function  
  ----- ------------  ---------------      ----- ------------  ---------------
   328      0.193494  24 C  s               302      0.190979  23 O  px        
   341     -0.179371  25 C  py              340     -0.174333  25 C  px        
     3     -0.166603   1 C  px               10      0.164864   1 C  s         
    98      0.155417   6 C  px        
 
 Vector   47  Occ=2.000000D+00  E=-4.072241D-01
              MO Center= -6.4D-02, -2.9D-01, -1.7D-02, r^2= 1.3D+01
   Bfn.  Coefficient  Atom+Function         Bfn.  Coefficient  Atom+Function  
  ----- ------------  ---------------      ----- ------------  ---------------
   139      0.178316   8 C  s               120     -0.153199   7 C  s         
 
 Vector   48  Occ=2.000000D+00  E=-4.013230D-01
              MO Center=  1.2D-01, -6.1D-01, -1.5D-01, r^2= 1.3D+01
   Bfn.  Coefficient  Atom+Function         Bfn.  Coefficient  Atom+Function  
  ----- ------------  ---------------      ----- ------------  ---------------
   342      0.184687  25 C  pz              234      0.150360  14 C  py        
 
 Vector   49  Occ=2.000000D+00  E=-3.945743D-01
              MO Center= -1.2D-01,  3.1D-01,  1.2D-01, r^2= 6.6D+00
   Bfn.  Coefficient  Atom+Function         Bfn.  Coefficient  Atom+Function  
  ----- ------------  ---------------      ----- ------------  ---------------
   304      0.271995  23 O  pz              119      0.251057   7 C  pz        
   285     -0.243655  22 O  pz              138     -0.233780   8 C  pz        
   308      0.162645  23 O  pz        
 
 Vector   50  Occ=2.000000D+00  E=-3.861760D-01
              MO Center= -5.6D-02, -7.3D-01, -2.1D-01, r^2= 1.2D+01
   Bfn.  Coefficient  Atom+Function         Bfn.  Coefficient  Atom+Function  
  ----- ------------  ---------------      ----- ------------  ---------------
    79      0.202723   5 C  px              340      0.173576  25 C  px        
 
 Vector   51  Occ=2.000000D+00  E=-3.758204D-01
              MO Center=  1.5D-01,  1.2D-01, -4.0D-02, r^2= 1.2D+01
   Bfn.  Coefficient  Atom+Function         Bfn.  Coefficient  Atom+Function  
  ----- ------------  ---------------      ----- ------------  ---------------
   105     -0.164505   6 C  s               342      0.163323  25 C  pz        
   194     -0.161162  11 C  py              323     -0.160013  24 C  pz        
    80      0.158760   5 C  py              234     -0.152499  14 C  py        
   240      0.152065  14 C  s         
 
 Vector   52  Occ=2.000000D+00  E=-3.754214D-01
              MO Center=  5.2D-01, -5.1D-01, -1.6D-01, r^2= 1.3D+01
   Bfn.  Coefficient  Atom+Function         Bfn.  Coefficient  Atom+Function  
  ----- ------------  ---------------      ----- ------------  ---------------
   342      0.227284  25 C  pz              323     -0.206600  24 C  pz        
 
 Vector   53  Occ=2.000000D+00  E=-3.652238D-01
              MO Center=  5.8D-01,  1.9D+00, -8.1D-02, r^2= 8.9D+00
   Bfn.  Coefficient  Atom+Function         Bfn.  Coefficient  Atom+Function  
  ----- ------------  ---------------      ----- ------------  ---------------
   174      0.221060  10 C  px              233     -0.212639  14 C  px        
   214      0.210670  13 C  px              193     -0.209549  11 C  px        
   252      0.197364  15 C  px              155     -0.187452   9 C  px        
   210     -0.152374  12 H  s               279     -0.151402  21 H  s         
 
 Vector   54  Occ=2.000000D+00  E=-3.555001D-01
              MO Center= -5.1D-01, -5.0D-01,  1.4D-02, r^2= 1.1D+01
   Bfn.  Coefficient  Atom+Function         Bfn.  Coefficient  Atom+Function  
  ----- ------------  ---------------      ----- ------------  ---------------
   100      0.222795   6 C  pz              285     -0.223428  22 O  pz        
     5      0.195186   1 C  pz               81      0.160054   5 C  pz        
   216      0.159287  13 C  pz        
 
 Vector   55  Occ=2.000000D+00  E=-3.476731D-01
              MO Center=  7.4D-01, -2.2D+00, -1.8D-01, r^2= 7.3D+00
   Bfn.  Coefficient  Atom+Function         Bfn.  Coefficient  Atom+Function  
  ----- ------------  ---------------      ----- ------------  ---------------
    22      0.233109   2 C  px              322      0.208440  24 C  py        
   341     -0.200498  25 C  py              321     -0.167728  24 C  px        
    60      0.154698   4 C  px        
 
 Vector   56  Occ=2.000000D+00  E=-3.405277D-01
              MO Center=  1.5D+00, -2.9D+00, -2.1D-01, r^2= 4.6D+00
   Bfn.  Coefficient  Atom+Function         Bfn.  Coefficient  Atom+Function  
  ----- ------------  ---------------      ----- ------------  ---------------
   321      0.242302  24 C  px              322      0.208373  24 C  py        
   340     -0.201644  25 C  px              341     -0.186237  25 C  py        
   357      0.180471  26 H  s               359     -0.165462  27 H  s         
   361      0.165955  28 H  s               360     -0.164485  27 H  s         
   358      0.157298  26 H  s               362      0.157435  28 H  s         
 
 Vector   57  Occ=2.000000D+00  E=-2.856151D-01
              MO Center= -1.9D-01,  5.9D-01,  9.0D-02, r^2= 8.3D+00
   Bfn.  Coefficient  Atom+Function         Bfn.  Coefficient  Atom+Function  
  ----- ------------  ---------------      ----- ------------  ---------------
   304      0.307359  23 O  pz              285      0.293524  22 O  pz        
   308      0.206279  23 O  pz              289      0.195222  22 O  pz        
   176     -0.175885  10 C  pz              157     -0.172775   9 C  pz        
    43     -0.171137   3 C  pz              235      0.154080  14 C  pz        
   216      0.152757  13 C  pz        
 
 Vector   58  Occ=2.000000D+00  E=-2.791412D-01
              MO Center= -3.5D-01,  3.2D-01,  6.4D-02, r^2= 8.8D+00
   Bfn.  Coefficient  Atom+Function         Bfn.  Coefficient  Atom+Function  
  ----- ------------  ---------------      ----- ------------  ---------------
    43      0.235969   3 C  pz               62      0.231185   4 C  pz        
   157     -0.217142   9 C  pz              176     -0.213835  10 C  pz        
     5     -0.206280   1 C  pz              100     -0.206090   6 C  pz        
   216      0.195007  13 C  pz              235      0.192790  14 C  pz        
    47      0.152748   3 C  pz               66      0.150683   4 C  pz        
 
 Vector   59  Occ=2.000000D+00  E=-2.735300D-01
              MO Center= -9.4D-01,  9.8D-01,  1.0D-02, r^2= 7.2D+00
   Bfn.  Coefficient  Atom+Function         Bfn.  Coefficient  Atom+Function  
  ----- ------------  ---------------      ----- ------------  ---------------
   284      0.442316  22 O  py              303      0.298493  23 O  py        
   105     -0.295857   6 C  s               288      0.286388  22 O  py        
   240      0.250830  14 C  s                29      0.238019   2 C  s         
    67      0.229503   4 C  s               162     -0.205361   9 C  s         
   307      0.194804  23 O  py              259     -0.175268  15 C  s         
 
 Vector   60  Occ=2.000000D+00  E=-2.732116D-01
              MO Center=  1.0D-01,  2.2D+00, -4.2D-05, r^2= 5.8D+00
   Bfn.  Coefficient  Atom+Function         Bfn.  Coefficient  Atom+Function  
  ----- ------------  ---------------      ----- ------------  ---------------
   195      0.295579  11 C  pz              254     -0.294535  15 C  pz        
   284      0.205226  22 O  py              199      0.188880  11 C  pz        
   258     -0.186146  15 C  pz              105     -0.163624   6 C  s         
   216      0.150464  13 C  pz              235     -0.150383  14 C  pz        
 
 Vector   61  Occ=2.000000D+00  E=-2.678447D-01
              MO Center=  5.0D-01,  4.0D-02,  2.1D-01, r^2= 7.1D+00
   Bfn.  Coefficient  Atom+Function         Bfn.  Coefficient  Atom+Function  
  ----- ------------  ---------------      ----- ------------  ---------------
   303      0.457453  23 O  py              307      0.299097  23 O  py        
   284     -0.294983  22 O  py              221      0.231780  13 C  s         
   177     -0.205643  10 C  s               288     -0.191876  22 O  py        
    63     -0.182383   4 C  s                44      0.179240   3 C  s         
   240     -0.178813  14 C  s               158      0.162876   9 C  s         
 
 Vector   62  Occ=2.000000D+00  E=-2.638737D-01
              MO Center= -6.7D-01, -1.5D+00,  1.1D-01, r^2= 5.7D+00
   Bfn.  Coefficient  Atom+Function         Bfn.  Coefficient  Atom+Function  
  ----- ------------  ---------------      ----- ------------  ---------------
    24      0.296791   2 C  pz               81     -0.294991   5 C  pz        
    85     -0.189219   5 C  pz               28      0.186252   2 C  pz        
     5      0.183469   1 C  pz              285      0.178068  22 O  pz        
    43      0.166206   3 C  pz               62     -0.161320   4 C  pz        
 
 Vector   63  Occ=0.000000D+00  E=-1.324675D-01
              MO Center= -3.1D-01,  4.3D-01,  8.7D-02, r^2= 7.5D+00
   Bfn.  Coefficient  Atom+Function         Bfn.  Coefficient  Atom+Function  
  ----- ------------  ---------------      ----- ------------  ---------------
    51      0.289618   3 C  pz              285      0.272062  22 O  pz        
    70     -0.269118   4 C  pz              304     -0.269586  23 O  pz        
   165     -0.245898   9 C  pz              184      0.247077  10 C  pz        
   138     -0.232423   8 C  pz              119      0.226607   7 C  pz        
   289      0.207021  22 O  pz              308     -0.206104  23 O  pz        
 
 Vector   64  Occ=0.000000D+00  E=-7.738552D-02
              MO Center= -2.1D-01,  5.2D-01,  6.7D-02, r^2= 1.0D+01
   Bfn.  Coefficient  Atom+Function         Bfn.  Coefficient  Atom+Function  
  ----- ------------  ---------------      ----- ------------  ---------------
    32      0.404381   2 C  pz              328      0.238871  24 C  s         
   199      0.233124  11 C  pz              258      0.233967  15 C  pz        
   262      0.232756  15 C  pz               28      0.228077   2 C  pz        
   203      0.227715  11 C  pz               24      0.223802   2 C  pz        
   254      0.221110  15 C  pz               85      0.219741   5 C  pz        
 
 Vector   65  Occ=0.000000D+00  E=-4.116792D-02
              MO Center= -2.9D-01,  4.6D-01,  6.5D-02, r^2= 9.9D+00
   Bfn.  Coefficient  Atom+Function         Bfn.  Coefficient  Atom+Function  
  ----- ------------  ---------------      ----- ------------  ---------------
   184     -0.552132  10 C  pz               51      0.532467   3 C  pz        
   165      0.504223   9 C  pz               70     -0.467242   4 C  pz        
   108      0.315073   6 C  pz              328     -0.289066  24 C  s         
   243     -0.285962  14 C  pz               47      0.268663   3 C  pz        
   180     -0.268955  10 C  pz               13     -0.267219   1 C  pz        
 
 Vector   66  Occ=0.000000D+00  E=-2.827946D-02
              MO Center= -2.2D-01,  2.5D-01,  7.2D-02, r^2= 1.1D+01
   Bfn.  Coefficient  Atom+Function         Bfn.  Coefficient  Atom+Function  
  ----- ------------  ---------------      ----- ------------  ---------------
    32      0.727617   2 C  pz              328      0.573909  24 C  s         
   105     -0.429867   6 C  s               203     -0.405130  11 C  pz        
   262     -0.407061  15 C  pz               51     -0.395932   3 C  pz        
    89      0.378359   5 C  pz               13     -0.365841   1 C  pz        
    11     -0.361339   1 C  px              331     -0.337174  24 C  pz        
 
 Vector   67  Occ=0.000000D+00  E=-8.450230D-04
              MO Center= -5.3D-01, -2.8D+00,  3.1D-02, r^2= 2.2D+01
   Bfn.  Coefficient  Atom+Function         Bfn.  Coefficient  Atom+Function  
  ----- ------------  ---------------      ----- ------------  ---------------
   328      3.770085  24 C  s               347     -2.773253  25 C  s         
    11     -2.127186   1 C  px               10      1.713465   1 C  s         
   105     -1.658215   6 C  s                86     -1.594978   5 C  s         
    31     -1.415028   2 C  py              331     -1.172877  24 C  pz        
   259     -1.154577  15 C  s                50      1.095251   3 C  py        
 
 Vector   68  Occ=0.000000D+00  E= 3.875304D-03
              MO Center=  7.5D-01,  3.3D+00, -9.4D-02, r^2= 2.5D+01
   Bfn.  Coefficient  Atom+Function         Bfn.  Coefficient  Atom+Function  
  ----- ------------  ---------------      ----- ------------  ---------------
   105      4.424340   6 C  s                29     -3.564719   2 C  s         
    67     -3.436821   4 C  s                31      2.900907   2 C  py        
    48     -2.404836   3 C  s                11      2.242276   1 C  px        
   163     -2.247712   9 C  px              328      2.241034  24 C  s         
   183     -2.206820  10 C  py              162      1.832286   9 C  s         
 
 Vector   69  Occ=0.000000D+00  E= 1.663342D-02
              MO Center= -7.4D-02, -2.8D+00, -2.4D-01, r^2= 2.3D+01
   Bfn.  Coefficient  Atom+Function         Bfn.  Coefficient  Atom+Function  
  ----- ------------  ---------------      ----- ------------  ---------------
   328     10.526269  24 C  s                86     -6.038643   5 C  s         
   105     -5.183401   6 C  s                30     -4.372683   2 C  px        
    10      4.212985   1 C  s                11     -3.912554   1 C  px        
    29     -3.732063   2 C  s               106     -3.433236   6 C  px        
   329     -2.875086  24 C  px               48     -2.451053   3 C  s         
 
 Vector   70  Occ=0.000000D+00  E= 2.183654D-02
              MO Center= -3.7D-01, -2.6D-01, -8.6D-02, r^2= 2.2D+01
   Bfn.  Coefficient  Atom+Function         Bfn.  Coefficient  Atom+Function  
  ----- ------------  ---------------      ----- ------------  ---------------
   105      3.399745   6 C  s               328     -2.179309  24 C  s         
    10     -2.090189   1 C  s                11      1.960102   1 C  px        
   259      1.783944  15 C  s                30      1.556883   2 C  px        
    86      1.414095   5 C  s               145     -1.282762   8 C  py        
    31      1.245378   2 C  py              106      1.205232   6 C  px        
 
 Vector   71  Occ=0.000000D+00  E= 2.781650D-02
              MO Center=  9.0D-01, -6.7D-01, -5.9D-02, r^2= 2.7D+01
   Bfn.  Coefficient  Atom+Function         Bfn.  Coefficient  Atom+Function  
  ----- ------------  ---------------      ----- ------------  ---------------
   347     -5.300974  25 C  s               328      5.037133  24 C  s         
   221     -3.648364  13 C  s               240      3.532282  14 C  s         
   331     -2.422216  24 C  pz              105     -2.285927   6 C  s         
   126     -1.948302   7 C  py              350     -1.816453  25 C  pz        
   145      1.673324   8 C  py               67      1.626448   4 C  s         
 
 Vector   72  Occ=0.000000D+00  E= 2.826504D-02
              MO Center=  1.1D+00,  1.9D+00, -1.3D-01, r^2= 2.7D+01
   Bfn.  Coefficient  Atom+Function         Bfn.  Coefficient  Atom+Function  
  ----- ------------  ---------------      ----- ------------  ---------------
   240      6.884888  14 C  s               221     -4.780443  13 C  s         
   347      3.294525  25 C  s               222      2.773860  13 C  px        
   200     -2.437466  11 C  s                29     -2.152837   2 C  s         
   241      2.130227  14 C  px              126     -2.101404   7 C  py        
   145      1.935136   8 C  py              202     -1.720967  11 C  py        
 
 Vector   73  Occ=0.000000D+00  E= 3.504990D-02
              MO Center= -2.4D-01,  1.5D-01, -5.2D-02, r^2= 1.6D+01
   Bfn.  Coefficient  Atom+Function         Bfn.  Coefficient  Atom+Function  
  ----- ------------  ---------------      ----- ------------  ---------------
   347     -2.157252  25 C  s               328      1.971051  24 C  s         
   105     -1.751371   6 C  s                10      1.112930   1 C  s         
   108     -1.000212   6 C  pz              243     -1.004455  14 C  pz        
   224      0.918313  13 C  pz               31     -0.867020   2 C  py        
    11     -0.850580   1 C  px               67      0.801688   4 C  s         
 
 Vector   74  Occ=0.000000D+00  E= 3.799380D-02
              MO Center= -2.3D-01, -2.8D-01, -4.7D-02, r^2= 1.2D+01
   Bfn.  Coefficient  Atom+Function         Bfn.  Coefficient  Atom+Function  
  ----- ------------  ---------------      ----- ------------  ---------------
   105      1.837281   6 C  s                32      1.098888   2 C  pz        
    67     -1.006004   4 C  s               126      0.972267   7 C  py        
   163     -0.883392   9 C  px              145     -0.862410   8 C  py        
    31      0.853424   2 C  py              259      0.832091  15 C  s         
   183     -0.745532  10 C  py               10     -0.737755   1 C  s         
 
 Vector   75  Occ=0.000000D+00  E= 4.337820D-02
              MO Center=  1.0D-01, -1.1D+00, -3.3D-01, r^2= 2.3D+01
   Bfn.  Coefficient  Atom+Function         Bfn.  Coefficient  Atom+Function  
  ----- ------------  ---------------      ----- ------------  ---------------
   328     -3.283488  24 C  s                29      3.242654   2 C  s         
    48      2.088821   3 C  s                86      1.966086   5 C  s         
    31     -1.939312   2 C  py              163      1.899370   9 C  px        
    67      1.846718   4 C  s               125      1.694179   7 C  px        
   347     -1.695613  25 C  s               182     -1.578036  10 C  px        
 
 Vector   76  Occ=0.000000D+00  E= 4.807565D-02
              MO Center=  7.6D-03,  1.4D+00,  1.8D-02, r^2= 2.8D+01
   Bfn.  Coefficient  Atom+Function         Bfn.  Coefficient  Atom+Function  
  ----- ------------  ---------------      ----- ------------  ---------------
   240      4.935478  14 C  s               328      2.884525  24 C  s         
   164     -2.863098   9 C  py              145      2.647061   8 C  py        
   182     -2.196183  10 C  px              200     -2.115021  11 C  s         
   163      1.914127   9 C  px              347     -1.895681  25 C  s         
   242     -1.631476  14 C  py              125      1.549637   7 C  px        
 
 Vector   77  Occ=0.000000D+00  E= 5.171905D-02
              MO Center= -6.8D-01, -6.3D-02, -2.1D-01, r^2= 2.7D+01
   Bfn.  Coefficient  Atom+Function         Bfn.  Coefficient  Atom+Function  
  ----- ------------  ---------------      ----- ------------  ---------------
   240      6.126435  14 C  s               105      4.869574   6 C  s         
   221     -4.667301  13 C  s                29     -3.349566   2 C  s         
   222      3.285463  13 C  px              259      2.971943  15 C  s         
   241      2.664420  14 C  px              202     -2.469841  11 C  py        
    31      2.344109   2 C  py              347      2.279573  25 C  s         
 
 Vector   78  Occ=0.000000D+00  E= 5.235184D-02
              MO Center=  3.4D-01,  1.1D+00,  1.6D-01, r^2= 2.4D+01
   Bfn.  Coefficient  Atom+Function         Bfn.  Coefficient  Atom+Function  
  ----- ------------  ---------------      ----- ------------  ---------------
   221      4.524784  13 C  s               328     -4.539513  24 C  s         
    29      3.734685   2 C  s               105     -3.175975   6 C  s         
   259     -2.886324  15 C  s               240     -2.707325  14 C  s         
    48      2.287726   3 C  s               241     -2.064455  14 C  px        
   222     -1.979529  13 C  px              347      1.920083  25 C  s         
 
 Vector   79  Occ=0.000000D+00  E= 5.889065D-02
              MO Center=  2.3D-01, -3.4D-01, -6.1D-01, r^2= 2.5D+01
   Bfn.  Coefficient  Atom+Function         Bfn.  Coefficient  Atom+Function  
  ----- ------------  ---------------      ----- ------------  ---------------
   328      4.933037  24 C  s                51      3.063745   3 C  pz        
    70     -2.409690   4 C  pz               32     -2.362614   2 C  pz        
   127     -2.372701   7 C  pz              221     -2.291505  13 C  s         
   184      2.231322  10 C  pz               29     -2.202869   2 C  s         
    86     -2.142888   5 C  s               347     -1.935487  25 C  s         
 
 Vector   80  Occ=0.000000D+00  E= 6.381199D-02
              MO Center= -1.5D-01, -1.3D-01,  5.0D-01, r^2= 2.3D+01
   Bfn.  Coefficient  Atom+Function         Bfn.  Coefficient  Atom+Function  
  ----- ------------  ---------------      ----- ------------  ---------------
    70     -2.080528   4 C  pz               51      1.984225   3 C  pz        
   163      1.936797   9 C  px              144     -1.630726   8 C  px        
   146      1.432006   8 C  pz              182     -1.410226  10 C  px        
   127     -1.371016   7 C  pz              184      1.304921  10 C  pz        
    50      1.278329   3 C  py              165     -1.234537   9 C  pz        
 
 Vector   81  Occ=0.000000D+00  E= 7.178018D-02
              MO Center=  4.2D-02, -5.9D-01, -2.2D-01, r^2= 3.1D+01
   Bfn.  Coefficient  Atom+Function         Bfn.  Coefficient  Atom+Function  
  ----- ------------  ---------------      ----- ------------  ---------------
   328     13.672673  24 C  s                86     -9.608704   5 C  s         
    29     -7.759040   2 C  s                67     -7.297355   4 C  s         
[...]
   28 Stretch                 24    26                       1.09122   -0.00108
   29 Stretch                 24    27                       1.09759   -0.00160
   30 Stretch                 25    28                       1.09685    0.00134
   31 Stretch                 25    29                       1.09356   -0.00023
   32 Stretch                 25    30                       1.09644    0.00183
   33 Bend                     1     2     3               117.85969   -4.21027
   34 Bend                     1     2    24               116.78901    2.77717
   35 Bend                     1     6     5               119.59216    0.97881
   36 Bend                     1     6    18               120.09589   -1.27498
   37 Bend                     2     1     6               122.48608    1.71519
   38 Bend                     2     1    16               118.26160   -2.03046
   39 Bend                     2     3     4               119.34903    3.46251
   40 Bend                     2     3     7               121.82604   -3.15411
   41 Bend                     2    24    25               113.20583    0.83939
   42 Bend                     2    24    26               110.75173   -1.22211
   43 Bend                     2    24    27               107.55584   -1.69490
   44 Bend                     3     2    24               125.34843    1.47434
   45 Bend                     3     4     5               120.90516    2.61283
   46 Bend                     3     4     8               122.36465   -1.87438
   47 Bend                     3     7    10               118.59354    2.28248
   48 Bend                     3     7    23               122.34730   -1.14924
   49 Bend                     4     3     7               118.82392   -0.30925
   50 Bend                     4     5     6               119.79644   -4.54244
   51 Bend                     4     5    17               118.50276    0.11662
   52 Bend                     4     8     9               118.00141    2.87316
   53 Bend                     4     8    22               120.95679   -1.92304
   54 Bend                     5     4     8               116.72812   -0.73979
   55 Bend                     5     6    18               120.30997    0.29948
   56 Bend                     6     1    16               119.25229    0.31669
   57 Bend                     6     5    17               121.69958    4.42563
   58 Bend                     7    10     9               121.76506   -1.02169
   59 Bend                     7    10    11               118.73045   -1.60953
   60 Bend                     8     9    10               120.29360   -2.04376
   61 Bend                     8     9    15               119.61995   -0.57987
   62 Bend                     9     8    22               121.03948   -0.95080
   63 Bend                     9    10    11               119.49957    2.62666
   64 Bend                     9    15    14               120.02959   -3.73065
   65 Bend                     9    15    21               118.54979    0.43515
   66 Bend                    10     7    23               119.05822   -1.13403
   67 Bend                    10     9    15               120.08621    2.62341
   68 Bend                    10    11    12               118.56991    0.47607
   69 Bend                    10    11    13               120.18607   -3.80619
   70 Bend                    11    13    14               120.20349    1.23622
   71 Bend                    11    13    19               119.80557    0.01389
   72 Bend                    12    11    13               121.24400    3.33125
   73 Bend                    13    14    15               119.99407    1.05127
   74 Bend                    13    14    20               120.05704   -1.13390
   75 Bend                    14    13    19               119.99085   -1.25007
   76 Bend                    14    15    21               121.42062    3.29589
   77 Bend                    15    14    20               119.94887    0.08261
   78 Bend                    24    25    28               111.14127    0.29248
   79 Bend                    24    25    29               111.01593   -1.53564
   80 Bend                    24    25    30               110.04276   -0.07587
   81 Bend                    25    24    26               108.97122   -3.55850
   82 Bend                    25    24    27               108.62106    1.22192
   83 Bend                    26    24    27               107.55361    4.82536
   84 Bend                    28    25    29               108.56002    1.31397
   85 Bend                    28    25    30               108.03842    0.15923
   86 Bend                    29    25    30               107.93338   -0.08891
   87 Torsion                  1     2     3     4           0.57243    1.93747
   88 Torsion                  1     2     3     7        -179.79584    1.42595
   89 Torsion                  1     2    24    25          95.22111   -1.36775
   90 Torsion                  1     2    24    26        -142.04816   -6.43090
   91 Torsion                  1     2    24    27         -24.78033   -2.27763
   92 Torsion                  1     6     5     4           0.22261    0.66691
   93 Torsion                  1     6     5    17        -179.36788    1.45463
   94 Torsion                  2     1     6     5          -0.81722   -1.81251
   95 Torsion                  2     1     6    18         179.69165   -0.46821
   96 Torsion                  2     3     4     5          -1.15843   -3.00086
   97 Torsion                  2     3     4     8         178.30085   -3.86100
   98 Torsion                  2     3     7    10        -175.48455    7.51907
   99 Torsion                  2     3     7    23           4.87271    8.01865
  100 Torsion                  2    24    25    28         -57.82612    4.62071
  101 Torsion                  2    24    25    29          63.11438    5.45095
  102 Torsion                  2    24    25    30        -177.46132    4.28518
  103 Torsion                  3     2     1     6           0.40509    0.47347
  104 Torsion                  3     2     1    16        -179.53125    0.98109
  105 Torsion                  3     2    24    25         -84.14594   -3.11150
  106 Torsion                  3     2    24    26          38.58480   -8.17465
  107 Torsion                  3     2    24    27         155.85263   -4.02138
  108 Torsion                  3     4     5     6           0.75715    1.79432
  109 Torsion                  3     4     5    17        -179.63932    1.01574
  110 Torsion                  3     4     8     9          -1.86846   -2.05220
  111 Torsion                  3     4     8    22         178.68075   -1.04321
  112 Torsion                  3     7    10     9          -3.88832   -5.59088
  113 Torsion                  3     7    10    11         176.92360   -5.00932
  114 Torsion                  4     3     2    24         179.93333    3.86048
  115 Torsion                  4     3     7    10           4.14904    7.00513
  116 Torsion                  4     3     7    23        -175.49369    7.50470
  117 Torsion                  4     5     6    18         179.71264   -0.66681
  118 Torsion                  4     8     9    10           2.21324    3.67634
  119 Torsion                  4     8     9    15        -177.96130    3.47734
  120 Torsion                  5     4     3     7         179.19873   -2.50933
  121 Torsion                  5     4     8     9         177.61210   -2.88865
  122 Torsion                  5     4     8    22          -1.83870   -1.87967
  123 Torsion                  5     6     1    16         179.11850   -2.31480
  124 Torsion                  6     1     2    24        -179.01096   -1.27119
  125 Torsion                  6     5     4     8        -178.73150    2.60330
  126 Torsion                  7     3     2    24          -0.43494    3.34896
  127 Torsion                  7     3     4     8          -1.34199   -3.36948
  128 Torsion                  7    10     9     8           0.65610    0.13590
  129 Torsion                  7    10     9    15        -179.16855    0.33508
  130 Torsion                  7    10    11    12          -0.47618   -0.19319
  131 Torsion                  7    10    11    13         179.46903    0.15217
  132 Torsion                  8     4     5    17           0.87204    1.82473
  133 Torsion                  8     9    10    11         179.83809   -0.45924
  134 Torsion                  8     9    15    14         179.93300   -0.13551
  135 Torsion                  8     9    15    21          -0.05055    0.11372
  136 Torsion                  9    10     7    23         175.76639   -6.07347
  137 Torsion                  9    10    11    12        -179.68306    0.38283
  138 Torsion                  9    10    11    13           0.26215    0.72819
  139 Torsion                  9    15    14    13           0.19385    0.49294
  140 Torsion                  9    15    14    20        -179.86333    0.44676
  141 Torsion                 10     9     8    22        -178.33644    2.67139
  142 Torsion                 10     9    15    14          -0.24117   -0.33297
  143 Torsion                 10     9    15    21         179.77529   -0.08374
  144 Torsion                 10    11    13    14          -0.31116   -0.58059
  145 Torsion                 10    11    13    19         179.79630   -0.59771
  146 Torsion                 11    10     7    23          -3.42169   -5.49191
  147 Torsion                 11    10     9    15           0.01344   -0.26006
  148 Torsion                 11    13    14    15           0.08210   -0.03588
  149 Torsion                 11    13    14    20        -179.86066    0.01021
  150 Torsion                 12    11    13    14         179.63256   -0.23740
  151 Torsion                 12    11    13    19          -0.25997   -0.25451
  152 Torsion                 13    14    15    21        -179.82309    0.24320
  153 Torsion                 15     9     8    22           1.48902    2.47239
  154 Torsion                 15    14    13    19         179.97444   -0.01710
  155 Torsion                 16     1     2    24           1.05271   -0.76358
  156 Torsion                 16     1     6    18          -0.37263   -0.97050
  157 Torsion                 17     5     6    18           0.12214    0.12092
  158 Torsion                 19    13    14    20           0.03168    0.02899
  159 Torsion                 20    14    15    21           0.11973    0.19702
  160 Torsion                 26    24    25    28         178.46103    8.40690
  161 Torsion                 26    24    25    29         -60.59847    9.23714
  162 Torsion                 26    24    25    30          58.82582    8.07137
  163 Torsion                 27    24    25    28          61.56523    3.84226
  164 Torsion                 27    24    25    29        -177.49427    4.67250
  165 Torsion                 27    24    25    30         -58.06997    3.50673
 
 ==============================================================================
                                internuclear distances
 ------------------------------------------------------------------------------
       center one      |      center two      | atomic units |  angstroms
 ------------------------------------------------------------------------------
    2 C                |   1 C                |     2.65438  |     1.40464
    3 C                |   2 C                |     2.68567  |     1.42119
    4 C                |   3 C                |     2.68453  |     1.42059
    5 C                |   4 C                |     2.64083  |     1.39747
    6 C                |   1 C                |     2.63373  |     1.39371
    6 C                |   5 C                |     2.62902  |     1.39122
    7 C                |   3 C                |     2.82704  |     1.49601
    8 C                |   4 C                |     2.82864  |     1.49685
    9 C                |   8 C                |     2.80720  |     1.48551
   10 C                |   7 C                |     2.82972  |     1.49742
   10 C                |   9 C                |     2.65686  |     1.40595
   11 C                |  10 C                |     2.64944  |     1.40202
   12 H                |  11 C                |     2.05044  |     1.08505
   13 C                |  11 C                |     2.63333  |     1.39350
   14 C                |  13 C                |     2.64872  |     1.40164
   15 C                |   9 C                |     2.64878  |     1.40167
   15 C                |  14 C                |     2.63222  |     1.39291
   16 H                |   1 C                |     2.05549  |     1.08772
   17 H                |   5 C                |     2.04998  |     1.08480
   18 H                |   6 C                |     2.05397  |     1.08691
   19 H                |  13 C                |     2.05386  |     1.08685
   20 H                |  14 C                |     2.05371  |     1.08678
   21 H                |  15 C                |     2.05099  |     1.08534
   22 O                |   8 C                |     2.32157  |     1.22852
   23 O                |   7 C                |     2.32300  |     1.22928
   24 C                |   2 C                |     2.86870  |     1.51805
   25 C                |  24 C                |     2.91268  |     1.54132
   26 H                |  24 C                |     2.06212  |     1.09123
   27 H                |  24 C                |     2.07415  |     1.09759
   28 H                |  25 C                |     2.07274  |     1.09685
   29 H                |  25 C                |     2.06652  |     1.09356
   30 H                |  25 C                |     2.07197  |     1.09644
 ------------------------------------------------------------------------------
                         number of included internuclear distances:         32
 ==============================================================================



 ==============================================================================
                                 internuclear angles
 ------------------------------------------------------------------------------
        center 1       |       center 2       |       center 3       |  degrees
 ------------------------------------------------------------------------------
    2 C                |   1 C                |   6 C                |   122.49
    2 C                |   1 C                |  16 H                |   118.26
    6 C                |   1 C                |  16 H                |   119.25
    1 C                |   2 C                |   3 C                |   117.86
    1 C                |   2 C                |  24 C                |   116.79
    3 C                |   2 C                |  24 C                |   125.35
    2 C                |   3 C                |   4 C                |   119.35
    2 C                |   3 C                |   7 C                |   121.83
    4 C                |   3 C                |   7 C                |   118.82
    3 C                |   4 C                |   5 C                |   120.91
    3 C                |   4 C                |   8 C                |   122.36
    5 C                |   4 C                |   8 C                |   116.73
    4 C                |   5 C                |   6 C                |   119.80
    4 C                |   5 C                |  17 H                |   118.50
    6 C                |   5 C                |  17 H                |   121.70
    1 C                |   6 C                |   5 C                |   119.59
    1 C                |   6 C                |  18 H                |   120.10
    5 C                |   6 C                |  18 H                |   120.31
    3 C                |   7 C                |  10 C                |   118.59
    3 C                |   7 C                |  23 O                |   122.35
   10 C                |   7 C                |  23 O                |   119.06
    4 C                |   8 C                |   9 C                |   118.00
    4 C                |   8 C                |  22 O                |   120.96
    9 C                |   8 C                |  22 O                |   121.04
    8 C                |   9 C                |  10 C                |   120.29
    8 C                |   9 C                |  15 C                |   119.62
   10 C                |   9 C                |  15 C                |   120.09
    7 C                |  10 C                |   9 C                |   121.77
    7 C                |  10 C                |  11 C                |   118.73
    9 C                |  10 C                |  11 C                |   119.50
   10 C                |  11 C                |  12 H                |   118.57
   10 C                |  11 C                |  13 C                |   120.19
   12 H                |  11 C                |  13 C                |   121.24
   11 C                |  13 C                |  14 C                |   120.20
   11 C                |  13 C                |  19 H                |   119.81
   14 C                |  13 C                |  19 H                |   119.99
   13 C                |  14 C                |  15 C                |   119.99
   13 C                |  14 C                |  20 H                |   120.06
   15 C                |  14 C                |  20 H                |   119.95
    9 C                |  15 C                |  14 C                |   120.03
    9 C                |  15 C                |  21 H                |   118.55
   14 C                |  15 C                |  21 H                |   121.42
    2 C                |  24 C                |  25 C                |   113.21
    2 C                |  24 C                |  26 H                |   110.75
    2 C                |  24 C                |  27 H                |   107.56
   25 C                |  24 C                |  26 H                |   108.97
   25 C                |  24 C                |  27 H                |   108.62
   26 H                |  24 C                |  27 H                |   107.55
   24 C                |  25 C                |  28 H                |   111.14
   24 C                |  25 C                |  29 H                |   111.02
   24 C                |  25 C                |  30 H                |   110.04
   28 H                |  25 C                |  29 H                |   108.56
   28 H                |  25 C                |  30 H                |   108.04
   29 H                |  25 C                |  30 H                |   107.93
 ------------------------------------------------------------------------------
                            number of included internuclear angles:         54
 ==============================================================================



 ------------------------------------------------------------------------
 dft optimize failed                                                                     0
 ------------------------------------------------------------------------
 This type of error is most commonly associated with calculations not reaching 
 convergence criteria
 ------------------------------------------------------------------------
 For more information see the NWChem manual at 
 http://www.nwchem-sw.org/index.php/NWChem_Documentation


 For further details see manual section: 
                                                                                
                                                                                
                                                                                
                   
Application 20802026 exit codes: 134
Application 20802026 resources: utime ~3522s, stime ~14s, Rss ~15336, inblocks ~32588320, outblocks ~1264838
