gethugepagesize()=2097152
hugetlb_default_page_size=2097152
_SC_PAGESIZE=4096
comex_page_size=2097152
comex_is_using_huge_pages=1
malloc_is_using_huge_pages=1
 argument  1 = mol.nw
                                         
                                         
 
 
              Northwest Computational Chemistry Package (NWChem) 6.3
              ------------------------------------------------------
 
 
                    Environmental Molecular Sciences Laboratory
                       Pacific Northwest National Laboratory
                                Richland, WA 99352
 
                              Copyright (c) 1994-2012
                       Pacific Northwest National Laboratory
                            Battelle Memorial Institute
 
             NWChem is an open-source computational chemistry package
                        distributed under the terms of the
                      Educational Community License (ECL) 2.0
             A copy of the license is included with this distribution
                              in the LICENSE.TXT file
 
                                  ACKNOWLEDGMENT
                                  --------------

            This software and its documentation were developed at the
            EMSL at Pacific Northwest National Laboratory, a multiprogram
            national laboratory, operated for the U.S. Department of Energy
            by Battelle under Contract Number DE-AC05-76RL01830. Support
            for this work was provided by the Department of Energy Office
            of Biological and Environmental Research, Office of Basic
            Energy Sciences, and the Office of Advanced Scientific Computing.


           Job information
           ---------------

    hostname        = nid02190
    program         = nwchem
    date            = Mon Sep  9 01:26:56 2013

    compiled        = Sat_Aug_31_14:18:53_2013
    source          = /usr/common/usg/nwchem/Build/nwchem-6.3-src.2013-05-28
    nwchem branch   = 6.3
    nwchem revision = 24277
    ga revision     = 10379
    input           = mol.nw
    prefix          = mol.
    data base       = ./mol.db
    status          = startup
    nproc           =       24
    time left       =     -1s



           Memory information
           ------------------

    heap     =   13107201 doubles =    100.0 Mbytes
    stack    =   13107201 doubles =    100.0 Mbytes
    global   =   26214400 doubles =    200.0 Mbytes (distinct from heap & stack)
    total    =   52428802 doubles =    400.0 Mbytes
    verify   = yes
    hardfail = no 


           Directory information
           ---------------------
 
  0 permanent = .
  0 scratch   = .
 
 
 
 
                                NWChem Input Module
                                -------------------
 
 

 Scaling coordinates for geometry "geometry" by  1.889725989
 (inverse scale =  0.529177249)

 CS  symmetry detected

          ------
          auto-z
          ------
 
 
                             Geometry "geometry" -> ""
                             -------------------------
 
 Output coordinates in angstroms (scale by  1.889725989 to convert to a.u.)
 
  No.       Tag          Charge          X              Y              Z
 ---- ---------------- ---------- -------------- -------------- --------------
    1 C                    6.0000    -0.27349979    -1.12145315     0.00000000
    2 C                    6.0000     0.56648949     0.16014632     0.00000000
    3 O                    8.0000    -0.34208304     1.21273908     0.00000000
    4 H                    1.0000     1.19922598     0.18630516     0.89652900
    5 H                    1.0000     1.19922598     0.18630516    -0.89652900
    6 H                    1.0000     0.39143210    -1.98784719     0.00000000
    7 H                    1.0000    -0.90557897    -1.15941740     0.88807100
    8 H                    1.0000    -0.90557897    -1.15941740    -0.88807100
 
      Atomic Mass 
      ----------- 
 
      C                 12.000000
      O                 15.994910
      H                  1.007825
 

 Effective nuclear repulsion energy (a.u.)      74.4791730231

            Nuclear Dipole moment (a.u.) 
            ----------------------------
        X                 Y               Z
 ---------------- ---------------- ----------------
    -0.0000000000    -0.0000000000     0.0000000000
 
      Symmetry information
      --------------------
 
 Group name             Cs        
 Group number              2
 Group order               2
 No. of unique centers     6
 
      Symmetry unique atoms
 
     1    2    3    4    6    7
 


                                Z-matrix (autoz)
                                -------- 

 Units are Angstrom for bonds and degrees for angles
 
      Type          Name      I     J     K     L     M      Value
      ----------- --------  ----- ----- ----- ----- ----- ----------
    1 Stretch                  1     2                       1.53234
    2 Stretch                  1     6                       1.09214
    3 Stretch                  1     7                       1.09070
    4 Stretch                  1     8                       1.09070
    5 Stretch                  2     3                       1.39049
    6 Stretch                  2     4                       1.09764
    7 Stretch                  2     5                       1.09764
    8 Bend                     1     2     3               105.95830
    9 Bend                     1     2     4               109.62901
   10 Bend                     1     2     5               109.62901
   11 Bend                     2     1     6               109.25308
   12 Bend                     2     1     7               110.29083
   13 Bend                     2     1     8               110.29083
   14 Bend                     3     2     4               111.01584
   15 Bend                     3     2     5               111.01584
   16 Bend                     4     2     5               109.52788
   17 Bend                     6     1     7               108.97862
   18 Bend                     6     1     8               108.97862
   19 Bend                     7     1     8               109.02024
   20 Torsion                  3     2     1     6         180.00000
   21 Torsion                  3     2     1     7         -60.23718
   22 Torsion                  3     2     1     8          60.23718
   23 Torsion                  4     2     1     6         -60.13208
   24 Torsion                  4     2     1     7          59.63074
   25 Torsion                  4     2     1     8        -179.89491
   26 Torsion                  5     2     1     6          60.13208
   27 Torsion                  5     2     1     7         179.89491
   28 Torsion                  5     2     1     8         -59.63074
 
 
            XYZ format geometry
            -------------------
     8
 geometry
 C                    -0.27349979    -1.12145315     0.00000000
 C                     0.56648949     0.16014632     0.00000000
 O                    -0.34208304     1.21273908     0.00000000
 H                     1.19922598     0.18630516     0.89652900
 H                     1.19922598     0.18630516    -0.89652900
 H                     0.39143210    -1.98784719     0.00000000
 H                    -0.90557897    -1.15941740     0.88807100
 H                    -0.90557897    -1.15941740    -0.88807100
 
 ==============================================================================
                                internuclear distances
 ------------------------------------------------------------------------------
       center one      |      center two      | atomic units |  angstroms
 ------------------------------------------------------------------------------
    2 C                |   1 C                |     2.89571  |     1.53234
    3 O                |   2 C                |     2.62764  |     1.39049
    4 H                |   2 C                |     2.07423  |     1.09764
    5 H                |   2 C                |     2.07423  |     1.09764
    6 H                |   1 C                |     2.06385  |     1.09214
    7 H                |   1 C                |     2.06113  |     1.09070
    8 H                |   1 C                |     2.06113  |     1.09070
 ------------------------------------------------------------------------------
                         number of included internuclear distances:          7
 ==============================================================================



 ==============================================================================
                                 internuclear angles
 ------------------------------------------------------------------------------
        center 1       |       center 2       |       center 3       |  degrees
 ------------------------------------------------------------------------------
    2 C                |   1 C                |   6 H                |   109.25
    2 C                |   1 C                |   7 H                |   110.29
    2 C                |   1 C                |   8 H                |   110.29
    6 H                |   1 C                |   7 H                |   108.98
    6 H                |   1 C                |   8 H                |   108.98
    7 H                |   1 C                |   8 H                |   109.02
    1 C                |   2 C                |   3 O                |   105.96
    1 C                |   2 C                |   4 H                |   109.63
    1 C                |   2 C                |   5 H                |   109.63
    3 O                |   2 C                |   4 H                |   111.02
    3 O                |   2 C                |   5 H                |   111.02
    4 H                |   2 C                |   5 H                |   109.53
 ------------------------------------------------------------------------------
                            number of included internuclear angles:         12
 ==============================================================================



                                H5C2O1 dft optimize
                                -------------------
  library name resolved from: environment
  library file name is: </usr/common/usg/nwchem/6.3/data/libraries/>
  
                      Basis "ao basis" -> "" (cartesian)
                      -----
  H (Hydrogen)
  ------------
            Exponent  Coefficients 
       -------------- ---------------------------------------------------------
  1 S  1.87311370E+01  0.033495
  1 S  2.82539370E+00  0.234727
  1 S  6.40121700E-01  0.813757
 
  2 S  1.61277800E-01  1.000000
 
  C (Carbon)
  ----------
            Exponent  Coefficients 
       -------------- ---------------------------------------------------------
  1 S  3.04752490E+03  0.001835
  1 S  4.57369510E+02  0.014037
  1 S  1.03948690E+02  0.068843
  1 S  2.92101550E+01  0.232184
  1 S  9.28666300E+00  0.467941
  1 S  3.16392700E+00  0.362312
 
  2 S  7.86827240E+00 -0.119332
  2 S  1.88128850E+00 -0.160854
  2 S  5.44249300E-01  1.143456
 
  3 P  7.86827240E+00  0.068999
  3 P  1.88128850E+00  0.316424
  3 P  5.44249300E-01  0.744308
 
  4 S  1.68714400E-01  1.000000
 
  5 P  1.68714400E-01  1.000000
 
  6 S  4.38000000E-02  1.000000
 
  7 P  4.38000000E-02  1.000000
 
  8 D  8.00000000E-01  1.000000
 
  O (Oxygen)
  ----------
            Exponent  Coefficients 
       -------------- ---------------------------------------------------------
  1 S  5.48467170E+03  0.001831
  1 S  8.25234950E+02  0.013950
  1 S  1.88046960E+02  0.068445
  1 S  5.29645000E+01  0.232714
  1 S  1.68975700E+01  0.470193
  1 S  5.79963530E+00  0.358521
 
  2 S  1.55396160E+01 -0.110778
  2 S  3.59993360E+00 -0.148026
  2 S  1.01376180E+00  1.130767
 
  3 P  1.55396160E+01  0.070874
  3 P  3.59993360E+00  0.339753
  3 P  1.01376180E+00  0.727159
 
  4 S  2.70005800E-01  1.000000
 
  5 P  2.70005800E-01  1.000000
 
  6 S  8.45000000E-02  1.000000
 
  7 P  8.45000000E-02  1.000000
 
  8 D  8.00000000E-01  1.000000
 


 Summary of "ao basis" -> "" (cartesian)
 ------------------------------------------------------------------------------
       Tag                 Description            Shells   Functions and Types
 ---------------- ------------------------------  ------  ---------------------
 H                          6-31+g*                  2        2   2s
 C                          6-31+g*                  8       19   4s3p1d
 O                          6-31+g*                  8       19   4s3p1d


 
 
                           NWChem Geometry Optimization
                           ----------------------------
 
 
 
 
                                H5C2O1 dft optimize
 
 
 maximum gradient threshold         (gmax) =   0.000450
 rms gradient threshold             (grms) =   0.000300
 maximum cartesian step threshold   (xmax) =   0.001800
 rms cartesian step threshold       (xrms) =   0.001200
 fixed trust radius                (trust) =   0.300000
 maximum step size to saddle      (sadstp) =   0.100000
 energy precision                  (eprec) =   5.0D-06
 maximum number of steps          (nptopt) =   20
 initial hessian option           (inhess) =    0
 line search option               (linopt) =    1
 hessian update option            (modupd) =    1
 saddle point option              (modsad) =    0
 initial eigen-mode to follow     (moddir) =    0
 initial variable to follow       (vardir) =    0
 follow first negative mode     (firstneg) =    T
 apply conjugacy                    (opcg) =    F
 source of zmatrix                         =   autoz   


          -------------------
          Energy Minimization
          -------------------

 
 Names of Z-matrix variables 
    1              2              3              4              5         
    6              7              8              9             10         
   11             12             13             14             15         
   16             17             18             19             20         
   21             22             23             24             25         
   26             27             28         
 
 Variables with the same non-blank name are constrained to be equal
 
 
 Using diagonal initial Hessian 
 Scaling for Hessian diagonals: bonds = 1.00  angles = 0.25  torsions = 0.10

          --------
          Step   0
          --------
 
 
                         Geometry "geometry" -> "geometry"
                         ---------------------------------
 
 Output coordinates in angstroms (scale by  1.889725989 to convert to a.u.)
 
  No.       Tag          Charge          X              Y              Z
 ---- ---------------- ---------- -------------- -------------- --------------
    1 C                    6.0000    -0.27349979    -1.12145315     0.00000000
    2 C                    6.0000     0.56648949     0.16014632     0.00000000
    3 O                    8.0000    -0.34208304     1.21273908     0.00000000
    4 H                    1.0000     1.19922598     0.18630516     0.89652900
    5 H                    1.0000     1.19922598     0.18630516    -0.89652900
    6 H                    1.0000     0.39143210    -1.98784719     0.00000000
    7 H                    1.0000    -0.90557897    -1.15941740     0.88807100
    8 H                    1.0000    -0.90557897    -1.15941740    -0.88807100
 
      Atomic Mass 
      ----------- 
 
      C                 12.000000
      O                 15.994910
      H                  1.007825
 

 Effective nuclear repulsion energy (a.u.)      74.4791730231

            Nuclear Dipole moment (a.u.) 
            ----------------------------
        X                 Y               Z
 ---------------- ---------------- ----------------
    -0.0000000000    -0.0000000000     0.0000000000
 
      Symmetry information
      --------------------
 
 Group name             Cs        
 Group number              2
 Group order               2
 No. of unique centers     6
 
      Symmetry unique atoms
 
     1    2    3    4    6    7
 
 
                                 NWChem DFT Module
                                 -----------------
 
 
                                H5C2O1 dft optimize
 
 
  Caching 1-el integrals 
 
            General Information
            -------------------
          SCF calculation type: DFT
          Wavefunction type:  spin polarized.
          No. of atoms     :     8
          No. of electrons :    25
           Alpha electrons :    13
            Beta electrons :    12
          Charge           :     0
          Spin multiplicity:     2
          Use of symmetry is: on ; symmetry adaption is: on 
          Maximum number of iterations: 300
          AO basis - number of functions:    67
                     number of shells:    34
          Convergence on energy requested: 1.00D-06
          Convergence on density requested: 1.00D-05
          Convergence on gradient requested: 5.00D-04
 
              XC Information
              --------------
                         B3LYP Method XC Potential
                     Hartree-Fock (Exact) Exchange  0.200          
                        Slater Exchange Functional  0.800 local    
                    Becke 1988 Exchange Functional  0.720 non-local
              Lee-Yang-Parr Correlation Functional  0.810          
                  VWN I RPA Correlation Functional  0.190 local    
 
             Grid Information
             ----------------
          Grid used for XC integration:  medium    
          Radial quadrature: Mura-Knowles        
          Angular quadrature: Lebedev. 
          Tag              B.-S. Rad. Rad. Pts. Rad. Cut. Ang. Pts.
          ---              ---------- --------- --------- ---------
          C                   0.70       49          10.0       434
          O                   0.60       49          11.0       434
          H                   0.35       45          10.0       434
          Grid pruning is: on 
          Number of quadrature shells:   282
          Spatial weights used:  Erf1
 
          Convergence Information
          -----------------------
          Convergence aids based upon iterative change in 
          total energy or number of iterations. 
          Levelshifting, if invoked, occurs when the 
          HOMO/LUMO gap drops below (HL_TOL): 1.00D-02
          DIIS, if invoked, will attempt to extrapolate 
          using up to (NFOCK): 10 stored Fock matrices.

                    Damping( 0%)  Levelshifting(0.5)       DIIS
                  --------------- ------------------- ---------------
          dE  on:    start            ASAP                start   
          dE off:    2 iters        300 iters           300 iters 

 
      Screening Tolerance Information
      -------------------------------
          Density screening/tol_rho: 1.00D-10
          AO Gaussian exp screening on grid/accAOfunc:  14
          CD Gaussian exp screening on grid/accCDfunc:  20
          XC Gaussian exp screening on grid/accXCfunc:  20
          Schwarz screening/accCoul: 1.00D-08

 
      Superposition of Atomic Density Guess
      -------------------------------------
 
 Sum of atomic energies:        -152.57488763
 
      Non-variational initial energy
      ------------------------------

 Total energy =    -153.929633
 1-e energy   =    -353.583714
 2-e energy   =     125.174908
 HOMO         =      -0.337373
 LUMO         =       0.066369
 
 
   Symmetry analysis of molecular orbitals - initial alpha
   -------------------------------------------------------
 
  Numbering of irreducible representations: 
 
     1 a'          2 a"      
 
  Orbital symmetries:
 
     1 a'          2 a'          3 a'          4 a'          5 a'      
     6 a'          7 a"          8 a'          9 a'         10 a'      
    11 a"         12 a'         13 a"         14 a'         15 a'      
    16 a'         17 a"         18 a'         19 a'         20 a"      
    21 a'         22 a'         23 a"      
 
 
   Symmetry analysis of molecular orbitals - initial beta
   ------------------------------------------------------
 
  Numbering of irreducible representations: 
 
     1 a'          2 a"      
 
  Orbital symmetries:
 
     1 a'          2 a'          3 a'          4 a'          5 a'      
     6 a'          7 a"          8 a'          9 a'         10 a'      
    11 a"         12 a'         13 a"         14 a'         15 a'      
    16 a'         17 a"         18 a'         19 a'         20 a"      
    21 a'         22 a'         23 a"      
 
   Time after variat. SCF:      2.7
   Time prior to 1st pass:      2.7

 Grid_pts file          = ./mol.gridpts.00
 Record size in doubles =  12289        No. of grid_pts per rec  =   3070
 Max. records in memory =      3        Max. recs in file   =  42218779


           Memory utilization after 1st SCF pass: 
           Heap Space remaining (MW):        6.78             6775957
          Stack Space remaining (MW):       13.11            13106390

   convergence    iter        energy       DeltaE   RMS-Dens  Diis-err    time
 ---------------- ----- ----------------- --------- --------- ---------  ------
 d= 0,ls=0.0,diis     1   -154.2582315358 -2.29D+02  1.22D-02  1.63D-01     3.4
                                                     1.36D-02  2.02D-01
 d= 0,ls=0.0,diis     2   -154.1674525150  9.08D-02  9.42D-03  5.39D-01     3.7
                                                     9.41D-03  4.14D-01
 d= 0,ls=0.0,diis     3   -154.3712432238 -2.04D-01  1.06D-03  2.99D-03     4.0
                                                     1.04D-03  3.65D-03
 d= 0,ls=0.0,diis     4   -154.3732665908 -2.02D-03  4.92D-04  1.40D-03     4.2
                                                     4.07D-04  7.99D-04
 d= 0,ls=0.0,diis     5   -154.3738020685 -5.35D-04  1.49D-04  1.90D-04     4.5
                                                     1.85D-04  1.88D-04
  Resetting Diis
 d= 0,ls=0.0,diis     6   -154.3739179934 -1.16D-04  7.95D-05  1.78D-05     4.7
                                                     6.27D-05  7.82D-06
 d= 0,ls=0.0,diis     7   -154.3739274802 -9.49D-06  2.28D-05  1.16D-06     5.0
                                                     1.46D-05  4.95D-07
 d= 0,ls=0.0,diis     8   -154.3739276535 -1.73D-07  8.25D-06  6.61D-07     5.3
                                                     9.99D-06  8.65D-07


         Total DFT energy =     -154.373927653543
      One electron energy =     -356.168456165473
           Coulomb energy =      148.545250460659
    Exchange-Corr. energy =      -21.229894971787
 Nuclear repulsion energy =       74.479173023058

 Numeric. integr. density =       25.000001574531

     Total iterative time =      2.6s


 
                  Occupations of the irreducible representations
                  ----------------------------------------------
 
                     irrep           alpha         beta
                     --------     --------     --------
                     a'               10.0         10.0
                     a"                3.0          2.0
 
 
                    DFT Final Alpha Molecular Orbital Analysis
                    ------------------------------------------
 
 Vector    2  Occ=1.000000D+00  E=-1.025206D+01  Symmetry=a'
              MO Center=  5.7D-01,  1.6D-01, -7.5D-20, r^2= 2.8D-02
   Bfn.  Coefficient  Atom+Function         Bfn.  Coefficient  Atom+Function  
  ----- ------------  ---------------      ----- ------------  ---------------
    20      0.993106  2 C  s          
 
 Vector    3  Occ=1.000000D+00  E=-1.018322D+01  Symmetry=a'
              MO Center= -2.7D-01, -1.1D+00,  2.0D-18, r^2= 2.8D-02
   Bfn.  Coefficient  Atom+Function         Bfn.  Coefficient  Atom+Function  
  ----- ------------  ---------------      ----- ------------  ---------------
     1      0.992915  1 C  s          
 
 Vector    4  Occ=1.000000D+00  E=-1.032847D+00  Symmetry=a'
              MO Center= -1.4D-01,  9.6D-01, -2.1D-17, r^2= 5.9D-01
   Bfn.  Coefficient  Atom+Function         Bfn.  Coefficient  Atom+Function  
  ----- ------------  ---------------      ----- ------------  ---------------
    40      0.466218  3 O  s                 44      0.462135  3 O  s          
    39     -0.206193  3 O  s                 21      0.170202  2 C  s          
 
 Vector    5  Occ=1.000000D+00  E=-7.504362D-01  Symmetry=a'
              MO Center=  6.6D-02, -5.7D-01, -3.5D-18, r^2= 1.6D+00
   Bfn.  Coefficient  Atom+Function         Bfn.  Coefficient  Atom+Function  
  ----- ------------  ---------------      ----- ------------  ---------------
     2      0.303916  1 C  s                  6      0.275947  1 C  s          
    21      0.224381  2 C  s                 44     -0.218175  3 O  s          
    25      0.215563  2 C  s                 40     -0.172680  3 O  s          
     1     -0.160006  1 C  s          
 
 Vector    6  Occ=1.000000D+00  E=-6.250709D-01  Symmetry=a'
              MO Center=  2.6D-01, -2.7D-01,  5.6D-17, r^2= 2.3D+00
   Bfn.  Coefficient  Atom+Function         Bfn.  Coefficient  Atom+Function  
  ----- ------------  ---------------      ----- ------------  ---------------
    25      0.297476  2 C  s                 21      0.265855  2 C  s          
     6     -0.258637  1 C  s                  2     -0.218458  1 C  s          
    44     -0.187758  3 O  s                 22      0.158940  2 C  px         
    58      0.150265  4 H  s                 60      0.150265  5 H  s          
 
 Vector    7  Occ=1.000000D+00  E=-5.092971D-01  Symmetry=a"
              MO Center=  3.3D-01,  2.5D-01,  1.2D-15, r^2= 1.8D+00
   Bfn.  Coefficient  Atom+Function         Bfn.  Coefficient  Atom+Function  
  ----- ------------  ---------------      ----- ------------  ---------------
    24      0.368268  2 C  pz                43      0.323105  3 O  pz         
    47      0.175011  3 O  pz                58      0.169681  4 H  s          
    60     -0.169681  5 H  s                  5      0.168629  1 C  pz         
    28      0.162190  2 C  pz         
 
 Vector    8  Occ=1.000000D+00  E=-4.669104D-01  Symmetry=a'
              MO Center=  2.6D-02,  2.7D-01, -9.7D-16, r^2= 2.3D+00
   Bfn.  Coefficient  Atom+Function         Bfn.  Coefficient  Atom+Function  
  ----- ------------  ---------------      ----- ------------  ---------------
    42      0.391364  3 O  py                22      0.311071  2 C  px         
    44      0.235026  3 O  s                  4     -0.208129  1 C  py         
    46      0.189587  3 O  py         
 
 Vector    9  Occ=1.000000D+00  E=-4.205810D-01  Symmetry=a'
              MO Center= -1.4D-01,  8.0D-02,  3.3D-16, r^2= 2.0D+00
   Bfn.  Coefficient  Atom+Function         Bfn.  Coefficient  Atom+Function  
  ----- ------------  ---------------      ----- ------------  ---------------
    41      0.401121  3 O  px                23      0.352699  2 C  py         
     4     -0.247295  1 C  py                45      0.212184  3 O  px         
     3     -0.192271  1 C  px                27      0.158784  2 C  py         
 
 Vector   10  Occ=1.000000D+00  E=-3.962674D-01  Symmetry=a"
              MO Center= -5.0D-01, -5.4D-01, -4.9D-15, r^2= 2.2D+00
   Bfn.  Coefficient  Atom+Function         Bfn.  Coefficient  Atom+Function  
  ----- ------------  ---------------      ----- ------------  ---------------
     5      0.391452  1 C  pz                43     -0.354331  3 O  pz         
    47     -0.213021  3 O  pz                 9      0.209320  1 C  pz         
    64      0.210231  7 H  s                 66     -0.210231  8 H  s          
 
 Vector   11  Occ=1.000000D+00  E=-3.901701D-01  Symmetry=a'
              MO Center= -1.1D-01, -8.6D-01,  4.9D-15, r^2= 2.3D+00
   Bfn.  Coefficient  Atom+Function         Bfn.  Coefficient  Atom+Function  
  ----- ------------  ---------------      ----- ------------  ---------------
     3      0.360979  1 C  px                62      0.237239  6 H  s          
    42     -0.191242  3 O  py                63      0.190074  6 H  s          
    22     -0.185404  2 C  px                 7      0.172762  1 C  px         
     4     -0.157031  1 C  py                41      0.155387  3 O  px         
 
 Vector   12  Occ=1.000000D+00  E=-3.422002D-01  Symmetry=a"
              MO Center=  1.7D-01,  4.9D-01,  3.5D-18, r^2= 2.1D+00
   Bfn.  Coefficient  Atom+Function         Bfn.  Coefficient  Atom+Function  
  ----- ------------  ---------------      ----- ------------  ---------------
    43      0.496939  3 O  pz                47      0.314417  3 O  pz         
    24     -0.272602  2 C  pz                59     -0.216139  4 H  s          
    61      0.216139  5 H  s                 58     -0.197274  4 H  s          
    60      0.197274  5 H  s          
 
 Vector   13  Occ=1.000000D+00  E=-2.883935D-01  Symmetry=a'
              MO Center= -1.4D-01,  6.4D-01, -2.8D-16, r^2= 1.8D+00
   Bfn.  Coefficient  Atom+Function         Bfn.  Coefficient  Atom+Function  
  ----- ------------  ---------------      ----- ------------  ---------------
    42      0.418527  3 O  py                41      0.405139  3 O  px         
    46      0.276834  3 O  py                45      0.264545  3 O  px         
     4      0.244864  1 C  py                23     -0.155492  2 C  py         
 
 Vector   14  Occ=0.000000D+00  E= 1.076610D-02  Symmetry=a'
              MO Center=  1.1D+00, -5.7D-01,  4.7D-15, r^2= 8.0D+00
   Bfn.  Coefficient  Atom+Function         Bfn.  Coefficient  Atom+Function  
  ----- ------------  ---------------      ----- ------------  ---------------
    29      1.655106  2 C  s                 48     -0.773107  3 O  s          
     6     -0.395920  1 C  s                 25     -0.365313  2 C  s          
    10      0.325593  1 C  s                 12     -0.275627  1 C  py         
    26     -0.252055  2 C  px                49     -0.194174  3 O  px         
    22     -0.157016  2 C  px         
 
 Vector   15  Occ=0.000000D+00  E= 2.839630D-02  Symmetry=a'
              MO Center= -6.9D-02, -1.2D+00,  6.2D-15, r^2= 1.1D+01
   Bfn.  Coefficient  Atom+Function         Bfn.  Coefficient  Atom+Function  
  ----- ------------  ---------------      ----- ------------  ---------------
    29      5.101890  2 C  s                 10     -4.636054  1 C  s          
    12     -1.838093  1 C  py                31     -1.644397  2 C  py         
    30     -1.531473  2 C  px                11     -1.150431  1 C  px         
     6     -0.483954  1 C  s                 25      0.319060  2 C  s          
    48     -0.160718  3 O  s          
 
 Vector   16  Occ=0.000000D+00  E= 3.984303D-02  Symmetry=a"
              MO Center=  5.4D-01, -3.6D-01, -4.3D-14, r^2= 9.4D+00
   Bfn.  Coefficient  Atom+Function         Bfn.  Coefficient  Atom+Function  
  ----- ------------  ---------------      ----- ------------  ---------------
    32      0.923027  2 C  pz                13      0.378080  1 C  pz         
    28     -0.292963  2 C  pz                51     -0.226391  3 O  pz         
    24     -0.213111  2 C  pz                 9     -0.172183  1 C  pz         
 
 Vector   17  Occ=0.000000D+00  E= 4.248175D-02  Symmetry=a'
              MO Center=  3.1D-01,  5.1D-01,  3.3D-14, r^2= 1.0D+01
   Bfn.  Coefficient  Atom+Function         Bfn.  Coefficient  Atom+Function  
  ----- ------------  ---------------      ----- ------------  ---------------
    48     -1.557074  3 O  s                 29      1.532538  2 C  s          
    30     -1.126575  2 C  px                31      0.972390  2 C  py         
    27      0.278514  2 C  py                10     -0.276464  1 C  s          
    25      0.267568  2 C  s                 26     -0.216237  2 C  px         
    50      0.212401  3 O  py                44     -0.197353  3 O  s          
 
 Vector   18  Occ=0.000000D+00  E= 7.382067D-02  Symmetry=a'
              MO Center=  1.5D-01, -8.2D-01, -4.9D-17, r^2= 1.1D+01
   Bfn.  Coefficient  Atom+Function         Bfn.  Coefficient  Atom+Function  
  ----- ------------  ---------------      ----- ------------  ---------------
    31      1.614474  2 C  py                12     -1.385604  1 C  py         
    29     -0.899324  2 C  s                 30      0.717198  2 C  px         
    10      0.673272  1 C  s                 48      0.582971  3 O  s          
    50     -0.397338  3 O  py                25      0.355754  2 C  s          
     6      0.330923  1 C  s                 49     -0.222754  3 O  px         
 
 Vector   19  Occ=0.000000D+00  E= 7.645048D-02  Symmetry=a'
              MO Center= -2.1D-01, -1.1D+00, -1.2D-15, r^2= 1.2D+01
   Bfn.  Coefficient  Atom+Function         Bfn.  Coefficient  Atom+Function  
  ----- ------------  ---------------      ----- ------------  ---------------
    11      1.914442  1 C  px                30     -1.791681  2 C  px         
    31      0.750632  2 C  py                12     -0.668089  1 C  py         
    48     -0.635450  3 O  s                 29      0.249100  2 C  s          
    44     -0.198347  3 O  s                 27      0.191145  2 C  py         
    26     -0.174603  2 C  px         
 
 Vector   20  Occ=0.000000D+00  E= 8.271324D-02  Symmetry=a"
              MO Center=  6.9D-02, -8.2D-01, -2.6D-15, r^2= 1.3D+01
   Bfn.  Coefficient  Atom+Function         Bfn.  Coefficient  Atom+Function  
  ----- ------------  ---------------      ----- ------------  ---------------
    13      2.047312  1 C  pz                32     -1.986196  2 C  pz         
    51      0.208286  3 O  pz                65     -0.161415  7 H  s          
    67      0.161415  8 H  s                  5     -0.158017  1 C  pz         
 
 Vector   21  Occ=0.000000D+00  E= 1.304571D-01  Symmetry=a'
              MO Center=  2.0D-01, -5.7D-01, -7.3D-15, r^2= 1.1D+01
   Bfn.  Coefficient  Atom+Function         Bfn.  Coefficient  Atom+Function  
  ----- ------------  ---------------      ----- ------------  ---------------
    29    -24.434028  2 C  s                 10     23.790350  1 C  s          
    12      6.288358  1 C  py                31      5.712798  2 C  py         
    30      4.668233  2 C  px                11      3.805244  1 C  px         
    48      1.490810  3 O  s                 26      0.624407  2 C  px         
     8      0.528077  1 C  py                25      0.231458  2 C  s          
 
 Vector   22  Occ=0.000000D+00  E= 1.624994D-01  Symmetry=a'
              MO Center= -3.0D-01,  3.3D-01, -1.4D-14, r^2= 8.1D+00
   Bfn.  Coefficient  Atom+Function         Bfn.  Coefficient  Atom+Function  
  ----- ------------  ---------------      ----- ------------  ---------------
    10     10.738376  1 C  s                 29    -10.686150  2 C  s          
    31      3.474854  2 C  py                12      2.328612  1 C  py         
    11      2.301329  1 C  px                30      1.230691  2 C  px         
    63     -1.127364  6 H  s                 49      0.803723  3 O  px         
     7      0.629863  1 C  px                50     -0.606962  3 O  py         
 
 Vector   23  Occ=0.000000D+00  E= 1.717493D-01  Symmetry=a"
              MO Center= -3.8D-01, -3.3D-01, -2.9D-15, r^2= 5.8D+00
   Bfn.  Coefficient  Atom+Function         Bfn.  Coefficient  Atom+Function  
  ----- ------------  ---------------      ----- ------------  ---------------
    65     -1.243854  7 H  s                 67      1.243854  8 H  s          
     9      1.135304  1 C  pz                51     -1.016508  3 O  pz         
    32      0.398409  2 C  pz                13      0.351919  1 C  pz         
    47      0.306300  3 O  pz                 5      0.242463  1 C  pz         
    28     -0.189135  2 C  pz                43      0.165022  3 O  pz         
 
 Vector   24  Occ=0.000000D+00  E= 1.868537D-01  Symmetry=a'
              MO Center= -1.2D-01,  7.0D-01, -3.3D-14, r^2= 6.2D+00
   Bfn.  Coefficient  Atom+Function         Bfn.  Coefficient  Atom+Function  
  ----- ------------  ---------------      ----- ------------  ---------------
    29      2.744091  2 C  s                 48     -1.607103  3 O  s          
    10     -1.463099  1 C  s                 25      1.273402  2 C  s          
    50      1.037299  3 O  py                63     -0.795366  6 H  s          
    44      0.699658  3 O  s                 49     -0.685347  3 O  px         
    30     -0.674108  2 C  px                27     -0.606773  2 C  py         
 
 Vector   25  Occ=0.000000D+00  E= 1.987379D-01  Symmetry=a"
              MO Center=  3.0D-01,  2.5D-01, -6.7D-15, r^2= 5.1D+00
   Bfn.  Coefficient  Atom+Function         Bfn.  Coefficient  Atom+Function  
  ----- ------------  ---------------      ----- ------------  ---------------
    59      1.409515  4 H  s                 61     -1.409515  5 H  s          
    28     -0.990694  2 C  pz                65      0.723293  7 H  s          
    67     -0.723293  8 H  s                 51     -0.499135  3 O  pz         
    32     -0.460660  2 C  pz                 9     -0.368870  1 C  pz         
    47      0.335511  3 O  pz                24     -0.306688  2 C  pz         
 
 Vector   26  Occ=0.000000D+00  E= 2.343691D-01  Symmetry=a'
              MO Center=  1.4D-01, -1.8D-03,  5.5D-15, r^2= 6.1D+00
   Bfn.  Coefficient  Atom+Function         Bfn.  Coefficient  Atom+Function  
  ----- ------------  ---------------      ----- ------------  ---------------
    29    -10.915047  2 C  s                 10     10.018239  1 C  s          
    12      2.984863  1 C  py                30      2.617814  2 C  px         
    26     -1.306649  2 C  px                11      1.247955  1 C  px         
    63     -1.227135  6 H  s                 44     -1.149593  3 O  s          
    31      1.129003  2 C  py                25      1.045247  2 C  s          
 
 Vector   27  Occ=0.000000D+00  E= 2.413031D-01  Symmetry=a'
              MO Center=  1.8D-01, -7.8D-01,  5.3D-15, r^2= 5.6D+00
   Bfn.  Coefficient  Atom+Function         Bfn.  Coefficient  Atom+Function  
  ----- ------------  ---------------      ----- ------------  ---------------
    29    -10.554938  2 C  s                 10      9.963584  1 C  s          
    12      3.204792  1 C  py                31      2.195824  2 C  py         
    30      1.652561  2 C  px                 7     -1.238665  1 C  px         
    11      1.186011  1 C  px                63      1.108035  6 H  s          
    27     -1.090870  2 C  py                 6     -1.035733  1 C  s          
 
 Vector   28  Occ=0.000000D+00  E= 2.597583D-01  Symmetry=a"
              MO Center=  1.9D-01,  3.7D-01,  8.6D-14, r^2= 7.8D+00
   Bfn.  Coefficient  Atom+Function         Bfn.  Coefficient  Atom+Function  
  ----- ------------  ---------------      ----- ------------  ---------------
    32      2.026070  2 C  pz                51     -1.552216  3 O  pz         
    28      1.331042  2 C  pz                59     -1.311802  4 H  s          
    61      1.311802  5 H  s                 65      1.097486  7 H  s          
    67     -1.097486  8 H  s                  9     -1.090741  1 C  pz         
    13     -1.084527  1 C  pz                24      0.298716  2 C  pz         
 
 Vector   29  Occ=0.000000D+00  E= 2.698130D-01  Symmetry=a'
              MO Center=  1.2D-01,  1.3D+00, -2.8D-14, r^2= 7.3D+00
   Bfn.  Coefficient  Atom+Function         Bfn.  Coefficient  Atom+Function  
  ----- ------------  ---------------      ----- ------------  ---------------
    10      6.029643  1 C  s                 29     -5.062421  2 C  s          
    31      3.191700  2 C  py                11      1.672661  1 C  px         
    49     -1.520618  3 O  px                48     -1.410269  3 O  s          
    50     -1.323963  3 O  py                25      0.898038  2 C  s          
    30      0.899734  2 C  px                 8     -0.813695  1 C  py         
 
 Vector   30  Occ=0.000000D+00  E= 2.919552D-01  Symmetry=a'
              MO Center= -5.3D-01, -2.0D-01, -1.2D-14, r^2= 7.7D+00
   Bfn.  Coefficient  Atom+Function         Bfn.  Coefficient  Atom+Function  
  ----- ------------  ---------------      ----- ------------  ---------------
    48      3.039838  3 O  s                 10     -2.363446  1 C  s          
     6     -1.777405  1 C  s                 65      1.746340  7 H  s          
    67      1.746340  8 H  s                 25     -1.219603  2 C  s          
    12     -1.129269  1 C  py                59      1.110288  4 H  s          
    61      1.110288  5 H  s                 29     -1.042720  2 C  s          
 
 Vector   31  Occ=0.000000D+00  E= 3.081693D-01  Symmetry=a'
              MO Center=  3.3D-01, -7.5D-02,  4.7D-15, r^2= 6.5D+00
   Bfn.  Coefficient  Atom+Function         Bfn.  Coefficient  Atom+Function  
  ----- ------------  ---------------      ----- ------------  ---------------
    10     13.274834  1 C  s                 29    -13.190793  2 C  s          
    31      3.368015  2 C  py                12      2.840775  1 C  py         
     6      2.488696  1 C  s                 25     -2.288139  2 C  s          
    11      1.984400  1 C  px                30      1.693849  2 C  px         
    59      1.692449  4 H  s                 61      1.692449  5 H  s          
 
 Vector   32  Occ=0.000000D+00  E= 3.373776D-01  Symmetry=a'
              MO Center= -2.3D-01,  1.2D-01, -5.1D-15, r^2= 7.3D+00
   Bfn.  Coefficient  Atom+Function         Bfn.  Coefficient  Atom+Function  
  ----- ------------  ---------------      ----- ------------  ---------------
    29     14.271775  2 C  s                 10    -12.725575  1 C  s          
    48     -5.393813  3 O  s                 12     -2.843056  1 C  py         
    30     -2.807501  2 C  px                31     -2.040204  2 C  py         
    11     -1.872550  1 C  px                25      1.633001  2 C  s          
    63      1.624024  6 H  s                  6     -1.428007  1 C  s          
 
 Vector   33  Occ=0.000000D+00  E= 6.171635D-01  Symmetry=a'
              MO Center=  5.9D-01, -4.1D-02, -1.1D-15, r^2= 3.8D+00
   Bfn.  Coefficient  Atom+Function         Bfn.  Coefficient  Atom+Function  
  ----- ------------  ---------------      ----- ------------  ---------------
    26      2.199840  2 C  px                29      1.729762  2 C  s          
    10     -1.571826  1 C  s                 30     -1.277673  2 C  px         
    44      0.933946  3 O  s                  6      0.852676  1 C  s          
     7     -0.841233  1 C  px                22     -0.840612  2 C  px         
    25     -0.584821  2 C  s                 11      0.506230  1 C  px         
 
 
                     DFT Final Beta Molecular Orbital Analysis
                     -----------------------------------------
 
 Vector    2  Occ=1.000000D+00  E=-1.025272D+01  Symmetry=a'
              MO Center=  5.7D-01,  1.6D-01, -5.0D-18, r^2= 2.8D-02
   Bfn.  Coefficient  Atom+Function         Bfn.  Coefficient  Atom+Function  
  ----- ------------  ---------------      ----- ------------  ---------------
    20      0.993090  2 C  s          
 
 Vector    3  Occ=1.000000D+00  E=-1.018328D+01  Symmetry=a'
              MO Center= -2.7D-01, -1.1D+00,  1.4D-17, r^2= 2.8D-02
   Bfn.  Coefficient  Atom+Function         Bfn.  Coefficient  Atom+Function  
  ----- ------------  ---------------      ----- ------------  ---------------
     1      0.992915  1 C  s          
 
 Vector    4  Occ=1.000000D+00  E=-9.800131D-01  Symmetry=a'
              MO Center= -9.3D-02,  8.8D-01,  6.3D-17, r^2= 6.7D-01
   Bfn.  Coefficient  Atom+Function         Bfn.  Coefficient  Atom+Function  
  ----- ------------  ---------------      ----- ------------  ---------------
    44      0.433315  3 O  s                 40      0.426588  3 O  s          
    21      0.202093  2 C  s                 39     -0.193191  3 O  s          
 
 Vector    5  Occ=1.000000D+00  E=-7.412529D-01  Symmetry=a'
              MO Center=  3.0D-04, -6.1D-01,  8.4D-16, r^2= 1.7D+00
   Bfn.  Coefficient  Atom+Function         Bfn.  Coefficient  Atom+Function  
  ----- ------------  ---------------      ----- ------------  ---------------
     2      0.316207  1 C  s                  6      0.289847  1 C  s          
    44     -0.234933  3 O  s                 21      0.190540  2 C  s          
    25      0.189967  2 C  s                 40     -0.186583  3 O  s          
     1     -0.165895  1 C  s          
 
 Vector    6  Occ=1.000000D+00  E=-6.153381D-01  Symmetry=a'
              MO Center=  3.0D-01, -2.0D-01,  6.9D-18, r^2= 2.3D+00
   Bfn.  Coefficient  Atom+Function         Bfn.  Coefficient  Atom+Function  
  ----- ------------  ---------------      ----- ------------  ---------------
    25      0.317666  2 C  s                 21      0.274624  2 C  s          
     6     -0.242445  1 C  s                 44     -0.215600  3 O  s          
     2     -0.197811  1 C  s                 22      0.171642  2 C  px         
    40     -0.151079  3 O  s                 58      0.150321  4 H  s          
    60      0.150321  5 H  s          
 
 Vector    7  Occ=1.000000D+00  E=-4.819710D-01  Symmetry=a"
              MO Center=  3.9D-01, -1.2D-01, -2.4D-15, r^2= 1.9D+00
   Bfn.  Coefficient  Atom+Function         Bfn.  Coefficient  Atom+Function  
  ----- ------------  ---------------      ----- ------------  ---------------
    24      0.390374  2 C  pz                 5      0.234894  1 C  pz         
    28      0.181551  2 C  pz                58      0.177638  4 H  s          
    60     -0.177638  5 H  s          
 
 Vector    8  Occ=1.000000D+00  E=-4.539785D-01  Symmetry=a'
              MO Center=  3.2D-02,  6.4D-03,  1.4D-15, r^2= 2.5D+00
   Bfn.  Coefficient  Atom+Function         Bfn.  Coefficient  Atom+Function  
  ----- ------------  ---------------      ----- ------------  ---------------
    42      0.343568  3 O  py                22      0.305283  2 C  px         
     4     -0.258047  1 C  py                44      0.236992  3 O  s          
    62      0.177979  6 H  s                 46      0.167268  3 O  py         
 
 Vector    9  Occ=1.000000D+00  E=-4.115658D-01  Symmetry=a'
              MO Center= -1.5D-01, -2.9D-02, -5.9D-16, r^2= 2.0D+00
   Bfn.  Coefficient  Atom+Function         Bfn.  Coefficient  Atom+Function  
  ----- ------------  ---------------      ----- ------------  ---------------
    23      0.360792  2 C  py                41      0.347189  3 O  px         
     3     -0.266030  1 C  px                 4     -0.204614  1 C  py         
    45      0.180532  3 O  px                27      0.166469  2 C  py         
    44     -0.159086  3 O  s          
 
 Vector   10  Occ=1.000000D+00  E=-3.843160D-01  Symmetry=a'
              MO Center= -1.0D-01, -5.4D-01,  3.2D-15, r^2= 2.7D+00
   Bfn.  Coefficient  Atom+Function         Bfn.  Coefficient  Atom+Function  
  ----- ------------  ---------------      ----- ------------  ---------------
     3      0.307657  1 C  px                42     -0.231497  3 O  py         
    62      0.227048  6 H  s                 41      0.223331  3 O  px         
    22     -0.207498  2 C  px                63      0.183448  6 H  s          
     4     -0.172733  1 C  py                 7      0.150272  1 C  px         
 
 Vector   11  Occ=1.000000D+00  E=-3.777373D-01  Symmetry=a"
              MO Center= -2.2D-01, -7.5D-01, -2.6D-15, r^2= 2.1D+00
   Bfn.  Coefficient  Atom+Function         Bfn.  Coefficient  Atom+Function  
  ----- ------------  ---------------      ----- ------------  ---------------
     5      0.385667  1 C  pz                24     -0.234896  2 C  pz         
    64      0.217875  7 H  s                 66     -0.217875  8 H  s          
     9      0.201846  1 C  pz                65      0.168177  7 H  s          
    67     -0.168177  8 H  s          
 
 Vector   12  Occ=1.000000D+00  E=-2.685261D-01  Symmetry=a'
              MO Center= -1.7D-01,  7.3D-01,  2.2D-16, r^2= 1.7D+00
   Bfn.  Coefficient  Atom+Function         Bfn.  Coefficient  Atom+Function  
  ----- ------------  ---------------      ----- ------------  ---------------
    41      0.416716  3 O  px                42      0.418459  3 O  py         
    46      0.284177  3 O  py                45      0.277972  3 O  px         
     4      0.225291  1 C  py                 6      0.159121  1 C  s          
 
 Vector   13  Occ=0.000000D+00  E=-1.542020D-01  Symmetry=a"
              MO Center= -1.4D-01,  1.0D+00,  2.7D-18, r^2= 1.4D+00
   Bfn.  Coefficient  Atom+Function         Bfn.  Coefficient  Atom+Function  
  ----- ------------  ---------------      ----- ------------  ---------------
    43      0.580637  3 O  pz                47      0.412822  3 O  pz         
    59     -0.252470  4 H  s                 61      0.252470  5 H  s          
    51      0.195418  3 O  pz         
 
 Vector   14  Occ=0.000000D+00  E= 1.144374D-02  Symmetry=a'
              MO Center=  1.1D+00, -6.2D-01,  4.3D-15, r^2= 8.0D+00
   Bfn.  Coefficient  Atom+Function         Bfn.  Coefficient  Atom+Function  
  ----- ------------  ---------------      ----- ------------  ---------------
    29      1.674584  2 C  s                 48     -0.775742  3 O  s          
     6     -0.403675  1 C  s                 25     -0.343660  2 C  s          
    10      0.315767  1 C  s                 12     -0.294314  1 C  py         
    26     -0.247917  2 C  px                49     -0.188453  3 O  px         
    22     -0.156372  2 C  px         
 
 Vector   15  Occ=0.000000D+00  E= 2.876411D-02  Symmetry=a'
              MO Center= -3.9D-02, -1.1D+00, -2.4D-16, r^2= 1.2D+01
   Bfn.  Coefficient  Atom+Function         Bfn.  Coefficient  Atom+Function  
  ----- ------------  ---------------      ----- ------------  ---------------
    29     -5.104378  2 C  s                 10      4.661810  1 C  s          
    12      1.841797  1 C  py                31      1.641172  2 C  py         
    30      1.545974  2 C  px                11      1.155819  1 C  px         
     6      0.473218  1 C  s                 25     -0.318489  2 C  s          
    48      0.161970  3 O  s          
 
 Vector   16  Occ=0.000000D+00  E= 4.049414D-02  Symmetry=a"
              MO Center=  5.2D-01, -3.8D-01, -2.4D-14, r^2= 9.5D+00
   Bfn.  Coefficient  Atom+Function         Bfn.  Coefficient  Atom+Function  
  ----- ------------  ---------------      ----- ------------  ---------------
    32      0.914725  2 C  pz                13      0.395407  1 C  pz         
    28     -0.278752  2 C  pz                51     -0.230308  3 O  pz         
    24     -0.208835  2 C  pz                 9     -0.175956  1 C  pz         
 
 Vector   17  Occ=0.000000D+00  E= 4.422679D-02  Symmetry=a'
              MO Center=  2.7D-01,  4.6D-01,  2.3D-14, r^2= 1.0D+01
   Bfn.  Coefficient  Atom+Function         Bfn.  Coefficient  Atom+Function  
  ----- ------------  ---------------      ----- ------------  ---------------
    48     -1.618057  3 O  s                 29      1.493625  2 C  s          
    30     -1.098233  2 C  px                31      0.974996  2 C  py         
    27      0.270740  2 C  py                25      0.250848  2 C  s          
    50      0.222374  3 O  py                26     -0.218425  2 C  px         
    10     -0.197843  1 C  s                  7      0.178049  1 C  px         
 
 Vector   18  Occ=0.000000D+00  E= 7.453959D-02  Symmetry=a'
              MO Center=  2.5D-01, -7.3D-01, -8.7D-16, r^2= 1.1D+01
   Bfn.  Coefficient  Atom+Function         Bfn.  Coefficient  Atom+Function  
  ----- ------------  ---------------      ----- ------------  ---------------
    31      1.497259  2 C  py                12     -1.308751  1 C  py         
    30      0.919149  2 C  px                29     -0.796471  2 C  s          
    48      0.633495  3 O  s                 10      0.561608  1 C  s          
    50     -0.380365  3 O  py                 6      0.344472  1 C  s          
    25      0.340074  2 C  s                 11     -0.311723  1 C  px         
 
 Vector   19  Occ=0.000000D+00  E= 7.717178D-02  Symmetry=a'
              MO Center= -2.7D-01, -1.1D+00, -2.3D-15, r^2= 1.2D+01
   Bfn.  Coefficient  Atom+Function         Bfn.  Coefficient  Atom+Function  
  ----- ------------  ---------------      ----- ------------  ---------------
    11      1.907164  1 C  px                30     -1.716878  2 C  px         
    31      1.038032  2 C  py                12     -0.859687  1 C  py         
    48     -0.630415  3 O  s                 44     -0.206283  3 O  s          
    27      0.182475  2 C  py                26     -0.169941  2 C  px         
    50     -0.150312  3 O  py         
 
 Vector   20  Occ=0.000000D+00  E= 8.303313D-02  Symmetry=a"
              MO Center=  8.8D-02, -8.0D-01, -3.6D-16, r^2= 1.3D+01
   Bfn.  Coefficient  Atom+Function         Bfn.  Coefficient  Atom+Function  
  ----- ------------  ---------------      ----- ------------  ---------------
    13      2.045719  1 C  pz                32     -2.004905  2 C  pz         
    51      0.218536  3 O  pz                65     -0.160150  7 H  s          
    67      0.160150  8 H  s                  5     -0.156812  1 C  pz         
 
 Vector   21  Occ=0.000000D+00  E= 1.313422D-01  Symmetry=a'
              MO Center=  2.1D-01, -5.5D-01, -8.4D-15, r^2= 1.1D+01
   Bfn.  Coefficient  Atom+Function         Bfn.  Coefficient  Atom+Function  
  ----- ------------  ---------------      ----- ------------  ---------------
    29    -24.799822  2 C  s                 10     24.133996  1 C  s          
    12      6.350946  1 C  py                31      5.835732  2 C  py         
    30      4.713010  2 C  px                11      3.865794  1 C  px         
    48      1.500176  3 O  s                 26      0.617589  2 C  px         
     8      0.525630  1 C  py                63      0.218064  6 H  s          
 
 Vector   22  Occ=0.000000D+00  E= 1.648452D-01  Symmetry=a'
              MO Center= -3.8D-01,  3.7D-01, -1.6D-16, r^2= 7.9D+00
   Bfn.  Coefficient  Atom+Function         Bfn.  Coefficient  Atom+Function  
  ----- ------------  ---------------      ----- ------------  ---------------
    29    -10.452931  2 C  s                 10     10.399642  1 C  s          
    31      3.318869  2 C  py                12      2.259911  1 C  py         
    11      2.206025  1 C  px                30      1.243692  2 C  px         
    63     -1.134053  6 H  s                 49      0.843951  3 O  px         
    50     -0.658459  3 O  py                 7      0.650777  1 C  px         
 
 Vector   23  Occ=0.000000D+00  E= 1.787265D-01  Symmetry=a"
              MO Center= -3.7D-01, -7.7D-01,  7.6D-15, r^2= 5.1D+00
   Bfn.  Coefficient  Atom+Function         Bfn.  Coefficient  Atom+Function  
  ----- ------------  ---------------      ----- ------------  ---------------
    65      1.441202  7 H  s                 67     -1.441202  8 H  s          
     9     -1.235087  1 C  pz                51      0.769690  3 O  pz         
    32     -0.425407  2 C  pz                13     -0.408615  1 C  pz         
    59      0.280448  4 H  s                 61     -0.280448  5 H  s          
     5     -0.271377  1 C  pz                47     -0.237625  3 O  pz         
 
 Vector   24  Occ=0.000000D+00  E= 1.900384D-01  Symmetry=a'
              MO Center= -1.1D-01,  5.7D-01,  1.7D-14, r^2= 6.3D+00
   Bfn.  Coefficient  Atom+Function         Bfn.  Coefficient  Atom+Function  
  ----- ------------  ---------------      ----- ------------  ---------------
    48     -1.570822  3 O  s                 29      1.524371  2 C  s          
    25      1.340149  2 C  s                 50      1.064241  3 O  py         
    63     -0.925070  6 H  s                 44      0.660248  3 O  s          
    49     -0.659367  3 O  px                 8     -0.592982  1 C  py         
    27     -0.585161  2 C  py                11      0.464530  1 C  px         
 
 Vector   25  Occ=0.000000D+00  E= 2.179987D-01  Symmetry=a"
              MO Center=  3.3D-01,  6.0D-01, -8.8D-14, r^2= 4.8D+00
   Bfn.  Coefficient  Atom+Function         Bfn.  Coefficient  Atom+Function  
  ----- ------------  ---------------      ----- ------------  ---------------
    59      1.464435  4 H  s                 61     -1.464435  5 H  s          
    28     -1.096560  2 C  pz                51     -0.672172  3 O  pz         
    47      0.494193  3 O  pz                32     -0.464350  2 C  pz         
    24     -0.324512  2 C  pz                43      0.274864  3 O  pz         
    65      0.268264  7 H  s                 67     -0.268264  8 H  s          
 
 Vector   26  Occ=0.000000D+00  E= 2.390153D-01  Symmetry=a'
              MO Center=  8.8D-02,  8.1D-02,  4.0D-14, r^2= 6.2D+00
   Bfn.  Coefficient  Atom+Function         Bfn.  Coefficient  Atom+Function  
  ----- ------------  ---------------      ----- ------------  ---------------
    29    -12.980601  2 C  s                 10     11.827322  1 C  s          
    12      3.532643  1 C  py                30      2.959630  2 C  px         
    31      1.536130  2 C  py                26     -1.446418  2 C  px         
    11      1.434741  1 C  px                48      1.244395  3 O  s          
    44     -1.178828  3 O  s                 50      0.960965  3 O  py         
 
 Vector   27  Occ=0.000000D+00  E= 2.427519D-01  Symmetry=a'
              MO Center=  2.2D-01, -7.8D-01,  2.3D-14, r^2= 5.4D+00
   Bfn.  Coefficient  Atom+Function         Bfn.  Coefficient  Atom+Function  
  ----- ------------  ---------------      ----- ------------  ---------------
    29     -7.714242  2 C  s                 10      7.343060  1 C  s          
    12      2.514430  1 C  py                31      1.707628  2 C  py         
     7     -1.327240  1 C  px                63      1.314907  6 H  s          
    27     -1.222693  2 C  py                 6     -1.095513  1 C  s          
    30      1.034828  2 C  px                11      0.821926  1 C  px         
 
 Vector   28  Occ=0.000000D+00  E= 2.644420D-01  Symmetry=a"
              MO Center=  1.3D-01,  4.8D-01, -1.3D-14, r^2= 7.9D+00
   Bfn.  Coefficient  Atom+Function         Bfn.  Coefficient  Atom+Function  
  ----- ------------  ---------------      ----- ------------  ---------------
    32      2.011058  2 C  pz                51     -1.640691  3 O  pz         
    28      1.256104  2 C  pz                59     -1.229020  4 H  s          
    61      1.229020  5 H  s                 13     -1.060983  1 C  pz         
    65      1.059994  7 H  s                 67     -1.059994  8 H  s          
     9     -1.038519  1 C  pz                24      0.278776  2 C  pz         
 
 Vector   29  Occ=0.000000D+00  E= 2.722519D-01  Symmetry=a'
              MO Center=  1.1D-01,  1.3D+00, -1.5D-15, r^2= 7.2D+00
   Bfn.  Coefficient  Atom+Function         Bfn.  Coefficient  Atom+Function  
  ----- ------------  ---------------      ----- ------------  ---------------
    10      6.259320  1 C  s                 29     -5.322819  2 C  s          
    31      3.220322  2 C  py                11      1.688749  1 C  px         
    49     -1.479382  3 O  px                50     -1.353254  3 O  py         
    48     -1.331355  3 O  s                 30      0.946856  2 C  px         
    25      0.893441  2 C  s                  8     -0.835202  1 C  py         
 
 Vector   30  Occ=0.000000D+00  E= 2.942084D-01  Symmetry=a'
              MO Center= -5.7D-01, -3.3D-01, -2.4D-15, r^2= 7.6D+00
   Bfn.  Coefficient  Atom+Function         Bfn.  Coefficient  Atom+Function  
  ----- ------------  ---------------      ----- ------------  ---------------
    10      4.115566  1 C  s                 48     -2.783373  3 O  s          
     6      2.037525  1 C  s                 65     -1.840600  7 H  s          
    67     -1.840600  8 H  s                 12      1.512297  1 C  py         
    25      0.982716  2 C  s                 59     -0.986906  4 H  s          
    61     -0.986906  5 H  s                 63     -0.850659  6 H  s          
 
 Vector   31  Occ=0.000000D+00  E= 3.129474D-01  Symmetry=a'
              MO Center=  4.4D-01, -4.8D-02,  2.5D-14, r^2= 6.5D+00
   Bfn.  Coefficient  Atom+Function         Bfn.  Coefficient  Atom+Function  
  ----- ------------  ---------------      ----- ------------  ---------------
    29    -13.933281  2 C  s                 10     13.727274  1 C  s          
    31      3.529671  2 C  py                12      2.906153  1 C  py         
    25     -2.469545  2 C  s                  6      2.365137  1 C  s          
    11      2.071724  1 C  px                30      1.851952  2 C  px         
    59      1.800154  4 H  s                 61      1.800154  5 H  s          
 
 Vector   32  Occ=0.000000D+00  E= 3.416427D-01  Symmetry=a'
              MO Center= -2.4D-01,  2.5D-01, -3.8D-15, r^2= 7.1D+00
   Bfn.  Coefficient  Atom+Function         Bfn.  Coefficient  Atom+Function  
  ----- ------------  ---------------      ----- ------------  ---------------
    29     13.318900  2 C  s                 10    -11.620025  1 C  s          
    48     -5.580749  3 O  s                 30     -2.684739  2 C  px         
    12     -2.567042  1 C  py                31     -1.791776  2 C  py         
    11     -1.711640  1 C  px                25      1.601775  2 C  s          
    63      1.527947  6 H  s                  6     -1.235915  1 C  s          
 
 Vector   33  Occ=0.000000D+00  E= 6.186713D-01  Symmetry=a'
              MO Center=  5.3D-01, -7.8D-02,  4.1D-16, r^2= 4.0D+00
   Bfn.  Coefficient  Atom+Function         Bfn.  Coefficient  Atom+Function  
  ----- ------------  ---------------      ----- ------------  ---------------
    26      2.064716  2 C  px                29      1.929610  2 C  s          
    10     -1.749838  1 C  s                 30     -1.299118  2 C  px         
     7     -0.883307  1 C  px                 6      0.830075  1 C  s          
    44      0.807961  3 O  s                 22     -0.796507  2 C  px         
    48     -0.506917  3 O  s                 11      0.499658  1 C  px         
 

   alpha - beta orbital overlaps 
   ----------------------------- 


   alpha      1      2      3      4      5      6      7      8      9     10
    beta      1      2      3      4      5      6      7      8      9     11
 overlap   1.000  1.000  1.000  0.996  0.994  0.996  0.956  0.988  0.977  0.864


   alpha     11     12     13     14     15     16     17     18     19     20
    beta     10     13     12     14     15     16     17     18     19     20
 overlap   0.979  0.857  0.998  1.000  1.000  1.000  0.999  0.989  0.989  1.000


   alpha     21     22     23     24     25     26     27     28     29     30
    beta     21     22     23     24     25     26     27     28     29     30
 overlap   1.000  0.998  0.954  0.996  0.950  0.981  0.983  0.996  0.999  0.996


   alpha     31     32     33     34     35     36     37     38     39     40
    beta     31     32     33     34     35     36     37     38     39     40
 overlap   0.995  0.997  0.991  0.991  1.000  1.000  1.000  1.000  0.991  1.000


   alpha     41     42     43     44     45     46     47     48     49     50
    beta     41     42     43     44     46     45     47     48     49     50
 overlap   0.988  1.000  0.999  0.999  0.992  0.999  0.999  0.982  0.998  0.983


   alpha     51     52     53     54     55     56     57     58     59     60
    beta     51     52     53     54     55     56     57     58     59     60
 overlap   0.999  0.999  0.980  0.965  0.998  0.971  1.000  0.996  1.000  0.999


   alpha     61     62     63     64     65     66     67
    beta     61     62     63     64     65     66     67
 overlap   0.997  1.000  1.000  0.999  1.000  1.000  1.000

     --------------------------
     Expectation value of S2:  
     --------------------------
      <S2> =      0.7534 (Exact =     0.7500)
 

 center of mass
 --------------
 x =  -0.04067504 y =   0.16353140 z =   0.00000000

 moments of inertia (a.u.)
 ------------------
         173.405308427622           0.000000000000           0.000000000000
           0.000000000000          51.835443985758           0.000000000000
           0.000000000000           0.000000000000         202.316017268657
 
     Multipole analysis of the density
     ---------------------------------
 
     L   x y z        total         alpha         beta         nuclear
     -   - - -        -----         -----         ----         -------
     0   0 0 0     -0.000000    -13.000000    -12.000000     25.000000
 
     1   1 0 0      0.559467      0.434532      0.124935     -0.000000
     1   0 1 0     -0.627260     -1.347720      0.720459     -0.000000
     1   0 0 1     -0.000000     -0.000000     -0.000000      0.000000
 
     2   2 0 0    -14.258209    -22.085059    -20.670575     28.497425
     2   1 1 0      0.641020     -0.506502     -1.832159      2.979680
     2   1 0 1      0.000000      0.000000     -0.000000      0.000000
     2   0 2 0    -17.029182    -57.731547    -52.770835     93.473200
     2   0 1 1     -0.000000     -0.000000      0.000000      0.000000
     2   0 0 2    -13.422336    -13.128165    -11.667542     11.373371
 
 
 
                            NWChem DFT Gradient Module
                            --------------------------
 
 
                                H5C2O1 dft optimize
 
 

  charge          =   0.00
  wavefunction    = open shell

  Using symmetry


                         DFT ENERGY GRADIENTS

    atom               coordinates                        gradient
                 x          y          z           x          y          z
   1 C      -0.516840  -2.119239   0.000000   -0.014760   0.007880   0.000000
   2 C       1.070510   0.302633   0.000000    0.038959   0.017773   0.000000
   3 O      -0.646443   2.291745   0.000000   -0.017540  -0.015655   0.000000
   4 H       2.266208   0.352066   1.694194   -0.005161  -0.008883  -0.000769
   5 H       2.266208   0.352066  -1.694194   -0.005161  -0.008883   0.000769
   6 H       0.739699  -3.756486   0.000000    0.000827   0.007501   0.000000
   7 H      -1.711296  -2.190981   1.678211    0.001417   0.000134  -0.001697
   8 H      -1.711296  -2.190981  -1.678211    0.001417   0.000134   0.001697
 
                 ----------------------------------------
                 |  Time  |  1-e(secs)   |  2-e(secs)   |
                 ----------------------------------------
                 |  CPU   |       0.00   |       0.14   |
                 ----------------------------------------
                 |  WALL  |       0.00   |       0.15   |
                 ----------------------------------------

@ Step       Energy      Delta E   Gmax     Grms     Xrms     Xmax   Walltime
@ ---- ---------------- -------- -------- -------- -------- -------- --------
@    0    -154.37392765  0.0D+00  0.02213  0.00575  0.00000  0.00000      5.1
                                                                    



                                Z-matrix (autoz)
                                -------- 

 Units are Angstrom for bonds and degrees for angles
 
      Type          Name      I     J     K     L     M      Value     Gradient
      ----------- --------  ----- ----- ----- ----- ----- ---------- ----------
    1 Stretch                  1     2                       1.53234   -0.00700
    2 Stretch                  1     6                       1.09214   -0.00545
    3 Stretch                  1     7                       1.09070   -0.00221
    4 Stretch                  1     8                       1.09070   -0.00221
    5 Stretch                  2     3                       1.39049   -0.00039
    6 Stretch                  2     4                       1.09764   -0.00381
    7 Stretch                  2     5                       1.09764   -0.00381
    8 Bend                     1     2     3               105.95830   -0.02213
    9 Bend                     1     2     4               109.62901   -0.00294
   10 Bend                     1     2     5               109.62901   -0.00294
   11 Bend                     2     1     6               109.25308   -0.00420
   12 Bend                     2     1     7               110.29083    0.00062
   13 Bend                     2     1     8               110.29083    0.00062
   14 Bend                     3     2     4               111.01584    0.01090
   15 Bend                     3     2     5               111.01584    0.01090
   16 Bend                     4     2     5               109.52788    0.00518
   17 Bend                     6     1     7               108.97862    0.00148
   18 Bend                     6     1     8               108.97862    0.00148
   19 Bend                     7     1     8               109.02024    0.00005
   20 Torsion                  3     2     1     6         180.00000   -0.00000
   21 Torsion                  3     2     1     7         -60.23718   -0.00043
   22 Torsion                  3     2     1     8          60.23718    0.00043
   23 Torsion                  4     2     1     6         -60.13208   -0.00136
   24 Torsion                  4     2     1     7          59.63074   -0.00179
   25 Torsion                  4     2     1     8        -179.89491   -0.00093
   26 Torsion                  5     2     1     6          60.13208    0.00136
   27 Torsion                  5     2     1     7         179.89491    0.00093
   28 Torsion                  5     2     1     8         -59.63074    0.00179
 
 Restricting large step in mode   11 eval= 6.0D-02 step=-4.3D-01 new=-3.0D-01
 
                                 NWChem DFT Module
                                 -----------------
 
 
                                H5C2O1 dft optimize
 
 
  Caching 1-el integrals 
 
            General Information
            -------------------
          SCF calculation type: DFT
          Wavefunction type:  spin polarized.
          No. of atoms     :     8
          No. of electrons :    25
           Alpha electrons :    13
            Beta electrons :    12
          Charge           :     0
          Spin multiplicity:     2
          Use of symmetry is: on ; symmetry adaption is: on 
          Maximum number of iterations: 300
          AO basis - number of functions:    67
                     number of shells:    34
          Convergence on energy requested: 1.00D-06
          Convergence on density requested: 1.00D-05
          Convergence on gradient requested: 5.00D-04
 
              XC Information
              --------------
                         B3LYP Method XC Potential
                     Hartree-Fock (Exact) Exchange  0.200          
                        Slater Exchange Functional  0.800 local    
                    Becke 1988 Exchange Functional  0.720 non-local
              Lee-Yang-Parr Correlation Functional  0.810          
                  VWN I RPA Correlation Functional  0.190 local    
 
             Grid Information
             ----------------
          Grid used for XC integration:  medium    
          Radial quadrature: Mura-Knowles        
          Angular quadrature: Lebedev. 
          Tag              B.-S. Rad. Rad. Pts. Rad. Cut. Ang. Pts.
          ---              ---------- --------- --------- ---------
          C                   0.70       49          10.0       434
          O                   0.60       49          11.0       434
          H                   0.35       45          10.0       434
          Grid pruning is: on 
          Number of quadrature shells:   282
          Spatial weights used:  Erf1
 
          Convergence Information
          -----------------------
          Convergence aids based upon iterative change in 
          total energy or number of iterations. 
          Levelshifting, if invoked, occurs when the 
          HOMO/LUMO gap drops below (HL_TOL): 1.00D-02
          DIIS, if invoked, will attempt to extrapolate 
          using up to (NFOCK): 10 stored Fock matrices.

                    Damping( 0%)  Levelshifting(0.5)       DIIS
                  --------------- ------------------- ---------------
          dE  on:    start            ASAP                start   
          dE off:    2 iters        300 iters           300 iters 

 
      Screening Tolerance Information
      -------------------------------
          Density screening/tol_rho: 1.00D-10
          AO Gaussian exp screening on grid/accAOfunc:  14
          CD Gaussian exp screening on grid/accCDfunc:  20
          XC Gaussian exp screening on grid/accXCfunc:  20
          Schwarz screening/accCoul: 1.00D-08


 Loading old vectors from job with title :

H5C2O1 dft optimize

 
   Symmetry analysis of molecular orbitals - initial alpha
   -------------------------------------------------------
 
  Numbering of irreducible representations: 
 
     1 a'          2 a"      
 
  Orbital symmetries:
 
     1 a'          2 a'          3 a'          4 a'          5 a'      
     6 a'          7 a"          8 a'          9 a'         10 a"      
    11 a'         12 a"         13 a'         14 a'         15 a'      
    16 a"         17 a'         18 a'         19 a'         20 a"      
    21 a'         22 a'         23 a"      
 
 
   Symmetry analysis of molecular orbitals - initial beta
   ------------------------------------------------------
 
  Numbering of irreducible representations: 
 
     1 a'          2 a"      
 
  Orbital symmetries:
 
     1 a'          2 a'          3 a'          4 a'          5 a'      
     6 a'          7 a"          8 a'          9 a'         10 a'      
    11 a"         12 a'         13 a"         14 a'         15 a'      
    16 a"         17 a'         18 a'         19 a'         20 a"      
    21 a'         22 a'         23 a"      
 
   Time after variat. SCF:      5.8
   Time prior to 1st pass:      5.8

 Grid_pts file          = ./mol.gridpts.00
 Record size in doubles =  12289        No. of grid_pts per rec  =   3070
 Max. records in memory =      3        Max. recs in file   =  42218779


           Memory utilization after 1st SCF pass: 
           Heap Space remaining (MW):        6.78             6775957
          Stack Space remaining (MW):       13.11            13106390

   convergence    iter        energy       DeltaE   RMS-Dens  Diis-err    time
 ---------------- ----- ----------------- --------- --------- ---------  ------
 d= 0,ls=0.0,diis     1   -154.3744950476 -2.28D+02  1.64D-03  5.60D-03     6.1
                                                     1.70D-03  5.76D-03
 d= 0,ls=0.0,diis     2   -154.3794633528 -4.97D-03  2.69D-04  1.82D-04     6.4
                                                     2.66D-04  1.53D-04
 d= 0,ls=0.0,diis     3   -154.3795251853 -6.18D-05  1.29D-04  7.79D-05     6.6
                                                     1.39D-04  7.67D-05
 d= 0,ls=0.0,diis     4   -154.3795595540 -3.44D-05  3.41D-05  9.62D-06     6.9
                                                     3.73D-05  9.16D-06
 d= 0,ls=0.0,diis     5   -154.3795636987 -4.14D-06  8.94D-06  5.95D-07     7.1
                                                     1.09D-05  6.48D-07
 d= 0,ls=0.0,diis     6   -154.3795639465 -2.48D-07  4.57D-06  1.53D-07     7.4
                                                     4.49D-06  9.28D-08


         Total DFT energy =     -154.379563946523
      One electron energy =     -354.317869205873
           Coulomb energy =      147.595688190830
    Exchange-Corr. energy =      -21.209347149558
 Nuclear repulsion energy =       73.551964218078

 Numeric. integr. density =       25.000003413360

     Total iterative time =      1.6s


 
                  Occupations of the irreducible representations
                  ----------------------------------------------
 
                     irrep           alpha         beta
                     --------     --------     --------
                     a'               10.0         10.0
                     a"                3.0          2.0
 
 
                    DFT Final Alpha Molecular Orbital Analysis
                    ------------------------------------------
 
 Vector    2  Occ=1.000000D+00  E=-1.025502D+01  Symmetry=a'
              MO Center=  5.3D-01,  1.6D-01,  3.1D-19, r^2= 2.8D-02
   Bfn.  Coefficient  Atom+Function         Bfn.  Coefficient  Atom+Function  
  ----- ------------  ---------------      ----- ------------  ---------------
    20      0.993107  2 C  s          
 
 Vector    3  Occ=1.000000D+00  E=-1.019053D+01  Symmetry=a'
              MO Center= -2.8D-01, -1.2D+00,  2.4D-17, r^2= 2.8D-02
   Bfn.  Coefficient  Atom+Function         Bfn.  Coefficient  Atom+Function  
  ----- ------------  ---------------      ----- ------------  ---------------
     1      0.992927  1 C  s          
 
 Vector    4  Occ=1.000000D+00  E=-1.029968D+00  Symmetry=a'
              MO Center= -8.3D-02,  1.0D+00, -8.4D-17, r^2= 5.9D-01
   Bfn.  Coefficient  Atom+Function         Bfn.  Coefficient  Atom+Function  
  ----- ------------  ---------------      ----- ------------  ---------------
    40      0.466586  3 O  s                 44      0.465329  3 O  s          
    39     -0.206586  3 O  s                 21      0.171163  2 C  s          
 
 Vector    5  Occ=1.000000D+00  E=-7.505063D-01  Symmetry=a'
              MO Center=  3.4D-02, -6.2D-01, -3.6D-16, r^2= 1.6D+00
   Bfn.  Coefficient  Atom+Function         Bfn.  Coefficient  Atom+Function  
  ----- ------------  ---------------      ----- ------------  ---------------
     2      0.310781  1 C  s                  6      0.284629  1 C  s          
    21      0.222211  2 C  s                 25      0.212109  2 C  s          
    44     -0.204610  3 O  s                  1     -0.162844  1 C  s          
    40     -0.161621  3 O  s          
 
 Vector    6  Occ=1.000000D+00  E=-6.259322D-01  Symmetry=a'
              MO Center=  2.6D-01, -2.2D-01,  3.4D-16, r^2= 2.4D+00
   Bfn.  Coefficient  Atom+Function         Bfn.  Coefficient  Atom+Function  
  ----- ------------  ---------------      ----- ------------  ---------------
    25      0.300405  2 C  s                 21      0.265725  2 C  s          
     6     -0.250908  1 C  s                  2     -0.210741  1 C  s          
    44     -0.209583  3 O  s                 22      0.160938  2 C  px         
    58      0.151052  4 H  s                 60      0.151052  5 H  s          
 
 Vector    7  Occ=1.000000D+00  E=-5.042453D-01  Symmetry=a"
              MO Center=  3.2D-01,  2.9D-01,  2.9D-15, r^2= 1.8D+00
   Bfn.  Coefficient  Atom+Function         Bfn.  Coefficient  Atom+Function  
  ----- ------------  ---------------      ----- ------------  ---------------
    24      0.365546  2 C  pz                43      0.330283  3 O  pz         
    47      0.179927  3 O  pz                 5      0.169555  1 C  pz         
    58      0.166952  4 H  s                 60     -0.166952  5 H  s          
    28      0.159673  2 C  pz         
 
 Vector    8  Occ=1.000000D+00  E=-4.637217D-01  Symmetry=a'
              MO Center=  7.8D-02,  2.0D-01, -2.5D-15, r^2= 2.4D+00
   Bfn.  Coefficient  Atom+Function         Bfn.  Coefficient  Atom+Function  
  ----- ------------  ---------------      ----- ------------  ---------------
    42      0.387007  3 O  py                22      0.312815  2 C  px         
     4     -0.219280  1 C  py                44      0.210081  3 O  s          
    46      0.187797  3 O  py                62      0.155873  6 H  s          
 
 Vector    9  Occ=1.000000D+00  E=-4.253288D-01  Symmetry=a'
[...]
   Bfn.  Coefficient  Atom+Function         Bfn.  Coefficient  Atom+Function  
  ----- ------------  ---------------      ----- ------------  ---------------
    41      0.420263  3 O  px                23      0.314189  2 C  py         
     4     -0.265679  1 C  py                45      0.224236  3 O  px         
 
 Vector   10  Occ=1.000000D+00  E=-2.817487D-01  Symmetry=a"
              MO Center= -4.9D-01, -5.8D-01, -3.2D-14, r^2= 2.2D+00
   Bfn.  Coefficient  Atom+Function         Bfn.  Coefficient  Atom+Function  
  ----- ------------  ---------------      ----- ------------  ---------------
     5      0.398317  1 C  pz                43     -0.346424  3 O  pz         
    47     -0.215095  3 O  pz                64      0.209858  7 H  s          
    66     -0.209858  8 H  s                  9      0.207310  1 C  pz         
 
 Vector   11  Occ=1.000000D+00  E=-2.782790D-01  Symmetry=a'
              MO Center= -1.3D-01, -1.2D+00,  3.2D-14, r^2= 1.8D+00
   Bfn.  Coefficient  Atom+Function         Bfn.  Coefficient  Atom+Function  
  ----- ------------  ---------------      ----- ------------  ---------------
     3      0.389401  1 C  px                62      0.259889  6 H  s          
     4     -0.198077  1 C  py                 7      0.191168  1 C  px         
    63      0.178552  6 H  s                 42     -0.167019  3 O  py         
 
 Vector   12  Occ=1.000000D+00  E=-2.231685D-01  Symmetry=a'
              MO Center= -4.1D-02,  5.4D-01, -2.1D-16, r^2= 2.0D+00
   Bfn.  Coefficient  Atom+Function         Bfn.  Coefficient  Atom+Function  
  ----- ------------  ---------------      ----- ------------  ---------------
    41      0.463654  3 O  px                42      0.312360  3 O  py         
    45      0.290701  3 O  px                 4      0.257047  1 C  py         
    22     -0.204609  2 C  px                46      0.198512  3 O  py         
    23     -0.168049  2 C  py         
 
 Vector   13  Occ=1.000000D+00  E= 8.381379D-02  Symmetry=a'
              MO Center=  8.4D-01,  2.3D-01, -1.5D-15, r^2= 8.9D+00
   Bfn.  Coefficient  Atom+Function         Bfn.  Coefficient  Atom+Function  
  ----- ------------  ---------------      ----- ------------  ---------------
    29      2.032232  2 C  s                 48     -1.253758  3 O  s          
    31      0.580915  2 C  py                12     -0.316479  1 C  py         
    26     -0.277099  2 C  px                 6     -0.258024  1 C  s          
    10      0.255277  1 C  s                 49     -0.225383  3 O  px         
    27      0.219298  2 C  py                25     -0.180429  2 C  s          
 
 Vector   14  Occ=0.000000D+00  E=-1.712009D-01  Symmetry=a"
              MO Center=  2.4D-01,  4.4D-01,  2.0D-16, r^2= 2.2D+00
   Bfn.  Coefficient  Atom+Function         Bfn.  Coefficient  Atom+Function  
  ----- ------------  ---------------      ----- ------------  ---------------
    43      0.470258  3 O  pz                47      0.302559  3 O  pz         
    24     -0.291540  2 C  pz                58     -0.205952  4 H  s          
    60      0.205952  5 H  s                 59     -0.204846  4 H  s          
    61      0.204846  5 H  s                  5      0.160300  1 C  pz         
 
 Vector   15  Occ=0.000000D+00  E= 1.233977D-01  Symmetry=a'
              MO Center= -5.1D-01, -1.5D+00, -5.6D-15, r^2= 1.1D+01
   Bfn.  Coefficient  Atom+Function         Bfn.  Coefficient  Atom+Function  
  ----- ------------  ---------------      ----- ------------  ---------------
    29     -7.730307  2 C  s                 10      7.095765  1 C  s          
    12      2.540754  1 C  py                31      2.390866  2 C  py         
    30      1.762858  2 C  px                11      1.616788  1 C  px         
     6      0.361498  1 C  s                 25     -0.195019  2 C  s          
    48      0.166634  3 O  s                 49     -0.163023  3 O  px         
 
 Vector   16  Occ=0.000000D+00  E= 1.395610D-01  Symmetry=a"
              MO Center=  5.4D-01, -2.2D-01, -2.5D-14, r^2= 9.5D+00
   Bfn.  Coefficient  Atom+Function         Bfn.  Coefficient  Atom+Function  
  ----- ------------  ---------------      ----- ------------  ---------------
    32      1.048971  2 C  pz                13      0.260845  1 C  pz         
    28     -0.259958  2 C  pz                24     -0.210702  2 C  pz         
    51     -0.204943  3 O  pz                 9     -0.172283  1 C  pz         
 
 Vector   17  Occ=0.000000D+00  E= 1.412679D-01  Symmetry=a'
              MO Center=  4.4D-01,  2.8D-02,  1.9D-14, r^2= 1.1D+01
   Bfn.  Coefficient  Atom+Function         Bfn.  Coefficient  Atom+Function  
  ----- ------------  ---------------      ----- ------------  ---------------
    29      1.552016  2 C  s                 48     -1.516965  3 O  s          
    30     -1.326392  2 C  px                10     -0.735712  1 C  s          
    31      0.698061  2 C  py                25      0.415672  2 C  s          
    50      0.335796  3 O  py                27      0.227726  2 C  py         
 
 Vector   18  Occ=0.000000D+00  E= 1.734737D-01  Symmetry=a'
              MO Center= -2.6D-01, -1.1D+00, -7.0D-15, r^2= 1.1D+01
   Bfn.  Coefficient  Atom+Function         Bfn.  Coefficient  Atom+Function  
  ----- ------------  ---------------      ----- ------------  ---------------
    12      1.914521  1 C  py                31     -1.533861  2 C  py         
    10      1.022888  1 C  s                 29     -1.025347  2 C  s          
    11     -0.664089  1 C  px                30      0.646248  2 C  px         
    25     -0.408724  2 C  s                 50      0.325584  3 O  py         
     6     -0.242738  1 C  s                 48      0.212741  3 O  s          
 
 Vector   19  Occ=0.000000D+00  E= 1.760601D-01  Symmetry=a'
              MO Center=  3.0D-01, -6.8D-01, -8.8D-16, r^2= 1.2D+01
   Bfn.  Coefficient  Atom+Function         Bfn.  Coefficient  Atom+Function  
  ----- ------------  ---------------      ----- ------------  ---------------
    29      2.511906  2 C  s                 30     -2.210112  2 C  px         
    10     -2.184878  1 C  s                 11      1.454836  1 C  px         
    48     -0.794974  3 O  s                 31     -0.700438  2 C  py         
    12     -0.476426  1 C  py                 6     -0.278441  1 C  s          
    63     -0.182911  6 H  s                 27      0.177238  2 C  py         
 
 Vector   20  Occ=0.000000D+00  E= 1.824594D-01  Symmetry=a"
              MO Center= -3.3D-02, -1.0D+00,  7.2D-15, r^2= 1.3D+01
   Bfn.  Coefficient  Atom+Function         Bfn.  Coefficient  Atom+Function  
  ----- ------------  ---------------      ----- ------------  ---------------
    13      2.134142  1 C  pz                32     -2.024973  2 C  pz         
    51      0.227771  3 O  pz                65     -0.199640  7 H  s          
    67      0.199640  8 H  s                  5     -0.151097  1 C  pz         
 
 Vector   21  Occ=0.000000D+00  E= 2.322404D-01  Symmetry=a'
              MO Center=  3.7D-01, -5.2D-01,  5.4D-15, r^2= 1.2D+01
   Bfn.  Coefficient  Atom+Function         Bfn.  Coefficient  Atom+Function  
  ----- ------------  ---------------      ----- ------------  ---------------
    29    -27.471752  2 C  s                 10     26.958369  1 C  s          
    12      6.923637  1 C  py                31      6.944359  2 C  py         
    30      4.742692  2 C  px                11      4.219951  1 C  px         
    48      1.375895  3 O  s                 26      0.463428  2 C  px         
     8      0.352613  1 C  py                49     -0.235127  3 O  px         
 
 Vector   22  Occ=0.000000D+00  E= 2.674308D-01  Symmetry=a'
              MO Center= -1.7D-01,  2.0D-01,  7.3D-15, r^2= 7.2D+00
   Bfn.  Coefficient  Atom+Function         Bfn.  Coefficient  Atom+Function  
  ----- ------------  ---------------      ----- ------------  ---------------
    10      4.572888  1 C  s                 29     -3.935970  2 C  s          
    31      2.169502  2 C  py                11      1.451756  1 C  px         
    63     -1.112297  6 H  s                 48     -1.021457  3 O  s          
    49      0.824627  3 O  px                12      0.724606  1 C  py         
    44      0.659415  3 O  s                  7      0.608684  1 C  px         
 
 Vector   23  Occ=0.000000D+00  E= 2.785572D-01  Symmetry=a'
              MO Center= -4.7D-02,  7.7D-01,  4.0D-14, r^2= 6.3D+00
   Bfn.  Coefficient  Atom+Function         Bfn.  Coefficient  Atom+Function  
  ----- ------------  ---------------      ----- ------------  ---------------
    29      7.822258  2 C  s                 10     -6.375297  1 C  s          
    12     -1.823042  1 C  py                48     -1.821278  3 O  s          
    30     -1.261514  2 C  px                31     -1.232498  2 C  py         
    50      1.019089  3 O  py                25      0.996124  2 C  s          
    49     -0.815739  3 O  px                44      0.731029  3 O  s          
 
 Vector   24  Occ=0.000000D+00  E= 2.847941D-01  Symmetry=a"
              MO Center= -3.0D-01, -3.0D-01, -2.1D-14, r^2= 6.1D+00
   Bfn.  Coefficient  Atom+Function         Bfn.  Coefficient  Atom+Function  
  ----- ------------  ---------------      ----- ------------  ---------------
    65      1.215852  7 H  s                 67     -1.215852  8 H  s          
    51      1.106753  3 O  pz                 9     -1.064983  1 C  pz         
    32     -0.663314  2 C  pz                47     -0.300977  3 O  pz         
     5     -0.247832  1 C  pz                13     -0.189672  1 C  pz         
    43     -0.159417  3 O  pz         
 
 Vector   25  Occ=0.000000D+00  E= 2.911779D-01  Symmetry=a"
              MO Center=  4.6D-01,  3.2D-01, -2.2D-14, r^2= 4.5D+00
   Bfn.  Coefficient  Atom+Function         Bfn.  Coefficient  Atom+Function  
  ----- ------------  ---------------      ----- ------------  ---------------
    59      1.423279  4 H  s                 61     -1.423279  5 H  s          
    28     -1.041663  2 C  pz                32     -0.515504  2 C  pz         
    65      0.463184  7 H  s                 67     -0.463184  8 H  s          
    51     -0.408084  3 O  pz                24     -0.349742  2 C  pz         
    47      0.318433  3 O  pz                43      0.192698  3 O  pz         
 
 Vector   26  Occ=0.000000D+00  E= 3.255474D-01  Symmetry=a'
              MO Center= -2.0D-01,  1.1D-01, -1.2D-15, r^2= 6.4D+00
   Bfn.  Coefficient  Atom+Function         Bfn.  Coefficient  Atom+Function  
  ----- ------------  ---------------      ----- ------------  ---------------
    29      7.459309  2 C  s                 10     -6.670925  1 C  s          
    12     -2.483839  1 C  py                30     -1.608145  2 C  px         
    25     -1.329883  2 C  s                 50     -1.329110  3 O  py         
    26      1.295164  2 C  px                 8      0.958021  1 C  py         
    63      0.796885  6 H  s                 44      0.757625  3 O  s          
 
 Vector   27  Occ=0.000000D+00  E= 3.589108D-01  Symmetry=a"
              MO Center= -5.5D-04,  2.7D-01,  2.7D-16, r^2= 7.8D+00
   Bfn.  Coefficient  Atom+Function         Bfn.  Coefficient  Atom+Function  
  ----- ------------  ---------------      ----- ------------  ---------------
    32      1.974152  2 C  pz                51     -1.567560  3 O  pz         
    65      1.199149  7 H  s                 67     -1.199149  8 H  s          
    13     -1.174512  1 C  pz                 9     -1.152762  1 C  pz         
    28      1.093001  2 C  pz                59     -0.995274  4 H  s          
    61      0.995274  5 H  s                 24      0.250295  2 C  pz         
 
 Vector   28  Occ=0.000000D+00  E= 3.599871D-01  Symmetry=a'
              MO Center=  1.1D-01, -6.5D-01,  5.9D-16, r^2= 4.8D+00
   Bfn.  Coefficient  Atom+Function         Bfn.  Coefficient  Atom+Function  
  ----- ------------  ---------------      ----- ------------  ---------------
    10      3.228571  1 C  s                 29     -2.679840  2 C  s          
     7     -1.460683  1 C  px                27     -1.434383  2 C  py         
    12      1.279666  1 C  py                63      1.141378  6 H  s          
    31      1.077310  2 C  py                48     -0.992220  3 O  s          
     6     -0.964460  1 C  s                 44      0.955857  3 O  s          
 
 Vector   29  Occ=0.000000D+00  E= 3.725827D-01  Symmetry=a'
              MO Center=  3.6D-01,  1.0D+00,  2.5D-15, r^2= 6.9D+00
   Bfn.  Coefficient  Atom+Function         Bfn.  Coefficient  Atom+Function  
  ----- ------------  ---------------      ----- ------------  ---------------
    10      3.651888  1 C  s                 29     -2.390719  2 C  s          
    31      2.338346  2 C  py                25      1.788134  2 C  s          
    48     -1.535699  3 O  s                 50     -1.196062  3 O  py         
    49     -1.151708  3 O  px                11      1.116001  1 C  px         
     8     -1.081798  1 C  py                63     -0.886722  6 H  s          
 
 Vector   30  Occ=0.000000D+00  E= 3.961104D-01  Symmetry=a'
              MO Center= -4.8D-01, -8.3D-02,  6.6D-16, r^2= 7.2D+00
   Bfn.  Coefficient  Atom+Function         Bfn.  Coefficient  Atom+Function  
  ----- ------------  ---------------      ----- ------------  ---------------
    29      3.678487  2 C  s                 48     -3.438943  3 O  s          
     6      1.981620  1 C  s                 65     -1.501485  7 H  s          
    67     -1.501485  8 H  s                 25      1.187280  2 C  s          
    30     -1.176165  2 C  px                27      1.059227  2 C  py         
    59     -1.025016  4 H  s                 61     -1.025016  5 H  s          
 
 Vector   31  Occ=0.000000D+00  E= 4.118724D-01  Symmetry=a'
              MO Center=  5.4D-01,  1.0D-01, -2.8D-15, r^2= 7.1D+00
   Bfn.  Coefficient  Atom+Function         Bfn.  Coefficient  Atom+Function  
  ----- ------------  ---------------      ----- ------------  ---------------
    10     17.122280  1 C  s                 29    -17.098559  2 C  s          
    31      4.818987  2 C  py                12      3.711719  1 C  py         
    11      2.633432  1 C  px                30      2.299962  2 C  px         
     6      2.069507  1 C  s                 59      1.955893  4 H  s          
    61      1.955893  5 H  s                 25     -1.806252  2 C  s          
 
 Vector   32  Occ=0.000000D+00  E= 4.361861D-01  Symmetry=a'
              MO Center= -1.5D-01, -1.0D-01, -1.2D-16, r^2= 7.3D+00
   Bfn.  Coefficient  Atom+Function         Bfn.  Coefficient  Atom+Function  
  ----- ------------  ---------------      ----- ------------  ---------------
    29    -12.615124  2 C  s                 10     11.614437  1 C  s          
    48      4.806103  3 O  s                 12      2.780721  1 C  py         
    30      2.316533  2 C  px                63     -1.735734  6 H  s          
    31      1.610736  2 C  py                11      1.584528  1 C  px         
     6      1.522379  1 C  s                 65     -1.294282  7 H  s          
 
 Vector   33  Occ=0.000000D+00  E= 7.217735D-01  Symmetry=a'
              MO Center=  1.7D-01, -7.2D-01, -2.9D-16, r^2= 3.7D+00
   Bfn.  Coefficient  Atom+Function         Bfn.  Coefficient  Atom+Function  
  ----- ------------  ---------------      ----- ------------  ---------------
    25      1.500404  2 C  s                 27      1.420141  2 C  py         
     8     -1.318648  1 C  py                44     -1.074057  3 O  s          
    26     -1.061876  2 C  px                48     -0.859744  3 O  s          
    29      0.739437  2 C  s                  4      0.691778  1 C  py         
    10     -0.671102  1 C  s                 31     -0.658530  2 C  py         
 

   alpha - beta orbital overlaps 
   ----------------------------- 


   alpha      1      2      3      4      5      6      7      8      9     10
    beta      1      2      3      4      5      6      7      8      9     10
 overlap   1.000  1.000  1.000  0.999  0.999  0.998  0.973  0.998  0.997  0.927


   alpha     11     12     13     14     15     16     17     18     19     20
    beta     11     12     13     14     15     16     17     18     19     20
 overlap   0.999  0.998  0.989  0.912  0.988  0.999  0.998  0.995  0.995  0.999


   alpha     21     22     23     24     25     26     27     28     29     30
    beta     21     22     23     24     25     26     27     28     29     30
 overlap   1.000  0.998  0.998  0.790  0.785  0.999  0.995  0.999  0.999  0.997


   alpha     31     32     33     34     35     36     37     38     39     40
    beta     31     32     33     34     35     36     37     38     39     41
 overlap   0.997  0.997  1.000  1.000  0.999  1.000  1.000  1.000  0.999  0.998


   alpha     41     42     43     44     45     46     47     48     49     50
    beta     40     42     43     44     45     46     47     48     49     50
 overlap   0.996  0.996  0.994  0.994  0.997  1.000  1.000  0.999  0.999  1.000


   alpha     51     52     53     54     55     56     57     58     59     60
    beta     51     52     53     54     55     56     57     58     59     60
 overlap   0.999  1.000  0.992  0.990  1.000  0.997  0.999  0.998  1.000  0.999


   alpha     61     62     63     64     65     66     67
    beta     61     62     63     64     65     66     67
 overlap   0.999  1.000  1.000  1.000  1.000  1.000  1.000

     --------------------------
     Expectation value of S2:  
     --------------------------
      <S2> =      0.1899 (Exact =     0.0000)
 

 center of mass
 --------------
 x =  -0.00761651 y =   0.20717799 z =   0.00000000

 moments of inertia (a.u.)
 ------------------
         189.989403510860          -6.478821539238           0.000000000000
          -6.478821539238          45.818355332773           0.000000000000
           0.000000000000           0.000000000000         213.587595458995
 
     Multipole analysis of the density
     ---------------------------------
 
     L   x y z        total         alpha         beta         nuclear
     -   - - -        -----         -----         ----         -------
     0   0 0 0     -1.000000    -13.000000    -13.000000     25.000000
 
     1   1 0 0     -1.337792     -0.939668     -1.110322      0.712198
     1   0 1 0     -0.464461      0.271819     -1.662690      0.926411
     1   0 0 1     -0.000000     -0.000000     -0.000000      0.000000
 
     2   2 0 0    -32.174980    -28.954771    -28.920258     25.700049
     2   1 1 0     -2.622104     -4.943631     -4.369612      6.691140
     2   1 0 1      0.000000      0.000000      0.000000      0.000000
     2   0 2 0    -37.855599    -70.323122    -70.530456    102.997979
     2   0 1 1      0.000000      0.000000      0.000000      0.000000
     2   0 0 2    -32.352323    -22.078475    -21.297668     11.023820
 
 ------------------------------------------------------------------------
 dft energy failed                                                                       0
 ------------------------------------------------------------------------
 This type of error is most commonly associated with calculations not reaching 
 convergence criteria
 ------------------------------------------------------------------------
 For more information see the NWChem manual at 
 http://www.nwchem-sw.org/index.php/NWChem_Documentation


 For further details see manual section: 
                                                                                
                                                                                
                                                                                
                   
Application 20446871 exit codes: 134
Application 20446871 resources: utime ~315s, stime ~12s, Rss ~15336, inblocks ~11026254, outblocks ~317460
