
Running Job 1 of 1 mol.qcinp
qchem mol.qcinp_9345.0 /scratch2/scratchdirs/xhqu/qc_scratch/qchem9345/ 24
aprun -n 24 /global/project/projectdirs/jcesr/qchem/qc41/exe/qcprog.exe mol.qcinp_9345.0 /scratch2/scratchdirs/xhqu/qc_scratch/qchem9345/

Process 0 of 24 is on nid00581 - thread support 0
Process 1 of 24 is on nid00581 - thread support 0
Process 2 of 24 is on nid00581 - thread support 0
Process 4 of 24 is on nid00581 - thread support 0
Process 3 of 24 is on nid00581 - thread support 0
Process 5 of 24 is on nid00581 - thread support 0
Process 6 of 24 is on nid00581 - thread support 0
Process 23 of 24 is on nid00581 - thread support 0
initial socket setup ...start 0 nproc 24 
initial socket setup ...done 0 nproc 24 
now start server 0 ... 
                  Welcome to Q-Chem
     A Quantum Leap Into The Future Of Chemistry

 Y. Shao, L. Fusti-Molnar, Y. Jung, J. Kussmann, C. Ochsenfeld, S. T. Brown, 
 A. T. B. Gilbert, L. V. Slipchenko, S. V. Levchenko, D. P. O'Neill, 
 R. A. DiStasio Jr., R. C. Lochan, T. Wang, G. J. O. Beran, N. A. Besley, 
 J. M. Herbert, C. Y. Lin, T. Van Voorhis, S. H. Chien, A. Sodt, R. P. Steele, 
 V. A. Rassolov, P. E. Maslen, P. P. Korambath, R. D. Adamson, B. Austin, 
 J. Baker, E. F. C. Byrd, H. Dachsel, R. J. Doerksen, A. Dreuw, B. D. Dunietz, 
 A. D. Dutoi, T. R. Furlani, S. R. Gwaltney, A. Heyden, S. Hirata, C.-P. Hsu, 
 G. Kedziora, R. Z. Khaliullin, P. Klunzinger, A. M. Lee, M. S. Lee, W. Liang, 
 I. Lotan, N. Nair, B. Peters, E. I. Proynov, P. A. Pieniazek, Y. M. Rhee, 
 J. Ritchie, E. Rosta, C. D. Sherrill, A. C. Simmonett, J. E. Subotnik, 
 H. L. Woodcock III, W. Zhang, A. T. Bell, A. K. Chakraborty, D. M. Chipman, 
 F. J. Keil, A. Warshel, W. J. Hehre, H. F. Schaefer III, J. Kong, 
 A. I. Krylov, P. M. W. Gill, M. Head-Gordon

 Additional authors for Version 3.1: 
 Z. Gan, Y. Zhao, N. E. SchultzD. Truhlar, E. Epifanovsky, M. Oana

 Additional authors for Version 3.2: 
 R. Baer, B. R. Brooks, D. Casanova, J.-D. Chai, C.-L. Cheng, C. Cramer, 
 D. Crittenden, A. Ghysels, G. Hawkins, E. G. Hohenstein, C. Kelley, 
 W. Kurlancheek, D. Liotard, E. Livshits, P. Manohar, A. Marenich, 
 D. Neuhauser, R. Olson, M. A. Rohrdanz, K. S. Thanthiriwatte, A. J. W. Thom, 
 V. Vanovschi, C. F. Williams, Q. Wu, Z.-Q. You

 Additional authors for Version 4.0: 
 A. Aspuru-Guzik, Y. Bernard, C. Chang, J. Deng, A. Dreuw, M. Diedenhofen, 
 R. G. Edgar, D. Ghosh, W. A. Goddard III, M. Goldey, L. D. Jacobson, 
 M. Gordon, B. Kaduk, I. Kaliman, K. Khistyaev, R. King, A. Klamt, 
 D. Kosenkov, T. Kus, D. Lambrecht, A. Landau, A. W. Lange, K. Lawler, F. Liu, 
 J. Liu, R. Olivares-Amaya, S. P. Mao, J. Parkhill, N. Russ, M. Schmidt, 
 N. Shenvi, D. Small, Y. C. Su, E. Sundstrom, L. Vogt, O. Vydrov, M. Watson, 
 M. Wormit, X. Xu, S. Yeganeh, I. Y. Zhang, D. Zuev

 Additional authors for Version 4.1: 
 X. Feng, M. W. D. Hanson-Heine, P. Horn, H. Ji, A. Laurent, R. Peverati, 
 N. Mardirossian, N. Sergueev, S. Sharada, P. Zimmerman


 Q-Chem, Version 4.1, Q-Chem, Inc., Pittsburgh, PA (2013).

 Intel X86 Linux Version 4.1.1

 Q-chem begins on Tue Feb 25 17:03:47 2014  

 Host: nid04219

 Scratch files written to /scratch2/scratchdirs/xhqu/qc_scratch/qchem9345.0//
 Nov1913 .. -1
 Parallel job on  24  processors

Processing $rem in /global/project/projectdirs/jcesr/qchem/qc41/config/preferences.
 MEM_TOTAL  4000 
Finally everything over in PARseQInput

--------------------------------------------------------------
User input:
--------------------------------------------------------------
$comment
CAS-50-07-7 singlet neutral B3LYP 6-31+G* geometry optimization
$end


$molecule
0  1
O           9.79830000        4.90640000        5.26520000
C           8.80320000        5.89710000        5.05380000
C           9.50320000        3.76310000        4.47640000
N          10.30210000        0.82690000        3.56460000
C           9.62610000        4.05990000        3.00610000
C           8.46020000        2.77450000        4.94700000
C           8.87360000        1.12510000        3.07070000
C          11.10810000        2.05790000        3.22470000
C          10.53460000        3.09490000        2.29900000
N          11.17420000        4.79260000        2.40000000
C           9.04440000        1.83990000        5.99370000
C           8.05540000        1.98850000        3.68560000
C           6.73410000       -0.08850000        0.19840000
O           8.07030000        0.94410000        6.40900000
C           6.73340000        2.19210000        3.14130000
O           5.61030000        0.08460000       -0.26420000
C           7.14730000        0.63150000        1.37990000
C           7.14540000        1.32510000        7.31410000
O           5.96090000        2.97730000        3.68310000
C           6.32030000        1.47210000        1.95980000
C           6.72320000       -0.10750000        0.16730000
N           6.16460000        0.42320000        7.73220000
O           7.16590000        2.46460000        7.77030000
N           5.04180000        1.66900000        1.43350000
H           9.02560000        6.75860000        5.64820000
H           7.84690000        5.50760000        5.33410000
H           8.78730000        6.17160000        4.01970000
H           8.61340000        4.38110000        2.87890000
H           7.62300000        3.26080000        5.40260000
H          12.02080000        1.71800000        2.78160000
H          11.18030000        2.57300000        4.15980000
H          10.43980000        2.44110000        1.45730000
H          11.93320000        5.04280000        3.03380000
H           9.38420000        2.41130000        6.83210000
H           9.86730000        1.30170000        5.57180000
H           7.52090000       -0.74000000       -0.16210000
H           6.47730000        0.58890000       -0.60700000
H           5.86530000       -0.70480000        0.39550000
H           6.14810000       -0.49070000        7.36640000
H           5.48960000        0.70120000        8.39280000
H           4.42220000        2.29870000        1.86800000
H           4.76010000        1.17800000        0.62800000
$end


$rem
jobtype = opt
exchange = b3lyp
basis = 6-31+g*
mem_static = 100
mem_total = 1100
$end

--------------------------------------------------------------
 ----------------------------------------------------
       Standard Nuclear Orientation (Angstroms)
    I     Atom         X            Y            Z
 ----------------------------------------------------
    1      O      -3.111826     1.571811    -0.890008
    2      C      -2.962564     1.483592    -2.299383
    3      C      -1.869532     1.287534    -0.263654
    4      N      -0.204798     0.973756     2.423555
    5      C      -0.844360     2.347671    -0.563836
    6      C      -1.422969    -0.147595    -0.097437
    7      C       0.638643     0.430012     1.254615
    8      C      -0.766176     2.287662     1.934644
    9      C      -0.221082     2.913119     0.680503
   10      N      -1.272802     4.081523    -0.230646
   11      C      -2.114154    -0.786924     1.095823
   12      C       0.097587    -0.069395     0.136195
   13      C       4.340964     0.055085     0.581823
   14      O      -1.688936    -2.100586     1.227296
   15      C       0.979787    -0.556716    -0.898039
   16      O       5.090812    -0.359218    -0.297363
   17      C       2.910062    -0.002753     0.396751
   18      C      -2.220964    -3.063136     0.446111
   19      O       0.513194    -1.020151    -1.934552
   20      C       2.410649    -0.498811    -0.712904
   21      C       4.378658     0.056569     0.586717
   22      N      -1.792802    -4.385773     0.578436
   23      O      -3.081543    -2.776465    -0.381066
   24      N       3.263748    -0.970148    -1.713098
   25      H      -3.898691     1.697811    -2.771328
   26      H      -2.647770     0.495717    -2.563574
   27      H      -2.228679     2.190845    -2.625222
   28      H      -0.474521     1.886437    -1.455684
   29      H      -1.667596    -0.745374    -0.950538
   30      H      -0.623401     2.997777     2.722199
   31      H      -1.774548     2.044171     1.672248
   32      H       0.778559     3.023224     1.045874
   33      H      -2.196090     4.349799     0.109870
   34      H      -3.173504    -0.768211     0.946477
   35      H      -1.869458    -0.242291     1.983698
   36      H       4.597668     0.487338     1.541368
   37      H       4.813993     0.657669    -0.184089
   38      H       4.784535    -0.932326     0.539967
   39      H      -1.102645    -4.615773     1.241819
   40      H      -2.181098    -5.088306     0.008370
   41      H       2.889594    -1.341861    -2.544395
   42      H       4.239335    -0.930776    -1.586818
 ----------------------------------------------------
 Molecular Point Group                 C1    NOp =  1
 Largest Abelian Subgroup              C1    NOp =  1
 Nuclear Repulsion Energy =  2689.1494577553 hartrees
 There are       88 alpha and       88 beta electrons
 Requested basis set is 6-31+G(d)
 There are 156 shells and 492 basis functions

Total QAlloc Memory Limit   1100 MB
Mega-Array Size        98 MB
MEM_STATIC part       100 MB
 A cutoff of  1.0D-11 yielded   9038 shell pairs
 There are     96039 function pairs
 Smallest overlap matrix eigenvalue = 2.35E-16

 Q-Chem warning in module ../qchem/stvman/mkSTV.C, line 251:

 Overlap eigenvalue is smaller than square root of threshold

 Linear dependence detected in AO basis
 Number of orthogonalized atomic orbitals = 487
 Maximum deviation from orthogonality = 2.898E-10

  Scale SEOQF with 1.000000e-02/1.000000e-01/1.000000e-01

 Standard Electronic Orientation quadrupole field applied
 Nucleus-field energy     =     0.0000000263 hartrees
 Guess from superposition of atomic densities
 Warning:  Energy on first SCF cycle will be non-variational
 A restricted hybrid HF-DFT SCF calculation will be
 performed using Pulay DIIS extrapolation
 Exchange:     0.2000 Hartree-Fock + 0.0800 Slater + 0.7200 Becke88
 Correlation:  0.8100 LYP + 0.1900 VWN1RPA
 Using SG-1 standard quadrature grid
 SCF converges when DIIS error is below 1.0E-08
 Inaccurate integrated density:
   Number of electrons =   176
   Numerical integral  =   176.271189922269
   Relative error      =     0.1540851831 %
 ---------------------------------------
  Cycle       Energy         DIIS Error
 ---------------------------------------
    1    -817.0349028521      1.30E-01
    2    -760.5382410617      6.22E-03
    3    -750.4031731832      1.42E-02
    4    -752.4257876294      1.21E-02
    5    -761.0544579428      3.09E-03
    6    -760.1303773499      5.70E-03
    7    -761.1676064164      2.52E-03
    8    -761.3815544662      5.10E-04
    9    -761.3630176102      9.39E-04
   10    -761.3879096493      3.83E-04
   11    -761.3920454723      2.16E-04
   12    -761.3937040664      1.02E-04
   13    -761.3940661286      2.00E-05
   14    -761.3940740377      1.27E-05
   15    -761.3940786432      4.58E-06
   16    -761.3940790978      2.64E-06
   17    -761.3940793173      1.34E-06
   18    -761.3940793646      6.42E-07
   19    -761.3940793721      2.34E-07
   20    -761.3940793741      4.70E-08
   21    -761.3940793741      2.19E-08
   22    -761.3940793722      1.39E-08
   23    -761.3940793708      8.50E-08
   24    -761.3940793704      8.02E-09 Convergence criterion met
 ---------------------------------------
 SCF time:  CPU 725.29 s  wall 744.84 s
 SCF   energy in the final basis set = -761.3940793704
 Total energy in the final basis set = -761.3940793704
 Analysis of SCF Wavefunction
 
 --------------------------------------------------------------
                    Orbital Energies (a.u.)
 --------------------------------------------------------------
 
 Alpha MOs
 -- Occupied --
-36.951 -19.223 -19.218 -19.211 -19.170 -19.138 -14.387 -14.382
-14.373 -14.354 -10.363 -10.344 -10.299 -10.288 -10.276 -10.275
-10.262 -10.262 -10.260 -10.250 -10.246 -10.223 -10.162  -3.549
 -2.793  -1.924  -1.723  -1.138  -1.101  -1.073  -1.034  -1.031
 -0.942  -0.929  -0.923  -0.870  -0.859  -0.811  -0.778  -0.761
 -0.746  -0.722  -0.709  -0.666  -0.658  -0.639  -0.614  -0.607
 -0.585  -0.580  -0.562  -0.553  -0.548  -0.542  -0.531  -0.518
 -0.507  -0.493  -0.483  -0.475  -0.470  -0.467  -0.461  -0.457
 -0.445  -0.443  -0.420  -0.419  -0.409  -0.393  -0.388  -0.376
 -0.372  -0.365  -0.362  -0.349  -0.328  -0.318  -0.307  -0.295
 -0.293  -0.292  -0.289  -0.282  -0.273  -0.260  -0.240  -0.211
 -- Virtual --
 -0.167  -0.137  -0.100  -0.075  -0.047  -0.036  -0.022  -0.009
 -0.000   0.006   0.011   0.014   0.019   0.022   0.033   0.036
  0.038   0.041   0.044   0.050   0.055   0.061   0.066   0.069
  0.072   0.075   0.081   0.082   0.087   0.091   0.093   0.100
  0.102   0.103   0.106   0.109   0.113   0.117   0.122   0.124
  0.128   0.131   0.134   0.137   0.138   0.144   0.149   0.152
  0.156   0.157   0.162   0.168   0.170   0.171   0.177   0.180
  0.184   0.185   0.188   0.189   0.194   0.197   0.200   0.203
  0.208   0.209   0.211   0.213   0.217   0.220   0.223   0.225
  0.230   0.236   0.237   0.243   0.246   0.249   0.250   0.251
  0.257   0.266   0.267   0.269   0.269   0.277   0.279   0.280
  0.282   0.287   0.289   0.291   0.297   0.301   0.305   0.306
  0.310   0.314   0.317   0.317   0.322   0.327   0.332   0.333
  0.339   0.342   0.344   0.347   0.351   0.353   0.357   0.366
  0.368   0.372   0.376   0.378   0.381   0.388   0.392   0.400
  0.404   0.409   0.412   0.417   0.423   0.425   0.431   0.439
  0.443   0.447   0.459   0.461   0.475   0.490   0.492   0.507
  0.517   0.531   0.546   0.556   0.561   0.620   0.658   0.666
  0.684   0.692   0.695   0.700   0.706   0.716   0.720   0.730
  0.737   0.742   0.753   0.758   0.766   0.774   0.778   0.782
  0.792   0.797   0.810   0.822   0.826   0.828   0.842   0.850
  0.855   0.863   0.882   0.886   0.892   0.910   0.916   0.929
  0.937   0.941   0.954   0.958   0.970   0.972   0.991   0.998
  1.007   1.018   1.020   1.025   1.033   1.042   1.046   1.053
  1.059   1.070   1.081   1.096   1.099   1.105   1.108   1.112
  1.125   1.134   1.139   1.143   1.149   1.156   1.165   1.171
  1.176   1.187   1.199   1.211   1.218   1.224   1.233   1.246
  1.254   1.259   1.266   1.272   1.279   1.289   1.296   1.309
  1.322   1.331   1.337   1.350   1.353   1.356   1.369   1.372
  1.380   1.390   1.396   1.404   1.420   1.422   1.438   1.441
  1.459   1.462   1.474   1.480   1.489   1.508   1.522   1.527
  1.534   1.544   1.549   1.560   1.565   1.581   1.584   1.614
  1.624   1.640   1.642   1.648   1.664   1.681   1.689   1.713
  1.719   1.726   1.732   1.740   1.748   1.757   1.764   1.778
  1.789   1.796   1.805   1.814   1.837   1.840   1.862   1.872
  1.879   1.882   1.895   1.908   1.912   1.933   1.936   1.945
  1.957   1.964   1.977   1.998   2.004   2.021   2.029   2.038
  2.058   2.064   2.081   2.085   2.099   2.108   2.116   2.124
  2.138   2.155   2.159   2.182   2.195   2.212   2.228   2.229
  2.249   2.265   2.269   2.305   2.308   2.318   2.322   2.349
  2.354   2.361   2.374   2.382   2.395   2.403   2.416   2.422
  2.423   2.455   2.476   2.481   2.512   2.525   2.542   2.546
  2.561   2.572   2.578   2.631   2.640   2.648   2.658   2.673
  2.692   2.713   2.730   2.752   2.754   2.762   2.776   2.784
  2.796   2.810   2.819   2.873   2.880   2.911   2.955   2.983
  3.028   3.060   3.061   3.081   3.108   3.143   3.187   3.201
  3.229   3.325   3.644   3.655   3.974   3.990   4.092   4.225
  4.287   4.307   4.353   4.368   4.409   4.433   4.467   4.471
  4.497   4.534   4.567   4.594   4.612   4.620   4.659   4.733
  4.836   5.025   5.102   7.755   7.939   9.350  70.740
 --------------------------------------------------------------
 
          Ground-State Mulliken Net Atomic Charges

     Atom                 Charge (a.u.)
  ----------------------------------------
      1 O                    -0.045784
      2 C                    -0.233872
      3 C                    -2.028287
      4 N                    -0.150631
      5 C                     0.725044
      6 C                     0.685573
      7 C                    -0.744604
      8 C                    -0.584433
      9 C                     0.000665
     10 N                    -0.431526
     11 C                    -0.830938
     12 C                     0.357808
     13 C                    -1.924834
     14 O                    -0.198689
     15 C                    -0.208753
     16 O                    -0.283827
     17 C                    -0.701765
     18 C                     0.681282
     19 O                    -0.408786
     20 C                     0.799100
     21 C                     3.051287
     22 N                    -0.817419
     23 O                    -0.496251
     24 N                    -1.009015
     25 H                     0.224888
     26 H                     0.236468
     27 H                     0.230807
     28 H                     0.260200
     29 H                     0.299482
     30 H                     0.242391
     31 H                     0.196293
     32 H                     0.244139
     33 H                     0.372606
     34 H                     0.250597
     35 H                     0.283000
     36 H                    -0.051805
     37 H                     0.130056
     38 H                     0.131007
     39 H                     0.398250
     40 H                     0.420471
     41 H                     0.441758
     42 H                     0.488048
  ----------------------------------------
  Sum of atomic charges =    -0.000000

 -----------------------------------------------------------------
                    Cartesian Multipole Moments
 -----------------------------------------------------------------
    Charge (ESU x 10^10)
                -0.0000
    Dipole Moment (Debye)
         X      -1.8043      Y      -1.4963      Z      -2.3161
       Tot       3.2952
    Quadrupole Moments (Debye-Ang)
        XX    -152.3080     XY     -10.9829     YY    -130.4234
        XZ      -9.7802     YZ      -4.5074     ZZ    -149.4364
    Octapole Moments (Debye-Ang^2)
       XXX     -58.8122    XXY       9.4639    XYY     -26.6601
       YYY    -187.8867    XXZ     -55.4830    XYZ       2.4641
       YYZ      39.4350    XZZ     -45.4857    YZZ      -1.7587
       ZZZ     -65.6042
    Hexadecapole Moments (Debye-Ang^3)
      XXXX   -6073.4909   XXXY    -208.6404   XXYY   -1431.3454
      XYYY     111.6625   YYYY   -2986.3297   XXXZ    -205.1985
      XXYZ     -91.1704   XYYZ     -40.3334   YYYZ      43.7941
      XXZZ   -1161.6008   XYZZ     -72.7613   YYZZ    -766.5929
      XZZZ     -61.1980   YZZZ     -33.9911   ZZZZ   -1455.6871
 -----------------------------------------------------------------
 Calculating analytic gradient of the SCF energy
 Gradient of Coulomb and Exchange Energy
            1           2           3           4           5           6
    1  21.9582617   7.4386493 -24.1379081   2.3512312   8.6684457   3.7076512
    2  -8.3698346  -3.1001709   0.3818471  -4.7329083  -9.2465578  -1.7810812
    3   3.8796768   5.5705317 -13.4172000 -24.6467076  10.6038100   1.4732542
            7           8           9          10          11          12
    1  -5.7371129   5.3164094  -2.4976918   2.7239203   3.8542666  14.8802454
    2   0.4014917  -5.2306437 -10.5743565 -18.0297409   0.6159471   5.3854728
    3 -19.7589344  -5.2534345  -5.7033390   3.1969927  -0.8997817  19.1399615
           13          14          15          16          17          18
    1-1196.8223099  -0.9913730  -7.4549820  25.6418809   0.5057544  -4.6787637
    2-286.7392609   4.6462399  -2.2579361 -15.2740835  -4.6327750   7.0346178
    3-673.5177912 -14.2837328  -8.0199856 -33.0372664  -7.7076995  -8.3932770
           19          20          21          22          23          24
    1   5.7379979   2.95824561106.2609666   1.0675228  23.4189954 -11.3234564
    2  11.8990582   1.0576824 307.4959711  19.1748195   4.2806264   5.4142110
    3  27.9855302  -0.5968804 718.4053118  -0.1541114  16.4827143  11.2040845
           25          26          27          28          29          30
    1   6.0895396  -1.2912960  -3.7476733  -2.2274698   2.1518286  -2.1701806
    2  -1.4555806   5.6002267  -4.3582157   5.1406452   4.9836815  -5.2353077
    3   3.9444154   2.8082419   3.0896064   6.6035943   6.3107251  -5.4744828
           31          32          33          34          35          36
    1   4.3873026  -6.9399229   5.3297055   7.9455124  -0.5627818   2.0812979
    2   0.6856281  -0.0481715  -4.4444997  -0.5145823  -4.3279320   0.5742293
    3  -0.3184953  -5.0133119  -1.1958179   0.1849136  -6.6439007   1.3083089
           37          38          39          40          41          42
    1   7.2249875   7.0889269  -5.2413126   3.0385216   2.1840921  -8.1879244
    2   4.1844649 -10.8374143   2.5286715   6.3082245   3.2945032   0.1027935
    3 -10.5357932  -3.8021526  -5.3200388   4.2786226   7.3264276  -0.1025885
 Inaccurate integrated density:
   Number of electrons =   176
   Numerical integral  =   176.158509202889
   Relative error      =     0.0900620471 %
 Gradient of SCF Energy
            1           2           3           4           5           6
    1  -0.0307525   0.0008938   0.0421430  -0.0843578   0.0356689  -0.0190554
    2   0.0206536  -0.0006090  -0.0240514   0.0002757  -0.0444656  -0.0308886
    3  -0.0396255   0.0082746   0.0380298   0.0884924  -0.0710646  -0.0297994
            7           8           9          10          11          12
    1   0.0470543  -0.0297801   0.0504581  -0.0927323   0.0183242  -0.0083989
    2  -0.0263915   0.0296872  -0.0014272   0.0750046  -0.0084638   0.0111579
    3  -0.0690973  -0.0104344   0.0262245   0.0128003   0.0127388  -0.0002461
           13          14          15          16          17          18
    16772.3893139  -0.0316941   0.0174590  -0.3699134   0.3639310   0.0266690
    2 267.3445500   0.0487124   0.0110442   0.2404400  -0.0284192   0.0131833
    3 878.3493251  -0.0276365   0.0260809   0.5192852  -0.0347528   0.0313029
           19          20          21          22          23          24
    1   0.0047475  -0.0778044-6772.1697035  -0.0029556  -0.0001915   0.0320436
    2   0.0049706   0.0034029-267.4471902  -0.0616073   0.0021213  -0.0073456
    3   0.0148794   0.0008521-878.5859310  -0.0180577   0.0006193  -0.0150900
           25          26          27          28          29          30
    1   0.0155112  -0.0034309  -0.0088735  -0.0271963   0.0025065   0.0152829
    2  -0.0035725   0.0170739  -0.0129874  -0.0258714   0.0062934  -0.0080239
    3   0.0015675   0.0074455   0.0092329   0.0246954   0.0209733  -0.0189020
           31          32          33          34          35          36
    1   0.0461304  -0.0272755   0.0122118   0.0168893  -0.0048723  -0.1840467
    2   0.0071952  -0.0280053   0.0278160  -0.0014211   0.0026667  -0.1425887
    3   0.0012227   0.0325455  -0.0167773   0.0039917  -0.0159952  -0.3235801
           37          38          39          40          41          42
    1   0.0159750   0.0267234  -0.0175591   0.0119225   0.0138491  -0.0151146
    2  -0.0922797   0.1031154   0.0081813   0.0113174   0.0083436  -0.0015971
    3   0.0640925  -0.0299014  -0.0165425   0.0154056   0.0188022  -0.0054462
 Max gradient component =       6.772E+03
 RMS gradient           =       8.610E+02
 Gradient time:  CPU 55.59 s  wall 56.19 s
 Geometry Optimization Parameters
   NAtoms,    NIC,     NZ,  NCons,   NDum,   NFix, NCnnct, MaxDiis
       42     444       0       0       0       0       0       0


** GEOMETRY OPTIMIZATION IN DELOCALIZED INTERNAL COORDINATES **
   Searching for a Minimum

   Optimization Cycle:   1

                       Coordinates (Angstroms)
     ATOM              X           Y           Z
      1  O        -3.111826    1.571811   -0.890008
      2  C        -2.962564    1.483592   -2.299383
      3  C        -1.869532    1.287534   -0.263654
      4  N        -0.204798    0.973756    2.423555
      5  C        -0.844360    2.347671   -0.563836
      6  C        -1.422969   -0.147595   -0.097437
      7  C         0.638643    0.430012    1.254615
      8  C        -0.766176    2.287662    1.934644
      9  C        -0.221082    2.913119    0.680503
     10  N        -1.272802    4.081523   -0.230646
     11  C        -2.114154   -0.786924    1.095823
     12  C         0.097587   -0.069395    0.136195
     13  C         4.340964    0.055085    0.581823
     14  O        -1.688936   -2.100586    1.227296
     15  C         0.979787   -0.556716   -0.898039
     16  O         5.090812   -0.359218   -0.297363
     17  C         2.910062   -0.002753    0.396751
     18  C        -2.220964   -3.063136    0.446111
     19  O         0.513194   -1.020151   -1.934552
     20  C         2.410649   -0.498811   -0.712904
     21  C         4.378658    0.056569    0.586717
     22  N        -1.792802   -4.385773    0.578436
     23  O        -3.081543   -2.776465   -0.381066
     24  N         3.263748   -0.970148   -1.713098
     25  H        -3.898691    1.697811   -2.771328
     26  H        -2.647770    0.495717   -2.563574
     27  H        -2.228679    2.190845   -2.625222
     28  H        -0.474521    1.886437   -1.455684
     29  H        -1.667596   -0.745374   -0.950538
     30  H        -0.623401    2.997777    2.722199
     31  H        -1.774548    2.044171    1.672248
     32  H         0.778559    3.023224    1.045874
     33  H        -2.196090    4.349799    0.109870
     34  H        -3.173504   -0.768211    0.946477
     35  H        -1.869458   -0.242291    1.983698
     36  H         4.597668    0.487338    1.541368
     37  H         4.813993    0.657669   -0.184089
     38  H         4.784535   -0.932326    0.539967
     39  H        -1.102645   -4.615773    1.241819
     40  H        -2.181098   -5.088306    0.008370
     41  H         2.889594   -1.341861   -2.544395
     42  H         4.239335   -0.930776   -1.586818
   Point Group: c1    Number of degrees of freedom:   120


   Energy is   -761.394079370


 Attempting to Generate Delocalized Internal Coordinates

  ***ERROR*** Wrong Number of Internal Coordinates
              Should be: 120  Found: 122
**WARNING** Problems with Internal Coordinates
  Switching to Cartesian Coordinates

 ** Taking Steepest Descent Step **
 Calculated Step too Large.  Step scaled by  0.000031
 Step Taken.  Stepsize is  0.300000

                             Maximum     Tolerance    Cnvgd?
         Gradient           ********      0.000300      NO
         Displacement       0.210212      0.001200      NO
         Energy change     *********      0.000001      NO

 ----------------------------------------------------
       Standard Nuclear Orientation (Angstroms)
    I     Atom         X            Y            Z
 ----------------------------------------------------
    1      O      -3.111825     1.571810    -0.890007
    2      C      -2.962564     1.483592    -2.299383
    3      C      -1.869533     1.287535    -0.263655
    4      N      -0.204797     0.973756     2.423554
    5      C      -0.844361     2.347672    -0.563835
    6      C      -1.422969    -0.147594    -0.097437
    7      C       0.638643     0.430012     1.254616
    8      C      -0.766176     2.287662     1.934644
    9      C      -0.221083     2.913119     0.680503
   10      N      -1.272800     4.081522    -0.230646
   11      C      -2.114154    -0.786924     1.095823
   12      C       0.097587    -0.069395     0.136195
   13      C       4.229724     0.050694     0.567396
   14      O      -1.688936    -2.100586     1.227297
   15      C       0.979787    -0.556716    -0.898039
   16      O       5.090818    -0.359222    -0.297372
   17      C       2.910056    -0.002752     0.396752
   18      C      -2.220965    -3.063136     0.446111
   19      O       0.513194    -1.020151    -1.934553
   20      C       2.410651    -0.498811    -0.712904
   21      C       4.489894     0.060962     0.601148
   22      N      -1.792802    -4.385772     0.578436
   23      O      -3.081543    -2.776465    -0.381066
   24      N       3.263748    -0.970148    -1.713097
   25      H      -3.898691     1.697811    -2.771328
   26      H      -2.647770     0.495717    -2.563574
   27      H      -2.228679     2.190845    -2.625223
   28      H      -0.474520     1.886437    -1.455684
   29      H      -1.667596    -0.745374    -0.950539
   30      H      -0.623402     2.997777     2.722199
   31      H      -1.774549     2.044171     1.672248
   32      H       0.778559     3.023224     1.045873
   33      H      -2.196090     4.349799     0.109870
   34      H      -3.173504    -0.768211     0.946477
   35      H      -1.869458    -0.242291     1.983698
   36      H       4.597671     0.487340     1.541374
   37      H       4.813993     0.657671    -0.184090
   38      H       4.784534    -0.932327     0.539968
   39      H      -1.102644    -4.615774     1.241819
   40      H      -2.181098    -5.088306     0.008369
   41      H       2.889594    -1.341861    -2.544395
   42      H       4.239335    -0.930776    -1.586818
 ----------------------------------------------------
 Molecular Point Group                 C1    NOp =  1
 Largest Abelian Subgroup              C1    NOp =  1
 Nuclear Repulsion Energy =  2261.0490304285 hartrees
 There are       88 alpha and       88 beta electrons
 Applying Cartesian multipole field
    Component          Value
    ---------          -----
     (2,0,0)        1.00000E-12
     (0,2,0)        2.00000E-11
     (0,0,2)       -3.00000E-11
 Nucleus-field energy     =     0.0000000263 hartrees
 Requested basis set is 6-31+G(d)
 There are 156 shells and 492 basis functions
 A cutoff of  1.0D-11 yielded   9043 shell pairs
 There are     96143 function pairs
 Smallest overlap matrix eigenvalue = 1.46E-12

 Q-Chem warning in module ../qchem/stvman/mkSTV.C, line 251:

 Overlap eigenvalue is smaller than square root of threshold

 Linear dependence detected in AO basis
 Number of orthogonalized atomic orbitals = 488
 Maximum deviation from orthogonality = 1.419E-10
NOrb has increased; generating new SCF guess
 Guess MOs from core Hamiltonian diagonalization
 A restricted hybrid HF-DFT SCF calculation will be
 performed using Pulay DIIS extrapolation
 Exchange:     0.2000 Hartree-Fock + 0.0800 Slater + 0.7200 Becke88
 Correlation:  0.8100 LYP + 0.1900 VWN1RPA
 Using SG-1 standard quadrature grid
 SCF converges when DIIS error is below 1.0E-08
Geometry optimization detected.  Setting ReadMinima to 0
Setting SaveMinima to 0
 ---------------------------------------
  Cycle       Energy         DIIS Error
 ---------------------------------------
    1    -614.1647214653      9.27E-02
    2    -260.3476006947      8.70E-02
    3    -468.5108637597      1.03E-01
    4    -653.5777391580      8.88E-02
    5    -780.0025562392      6.53E-02
    6    -561.4654640919      9.47E-02
    7    -970.2172133217      5.46E-02
    8   -1126.6218178325      2.43E-02
    9    -996.3049350590      5.51E-02
   10   -1142.8332649552      1.49E-02
   11   -1114.4113793441      2.48E-02
   12   -1152.0730049735      7.07E-03
   13   -1149.2154756965      1.02E-02
   14   -1150.8398274823      7.24E-03
   15   -1153.6193545491      2.96E-03
   16   -1153.6725910922      2.76E-03
   17   -1153.8639463642      2.09E-03
   18   -1153.8743028013      1.67E-03
   19   -1154.0216851602      5.44E-04
   20   -1153.9843591051      1.01E-03
   21   -1154.0149617177      5.91E-04
   22   -1154.0209348475      4.90E-04
   23   -1154.0227129629      4.39E-04
   24   -1154.0275395602      3.13E-04
   25   -1154.0290276329      2.49E-04
   26   -1154.0314477504      1.13E-04
   27   -1154.0319334740      4.52E-05
   28   -1154.0320298936      9.67E-06
   29   -1154.0320325912      8.83E-06
   30   -1154.0320356626      3.80E-06
   31   -1154.0320364672      1.81E-06
   32   -1154.0320366138      6.03E-07
   33   -1154.0320366036      8.64E-07
   34   -1154.0320366370      2.07E-07
   35   -1154.0320366373      8.78E-08
   36   -1154.0320366394      1.31E-08
   37   -1154.0320366357      9.82E-09 Convergence criterion met
 ---------------------------------------
 SCF time:  CPU 1100.32 s  wall 1126.13 s
 SCF   energy in the final basis set = -1154.0320366357
 Total energy in the final basis set = -1154.0320366357
 Analysis of SCF Wavefunction
 
 --------------------------------------------------------------
                    Orbital Energies (a.u.)
 --------------------------------------------------------------
 
 Alpha MOs
 -- Occupied --
-19.244 -19.213 -19.208 -19.172 -19.134 -16.687 -14.379 -14.379
-14.373 -14.366 -10.360 -10.319 -10.305 -10.282 -10.277 -10.276
-10.266 -10.255 -10.251 -10.242 -10.236 -10.224 -10.214  -9.832
 -1.767  -1.474  -1.451  -1.133  -1.086  -1.076  -1.027  -0.971
 -0.950  -0.926  -0.917  -0.864  -0.852  -0.812  -0.771  -0.764
 -0.738  -0.730  -0.710  -0.700  -0.640  -0.631  -0.609  -0.607
 -0.589  -0.575  -0.570  -0.557  -0.553  -0.547  -0.534  -0.528
 -0.509  -0.499  -0.482  -0.476  -0.467  -0.466  -0.459  -0.456
 -0.446  -0.438  -0.432  -0.415  -0.413  -0.402  -0.378  -0.374
 -0.368  -0.358  -0.345  -0.323  -0.315  -0.308  -0.300  -0.296
 -0.289  -0.287  -0.278  -0.271  -0.259  -0.251  -0.226  -0.183
 -- Virtual --
 -0.158  -0.117  -0.102  -0.058  -0.038  -0.031  -0.017  -0.008
  0.002   0.003   0.012   0.016   0.021   0.024   0.032   0.039
  0.040   0.042   0.044   0.053   0.057   0.064   0.067   0.071
  0.072   0.075   0.079   0.084   0.087   0.093   0.095   0.099
  0.104   0.104   0.106   0.107   0.109   0.114   0.119   0.124
  0.130   0.131   0.136   0.137   0.138   0.140   0.143   0.151
  0.155   0.158   0.162   0.165   0.168   0.172   0.175   0.179
  0.183   0.184   0.186   0.188   0.195   0.198   0.198   0.202
  0.207   0.209   0.212   0.215   0.216   0.219   0.225   0.227
  0.228   0.233   0.236   0.239   0.243   0.248   0.250   0.252
  0.254   0.259   0.263   0.269   0.270   0.273   0.274   0.278
  0.280   0.284   0.288   0.292   0.295   0.297   0.300   0.305
  0.309   0.310   0.313   0.317   0.322   0.323   0.324   0.332
  0.334   0.335   0.341   0.346   0.349   0.355   0.359   0.360
  0.368   0.369   0.374   0.375   0.378   0.387   0.390   0.393
  0.404   0.405   0.412   0.414   0.423   0.427   0.433   0.438
  0.438   0.444   0.451   0.455   0.465   0.481   0.490   0.493
  0.510   0.520   0.536   0.548   0.553   0.565   0.607   0.636
  0.664   0.673   0.694   0.701   0.703   0.706   0.711   0.718
  0.726   0.730   0.738   0.752   0.755   0.760   0.780   0.783
  0.792   0.796   0.801   0.803   0.822   0.830   0.832   0.846
  0.850   0.856   0.862   0.872   0.875   0.888   0.893   0.916
  0.926   0.932   0.942   0.949   0.953   0.968   0.975   0.987
  0.996   1.009   1.014   1.017   1.025   1.031   1.042   1.049
  1.054   1.059   1.062   1.068   1.077   1.090   1.093   1.104
  1.111   1.118   1.125   1.132   1.142   1.145   1.150   1.152
  1.163   1.170   1.173   1.184   1.191   1.200   1.213   1.225
  1.227   1.238   1.247   1.253   1.265   1.270   1.285   1.293
  1.307   1.314   1.330   1.338   1.343   1.346   1.358   1.362
  1.370   1.382   1.390   1.395   1.402   1.408   1.419   1.424
  1.430   1.445   1.454   1.477   1.480   1.481   1.491   1.516
  1.519   1.528   1.535   1.537   1.551   1.559   1.581   1.586
  1.613   1.627   1.629   1.638   1.643   1.652   1.662   1.673
  1.693   1.707   1.722   1.733   1.741   1.745   1.753   1.761
  1.773   1.785   1.800   1.811   1.827   1.836   1.844   1.861
  1.878   1.881   1.887   1.896   1.905   1.916   1.923   1.933
  1.941   1.962   1.969   1.983   1.998   2.007   2.016   2.025
  2.040   2.061   2.083   2.090   2.109   2.114   2.117   2.126
  2.140   2.160   2.164   2.185   2.200   2.213   2.222   2.232
  2.241   2.255   2.262   2.298   2.307   2.315   2.323   2.335
  2.344   2.353   2.365   2.375   2.386   2.399   2.411   2.421
  2.427   2.442   2.472   2.484   2.506   2.509   2.527   2.545
  2.554   2.574   2.581   2.593   2.632   2.647   2.652   2.675
  2.680   2.688   2.695   2.731   2.743   2.760   2.778   2.785
  2.792   2.816   2.817   2.861   2.883   2.894   2.922   2.961
  2.965   2.984   3.061   3.078   3.098   3.114   3.147   3.178
  3.203   3.224   3.317   3.487   3.663   3.812   3.982   3.992
  4.082   4.233   4.295   4.304   4.363   4.375   4.414   4.424
  4.463   4.481   4.506   4.541   4.588   4.615   4.617   4.649
  4.666   4.734   4.846   5.025   6.259   6.461   7.734  26.078
 --------------------------------------------------------------
 
          Ground-State Mulliken Net Atomic Charges

     Atom                 Charge (a.u.)
  ----------------------------------------
      1 O                    -0.050041
      2 C                    -0.229422
      3 C                    -1.999069
      4 N                    -0.122944
      5 C                     0.686591
      6 C                     0.889603
      7 C                    -1.696173
      8 C                    -0.594394
      9 C                     0.001613
     10 N                    -0.434132
     11 C                    -0.821081
     12 C                     0.762339
     13 C                    -2.133261
     14 O                    -0.194170
     15 C                     0.244688
     16 O                     0.066104
     17 C                     0.359160
     18 C                     0.683046
     19 O                    -0.417584
     20 C                     1.078204
     21 C                     1.285062
     22 N                    -0.819039
     23 O                    -0.495937
     24 N                    -1.035989
     25 H                     0.219433
     26 H                     0.231667
     27 H                     0.228004
     28 H                     0.252483
     29 H                     0.294912
     30 H                     0.232241
     31 H                     0.207206
     32 H                     0.237199
     33 H                     0.371166
     34 H                     0.250246
     35 H                     0.279903
     36 H                     0.000132
     37 H                     0.223518
     38 H                     0.228602
     39 H                     0.397091
     40 H                     0.419802
     41 H                     0.449001
     42 H                     0.464221
  ----------------------------------------
  Sum of atomic charges =     0.000000

 -----------------------------------------------------------------
                    Cartesian Multipole Moments
 -----------------------------------------------------------------
    Charge (ESU x 10^10)
                -0.0000
    Dipole Moment (Debye)
         X       0.6634      Y      -1.9621      Z      -1.7938
       Tot       2.7399
    Quadrupole Moments (Debye-Ang)
        XX    -144.6666     XY      -9.1664     YY    -134.4503
        XZ      -7.4768     YZ      -2.8211     ZZ    -148.5939
    Octapole Moments (Debye-Ang^2)
       XXX       1.3625    XXY      12.2963    XYY     -30.3131
       YYY    -191.4193    XXZ     -37.2186    XYZ       9.5934
       YYZ      37.9199    XZZ     -34.4645    YZZ      -4.5968
       ZZZ     -63.7311
    Hexadecapole Moments (Debye-Ang^3)
      XXXX   -5771.2404   XXXY    -175.0614   XXYY   -1473.0032
      XYYY     124.3946   YYYY   -3034.1896   XXXZ    -126.1018
      XXYZ     -47.6734   XYYZ     -41.5992   YYYZ      45.9506
      XXZZ   -1123.0322   XYZZ     -71.1732   YYZZ    -773.8722
      XZZZ     -58.1133   YZZZ     -31.9082   ZZZZ   -1454.3292
 -----------------------------------------------------------------
 Calculating analytic gradient of the SCF energy
 Gradient of Coulomb and Exchange Energy
            1           2           3           4           5           6
    1  21.7590332   7.4719807 -25.9789329   2.3857261   9.1786809   3.7176853
    2  -8.3953555  -3.1785193  -0.2750267  -5.6134811  -9.3648450  -1.3365629
    3   3.9642350   5.8266444 -14.6588213 -25.3993530  11.2153708   3.0544922
            7           8           9          10          11          12
    1   4.1536531   5.0133971  -2.7047144   2.8028147   4.0894692   3.8657320
    2   6.9494214  -4.7167889 -10.3729875 -17.9638562  -0.1038261  -0.4044223
    3 -17.9782533  -4.9348611  -5.6397874   3.1883719  -0.6614346  16.7839480
           13          14          15          16          17          18
    1-124.5848670  -0.9075844  -8.5641177  15.0224322   4.5529913  -4.7108532
    2 -11.5571762   4.4512514  -2.8775522  -8.3748623  -2.8266127   7.0640089
    3 -33.5101538 -14.3078605 -11.0437200 -18.0183597  -0.2683145  -8.4769328
           19          20          21          22          23          24
    1   6.2099353   7.8111411  44.1806687   1.0909337  23.4516734 -10.4674251
    2  11.9605218   3.3154343  21.2725410  19.1110817   4.2208528   5.7379936
    3  28.0141674   5.2140345  50.2333050  -0.1726233  16.4507371  11.7808265
           25          26          27          28          29          30
    1   6.0346671  -1.2790843  -3.7113478  -2.0184332   2.1049953  -1.9812164
    2  -1.4447531   5.5456787  -4.3251684   5.3039468   4.8663406  -5.0534526
    3   3.8816058   2.7625464   3.0366561   6.5296775   6.4573889  -5.4371526
           31          32          33          34          35          36
    1   4.8716455  -6.8404470   5.3273347   7.9569403  -0.5822709   2.0081288
    2   0.8409079  -0.0526699  -4.4501380  -0.5052064  -4.3236209   1.6697388
    3   0.2980398  -5.0461780  -1.1760365   0.2086420  -6.5896900   3.7553276
           37          38          39          40          41          42
    1   3.5775461   3.5113649  -5.2370221   3.0347352   2.2655809  -7.8825704
    2   0.9547476  -7.9692191   2.5229542   6.3014696   3.3243546   0.0728575
    3  -9.7937418  -5.7718384  -5.3079456   4.2789314   7.4316873  -0.1735776
 Gradient of SCF Energy
            1           2           3           4           5           6
    1  -0.0280398   0.0016985   0.0403790  -0.0866144   0.0363815  -0.0138707
    2   0.0202140  -0.0006929  -0.0231789   0.0105628  -0.0421295  -0.0288953
    3  -0.0348216   0.0062655   0.0345598   0.1024128  -0.0688951  -0.0269969
            7           8           9          10          11          12
    1   0.0813421  -0.0220464   0.0514500  -0.0929434   0.0165753  -0.0140635
    2  -0.0367319   0.0200371  -0.0024243   0.0744925  -0.0092431   0.0108137
    3  -0.0955800  -0.0112457   0.0247304   0.0126031   0.0149245   0.0000291
           13          14          15          16          17          18
    1  91.6057722  -0.0313667   0.0380860  -0.6645761   0.2355099   0.0274999
    2   3.5006917   0.0511964   0.0061288   0.2919908  -0.0327588   0.0120641
    3  11.6401995  -0.0271051   0.0147313   0.6139468  -0.0642675   0.0307622
           19          20          21          22          23          24
    1  -0.0031166  -0.0821546 -90.8128308  -0.0033995  -0.0002261   0.0463286
    2   0.0062404   0.0164386  -3.7662009  -0.0608242   0.0027487  -0.0023898
    3   0.0174901   0.0299733 -12.1906120  -0.0179280   0.0004774  -0.0027246
           25          26          27          28          29          30
    1   0.0156021  -0.0035359  -0.0090207  -0.0272348   0.0025883   0.0132776
    2  -0.0035708   0.0172295  -0.0130525  -0.0272330   0.0067625  -0.0093175
    3   0.0022029   0.0075934   0.0093041   0.0244621   0.0191832  -0.0177795
           31          32          33          34          35          36
    1   0.0399481  -0.0271862   0.0120501   0.0169108  -0.0053971  -0.1406103
    2   0.0056283  -0.0275113   0.0280444  -0.0015940   0.0022142  -0.1458864
    3  -0.0035657   0.0322965  -0.0169301   0.0039024  -0.0159245  -0.3271628
           37          38          39          40          41          42
    1  -0.1109463  -0.1008667  -0.0174699   0.0119103   0.0143305  -0.0101243
    2  -0.2272678   0.3426056   0.0081740   0.0112975   0.0086648   0.0066622
    3   0.2533517  -0.0068774  -0.0165537   0.0153508   0.0196625   0.0145547
 Max gradient component =       9.161E+01
 RMS gradient           =       1.160E+01
 Gradient time:  CPU 49.49 s  wall 49.98 s
 Geometry Optimization Parameters
   NAtoms,    NIC,     NZ,  NCons,   NDum,   NFix, NCnnct, MaxDiis
       42     444       0       0       0       0       0       0


** GEOMETRY OPTIMIZATION IN CARTESIAN COORDINATES **
   Searching for a Minimum

   Optimization Cycle:   2

                       Coordinates (Angstroms)
     ATOM              X           Y           Z
      1  O        -3.111825    1.571810   -0.890007
      2  C        -2.962564    1.483592   -2.299383
      3  C        -1.869533    1.287535   -0.263655
      4  N        -0.204797    0.973756    2.423554
      5  C        -0.844361    2.347672   -0.563835
      6  C        -1.422969   -0.147594   -0.097437
      7  C         0.638643    0.430012    1.254616
      8  C        -0.766176    2.287662    1.934644
      9  C        -0.221083    2.913119    0.680503
     10  N        -1.272800    4.081522   -0.230646
     11  C        -2.114154   -0.786924    1.095823
     12  C         0.097587   -0.069395    0.136195
     13  C         4.229724    0.050694    0.567396
     14  O        -1.688936   -2.100586    1.227297
     15  C         0.979787   -0.556716   -0.898039
     16  O         5.090818   -0.359222   -0.297372
     17  C         2.910056   -0.002752    0.396752
     18  C        -2.220965   -3.063136    0.446111
     19  O         0.513194   -1.020151   -1.934553
     20  C         2.410651   -0.498811   -0.712904
     21  C         4.489894    0.060962    0.601148
     22  N        -1.792802   -4.385772    0.578436
     23  O        -3.081543   -2.776465   -0.381066
     24  N         3.263748   -0.970148   -1.713097
     25  H        -3.898691    1.697811   -2.771328
     26  H        -2.647770    0.495717   -2.563574
     27  H        -2.228679    2.190845   -2.625223
     28  H        -0.474520    1.886437   -1.455684
     29  H        -1.667596   -0.745374   -0.950539
     30  H        -0.623402    2.997777    2.722199
     31  H        -1.774549    2.044171    1.672248
     32  H         0.778559    3.023224    1.045873
     33  H        -2.196090    4.349799    0.109870
     34  H        -3.173504   -0.768211    0.946477
     35  H        -1.869458   -0.242291    1.983698
     36  H         4.597671    0.487340    1.541374
     37  H         4.813993    0.657671   -0.184090
     38  H         4.784534   -0.932327    0.539968
     39  H        -1.102644   -4.615774    1.241819
     40  H        -2.181098   -5.088306    0.008369
     41  H         2.889594   -1.341861   -2.544395
     42  H         4.239335   -0.930776   -1.586818
   Point Group: c1    Number of degrees of freedom:   120


   Energy is  -1154.032036636


 ** Taking Steepest Descent Step **
 Calculated Step too Large.  Step scaled by  0.002304
 Step Taken.  Stepsize is  0.300000

                             Maximum     Tolerance    Cnvgd?
         Gradient           ********      0.000300      NO
         Displacement       0.211082      0.001200      NO
         Energy change     *********      0.000001      NO

 ----------------------------------------------------
       Standard Nuclear Orientation (Angstroms)
    I     Atom         X            Y            Z
 ----------------------------------------------------
    1      O      -3.111791     1.571786    -0.889964
    2      C      -2.962566     1.483592    -2.299391
    3      C      -1.869582     1.287563    -0.263697
    4      N      -0.204691     0.973743     2.423429
    5      C      -0.844405     2.347723    -0.563751
    6      C      -1.422952    -0.147559    -0.097404
    7      C       0.638544     0.430057     1.254733
    8      C      -0.766149     2.287637     1.934657
    9      C      -0.221146     2.913122     0.680473
   10      N      -1.272687     4.081431    -0.230661
   11      C      -2.114174    -0.786912     1.095804
   12      C       0.097604    -0.069409     0.136195
   13      C       4.118024     0.046425     0.553202
   14      O      -1.688898    -2.100649     1.227330
   15      C       0.979741    -0.556724    -0.898057
   16      O       5.091628    -0.359578    -0.298121
   17      C       2.909769    -0.002712     0.396830
   18      C      -2.220998    -3.063151     0.446073
   19      O       0.513197    -1.020159    -1.934574
   20      C       2.410751    -0.498831    -0.712941
   21      C       4.600627     0.065555     0.616013
   22      N      -1.792798    -4.385697     0.578458
   23      O      -3.081543    -2.776469    -0.381067
   24      N       3.263691    -0.970145    -1.713094
   25      H      -3.898710     1.697815    -2.771331
   26      H      -2.647765     0.495696    -2.563584
   27      H      -2.228668     2.190861    -2.625234
   28      H      -0.474487     1.886470    -1.455714
   29      H      -1.667599    -0.745382    -0.950562
   30      H      -0.623418     2.997789     2.722221
   31      H      -1.774597     2.044164     1.672252
   32      H       0.778592     3.023258     1.045834
   33      H      -2.196104     4.349765     0.109891
   34      H      -3.173525    -0.768209     0.946472
   35      H      -1.869452    -0.242294     1.983718
   36      H       4.597843     0.487518     1.541773
   37      H       4.814128     0.657948    -0.184399
   38      H       4.784657    -0.932745     0.539976
   39      H      -1.102623    -4.615784     1.241839
   40      H      -2.181112    -5.088320     0.008351
   41      H       2.889576    -1.341872    -2.544419
   42      H       4.239348    -0.930784    -1.586835
 ----------------------------------------------------
 Molecular Point Group                 C1    NOp =  1
 Largest Abelian Subgroup              C1    NOp =  1
 Nuclear Repulsion Energy =  2227.8924221088 hartrees
 There are       88 alpha and       88 beta electrons
 Applying Cartesian multipole field
    Component          Value
    ---------          -----
     (2,0,0)        1.00000E-12
     (0,2,0)        2.00000E-11
     (0,0,2)       -3.00000E-11
 Nucleus-field energy     =     0.0000000263 hartrees
 Requested basis set is 6-31+G(d)
 There are 156 shells and 492 basis functions
 A cutoff of  1.0D-11 yielded   9046 shell pairs
 There are     96172 function pairs
 Smallest overlap matrix eigenvalue = 7.61E-11

 Q-Chem warning in module ../qchem/stvman/mkSTV.C, line 251:

 Overlap eigenvalue is smaller than square root of threshold

 Linear dependence detected in AO basis
 Number of orthogonalized atomic orbitals = 488
 Maximum deviation from orthogonality = 2.663E-10
 Guess MOs from SCF MO coefficient file
Reading MOs from coefficient file
Reading MOs from coefficient file
 A restricted hybrid HF-DFT SCF calculation will be
 performed using Pulay DIIS extrapolation
 Exchange:     0.2000 Hartree-Fock + 0.0800 Slater + 0.7200 Becke88
 Correlation:  0.8100 LYP + 0.1900 VWN1RPA
 Using SG-1 standard quadrature grid
 SCF converges when DIIS error is below 1.0E-08
Geometry optimization detected.  Setting ReadMinima to 0
Setting SaveMinima to 0
 Inaccurate integrated density:
   Number of electrons =   176
   Numerical integral  =   177.549337318162
   Relative error      =     0.8803052944 %
 ---------------------------------------
  Cycle       Energy         DIIS Error
 ---------------------------------------
    1   -1172.1401052608      1.49E-02
    2   -1164.0908789953      9.67E-03
    3    -956.1037722234      6.25E-02
    4   -1103.2918621775      3.50E-02
    5   -1148.4165721036      1.93E-02
    6   -1165.6194959271      1.01E-02
    7   -1161.9602829221      1.08E-02
    8   -1169.7462200929      3.65E-03
    9   -1168.1810425278      7.23E-03
   10   -1170.1874315900      1.84E-03
   11   -1170.1574929381      1.71E-03
   12   -1170.1797914609      1.62E-03
   13   -1170.2615214911      8.02E-04
   14   -1170.2802874623      3.65E-04
   15   -1170.2853391440      1.06E-04
   16   -1170.2851492174      1.09E-04
   17   -1170.2854936979      6.67E-05
   18   -1170.2855814669      4.73E-05
   19   -1170.2856556847      2.26E-05
   20   -1170.2856744205      7.23E-06
   21   -1170.2856765417      1.22E-06
   22   -1170.2856765141      1.32E-06
   23   -1170.2856765871      2.80E-07
   24   -1170.2856765882      2.40E-07
   25   -1170.2856765888      1.28E-07
   26   -1170.2856765892      1.49E-08
   27   -1170.2856765871      2.17E-08
   28   -1170.2856765879      2.09E-07
   29   -1170.2856765859      9.48E-09 Convergence criterion met
 ---------------------------------------
 SCF time:  CPU 588.42 s  wall 609.75 s
 SCF   energy in the final basis set = -1170.2856765859
 Total energy in the final basis set = -1170.2856765859
 Analysis of SCF Wavefunction
 
 --------------------------------------------------------------
                    Orbital Energies (a.u.)
 --------------------------------------------------------------
 
 Alpha MOs
 -- Occupied --
-19.326 -19.204 -19.195 -19.155 -19.127 -14.373 -14.368 -14.366
-14.353 -11.938 -10.790 -10.352 -10.303 -10.286 -10.270 -10.265
-10.256 -10.256 -10.242 -10.241 -10.227 -10.225 -10.207 -10.184
 -1.597  -1.182  -1.124  -1.107  -1.073  -1.061  -1.019  -0.962
 -0.920  -0.903  -0.897  -0.851  -0.837  -0.794  -0.763  -0.757
 -0.737  -0.724  -0.700  -0.689  -0.632  -0.610  -0.608  -0.597
 -0.587  -0.580  -0.568  -0.564  -0.544  -0.538  -0.529  -0.521
 -0.498  -0.488  -0.487  -0.471  -0.463  -0.457  -0.448  -0.444
 -0.439  -0.430  -0.426  -0.404  -0.400  -0.391  -0.366  -0.365
 -0.357  -0.347  -0.334  -0.314  -0.310  -0.297  -0.288  -0.285
 -0.282  -0.279  -0.267  -0.260  -0.252  -0.242  -0.223  -0.175
 -- Virtual --
 -0.140  -0.094  -0.084  -0.077  -0.030  -0.029  -0.011  -0.006
  0.002   0.007   0.011   0.015   0.023   0.025   0.030   0.033
  0.042   0.045   0.047   0.048   0.057   0.063   0.066   0.070
  0.074   0.077   0.082   0.085   0.090   0.093   0.097   0.099
  0.103   0.105   0.108   0.111   0.114   0.116   0.121   0.128
  0.133   0.137   0.139   0.142   0.144   0.146   0.149   0.153
  0.154   0.164   0.167   0.168   0.172   0.176   0.181   0.181
  0.185   0.188   0.191   0.193   0.197   0.199   0.204   0.206
  0.210   0.212   0.215   0.216   0.219   0.223   0.226   0.230
  0.232   0.233   0.236   0.243   0.245   0.249   0.251   0.257
  0.260   0.262   0.264   0.269   0.271   0.274   0.278   0.281
  0.282   0.289   0.291   0.295   0.298   0.299   0.304   0.306
  0.309   0.316   0.318   0.320   0.327   0.328   0.330   0.335
  0.337   0.340   0.341   0.345   0.354   0.355   0.364   0.365
  0.367   0.375   0.379   0.382   0.384   0.393   0.397   0.401
  0.410   0.411   0.417   0.422   0.430   0.439   0.441   0.442
  0.448   0.451   0.458   0.461   0.473   0.487   0.497   0.500
  0.520   0.529   0.545   0.555   0.557   0.579   0.592   0.626
  0.664   0.675   0.685   0.696   0.705   0.712   0.716   0.722
  0.726   0.730   0.742   0.748   0.761   0.764   0.769   0.790
  0.792   0.802   0.807   0.811   0.818   0.829   0.837   0.843
  0.848   0.859   0.866   0.871   0.882   0.894   0.900   0.904
  0.926   0.933   0.942   0.947   0.956   0.965   0.975   0.978
  0.987   0.998   1.009   1.015   1.020   1.027   1.035   1.041
  1.053   1.058   1.058   1.064   1.072   1.078   1.083   1.095
  1.104   1.115   1.118   1.125   1.131   1.140   1.155   1.156
  1.165   1.173   1.177   1.183   1.187   1.194   1.214   1.223
  1.236   1.241   1.254   1.261   1.275   1.277   1.288   1.301
  1.315   1.322   1.329   1.335   1.340   1.349   1.352   1.367
  1.372   1.380   1.390   1.399   1.401   1.413   1.422   1.431
  1.438   1.451   1.458   1.477   1.486   1.490   1.501   1.509
  1.523   1.528   1.540   1.546   1.560   1.570   1.582   1.585
  1.595   1.623   1.633   1.640   1.643   1.646   1.656   1.663
  1.682   1.703   1.733   1.744   1.751   1.756   1.761   1.772
  1.784   1.792   1.807   1.812   1.824   1.837   1.849   1.858
  1.876   1.881   1.891   1.905   1.906   1.925   1.927   1.943
  1.952   1.973   1.978   1.992   2.002   2.016   2.025   2.034
  2.051   2.074   2.092   2.099   2.120   2.125   2.128   2.136
  2.152   2.171   2.175   2.186   2.202   2.206   2.213   2.228
  2.242   2.259   2.265   2.275   2.312   2.325   2.330   2.342
  2.345   2.360   2.366   2.377   2.389   2.405   2.417   2.427
  2.438   2.449   2.467   2.486   2.492   2.511   2.526   2.536
  2.562   2.581   2.582   2.589   2.609   2.639   2.658   2.660
  2.685   2.695   2.722   2.737   2.760   2.768   2.780   2.791
  2.805   2.805   2.827   2.837   2.839   2.895   2.903   2.939
  2.955   2.994   3.070   3.085   3.111   3.141   3.155   3.190
  3.214   3.225   3.341   3.425   3.708   3.991   3.999   4.044
  4.116   4.251   4.308   4.319   4.374   4.386   4.426   4.441
  4.475   4.494   4.514   4.552   4.592   4.611   4.628   4.675
  4.694   4.748   4.767   4.858   5.000   5.052   5.577  23.984
 --------------------------------------------------------------
 
          Ground-State Mulliken Net Atomic Charges

     Atom                 Charge (a.u.)
  ----------------------------------------
      1 O                    -0.050881
      2 C                    -0.228431
      3 C                    -2.140729
      4 N                    -0.159539
      5 C                     0.693533
      6 C                     0.921599
      7 C                    -1.679175
      8 C                    -0.607308
      9 C                     0.035235
     10 N                    -0.444004
     11 C                    -0.864772
     12 C                     0.754665
     13 C                    -0.685620
     14 O                    -0.196108
     15 C                     0.232586
     16 O                     0.316598
     17 C                     0.225668
     18 C                     0.687713
     19 O                    -0.435737
     20 C                     1.575404
     21 C                    -0.206815
     22 N                    -0.821982
     23 O                    -0.498115
     24 N                    -1.078723
     25 H                     0.215113
     26 H                     0.230410
     27 H                     0.225190
     28 H                     0.249070
     29 H                     0.288481
     30 H                     0.227936
     31 H                     0.203541
     32 H                     0.227399
     33 H                     0.369004
     34 H                     0.246966
     35 H                     0.280692
     36 H                     0.140004
     37 H                     0.020511
     38 H                     0.023357
     39 H                     0.395025
     40 H                     0.418225
     41 H                     0.452124
     42 H                     0.441887
  ----------------------------------------
  Sum of atomic charges =     0.000000

 -----------------------------------------------------------------
                    Cartesian Multipole Moments
 -----------------------------------------------------------------
    Charge (ESU x 10^10)
                -0.0000
    Dipole Moment (Debye)
         X       4.4002      Y      -2.2522      Z      -1.4516
       Tot       5.1519
    Quadrupole Moments (Debye-Ang)
        XX    -130.4877     XY      -8.8332     YY    -136.7876
        XZ      -6.4133     YZ      -2.5208     ZZ    -148.7396
    Octapole Moments (Debye-Ang^2)
       XXX      82.5214    XXY       6.6322    XYY     -21.9723
       YYY    -196.4235    XXZ     -39.4782    XYZ      11.6174
       YYZ      37.7084    XZZ     -23.4665    YZZ      -4.7748
       ZZZ     -61.6394
    Hexadecapole Moments (Debye-Ang^3)
      XXXX   -5445.7330   XXXY    -212.9953   XXYY   -1465.0766
      XYYY     123.1077   YYYY   -3085.4788   XXXZ    -191.1766
      XXYZ     -34.9187   XYYZ     -40.7320   YYYZ      46.5651
      XXZZ   -1096.2529   XYZZ     -62.7336   YYZZ    -780.1573
      XZZZ     -45.7428   YZZZ     -33.6146   ZZZZ   -1467.0153
 -----------------------------------------------------------------
 Calculating analytic gradient of the SCF energy
 Gradient of Coulomb and Exchange Energy
            1           2           3           4           5           6
    1  21.6270277   7.4182965 -26.9081462   1.6025258   9.6822230   4.6144669
    2  -8.3335521  -3.1519119   0.2457716  -5.0296246  -9.3426576  -1.1905114
    3   3.5917945   5.6842372 -12.2039141 -24.5771856  10.8525925   2.4774750
            7           8           9          10          11          12
    1   9.8565488   5.4864034  -3.3328887   2.7549138   3.8306679   4.5534303
    2   5.9975700  -5.5770040 -10.1567901 -17.8978652   0.5671986  -0.2902068
    3 -15.1678216  -4.7794059  -5.7961194   3.1246099  -0.6318094  14.3557437
           13          14          15          16          17          18
    1 -45.3837482  -0.8915401 -10.6348488  -3.8444487   0.5462795  -4.7416203
    2  -3.3324973   4.3506571  -4.0407015   0.7450514  -0.8199508   7.1483679
    3 -13.4645141 -14.3218589 -11.7637388   1.2616852   3.3136555  -8.4404883
           19          20          21          22          23          24
    1   6.0336816  -0.7159989  -0.0059741   1.0983370  23.4804521  -9.9026161
    2  11.7377630   1.4598239   0.8437628  19.0705238   4.1715665   5.9426602
    3  27.4389236   1.2101568   2.6904773  -0.1903735  16.4463309  12.1816154
           25          26          27          28          29          30
    1   5.9966924  -1.2712225  -3.6973757  -1.9600697   2.0621589  -2.0375029
    2  -1.4343868   5.5380722  -4.3165425   5.3791220   4.7942659  -5.0360937
    3   3.8490397   2.7343288   3.0053642   6.4669923   6.4138986  -5.3900960
           31          32          33          34          35          36
    1   4.5431908  -6.7281028   5.3151972   7.9314731  -0.5968704   7.1177922
    2   0.7309373  -0.0129680  -4.4443085  -0.5652004  -4.3700314  -0.0838248
    3  -0.2473348  -5.0354286  -1.1665568   0.1919213  -6.5670611   0.1333329
           37          38          39          40          41          42
    1  -2.5769866  -2.6555705  -5.2236442   3.0326329   2.3714038  -7.8466201
    2   1.6723657  -3.1529226   2.5169758   6.2919338   3.3299872   0.0451758
    3  -2.9756040  -0.8783391  -5.2973123   4.2696940   7.4346093  -0.2335166
 Gradient of SCF Energy
            1           2           3           4           5           6
    1  -0.0268613   0.0021751   0.0412753  -0.0817768   0.0350851  -0.0133824
    2   0.0199296  -0.0006441  -0.0259751   0.0005159  -0.0413885  -0.0268700
    3  -0.0306691   0.0049566   0.0262557   0.0933477  -0.0674842  -0.0252277
            7           8           9          10          11          12
    1   0.0658499  -0.0260098   0.0524706  -0.0925168   0.0164250  -0.0109641
    2  -0.0314616   0.0269477  -0.0022027   0.0736251  -0.0123029   0.0081635
    3  -0.0895247  -0.0123789   0.0254834   0.0128226   0.0146038  -0.0001560
           13          14          15          16          17          18
    1  15.2454269  -0.0312553   0.0344093  -0.6357437   0.2381844   0.0271644
    2   0.4893844   0.0535218   0.0081156   0.2636991   0.0012333   0.0092294
    3   1.7319688  -0.0270289   0.0170812   0.5518481   0.0102098   0.0301609
           19          20          21          22          23          24
    1   0.0012812  -0.0318614 -14.7171162  -0.0035587   0.0000945   0.0429224
    2   0.0084006   0.0102057  -0.7417388  -0.0594738   0.0036340  -0.0017000
    3   0.0230533   0.0181531  -2.2621183  -0.0178526   0.0005575  -0.0011942
           25          26          27          28          29          30
    1   0.0156388  -0.0036615  -0.0091337  -0.0275393   0.0025964   0.0142613
    2  -0.0035845   0.0172440  -0.0130468  -0.0281005   0.0064234  -0.0089758
    3   0.0024890   0.0076912   0.0094383   0.0243772   0.0188708  -0.0182647
           31          32          33          34          35          36
    1   0.0439555  -0.0270165   0.0117162   0.0166738  -0.0050001  -0.1584885
    2   0.0074475  -0.0275935   0.0282276  -0.0013935   0.0023629  -0.0931639
    3   0.0011606   0.0319439  -0.0169211   0.0041552  -0.0160311  -0.2121406
           37          38          39          40          41          42
    1  -0.0102737   0.0012347  -0.0173665   0.0118180   0.0133017  -0.0044341
    2  -0.2762786   0.3215369   0.0080496   0.0111204   0.0089689   0.0079079
    3   0.1857054  -0.0859230  -0.0164693   0.0152148   0.0204323   0.0174032
 Max gradient component =       1.525E+01
 RMS gradient           =       1.909E+00
 Gradient time:  CPU 50.22 s  wall 50.80 s
 Geometry Optimization Parameters
   NAtoms,    NIC,     NZ,  NCons,   NDum,   NFix, NCnnct, MaxDiis
       42     444       0       0       0       0       0       0


** GEOMETRY OPTIMIZATION IN CARTESIAN COORDINATES **
   Searching for a Minimum

   Optimization Cycle:   3

                       Coordinates (Angstroms)
     ATOM              X           Y           Z
      1  O        -3.111791    1.571786   -0.889964
      2  C        -2.962566    1.483592   -2.299391
      3  C        -1.869582    1.287563   -0.263697
      4  N        -0.204691    0.973743    2.423429
      5  C        -0.844405    2.347723   -0.563751
      6  C        -1.422952   -0.147559   -0.097404
      7  C         0.638544    0.430057    1.254733
      8  C        -0.766149    2.287637    1.934657
      9  C        -0.221146    2.913122    0.680473
     10  N        -1.272687    4.081431   -0.230661
     11  C        -2.114174   -0.786912    1.095804
     12  C         0.097604   -0.069409    0.136195
     13  C         4.118024    0.046425    0.553202
     14  O        -1.688898   -2.100649    1.227330
     15  C         0.979741   -0.556724   -0.898057
     16  O         5.091628   -0.359578   -0.298121
     17  C         2.909769   -0.002712    0.396830
     18  C        -2.220998   -3.063151    0.446073
     19  O         0.513197   -1.020159   -1.934574
     20  C         2.410751   -0.498831   -0.712941
     21  C         4.600627    0.065555    0.616013
     22  N        -1.792798   -4.385697    0.578458
     23  O        -3.081543   -2.776469   -0.381067
     24  N         3.263691   -0.970145   -1.713094
     25  H        -3.898710    1.697815   -2.771331
     26  H        -2.647765    0.495696   -2.563584
     27  H        -2.228668    2.190861   -2.625234
     28  H        -0.474487    1.886470   -1.455714
     29  H        -1.667599   -0.745382   -0.950562
     30  H        -0.623418    2.997789    2.722221
     31  H        -1.774597    2.044164    1.672252
     32  H         0.778592    3.023258    1.045834
     33  H        -2.196104    4.349765    0.109891
     34  H        -3.173525   -0.768209    0.946472
     35  H        -1.869452   -0.242294    1.983718
     36  H         4.597843    0.487518    1.541773
     37  H         4.814128    0.657948   -0.184399
     38  H         4.784657   -0.932745    0.539976
     39  H        -1.102623   -4.615784    1.241839
     40  H        -2.181112   -5.088320    0.008351
     41  H         2.889576   -1.341872   -2.544419
     42  H         4.239348   -0.930784   -1.586835
   Point Group: c1    Number of degrees of freedom:   120


   Energy is  -1170.285676586


 ** Taking Steepest Descent Step **
 Calculated Step too Large.  Step scaled by  0.014001
 Step Taken.  Stepsize is  0.300000

                             Maximum     Tolerance    Cnvgd?
         Gradient           ********      0.000300      NO
         Displacement       0.213444      0.001200      NO
         Energy change     *********      0.000001      NO

 ----------------------------------------------------
       Standard Nuclear Orientation (Angstroms)
    I     Atom         X            Y            Z
 ----------------------------------------------------
    1      O      -3.111592     1.571638    -0.889737
    2      C      -2.962582     1.483597    -2.299427
    3      C      -1.869888     1.287756    -0.263892
    4      N      -0.204085     0.973739     2.422737
    5      C      -0.844665     2.348030    -0.563251
    6      C      -1.422853    -0.147360    -0.097217
    7      C       0.638056     0.430290     1.255396
    8      C      -0.765956     2.287438     1.934749
    9      C      -0.221534     2.913139     0.680284
   10      N      -1.272002     4.080885    -0.230756
   11      C      -2.114296    -0.786821     1.095696
   12      C       0.097685    -0.069469     0.136196
   13      C       4.005075     0.042800     0.540371
   14      O      -1.688666    -2.101045     1.227530
   15      C       0.979486    -0.556784    -0.898184
   16      O       5.096339    -0.361531    -0.302209
   17      C       2.908004    -0.002721     0.396754
   18      C      -2.221200    -3.063219     0.445850
   19      O       0.513188    -1.020221    -1.934745
   20      C       2.410987    -0.498906    -0.713075
   21      C       4.709662     0.071050     0.632773
   22      N      -1.792772    -4.385257     0.578590
   23      O      -3.081544    -2.776496    -0.381071
   24      N       3.263373    -0.970132    -1.713085
   25      H      -3.898826     1.697842    -2.771349
   26      H      -2.647738     0.495568    -2.563641
   27      H      -2.228600     2.190958    -2.625304
   28      H      -0.474283     1.886678    -1.455895
   29      H      -1.667618    -0.745430    -0.950702
   30      H      -0.623523     2.997855     2.722356
   31      H      -1.774923     2.044109     1.672244
   32      H       0.778793     3.023462     1.045597
   33      H      -2.196191     4.349556     0.110016
   34      H      -3.173648    -0.768198     0.946441
   35      H      -1.869415    -0.242311     1.983837
   36      H       4.599017     0.488208     1.543344
   37      H       4.814204     0.659995    -0.185775
   38      H       4.784648    -0.935127     0.540613
   39      H      -1.102494    -4.615843     1.241961
   40      H      -2.181200    -5.088402     0.008238
   41      H       2.889478    -1.341938    -2.544570
   42      H       4.239380    -0.930843    -1.586964
 ----------------------------------------------------
 Molecular Point Group                 C1    NOp =  1
 Largest Abelian Subgroup              C1    NOp =  1
 Nuclear Repulsion Energy =  2215.7542735265 hartrees
 There are       88 alpha and       88 beta electrons
 Applying Cartesian multipole field
    Component          Value
    ---------          -----
     (2,0,0)        1.00000E-12
     (0,2,0)        2.00000E-11
     (0,0,2)       -3.00000E-11
 Nucleus-field energy     =     0.0000000262 hartrees
 Requested basis set is 6-31+G(d)
 There are 156 shells and 492 basis functions
 A cutoff of  1.0D-11 yielded   9043 shell pairs
 There are     96119 function pairs
 Smallest overlap matrix eigenvalue = 8.79E-10

 Q-Chem warning in module ../qchem/stvman/mkSTV.C, line 251:

 Overlap eigenvalue is smaller than square root of threshold

 Linear dependence detected in AO basis
 Number of orthogonalized atomic orbitals = 489
 Maximum deviation from orthogonality = 3.693E-10
NOrb has increased; generating new SCF guess
 Guess MOs from core Hamiltonian diagonalization
 A restricted hybrid HF-DFT SCF calculation will be
 performed using Pulay DIIS extrapolation
 Exchange:     0.2000 Hartree-Fock + 0.0800 Slater + 0.7200 Becke88
 Correlation:  0.8100 LYP + 0.1900 VWN1RPA
 Using SG-1 standard quadrature grid
 SCF converges when DIIS error is below 1.0E-08
Geometry optimization detected.  Setting ReadMinima to 0
Setting SaveMinima to 0
 ---------------------------------------
  Cycle       Energy         DIIS Error
 ---------------------------------------
    1    -601.3430778671      9.39E-02
    2    -206.2579981323      9.28E-02
    3    -357.7598342006      1.02E-01
    4    -704.5707912787      8.81E-02
    5    -824.4949331334      6.45E-02
    6    -825.4202579743      7.18E-02
    7   -1054.7434956665      3.52E-02
    8    -192.6277241437      1.30E-01
    9    -231.6360803431      1.28E-01
   10    -232.3667816399      1.28E-01
   11    -232.5578979234      1.28E-01
   12    -233.7660982015      1.28E-01
   13    -233.8219681086      1.28E-01
   14    -233.2581851948      1.28E-01
   15    -233.7512750201      1.28E-01
   16    -233.9979279063      1.28E-01
   17    -392.3676032938      1.14E-01
   18     -90.6580443268      1.35E-01
   19    -161.3638487801      1.26E-01
   20     -71.4257962878      1.35E-01
   21    -650.2837128147      1.01E-01
   22     -97.5826695843      1.28E-01
   23     240.5531475681      1.07E-01
   24    -304.9733603819      1.15E-01
   25    -920.1948703196      7.46E-02
   26    -886.1190301630      6.16E-02
   27    -813.8958197807      7.08E-02
   28   -1109.2240509000      3.30E-02
   29    -786.8675742864      8.20E-02
   30   -1124.8424401599      3.10E-02
   31   -1162.7603446515      1.65E-02
   32   -1159.4786168557      1.77E-02
   33   -1166.4250450110      1.41E-02
   34   -1173.7463043081      4.34E-03
   35   -1172.0436607983      7.73E-03
   36   -1174.2229896177      2.13E-03
   37   -1174.3485030049      1.12E-03
   38   -1174.2006944587      2.07E-03
   39   -1174.3827272234      5.14E-04
   40   -1174.3871340437      3.91E-04
   41   -1174.3935373505      9.82E-05
   42   -1174.3935628300      8.36E-05
   43   -1174.3937539537      4.99E-05
   44   -1174.3938363074      2.27E-05
   45   -1174.3938599222      4.27E-06
   46   -1174.3938598708      3.92E-06
   47   -1174.3938603208      2.06E-06
   48   -1174.3938604998      7.31E-07
   49   -1174.3938605266      1.07E-07
Application 26296412 exit codes: 134
Application 26296412 resources: utime ~3367s, stime ~60s, Rss ~145080, inblocks ~24886916, outblocks ~7568705
