
Running Job 1 of 1 mol.qcinp
qchem mol.qcinp_46474.0 /scratch3/scratchdirs/xhqu/qc_scratch/qchem46474/ 12
aprun -n 12 /global/project/projectdirs/jcesr/qchem/qc41/exe/qcprog.exe mol.qcinp_46474.0 /scratch3/scratchdirs/xhqu/qc_scratch/qchem46474/

Process 0 of 12 is on nid03618 - thread support 0
Process 1 of 12 is on nid03618 - thread support 0
Process 4 of 12 is on nid03618 - thread support 0
Process 2 of 12 is on nid03618 - thread support 0
Process 5 of 12 is on nid03618 - thread support 0
Process 3 of 12 is on nid03618 - thread support 0
Process 6 of 12 is on nid03618 - thread support 0
Process 11 of 12 is on nid03618 - thread support 0
initial socket setup ...start 0 nproc 12 
initial socket setup ...done 0 nproc 12 
now start server 0 ... 
                  Welcome to Q-Chem
     A Quantum Leap Into The Future Of Chemistry

 Y. Shao, L. Fusti-Molnar, Y. Jung, J. Kussmann, C. Ochsenfeld, S. T. Brown, 
 A. T. B. Gilbert, L. V. Slipchenko, S. V. Levchenko, D. P. O'Neill, 
 R. A. DiStasio Jr., R. C. Lochan, T. Wang, G. J. O. Beran, N. A. Besley, 
 J. M. Herbert, C. Y. Lin, T. Van Voorhis, S. H. Chien, A. Sodt, R. P. Steele, 
 V. A. Rassolov, P. E. Maslen, P. P. Korambath, R. D. Adamson, B. Austin, 
 J. Baker, E. F. C. Byrd, H. Dachsel, R. J. Doerksen, A. Dreuw, B. D. Dunietz, 
 A. D. Dutoi, T. R. Furlani, S. R. Gwaltney, A. Heyden, S. Hirata, C.-P. Hsu, 
 G. Kedziora, R. Z. Khaliullin, P. Klunzinger, A. M. Lee, M. S. Lee, W. Liang, 
 I. Lotan, N. Nair, B. Peters, E. I. Proynov, P. A. Pieniazek, Y. M. Rhee, 
 J. Ritchie, E. Rosta, C. D. Sherrill, A. C. Simmonett, J. E. Subotnik, 
 H. L. Woodcock III, W. Zhang, A. T. Bell, A. K. Chakraborty, D. M. Chipman, 
 F. J. Keil, A. Warshel, W. J. Hehre, H. F. Schaefer III, J. Kong, 
 A. I. Krylov, P. M. W. Gill, M. Head-Gordon

 Additional authors for Version 3.1: 
 Z. Gan, Y. Zhao, N. E. SchultzD. Truhlar, E. Epifanovsky, M. Oana

 Additional authors for Version 3.2: 
 R. Baer, B. R. Brooks, D. Casanova, J.-D. Chai, C.-L. Cheng, C. Cramer, 
 D. Crittenden, A. Ghysels, G. Hawkins, E. G. Hohenstein, C. Kelley, 
 W. Kurlancheek, D. Liotard, E. Livshits, P. Manohar, A. Marenich, 
 D. Neuhauser, R. Olson, M. A. Rohrdanz, K. S. Thanthiriwatte, A. J. W. Thom, 
 V. Vanovschi, C. F. Williams, Q. Wu, Z.-Q. You

 Additional authors for Version 4.0: 
 A. Aspuru-Guzik, Y. Bernard, C. Chang, J. Deng, A. Dreuw, M. Diedenhofen, 
 R. G. Edgar, D. Ghosh, W. A. Goddard III, M. Goldey, L. D. Jacobson, 
 M. Gordon, B. Kaduk, I. Kaliman, K. Khistyaev, R. King, A. Klamt, 
 D. Kosenkov, T. Kus, D. Lambrecht, A. Landau, A. W. Lange, K. Lawler, F. Liu, 
 J. Liu, R. Olivares-Amaya, S. P. Mao, J. Parkhill, N. Russ, M. Schmidt, 
 N. Shenvi, D. Small, Y. C. Su, E. Sundstrom, L. Vogt, O. Vydrov, M. Watson, 
 M. Wormit, X. Xu, S. Yeganeh, I. Y. Zhang, D. Zuev

 Additional authors for Version 4.1: 
 X. Feng, M. W. D. Hanson-Heine, P. Horn, H. Ji, A. Laurent, R. Peverati, 
 N. Mardirossian, N. Sergueev, S. Sharada, P. Zimmerman


 Q-Chem, Version 4.1, Q-Chem, Inc., Pittsburgh, PA (2013).

 Intel X86 Linux Version 4.1.1

 Q-chem begins on Fri May  2 19:14:38 2014  

 Host: nid01280

 Scratch files written to /scratch3/scratchdirs/xhqu/qc_scratch/qchem46474.0//
 Nov1913 .. -1
 Parallel job on  12  processors

Processing $rem in /global/project/projectdirs/jcesr/qchem/qc41/config/preferences.
 MEM_TOTAL  4000 
Finally everything over in PARseQInput

--------------------------------------------------------------
User input:
--------------------------------------------------------------
$comment
MgHMDS2 doublet cation PBE-D3/6-31+G* geometry optimization
<SCF Fix Strategy>{
"current_method_id": 4,
"methods": [
"increase_iter",
"diis_gdm",
"gwh",
"rca",
"gdm",
"core+gdm"
]
}</SCF Fix Strategy>
$end


$molecule
1  2
Mg          0.00435500       -0.03818800        0.02269000
N          -1.94402600        0.00926400        0.01019300
N           1.95396700       -0.02672100        0.04081200
Si          2.66101500        1.20197100        1.04792100
Si          2.62552400       -1.21392700       -1.03411500
Si         -2.65937600       -1.17788300        1.05949300
Si         -2.62472600        1.19878500       -1.05854700
C          -4.03216900       -0.47739200        2.16920400
C          -3.35163900       -2.67907000        0.11697000
C          -1.18135100        1.83594800       -2.14352500
C          -3.33828400        2.70205200       -0.13587300
C           4.06072900        0.55267400        2.15651700
C           3.31936600        2.68128500        0.04863900
C           3.44922400       -2.66694100       -0.12542500
C           1.14891300       -1.92324700       -2.03026800
C          -1.24160800       -1.81736500        2.17848400
C           3.87373500       -0.50557400       -2.27934500
C          -3.97164000        0.50106500       -2.20234100
C           1.24852800        1.84760000        2.16622600
H          -4.89917000       -0.14381700        1.56953700
H          -3.67008000        0.39333900        2.74419900
H          -4.39892200       -1.23516900        2.88563300
H          -4.19969100       -2.39557200       -0.53202100
H          -2.57673500       -3.12951600       -0.53027400
H          -3.70926600       -3.46286500        0.81014200
H          -0.32941500        2.22944500       -1.55010000
H          -1.51236200        2.67643400       -2.78047500
H          -0.79258900        1.05351800       -2.82297900
H          -3.67687600        3.48322200       -0.84145400
H          -4.20343500        2.42226800        0.49194100
H          -2.57928500        3.15392600        0.52889100
H           4.41717700        1.33447600        2.85206900
H           4.92925400        0.22496700        1.55585100
H           3.72319500       -0.31241200        2.75444600
H           4.16306900        2.38612600       -0.60071500
H           2.53020100        3.09798400       -0.60371100
H           3.67454700        3.49420300        0.70878600
H           2.74531600       -3.14521200        0.57996600
H           4.32573700       -2.33336900        0.45913900
H           3.79658000       -3.43927200       -0.83634100
H           0.33011400       -2.32462500       -1.39616900
H           1.47824500       -2.77468600       -2.65384600
H           0.71090100       -1.17735600       -2.72121800
H          -0.86916800       -1.03208800        2.86341000
H          -1.58901800       -2.65575800        2.80928100
H          -0.37456500       -2.21665100        1.61011600
H           3.44425600        0.34771900       -2.83439000
H           4.78890100       -0.14862000       -1.77262600
H           4.17984400       -1.27234600       -3.01441300
H          -4.85829300        0.17643800       -1.62701700
H          -3.59978700       -0.37461300       -2.76358400
H          -4.31125400        1.25839500       -2.93251100
H           0.88640300        1.06648500        2.86133100
H           0.37686200        2.22706800        1.59258300
H           1.59050600        2.69693700        2.78509500
$end


$rem
jobtype = opt
exchange = pbe
basis = 6-31+g*
correlation = pbe
dft_d = empirical_grimme3
dft_d3_3body = False
dft_d3_rs6 = 1217
dft_d3_s6 = 1000
dft_d3_s8 = 722
geom_opt_max_cycles = 200
geom_opt_tol_displacement = 12000
geom_opt_tol_energy = 1000
geom_opt_tol_gradient = 300
max_scf_cycles = 300
mem_static = 200
mem_total = 5000
scf_algorithm = gdm
scf_guess = sad
thresh = 12
$end

--------------------------------------------------------------
 ----------------------------------------------------
       Standard Nuclear Orientation (Angstroms)
    I     Atom         X            Y            Z
 ----------------------------------------------------
    1      Mg      0.004355    -0.038188     0.022690
    2      N      -1.944026     0.009264     0.010193
    3      N       1.953967    -0.026721     0.040812
    4      Si      2.661015     1.201972     1.047920
    5      Si      2.625524    -1.213928    -1.034114
    6      Si     -2.659376    -1.177882     1.059494
    7      Si     -2.624726     1.198784    -1.058548
    8      C      -4.032169    -0.477391     2.169204
    9      C      -3.351639    -2.679070     0.116971
   10      C      -1.181351     1.835947    -2.143526
   11      C      -3.338284     2.702052    -0.135875
   12      C       4.060729     0.552675     2.156517
   13      C       3.319366     2.681285     0.048638
   14      C       3.449224    -2.666941    -0.125423
   15      C       1.148913    -1.923248    -2.030267
   16      C      -1.241608    -1.817364     2.178485
   17      C       3.873735    -0.505575    -2.279345
   18      C      -3.971640     0.501064    -2.202341
   19      C       1.248528     1.847601     2.166225
   20      H      -4.899170    -0.143816     1.569537
   21      H      -3.670080     0.393341     2.744199
   22      H      -4.398922    -1.235167     2.885634
   23      H      -4.199691    -2.395572    -0.532020
   24      H      -2.576735    -3.129516    -0.530272
   25      H      -3.709266    -3.462865     0.810144
   26      H      -0.329415     2.229444    -1.550101
   27      H      -1.512362     2.676433    -2.780476
   28      H      -0.792589     1.053516    -2.822980
   29      H      -3.676876     3.483222    -0.841456
   30      H      -4.203435     2.422268     0.491940
   31      H      -2.579285     3.153926     0.528889
   32      H       4.417177     1.334477     2.852068
   33      H       4.929254     0.224968     1.555851
   34      H       3.723195    -0.312411     2.754446
   35      H       4.163069     2.386126    -0.600716
   36      H       2.530201     3.097984    -0.603713
   37      H       3.674547     3.494203     0.708784
   38      H       2.745316    -3.145212     0.579968
   39      H       4.325737    -2.333369     0.459140
   40      H       3.796580    -3.439273    -0.836339
   41      H       0.330114    -2.324626    -1.396168
   42      H       1.478245    -2.774687    -2.653844
   43      H       0.710901    -1.177357    -2.721217
   44      H      -0.869168    -1.032086     2.863411
   45      H      -1.589018    -2.655756     2.809282
   46      H      -0.374565    -2.216650     1.610117
   47      H       3.444256     0.347717    -2.834390
   48      H       4.788901    -0.148621    -1.772626
   49      H       4.179844    -1.272348    -3.014412
   50      H      -4.858293     0.176437    -1.627017
   51      H      -3.599787    -0.374614    -2.763584
   52      H      -4.311254     1.258393    -2.932512
   53      H       0.886403     1.066487     2.861330
   54      H       0.376862     2.227069     1.592582
   55      H       1.590506     2.696938     2.785094
 ----------------------------------------------------
 Molecular Point Group                 C1    NOp =  1
 Largest Abelian Subgroup              C1    NOp =  1
 Nuclear Repulsion Energy =  2322.1723393247 hartrees
 There are       95 alpha and       94 beta electrons
 Requested basis set is 6-31+G(d)
 There are 172 shells and 453 basis functions

Total QAlloc Memory Limit   5000 MB
Mega-Array Size       196 MB
MEM_STATIC part       200 MB
 A cutoff of  1.0D-12 yielded  11008 shell pairs
 There are     83172 function pairs
 Smallest overlap matrix eigenvalue = 1.55E-05

  Scale SEOQF with 1.000000e-01/1.000000e-01/1.000000e-01

 Standard Electronic Orientation quadrupole field applied
 Nucleus-field energy     =     0.0000000439 hartrees
 Guess from superposition of atomic densities
 Warning:  Energy on first SCF cycle will be non-variational
 An unrestricted Kohn-Sham SCF calculation will be
 performed using Pulay DIIS + Geometric Direct Minimization
 Exchange:  PBE      Correlation:  PBE
 Using SG-1 standard quadrature grid
 SCF converges when RMS gradient is below 1.0E-08
 Requested basis set is 6-31+G(d)
 There are 172 shells and 453 basis functions
 A cutoff of  1.0D-12 yielded  11008 shell pairs
 There are     83172 function pairs
 Inaccurate integrated density:
   Number of electrons =   189
   Numerical integral  =   190.007387220584
   Relative error      =     0.5330091114 %
 ---------------------------------------
  Cycle       Energy        RMS Gradient
 ---------------------------------------
    1   -1946.6360553960      2.99E-02 Done DIIS. Switching to GDM
    2   -1943.8161230018      2.42E-01 Descent step
    3   -1944.4917905284      1.01E-01 Descent step
    4   -1944.8480466055      3.00E-02 Descent step
    5   -1944.9303085207      3.54E-02 Normal BFGS step
    6   -1944.9400187921      5.76E-02 Normal BFGS step
    7   -1944.9429794079      1.01E-01 Normal BFGS step
    8   -1944.9153237238      1.75E+06 Line search: overstep
    9   -1944.9466985689      6.24E-02 Descent step
   10   -1944.9496240091      1.05E-01 Normal BFGS step
   11   -1944.9447917630      1.94E+06 Line search: overstep
   12   -1944.9536079636      9.94E-02 Normal BFGS step
   13   -1944.9552688095      5.29E-02 Normal BFGS step
   14   -1944.9562421796      3.00E-02 Normal BFGS step
   15   -1944.9562148297      1.47E+06 Line search: overstep
   16   -1944.9567931779      1.31E-02 Normal BFGS step
   17   -1944.9568616417      3.12E-03 Normal BFGS step
   18   -1944.9568908673      2.22E-03 Normal BFGS step
   19   -1944.9568989183      1.16E-03 Normal BFGS step
   20   -1944.9569002699      5.30E-04 Normal BFGS step
   21   -1944.9569010105      2.47E-04 Normal BFGS step
   22   -1944.9569010719      8.17E-05 Normal BFGS step
   23   -1944.9569011069      8.44E-05 Normal BFGS step
   24   -1944.9569011125      3.71E-05 Normal BFGS step
   25   -1944.9569011016      1.50E+03 Line search: overstep
   26   -1944.9569011158      2.54E-05 Normal BFGS step
   27   -1944.9569011106      1.42E+03 Line search: overstep
   28   -1944.9569011168      2.08E-05 Normal BFGS step
   29   -1944.9569011109      8.30E+02 Line search: overstep
   30   -1944.9569011178      1.64E-05 Normal BFGS step
   31   -1944.9569011101      7.82E+01 Line search: overstep
   GDM::WARNING energy changes are now smaller than effective accuracy.
   GDM::        calculation will continue, but THRESH should be increased
   GDM::        or SCF_CONVERGENCE decreased.
   GDM::        effective_thresh =   4.739485019722434E-009
   32   -1944.9569011172      1.50E-05 Normal BFGS step
   33   -1944.9569011113      5.37E+02 Line search: overstep
   GDM::WARNING energy changes are now smaller than effective accuracy.
   GDM::        calculation will continue, but THRESH should be increased
   GDM::        or SCF_CONVERGENCE decreased.
   GDM::        effective_thresh =   4.739485019722434E-009
   34   -1944.9569011157      1.31E-05 Normal BFGS step
   35   -1944.9569011092      9.80E+02 Line search: overstep
   36   -1944.9569011172      1.18E-05 Normal BFGS step
   37   -1944.9569011118      1.18E+03 Line search: overstep
   GDM::WARNING energy changes are now smaller than effective accuracy.
   GDM::        calculation will continue, but THRESH should be increased
   GDM::        or SCF_CONVERGENCE decreased.
   GDM::        effective_thresh =   4.739485019722434E-009
   38   -1944.9569011166      1.05E-05 Normal BFGS step
   39   -1944.9569011096      1.15E+03 Line search: overstep
   GDM::WARNING energy changes are now smaller than effective accuracy.
   GDM::        calculation will continue, but THRESH should be increased
   GDM::        or SCF_CONVERGENCE decreased.
   GDM::        effective_thresh =   4.739485019722434E-009
   40   -1944.9569011163      9.28E-06 Normal BFGS step
   41   -1944.9569011090      3.92E+02 Line search: overstep
   GDM::WARNING energy changes are now smaller than effective accuracy.
   GDM::        calculation will continue, but THRESH should be increased
   GDM::        or SCF_CONVERGENCE decreased.
   GDM::        effective_thresh =   4.739485019722434E-009
   42   -1944.9569011162      8.21E-06 Normal BFGS step
   43   -1944.9569011102      2.37E+02 Line search: overstep
   GDM::WARNING energy changes are now smaller than effective accuracy.
   GDM::        calculation will continue, but THRESH should be increased
   GDM::        or SCF_CONVERGENCE decreased.
   GDM::        effective_thresh =   4.739485019722434E-009
   44   -1944.9569011162      7.22E-06 Normal BFGS step
   GDM::WARNING energy changes are now smaller than effective accuracy.
   GDM::        calculation will continue, but THRESH should be increased
   GDM::        or SCF_CONVERGENCE decreased.
   GDM::        effective_thresh =   4.739485019722434E-009
   45   -1944.9569011116      5.00E-06 Normal BFGS step
   46   -1944.9569011145      8.38E-06 Normal BFGS step
   47   -1944.9569011153      3.23E-06 Normal BFGS step
   GDM::WARNING energy changes are now smaller than effective accuracy.
   GDM::        calculation will continue, but THRESH should be increased
   GDM::        or SCF_CONVERGENCE decreased.
   GDM::        effective_thresh =   4.739485019722434E-009
   48   -1944.9569011121      5.49E-06 Normal BFGS step
   49   -1944.9569011151      3.65E-07 Normal BFGS step
   GDM::WARNING energy changes are now smaller than effective accuracy.
   GDM::        calculation will continue, but THRESH should be increased
   GDM::        or SCF_CONVERGENCE decreased.
   GDM::        effective_thresh =   4.739485019722434E-009
   50   -1944.9569011132      7.10E-07 Normal BFGS step
   51   -1944.9569011153      1.63E-07 Normal BFGS step
   GDM::WARNING energy changes are now smaller than effective accuracy.
   GDM::        calculation will continue, but THRESH should be increased
   GDM::        or SCF_CONVERGENCE decreased.
   GDM::        effective_thresh =   4.739485019722434E-009
   52   -1944.9569011139      2.22E-07 Normal BFGS step
   53   -1944.9569011213      2.86E-08 Normal BFGS step
   54   -1944.9569011295      5.52E-08 Normal BFGS step
   55   -1944.9569011369      1.47E-08 Normal BFGS step
   56   -1944.9569011379      1.17E-08 Normal BFGS step
   57   -1944.9569011480      7.77E-09 Convergence criterion met
 ---------------------------------------
 <S^2> = 0.7522
 SCF time:  CPU 362.01 s  wall 402.58 s
 SCF   energy in the final basis set = -1944.9569011480
 Total energy in the final basis set = -1944.9569011480
 Analysis of SCF Wavefunction
 
 --------------------------------------------------------------
                    Orbital Energies (a.u.)
 --------------------------------------------------------------
 
 Alpha MOs
 -- Occupied --
-65.550 -65.549 -65.549 -65.548 -46.386 -14.111 -14.111 -10.009
-10.008 -10.006 -10.005  -9.996  -9.996  -9.996  -9.995  -9.993
 -9.992  -9.992  -9.991  -5.175  -5.175  -5.174  -5.173  -3.587
 -3.587  -3.586  -3.586  -3.586  -3.586  -3.585  -3.585  -3.585
 -3.585  -3.585  -3.584  -3.085  -1.880  -1.879  -1.872  -0.859
 -0.856  -0.762  -0.761  -0.750  -0.749  -0.731  -0.730  -0.729
 -0.728  -0.721  -0.721  -0.719  -0.719  -0.571  -0.571  -0.515
 -0.507  -0.495  -0.492  -0.489  -0.486  -0.484  -0.483  -0.483
 -0.480  -0.477  -0.471  -0.469  -0.469  -0.468  -0.465  -0.463
 -0.461  -0.456  -0.455  -0.451  -0.450  -0.450  -0.448  -0.447
 -0.446  -0.429  -0.423  -0.420  -0.420  -0.408  -0.407  -0.378
 -0.378  -0.377  -0.377  -0.367  -0.358  -0.343  -0.343
 -- Virtual --
 -0.174  -0.135  -0.124  -0.120  -0.115  -0.094  -0.093  -0.093
 -0.091  -0.087  -0.086  -0.086  -0.084  -0.073  -0.069  -0.068
 -0.062  -0.059  -0.057  -0.057  -0.055  -0.053  -0.050  -0.047
 -0.046  -0.045  -0.042  -0.037  -0.036  -0.034  -0.033  -0.032
 -0.029  -0.028  -0.025  -0.024  -0.022  -0.019  -0.017  -0.016
 -0.013  -0.013  -0.009  -0.009  -0.008  -0.008  -0.006   0.001
  0.001   0.002   0.003   0.005   0.006   0.008   0.010   0.011
  0.016   0.017   0.018   0.023   0.026   0.029   0.033   0.035
  0.036   0.042   0.047   0.054   0.055   0.058   0.059   0.064
  0.066   0.067   0.068   0.071   0.071   0.075   0.076   0.080
  0.080   0.081   0.083   0.083   0.092   0.094   0.094   0.096
  0.099   0.104   0.109   0.110   0.111   0.112   0.117   0.118
  0.119   0.127   0.131   0.134   0.136   0.137   0.141   0.143
  0.152   0.159   0.161   0.168   0.169   0.169   0.172   0.174
  0.177   0.187   0.193   0.200   0.208   0.209   0.217   0.219
  0.221   0.223   0.230   0.235   0.238   0.239   0.253   0.260
  0.261   0.262   0.263   0.272   0.274   0.280   0.293   0.295
  0.304   0.308   0.310   0.311   0.330   0.332   0.333   0.345
  0.356   0.362   0.368   0.375   0.387   0.396   0.412   0.414
  0.436   0.445   0.474   0.480   0.483   0.494   0.515   0.527
  0.531   0.558   0.560   0.587   0.593   0.600   0.602   0.605
  0.619   0.619   0.630   0.630   0.633   0.652   0.654   0.659
  0.664   0.665   0.668   0.671   0.671   0.674   0.677   0.678
  0.684   0.695   0.699   0.701   0.705   0.718   0.722   0.723
  0.734   0.736   0.740   0.742   0.751   0.755   0.756   0.760
  0.761   0.763   0.765   0.772   0.774   0.797   0.801   0.802
  0.818   0.820   0.826   0.835   0.839   0.840   0.841   0.843
  0.852   0.855   0.858   0.868   0.870   0.871   0.878   0.882
  0.889   0.894   0.901   0.920   0.929   0.939   0.941   0.944
  0.950   0.952   0.962   0.982   0.993   1.013   1.014   1.029
  1.039   1.039   1.046   1.049   1.052   1.055   1.057   1.071
  1.086   1.089   1.117   1.120   1.146   1.168   1.170   1.183
  1.196   1.209   1.245   1.245   1.256   1.280   1.292   1.328
  1.369   1.414   1.463   1.465   1.481   1.483   1.485   1.489
  1.491   1.501   1.501   1.504   1.539   1.540   1.548   1.548
  1.574   1.582   1.603   1.609   1.649   1.651   1.655   1.662
  1.665   1.672   1.676   1.689   1.698   1.711   1.727   1.743
  1.765   1.771   1.869   1.901   1.904   1.914   1.915   2.072
  2.074   2.077   2.080   2.082   2.085   2.090   2.091   2.092
  2.094   2.097   2.098   2.105   2.106   2.106   2.107   2.108
  2.109   2.110   2.111   2.119   2.120   2.120   2.125   2.128
  2.129   2.134   2.135   2.137   2.141   2.142   2.148   2.207
  2.212   2.260   2.313   2.435   2.941   2.942   2.943   2.947
  3.982   4.061   4.068   4.087   4.090   4.090   4.096   4.098
  4.107   4.124   4.126   4.132   4.144   4.175
 
 Beta MOs
 -- Occupied --
-65.550 -65.549 -65.549 -65.548 -46.386 -14.106 -14.106 -10.009
-10.008 -10.006 -10.005  -9.995  -9.995  -9.995  -9.995  -9.992
 -9.992  -9.991  -9.991  -5.175  -5.175  -5.174  -5.174  -3.587
 -3.587  -3.587  -3.586  -3.586  -3.586  -3.585  -3.585  -3.585
 -3.585  -3.585  -3.584  -3.085  -1.880  -1.879  -1.872  -0.849
 -0.846  -0.761  -0.761  -0.748  -0.747  -0.730  -0.729  -0.727
 -0.727  -0.720  -0.720  -0.717  -0.717  -0.569  -0.569  -0.513
 -0.505  -0.494  -0.491  -0.489  -0.485  -0.483  -0.482  -0.482
 -0.480  -0.476  -0.470  -0.469  -0.468  -0.467  -0.465  -0.462
 -0.459  -0.455  -0.455  -0.450  -0.450  -0.449  -0.448  -0.446
 -0.446  -0.427  -0.421  -0.417  -0.417  -0.399  -0.398  -0.377
 -0.377  -0.373  -0.373  -0.364  -0.354  -0.328
 -- Virtual --
 -0.328  -0.172  -0.134  -0.123  -0.120  -0.114  -0.093  -0.093
 -0.092  -0.091  -0.086  -0.086  -0.085  -0.084  -0.072  -0.069
 -0.067  -0.061  -0.058  -0.057  -0.057  -0.055  -0.053  -0.049
 -0.046  -0.046  -0.045  -0.041  -0.036  -0.035  -0.034  -0.033
 -0.032  -0.028  -0.027  -0.024  -0.024  -0.022  -0.018  -0.017
 -0.015  -0.012  -0.012  -0.009  -0.008  -0.008  -0.007  -0.005
  0.001   0.002   0.003   0.004   0.006   0.007   0.008   0.011
  0.012   0.017   0.017   0.019   0.024   0.028   0.030   0.034
  0.035   0.036   0.042   0.047   0.054   0.056   0.058   0.059
  0.065   0.068   0.068   0.069   0.072   0.072   0.075   0.077
  0.081   0.081   0.082   0.084   0.084   0.092   0.094   0.095
  0.097   0.100   0.105   0.109   0.111   0.112   0.113   0.118
  0.119   0.120   0.127   0.131   0.134   0.137   0.138   0.141
  0.144   0.153   0.160   0.162   0.169   0.169   0.170   0.172
  0.175   0.178   0.188   0.196   0.201   0.209   0.210   0.219
  0.220   0.222   0.224   0.231   0.235   0.239   0.240   0.254
  0.260   0.262   0.263   0.264   0.273   0.275   0.281   0.294
  0.296   0.304   0.309   0.311   0.312   0.331   0.332   0.334
  0.346   0.356   0.363   0.369   0.376   0.390   0.398   0.413
  0.416   0.438   0.446   0.475   0.481   0.484   0.495   0.516
  0.528   0.532   0.559   0.561   0.589   0.593   0.601   0.603
  0.606   0.620   0.621   0.631   0.631   0.633   0.653   0.656
  0.660   0.665   0.666   0.669   0.672   0.672   0.674   0.678
  0.679   0.684   0.696   0.700   0.702   0.705   0.719   0.723
  0.724   0.735   0.738   0.741   0.743   0.752   0.756   0.757
  0.762   0.763   0.764   0.766   0.773   0.775   0.798   0.802
  0.803   0.819   0.822   0.827   0.837   0.839   0.842   0.843
  0.843   0.853   0.856   0.860   0.868   0.870   0.872   0.879
  0.883   0.889   0.895   0.902   0.921   0.930   0.940   0.942
  0.944   0.950   0.954   0.962   0.985   0.994   1.017   1.023
  1.031   1.041   1.042   1.047   1.051   1.053   1.056   1.058
  1.071   1.088   1.091   1.118   1.123   1.148   1.170   1.174
  1.184   1.197   1.210   1.246   1.246   1.258   1.282   1.297
  1.332   1.371   1.417   1.465   1.467   1.485   1.487   1.487
  1.491   1.496   1.503   1.504   1.508   1.540   1.542   1.550
  1.552   1.575   1.585   1.605   1.611   1.651   1.653   1.657
  1.664   1.667   1.674   1.678   1.692   1.703   1.715   1.741
  1.755   1.779   1.785   1.876   1.903   1.906   1.917   1.920
  2.074   2.075   2.078   2.082   2.083   2.086   2.092   2.093
  2.094   2.096   2.099   2.100   2.107   2.107   2.108   2.109
  2.110   2.111   2.112   2.112   2.120   2.120   2.121   2.126
  2.129   2.131   2.135   2.137   2.139   2.142   2.143   2.150
  2.211   2.215   2.263   2.324   2.450   2.942   2.943   2.944
  2.948   3.994   4.065   4.070   4.088   4.091   4.092   4.098
  4.098   4.111   4.126   4.129   4.135   4.145   4.176
 --------------------------------------------------------------
 
          Ground-State Mulliken Net Atomic Charges

     Atom                 Charge (a.u.)    Spin (a.u.)
  --------------------------------------------------------
      1 Mg                   -1.287882      -0.025509
      2 N                    -0.437047       0.335552
      3 N                    -0.443180       0.332099
      4 Si                    1.294549      -0.012591
      5 Si                    1.343387      -0.014103
      6 Si                    1.278596      -0.014102
      7 Si                    1.323955      -0.013584
      8 C                    -0.941612       0.036001
      9 C                    -0.901205       0.059865
     10 C                    -0.997259       0.006611
     11 C                    -0.905179       0.060766
     12 C                    -0.947606       0.035991
     13 C                    -0.894729       0.060831
     14 C                    -0.914355       0.056723
     15 C                    -0.998115       0.005681
     16 C                    -0.985667       0.006997
     17 C                    -0.934595       0.040026
     18 C                    -0.941244       0.037273
     19 C                    -0.994576       0.006234
     20 H                     0.254889      -0.001386
     21 H                     0.256719       0.000023
     22 H                     0.266521       0.001771
     23 H                     0.259768      -0.001228
     24 H                     0.247988      -0.001087
     25 H                     0.266988       0.002638
     26 H                     0.228189      -0.000270
     27 H                     0.282732      -0.000623
     28 H                     0.255383      -0.000001
     29 H                     0.266796       0.002624
     30 H                     0.259224      -0.001266
     31 H                     0.249092      -0.001058
     32 H                     0.265998       0.001733
     33 H                     0.253962      -0.001381
     34 H                     0.256349       0.000050
     35 H                     0.258782      -0.001266
     36 H                     0.247476      -0.001086
     37 H                     0.267443       0.002698
     38 H                     0.250362      -0.000920
     39 H                     0.258915      -0.001241
     40 H                     0.265954       0.002380
     41 H                     0.230157      -0.000208
     42 H                     0.285189      -0.000595
     43 H                     0.257681      -0.000043
     44 H                     0.259136      -0.000048
     45 H                     0.283673      -0.000617
     46 H                     0.227621      -0.000267
     47 H                     0.256011      -0.000150
     48 H                     0.255726      -0.001473
     49 H                     0.266372       0.001990
     50 H                     0.254754      -0.001425
     51 H                     0.256007       0.000011
     52 H                     0.266405       0.001823
     53 H                     0.256242      -0.000019
     54 H                     0.227242      -0.000248
     55 H                     0.282023      -0.000595
  --------------------------------------------------------
  Sum of atomic charges =     1.000000
  Sum of spin   charges =     1.000000

 -----------------------------------------------------------------
                    Cartesian Multipole Moments
 -----------------------------------------------------------------
    Charge (ESU x 10^10)
                 4.8032
    Dipole Moment (Debye)
         X      -0.0089      Y      -0.1272      Z      -0.0415
       Tot       0.1341
    Quadrupole Moments (Debye-Ang)
        XX    -111.8239     XY       0.0767     YY    -135.0111
        XZ      -0.2977     YZ       0.0033     ZZ    -138.7352
    Octapole Moments (Debye-Ang^2)
       XXX       0.1355    XXY       0.2559    XYY       0.5582
       YYY      -0.5014    XXZ       0.2882    XYZ      38.9619
       YYZ      -0.1688    XZZ      -0.7622    YZZ      -0.8546
       ZZZ      -0.0421
    Hexadecapole Moments (Debye-Ang^3)
      XXXX   -6967.3341   XXXY       5.4906   XXYY   -1551.6652
      XYYY       0.6089   YYYY   -2586.9240   XXXZ      -4.6592
      XXYZ      -0.3140   XYYZ      -0.0673   YYYZ       0.9134
      XXZZ   -1539.2574   XYZZ      -1.0637   YYZZ    -765.5830
      XZZZ      -1.0382   YZZZ      -0.4893   ZZZZ   -2268.4885
 -----------------------------------------------------------------
 Calculating analytic gradient of the SCF energy
 Gradient of AOints
            1           2           3           4           5           6
    1  -0.2596564   3.8529599  -3.8015473 -15.6116657 -15.3090958  15.8918348
    2  -0.2276341  -0.0478982   0.4901915 -11.6798610  11.8883489  11.3339321
    3  -0.0905774  -0.2429819  -0.8530450 -12.5312187  11.9316435 -12.6332006
            7           8           9          10          11          12
    1  15.1130507   8.5952981   6.5697575   0.3181849   6.5077648  -8.5867601
    2 -11.5192123   1.5455680   8.2080424  -6.2759288  -8.3447289  -1.7048593
    3  12.5825860  -7.3309309   0.3929039   6.8906528  -0.3982940  -7.2102974
           13          14          15          16          17          18
    1  -6.4480140  -6.8999931  -0.4439209   0.4710527  -8.1811304   8.4894485
    2  -8.1951581   8.4158061   6.4798964   6.2265706   1.5243865  -1.6477335
    3   0.6535729  -0.3980606   6.6332603  -6.7654499   7.6961641   7.4695337
           19          20          21          22          23          24
    1  -0.4076666   6.0233296  -0.8740409   3.1259844   5.6491495  -3.5201528
    2  -6.4497553  -1.9269227  -5.1267808   3.9067913  -0.3041893   3.9080979
    3  -6.7575035   2.3141516  -4.2281015  -4.8004809   3.9624678   4.0542735
           25          26          27          28          29          30
    1   2.7481277  -4.8525686   1.7528488  -2.2638100   2.6451412   5.7393602
    2   5.4983135  -3.4918069  -5.6831754   3.7580919  -5.4813236   0.2709530
    3  -3.3859220  -1.8653031   4.6863600   5.3110466   3.4627543  -3.8253040
           31          32          33          34          35          36
    1  -3.4445692  -3.0694332  -6.0305540   0.7210111  -5.6106387   3.6249787
    2  -3.9149340  -4.0679329   1.8421482   5.0448275   0.3748329  -3.7228060
    3  -4.1401926  -4.6649392   2.3282701  -4.3351986   3.9998373   4.1255384
           37          38          39          40          41          42
    1  -2.7155392   3.0767947  -5.8439081  -2.7578543   4.6391647  -1.7411421
    2  -5.6579899   4.0034306  -0.6033290   5.3731172   3.6115714   5.8325106
    3  -3.1703828  -4.3760092  -3.5749303   3.4962921  -2.1263293   4.5674121
           43          44          45          46          47          48
    1   2.5629978  -2.1397978   1.8729807  -4.8563449   1.3152491  -6.2181602
    2  -3.4546788  -3.8265783   5.6630469   3.5343316  -5.0378910  -2.0509662
    3   5.3537650  -5.3554385  -4.6629671   1.6187034   4.2285424  -1.7449354
           49          50          51          52          53          54
    1  -2.7252082   6.1113078  -0.9409547   2.9598659   2.0848762   4.9358747
    2   3.9633034   1.8701935   5.1504160  -3.9145133   3.7733339  -3.4217015
    3   5.0103000  -2.1564359   4.1841311   4.9080762  -5.3809400   1.7233192
           55
    1  -1.8442673
    2  -5.7117647
    3  -4.5801879
 Gradient of SCF Energy
            1           2           3           4           5           6
    1  -0.0001368   0.0010568  -0.0010860  -0.0074835  -0.0066241   0.0078070
    2   0.0005052  -0.0000362  -0.0008287  -0.0137901   0.0147674   0.0138626
    3  -0.0002277   0.0001519   0.0005614  -0.0173119   0.0166935  -0.0175777
            7           8           9          10          11          12
    1   0.0069278   0.0005471  -0.0001935  -0.0013542   0.0001371  -0.0007604
    2  -0.0137741  -0.0043674   0.0005382   0.0034591  -0.0007021   0.0042884
    3   0.0175499   0.0027263   0.0070191  -0.0033224  -0.0070365   0.0025267
           13          14          15          16          17          18
    1   0.0001456  -0.0004148   0.0012908  -0.0014242  -0.0009087   0.0008492
    2  -0.0003465   0.0002232  -0.0037922  -0.0035724  -0.0048533   0.0043671
    3   0.0071508  -0.0065465  -0.0034204   0.0034086  -0.0022221  -0.0026593
           19          20          21          22          23          24
    1   0.0012934  -0.0000925   0.0000041  -0.0018253  -0.0003668   0.0001965
    2   0.0035336   0.0003252   0.0003956   0.0007841  -0.0004109   0.0000815
    3   0.0032386  -0.0003540  -0.0001189   0.0014214  -0.0006202  -0.0003364
           25          26          27          28          29          30
    1  -0.0013704  -0.0006059   0.0000982   0.0003136  -0.0013848  -0.0003905
    2  -0.0026875  -0.0012365   0.0006525  -0.0002500   0.0026996   0.0004119
    3  -0.0016903  -0.0001020  -0.0008243   0.0007163   0.0016352   0.0006094
           31          32          33          34          35          36
    1   0.0001708   0.0018728   0.0001035   0.0000227   0.0003698  -0.0001618
    2  -0.0000192  -0.0007087  -0.0003198  -0.0003937   0.0003584  -0.0001068
    3   0.0003496   0.0014285  -0.0003317  -0.0000544  -0.0006256  -0.0003144
           37          38          39          40          41          42
    1   0.0013239  -0.0001625   0.0003896   0.0015059   0.0005508  -0.0000110
    2   0.0026511   0.0000306  -0.0003148  -0.0024733   0.0013371  -0.0006307
    3  -0.0018425   0.0003950   0.0005849   0.0014766  -0.0001972  -0.0007587
           43          44          45          46          47          48
    1  -0.0002272   0.0002936   0.0000520  -0.0006417  -0.0000478   0.0002154
    2   0.0002197   0.0002733  -0.0006454   0.0012393   0.0003667   0.0003268
    3   0.0008288  -0.0007545   0.0008173   0.0001340   0.0001035   0.0002519
           49          50          51          52          53          54
    1   0.0018018  -0.0001305  -0.0000030  -0.0018386  -0.0002977   0.0006556
    2   0.0008791  -0.0003072  -0.0003839  -0.0008005  -0.0002698  -0.0012075
    3  -0.0016975   0.0003496   0.0001169  -0.0015215  -0.0006829   0.0000905
           55
    1  -0.0000514
    2   0.0006521
    3   0.0008154
 Max gradient component =       1.758E-02
 RMS gradient           =       4.042E-03
 Gradient time:  CPU 7.39 s  wall 7.93 s
 Geometry Optimization Parameters
   NAtoms,    NIC,     NZ,  NCons,   NDum,   NFix, NCnnct, MaxDiis
       55     565       0       0       0       0       0       0


** GEOMETRY OPTIMIZATION IN DELOCALIZED INTERNAL COORDINATES **
   Searching for a Minimum

   Optimization Cycle:   1

                       Coordinates (Angstroms)
     ATOM              X           Y           Z
      1  Mg        0.004355   -0.038188    0.022690
      2  N        -1.944026    0.009264    0.010193
      3  N         1.953967   -0.026721    0.040812
      4  Si        2.661015    1.201972    1.047920
      5  Si        2.625524   -1.213928   -1.034114
      6  Si       -2.659376   -1.177882    1.059494
      7  Si       -2.624726    1.198784   -1.058548
      8  C        -4.032169   -0.477391    2.169204
      9  C        -3.351639   -2.679070    0.116971
     10  C        -1.181351    1.835947   -2.143526
     11  C        -3.338284    2.702052   -0.135875
     12  C         4.060729    0.552675    2.156517
     13  C         3.319366    2.681285    0.048638
     14  C         3.449224   -2.666941   -0.125423
     15  C         1.148913   -1.923248   -2.030267
     16  C        -1.241608   -1.817364    2.178485
     17  C         3.873735   -0.505575   -2.279345
     18  C        -3.971640    0.501064   -2.202341
     19  C         1.248528    1.847601    2.166225
     20  H        -4.899170   -0.143816    1.569537
     21  H        -3.670080    0.393341    2.744199
     22  H        -4.398922   -1.235167    2.885634
     23  H        -4.199691   -2.395572   -0.532020
     24  H        -2.576735   -3.129516   -0.530272
     25  H        -3.709266   -3.462865    0.810144
     26  H        -0.329415    2.229444   -1.550101
     27  H        -1.512362    2.676433   -2.780476
     28  H        -0.792589    1.053516   -2.822980
     29  H        -3.676876    3.483222   -0.841456
     30  H        -4.203435    2.422268    0.491940
     31  H        -2.579285    3.153926    0.528889
     32  H         4.417177    1.334477    2.852068
     33  H         4.929254    0.224968    1.555851
     34  H         3.723195   -0.312411    2.754446
     35  H         4.163069    2.386126   -0.600716
     36  H         2.530201    3.097984   -0.603713
     37  H         3.674547    3.494203    0.708784
     38  H         2.745316   -3.145212    0.579968
     39  H         4.325737   -2.333369    0.459140
     40  H         3.796580   -3.439273   -0.836339
     41  H         0.330114   -2.324626   -1.396168
     42  H         1.478245   -2.774687   -2.653844
     43  H         0.710901   -1.177357   -2.721217
     44  H        -0.869168   -1.032086    2.863411
     45  H        -1.589018   -2.655756    2.809282
     46  H        -0.374565   -2.216650    1.610117
     47  H         3.444256    0.347717   -2.834390
     48  H         4.788901   -0.148621   -1.772626
     49  H         4.179844   -1.272348   -3.014412
     50  H        -4.858293    0.176437   -1.627017
     51  H        -3.599787   -0.374614   -2.763584
     52  H        -4.311254    1.258393   -2.932512
     53  H         0.886403    1.066487    2.861330
     54  H         0.376862    2.227069    1.592582
     55  H         1.590506    2.696938    2.785094
   Point Group: c1    Number of degrees of freedom:   159


   Energy is  -1944.956901148


 Attempting to Generate Delocalized Internal Coordinates
 GETINT wrote B to file, NVib is          159
 calling HSSCONV
 HCONV 3*NATOMS:          165
 wrote HINT to file
  writing hessian 

159 Hessian modes will be used to form the next step
  Hessian Eigenvalues:
     0.002000    0.002000    0.002000    0.002000    0.002000    0.002000
     0.002000    0.002000    0.002000    0.002000    0.002000    0.002000
     0.007789    0.007869    0.008029    0.008359    0.014758    0.015266
     0.018779    0.019870    0.019956    0.020201    0.020342    0.032542
     0.035208    0.040617    0.041291    0.041418    0.041800    0.043689
     0.043743    0.043812    0.044021    0.044041    0.044113    0.044166
     0.044169    0.044237    0.044291    0.044378    0.044389    0.044389
     0.044401    0.044407    0.044409    0.044423    0.044484    0.044525
     0.044557    0.050087    0.050160    0.050574    0.051015    0.059585
     0.068031    0.070425    0.073571    0.073686    0.075620    0.077078
     0.080806    0.096660    0.098255    0.099802    0.100323    0.133386
     0.152473    0.160000    0.160000    0.160000    0.160000    0.160000
     0.160000    0.160000    0.160000    0.160000    0.160000    0.160000
     0.160000    0.160000    0.160000    0.160000    0.160000    0.160000
     0.160000    0.160000    0.160000    0.160000    0.160000    0.160000
     0.160000    0.160000    0.160000    0.160000    0.160000    0.160000
     0.160000    0.160000    0.160000    0.160000    0.160000    0.160000
     0.160000    0.161253    0.162461    0.162563    0.177461    0.186950
     0.187569    0.188187    0.188709    0.194363    0.194472    0.194480
     0.195160    0.195872    0.195873    0.195960    0.196033    0.196394
     0.212001    0.224521    0.282415    0.324985    0.325278    0.325636
     0.325672    0.329114    0.329420    0.329660    0.329684    0.330493
     0.330524    0.330526    0.330600    0.330605    0.330614    0.330618
     0.330727    0.330749    0.330787    0.330845    0.330858    0.330873
     0.330885    0.330891    0.330970    0.331017    0.331026    0.331119
     0.331207    0.331237    0.331405    0.331485    0.331542    0.331553
     0.331815    0.331903    0.331942

 Minimum Search - Taking Simple RFO Step
 Searching for Lamda that Minimizes Along All modes
 Value Taken    Lamda =  -0.00536914
 Step Taken.  Stepsize is  0.269491

                             Maximum     Tolerance    Cnvgd?
         Gradient           0.010912      0.000300      NO
         Displacement       0.153854      0.012000      NO
         Energy change     *********      0.000010      NO


 New Cartesian Coordinates Obtained by Inverse Iteration

 Displacement from previous Coordinates is:  0.368213
 ----------------------------------------------------
       Standard Nuclear Orientation (Angstroms)
    I     Atom         X            Y            Z
 ----------------------------------------------------
    1      Mg      0.004471    -0.038567     0.022295
    2      N      -1.957892     0.008906     0.009661
    3      N       1.967775    -0.025862     0.039854
    4      Si      2.673048     1.215942     1.053786
    5      Si      2.636375    -1.228677    -1.039730
    6      Si     -2.671029    -1.192157     1.065735
    7      Si     -2.636296     1.212730    -1.065200
    8      C      -4.041304    -0.482252     2.163235
    9      C      -3.360302    -2.670157     0.087341
   10      C      -1.174230     1.842471    -2.120971
   11      C      -3.347889     2.693384    -0.106750
   12      C       4.070528     0.557511     2.150710
   13      C       3.328952     2.670940     0.019238
   14      C       3.459113    -2.658870    -0.097500
   15      C       1.140448    -1.928243    -2.004612
   16      C      -1.232779    -1.823680     2.154468
   17      C       3.883135    -0.509782    -2.272979
   18      C      -3.981984     0.506277    -2.196410
   19      C       1.240933     1.854111     2.142862
   20      H      -4.911174    -0.153561     1.566061
   21      H      -3.680719     0.385229     2.743314
   22      H      -4.395079    -1.251168     2.871860
   23      H      -4.213293    -2.375419    -0.548604
   24      H      -2.588715    -3.116340    -0.565971
   25      H      -3.709008    -3.448410     0.788021
   26      H      -0.326047     2.233260    -1.517597
   27      H      -1.497383     2.689383    -2.750835
   28      H      -0.784977     1.067176    -2.808682
   29      H      -3.677369     3.468938    -0.819643
   30      H      -4.217555     2.402601     0.508158
   31      H      -2.591970     3.140693     0.563745
   32      H       4.413198     1.350180     2.838343
   33      H       4.941970     0.234845     1.552590
   34      H       3.734307    -0.304197     2.753462
   35      H       4.177807     2.365267    -0.616931
   36      H       2.543016     3.083528    -0.638892
   37      H       3.675389     3.478183     0.687582
   38      H       2.758668    -3.132053     0.613923
   39      H       4.339548    -2.315024     0.473510
   40      H       3.796399    -3.427137    -0.814570
   41      H       0.326633    -2.326561    -1.359442
   42      H       1.460184    -2.786481    -2.621289
   43      H       0.700974    -1.189486    -2.702951
   44      H      -0.859747    -1.045933     2.848059
   45      H      -1.570972    -2.669226     2.778095
   46      H      -0.369529    -2.219343     1.574746
   47      H       3.455523     0.340603    -2.833092
   48      H       4.800871    -0.158655    -1.768202
   49      H       4.176076    -1.288608    -2.998272
   50      H      -4.871151     0.186291    -1.623531
   51      H      -3.611860    -0.365727    -2.763741
   52      H      -4.308586     1.275608    -2.917491
   53      H       0.878069     1.080444     2.846213
   54      H       0.372850     2.230327     1.558717
   55      H       1.574315     2.710091     2.754588
 ----------------------------------------------------
 Molecular Point Group                 C1    NOp =  1
 Largest Abelian Subgroup              C1    NOp =  1
 Nuclear Repulsion Energy =  2320.3483795322 hartrees
 There are       95 alpha and       94 beta electrons
 Applying Cartesian multipole field
    Component          Value
    ---------          -----
     (2,0,0)        1.00000E-11
     (0,2,0)        2.00000E-11
     (0,0,2)       -3.00000E-11
 Nucleus-field energy     =     0.0000000447 hartrees
 Requested basis set is 6-31+G(d)
 There are 172 shells and 453 basis functions
 A cutoff of  1.0D-12 yielded  11018 shell pairs
 There are     83250 function pairs
 Smallest overlap matrix eigenvalue = 1.55E-05
 Guess MOs from SCF MO coefficient file
Reading MOs from coefficient file
Reading MOs from coefficient file
 An unrestricted Kohn-Sham SCF calculation will be
 performed using Pulay DIIS + Geometric Direct Minimization
 Exchange:  PBE      Correlation:  PBE
 Using SG-1 standard quadrature grid
 SCF converges when RMS gradient is below 1.0E-08
Geometry optimization detected.  Setting ReadMinima to 0
Setting SaveMinima to 0
 Requested basis set is 6-31+G(d)
 There are 172 shells and 453 basis functions
 A cutoff of  1.0D-12 yielded  11018 shell pairs
 There are     83250 function pairs
 ---------------------------------------
  Cycle       Energy        RMS Gradient
 ---------------------------------------
    1   -1944.9290287403      4.13E-04 Done DIIS. Switching to GDM
    2   -1944.9450083668      4.55E-02 Normal BFGS step
    3   -1944.9341782953      7.02E+05 Line search: overstep
    4   -1944.9458160040      9.33E-03 Normal BFGS step
    5   -1944.9454218103      5.50E+05 Line search: overstep
    6   -1944.9458769778      6.61E-03 Normal BFGS step
    7   -1944.9458774906      4.39E-03 Normal BFGS step
    8   -1944.9459048392      1.29E-03 Normal BFGS step
    9   -1944.9459046719      3.09E+04 Line search: overstep
   10   -1944.9459079497      3.62E-04 Normal BFGS step
   11   -1944.9459082020      2.75E-04 Normal BFGS step
   12   -1944.9459084445      9.38E-05 Normal BFGS step
   13   -1944.9459084603      2.70E-05 Normal BFGS step
   14   -1944.9459084605      1.94E-05 Normal BFGS step
   15   -1944.9459084586      2.85E+03 Line search: overstep
   16   -1944.9459084630      1.27E-05 Normal BFGS step
   17   -1944.9459084611      2.11E+02 Line search: overstep
   GDM::WARNING energy changes are now smaller than effective accuracy.
   GDM::        calculation will continue, but THRESH should be increased
   GDM::        or SCF_CONVERGENCE decreased.
   GDM::        effective_thresh =   9.500000000000000E-010
   18   -1944.9459084622      1.04E-05 Normal BFGS step
   19   -1944.9459084568      2.95E+02 Line search: overstep
   GDM::WARNING energy changes are now smaller than effective accuracy.
   GDM::        calculation will continue, but THRESH should be increased
   GDM::        or SCF_CONVERGENCE decreased.
   GDM::        effective_thresh =   9.500000000000000E-010
   20   -1944.9459084620      9.29E-06 Normal BFGS step
   21   -1944.9459084585      2.58E+01 Line search: overstep
   GDM::WARNING energy changes are now smaller than effective accuracy.
   GDM::        calculation will continue, but THRESH should be increased
   GDM::        or SCF_CONVERGENCE decreased.
   GDM::        effective_thresh =   9.500000000000000E-010
   22   -1944.9459084615      8.30E-06 Normal BFGS step
   23   -1944.9459084556      6.78E+01 Line search: overstep
   GDM::WARNING energy changes are now smaller than effective accuracy.
   GDM::        calculation will continue, but THRESH should be increased
   GDM::        or SCF_CONVERGENCE decreased.
   GDM::        effective_thresh =   9.500000000000000E-010
   24   -1944.9459084609      7.41E-06 Normal BFGS step
   25   -1944.9459084577      2.30E+02 Line search: overstep
   26   -1944.9459084636      6.62E-06 Normal BFGS step
   27   -1944.9459084616      1.13E+02 Line search: overstep
   28   -1944.9459084638      5.87E-06 Normal BFGS step
   29   -1944.9459084573      1.18E+02 Line search: overstep
   GDM::WARNING energy changes are now smaller than effective accuracy.
   GDM::        calculation will continue, but THRESH should be increased
   GDM::        or SCF_CONVERGENCE decreased.
   GDM::        effective_thresh =   9.500000000000000E-010
   30   -1944.9459084635      5.22E-06 Normal BFGS step
   31   -1944.9459084606      8.26E+01 Line search: overstep
   GDM::WARNING energy changes are now smaller than effective accuracy.
   GDM::        calculation will continue, but THRESH should be increased
   GDM::        or SCF_CONVERGENCE decreased.
   GDM::        effective_thresh =   9.500000000000000E-010
   32   -1944.9459084627      4.66E-06 Normal BFGS step
   33   -1944.9459084607      6.67E+01 Line search: overstep
   GDM::WARNING energy changes are now smaller than effective accuracy.
   GDM::        calculation will continue, but THRESH should be increased
   GDM::        or SCF_CONVERGENCE decreased.
   GDM::        effective_thresh =   9.500000000000000E-010
   34   -1944.9459084624      4.18E-06 Normal BFGS step
   35   -1944.9459084565      1.38E+02 Line search: overstep
   36   -1944.9459084634      3.71E-06 Normal BFGS step
   37   -1944.9459084595      4.41E+01 Line search: overstep
   38   -1944.9459084640      3.30E-06 Normal BFGS step
   39   -1944.9459084584      4.57E+01 Line search: overstep
   40   -1944.9459084623      2.51E+02 Line search: overstep
   41   -1944.9459084604      2.83E+02 Line search: overstep
   42   -1944.9459084584      2.86E+02 Line search: overstep
   43   -1944.9459084599      2.87E+02 Line search: overstep
   44   -1944.9459084594      2.87E+02 Line search: overstep
   45   -1944.9459084592      2.87E+02 Line search: overstep
   46   -1944.9459084590      2.83E+02 Line search: overstep
   47   -1944.9459084590      2.83E+02 Line search: overstep
   48   -1944.9459084590      2.83E+02 Line search: overstep
   49   -1944.9459084590      2.83E+02 Line search: overstep
   50   -1944.9459084590      2.83E+02 Line search: overstep
   51   -1944.9459084590      2.83E+02 Line search: overstep
   52   -1944.9459084590      2.83E+02 Line search: overstep
   53   -1944.9459084590      2.83E+02 Line search: overstep
   54   -1944.9459084590      2.83E+02 Line search: overstep
   55   -1944.9459084590      2.83E+02 Line search: overstep
   56   -1944.9459084590      2.83E+02 Line search: overstep
   57   -1944.9459084590      2.83E+02 Line search: overstep
   58   -1944.9459084590      2.83E+02 Line search: overstep
   59   -1944.9459084590      2.83E+02 Line search: overstep
   60   -1944.9459084590      2.83E+02 Line search: overstep
   61   -1944.9459084590      2.83E+02 Line search: overstep
   62   -1944.9459084590      2.83E+02 Line search: overstep
   63   -1944.9459084590      2.83E+02 Line search: overstep
   64   -1944.9459084590      2.83E+02 Line search: overstep
   65   -1944.9459084590      2.83E+02 Line search: overstep
   66   -1944.9459084590      2.83E+02 Line search: overstep
   67   -1944.9459084590      2.83E+02 Line search: overstep
   68   -1944.9459084590      2.83E+02 Line search: overstep
   69   -1944.9459084590      2.83E+02 Line search: overstep
   70   -1944.9459084590      2.83E+02 Line search: overstep
   71   -1944.9459084590      2.83E+02 Line search: overstep
   72   -1944.9459084590      2.83E+02 Line search: overstep
   73   -1944.9459084590      2.83E+02 Line search: overstep
   74   -1944.9459084590      2.83E+02 Line search: overstep
   75   -1944.9459084590      2.83E+02 Line search: overstep
   76   -1944.9459084590      2.83E+02 Line search: overstep
   77   -1944.9459084590      2.83E+02 Line search: overstep
   78   -1944.9459084590      2.83E+02 Line search: overstep
   79   -1944.9459084590      2.83E+02 Line search: overstep
   80   -1944.9459084590      2.83E+02 Line search: overstep
   81   -1944.9459084590      2.83E+02 Line search: overstep
   82   -1944.9459084590      2.83E+02 Line search: overstep
   83   -1944.9459084590      2.83E+02 Line search: overstep
   84   -1944.9459084590      2.83E+02 Line search: overstep
   85   -1944.9459084590      2.83E+02 Line search: overstep
   86   -1944.9459084590      2.83E+02 Line search: overstep
   87   -1944.9459084590      2.83E+02 Line search: overstep
   88   -1944.9459084590      2.83E+02 Line search: overstep
   89   -1944.9459084590      2.83E+02 Line search: overstep
   90   -1944.9459084590      2.83E+02 Line search: overstep
   91   -1944.9459084590      2.83E+02 Line search: overstep
   92   -1944.9459084590      2.83E+02 Line search: overstep
   93   -1944.9459084590      2.83E+02 Line search: overstep
   94   -1944.9459084590      2.83E+02 Line search: overstep
   95   -1944.9459084590      2.83E+02 Line search: overstep
   96   -1944.9459084590      2.83E+02 Line search: overstep
   97   -1944.9459084590      2.83E+02 Line search: overstep
   98   -1944.9459084590      2.83E+02 Line search: overstep
   99   -1944.9459084590      2.83E+02 Line search: overstep
  100   -1944.9459084590      2.83E+02 Line search: overstep
  101   -1944.9459084590      2.83E+02 Line search: overstep
  102   -1944.9459084590      2.83E+02 Line search: overstep
  103   -1944.9459084590      2.83E+02 Line search: overstep
  104   -1944.9459084590      2.83E+02 Line search: overstep
  105   -1944.9459084590      2.83E+02 Line search: overstep
  106   -1944.9459084590      2.83E+02 Line search: overstep
  107   -1944.9459084590      2.83E+02 Line search: overstep
  108   -1944.9459084590      2.83E+02 Line search: overstep
  109   -1944.9459084590      2.83E+02 Line search: overstep
  110   -1944.9459084590      2.83E+02 Line search: overstep
  111   -1944.9459084590      2.83E+02 Line search: overstep
  112   -1944.9459084590      2.83E+02 Line search: overstep
  113   -1944.9459084590      2.83E+02 Line search: overstep
  114   -1944.9459084590      2.83E+02 Line search: overstep
  115   -1944.9459084590      2.83E+02 Line search: overstep
  116   -1944.9459084590      2.83E+02 Line search: overstep
  117   -1944.9459084590      2.83E+02 Line search: overstep
  118   -1944.9459084590      2.83E+02 Line search: overstep
  119   -1944.9459084590      2.83E+02 Line search: overstep
  120   -1944.9459084590      2.83E+02 Line search: overstep
  121   -1944.9459084590      2.83E+02 Line search: overstep
  122   -1944.9459084590      2.83E+02 Line search: overstep
  123   -1944.9459084590      2.83E+02 Line search: overstep
  124   -1944.9459084590      2.83E+02 Line search: overstep
  125   -1944.9459084590      2.83E+02 Line search: overstep
  126   -1944.9459084590      2.83E+02 Line search: overstep
  127   -1944.9459084590      2.83E+02 Line search: overstep
  128   -1944.9459084590      2.83E+02 Line search: overstep
  129   -1944.9459084590      2.83E+02 Line search: overstep
  130   -1944.9459084590      2.83E+02 Line search: overstep
  131   -1944.9459084590      2.83E+02 Line search: overstep
  132   -1944.9459084590      2.83E+02 Line search: overstep
  133   -1944.9459084590      2.83E+02 Line search: overstep
  134   -1944.9459084590      2.83E+02 Line search: overstep
  135   -1944.9459084590      2.83E+02 Line search: overstep
  136   -1944.9459084590      2.83E+02 Line search: overstep
  137   -1944.9459084590      2.83E+02 Line search: overstep
  138   -1944.9459084590      2.83E+02 Line search: overstep
  139   -1944.9459084590      2.83E+02 Line search: overstep
  140   -1944.9459084590      2.83E+02 Line search: overstep
  141   -1944.9459084590      2.83E+02 Line search: overstep
  142   -1944.9459084590      2.83E+02 Line search: overstep
  143   -1944.9459084590      2.83E+02 Line search: overstep
  144   -1944.9459084590      2.83E+02 Line search: overstep
  145   -1944.9459084590      2.83E+02 Line search: overstep
  146   -1944.9459084590      2.83E+02 Line search: overstep
  147   -1944.9459084590      2.83E+02 Line search: overstep
  148   -1944.9459084590      2.83E+02 Line search: overstep
  149   -1944.9459084590      2.83E+02 Line search: overstep
  150   -1944.9459084590      2.83E+02 Line search: overstep
  151   -1944.9459084590      2.83E+02 Line search: overstep
  152   -1944.9459084590      2.83E+02 Line search: overstep
  153   -1944.9459084590      2.83E+02 Line search: overstep
  154   -1944.9459084590      2.83E+02 Line search: overstep
  155   -1944.9459084590      2.83E+02 Line search: overstep
  156   -1944.9459084590      2.83E+02 Line search: overstep
  157   -1944.9459084590      2.83E+02 Line search: overstep
  158   -1944.9459084590      2.83E+02 Line search: overstep
  159   -1944.9459084590      2.83E+02 Line search: overstep
  160   -1944.9459084590      2.83E+02 Line search: overstep
  161   -1944.9459084590      2.83E+02 Line search: overstep
  162   -1944.9459084590      2.83E+02 Line search: overstep
  163   -1944.9459084590      2.83E+02 Line search: overstep
  164   -1944.9459084590      2.83E+02 Line search: overstep
  165   -1944.9459084590      2.83E+02 Line search: overstep
  166   -1944.9459084590      2.83E+02 Line search: overstep
  167   -1944.9459084590      2.83E+02 Line search: overstep
  168   -1944.9459084590      2.83E+02 Line search: overstep
  169   -1944.9459084590      2.83E+02 Line search: overstep
  170   -1944.9459084590      2.83E+02 Line search: overstep
  171   -1944.9459084590      2.83E+02 Line search: overstep
  172   -1944.9459084590      2.83E+02 Line search: overstep
  173   -1944.9459084590      2.83E+02 Line search: overstep
  174   -1944.9459084590      2.83E+02 Line search: overstep
  175   -1944.9459084590      2.83E+02 Line search: overstep
  176   -1944.9459084590      2.83E+02 Line search: overstep
  177   -1944.9459084590      2.83E+02 Line search: overstep
  178   -1944.9459084590      2.83E+02 Line search: overstep
  179   -1944.9459084590      2.83E+02 Line search: overstep
  180   -1944.9459084590      2.83E+02 Line search: overstep
  181   -1944.9459084590      2.83E+02 Line search: overstep
  182   -1944.9459084590      2.83E+02 Line search: overstep
  183   -1944.9459084590      2.83E+02 Line search: overstep
  184   -1944.9459084590      2.83E+02 Line search: overstep
  185   -1944.9459084590      2.83E+02 Line search: overstep
  186   -1944.9459084590      2.83E+02 Line search: overstep
  187   -1944.9459084590      2.83E+02 Line search: overstep
  188   -1944.9459084590      2.83E+02 Line search: overstep
  189   -1944.9459084590      2.83E+02 Line search: overstep
  190   -1944.9459084590      2.83E+02 Line search: overstep
  191   -1944.9459084590      2.83E+02 Line search: overstep
  192   -1944.9459084590      2.83E+02 Line search: overstep

 Q-Chem fatal error occurred in module 0, line  101, PE  0:

 In expmat: U is not unitary enough

Application 4805810 exit codes: 134
Application 4805810 resources: utime ~668s, stime ~199s, Rss ~156168, inblocks ~348449180, outblocks ~18257588
