 argument  1 = H4C3O3_1.nw
                                         
                                         


              Northwest Computational Chemistry Package (NWChem) 6.3
              ------------------------------------------------------


                    Environmental Molecular Sciences Laboratory
                       Pacific Northwest National Laboratory
                                Richland, WA 99352

                              Copyright (c) 1994-2012
                       Pacific Northwest National Laboratory
                            Battelle Memorial Institute

             NWChem is an open-source computational chemistry package
                        distributed under the terms of the
                      Educational Community License (ECL) 2.0
             A copy of the license is included with this distribution
                              in the LICENSE.TXT file

                                  ACKNOWLEDGMENT
                                  --------------

            This software and its documentation were developed at the
            EMSL at Pacific Northwest National Laboratory, a multiprogram
            national laboratory, operated for the U.S. Department of Energy
            by Battelle under Contract Number DE-AC05-76RL01830. Support
            for this work was provided by the Department of Energy Office
            of Biological and Environmental Research, Office of Basic
            Energy Sciences, and the Office of Advanced Scientific Computing.


           Job information
           ---------------

    hostname        = compute-0-7.local
    program         = /share/apps/nwchem-6.3/bin/LINUX64/nwchem
    date            = Mon Jun 17 07:11:52 2013

    compiled        = Sat_May_25_13:40:38_2013
    source          = /share/apps/nwchem-6.3
    nwchem branch   = 6.3
    nwchem revision = 24252
    ga revision     = N/A
    input           = H4C3O3_1.nw
    prefix          = H4C3O3.
    data base       = ./H4C3O3.db
    status          = startup
    nproc           =        8
    time left       =     -1s



           Memory information
           ------------------

    heap     =   13107201 doubles =    100.0 Mbytes
    stack    =   13107201 doubles =    100.0 Mbytes
    global   =   26214400 doubles =    200.0 Mbytes (distinct from heap & stack)
    total    =   52428802 doubles =    400.0 Mbytes
    verify   = yes
    hardfail = no 


           Directory information
           ---------------------

  0 permanent = .
  0 scratch   = .




                                NWChem Input Module
                                -------------------



 Scaling coordinates for geometry "geometry" by  1.889725989
 (inverse scale =  0.529177249)

 C2V symmetry detected

          ------
          auto-z
          ------


                             Geometry "geometry" -> ""
                             -------------------------

 Output coordinates in angstroms (scale by  1.889725989 to convert to a.u.)

  No.       Tag          Charge          X              Y              Z
 ---- ---------------- ---------- -------------- -------------- --------------
    1 C                    6.0000     0.00000000     0.00000000     0.83110000
    2 O                    8.0000     0.00000000     1.12050000     0.10130000
    3 C                    6.0000     0.00000000     0.77040000    -1.31350000
    4 C                    6.0000     0.00000000    -0.77040000    -1.31350000
    5 O                    8.0000     0.00000000    -1.12050000     0.10130000
    6 O                    8.0000     0.00000000     0.00000000     2.04540000
    7 H                    1.0000    -0.89615000     1.15290000    -1.80215000
    8 H                    1.0000     0.89615000     1.15290000    -1.80215000
    9 H                    1.0000    -0.89615000    -1.15290000    -1.80215000
   10 H                    1.0000     0.89615000    -1.15290000    -1.80215000

      Atomic Mass 
      ----------- 

      C                 12.000000
      O                 15.994910
      H                  1.007825


 Effective nuclear repulsion energy (a.u.)     245.1426042181

            Nuclear Dipole moment (a.u.) 
            ----------------------------
        X                 Y               Z
 ---------------- ---------------- ----------------
    -0.0000000000     0.0000000000     0.0000000000

      Symmetry information
      --------------------

 Group name             C2v       
 Group number             16
 Group order               4
 No. of unique centers     5

      Symmetry unique atoms

     1    2    3    6    7



                                Z-matrix (autoz)
                                -------- 

 Units are Angstrom for bonds and degrees for angles

      Type          Name      I     J     K     L     M      Value
      ----------- --------  ----- ----- ----- ----- ----- ----------
    1 Stretch                  1     2                       1.33721
    2 Stretch                  1     5                       1.33721
    3 Stretch                  1     6                       1.21430
    4 Stretch                  2     3                       1.45747
    5 Stretch                  3     4                       1.54080
    6 Stretch                  3     7                       1.09003
    7 Stretch                  3     8                       1.09003
    8 Stretch                  4     5                       1.45747
    9 Stretch                  4     9                       1.09003
   10 Stretch                  4    10                       1.09003
   11 Bend                     1     2     3               109.17791
   12 Bend                     1     5     4               109.17791
   13 Bend                     2     1     5               113.84629
   14 Bend                     2     1     6               123.07686
   15 Bend                     2     3     4               103.89895
   16 Bend                     2     3     7               110.54070
   17 Bend                     2     3     8               110.54070
   18 Bend                     3     4     5               103.89895
   19 Bend                     3     4     9               110.54281
   20 Bend                     3     4    10               110.54281
   21 Bend                     4     3     7               110.54281
   22 Bend                     4     3     8               110.54281
   23 Bend                     5     1     6               123.07686
   24 Bend                     5     4     9               110.54070
   25 Bend                     5     4    10               110.54070
   26 Bend                     7     3     8               110.59753
   27 Bend                     9     4    10               110.59753
   28 Torsion                  1     2     3     4           0.00000
   29 Torsion                  1     2     3     7         118.60407
   30 Torsion                  1     2     3     8        -118.60407
   31 Torsion                  1     5     4     3           0.00000
   32 Torsion                  1     5     4     9        -118.60407
   33 Torsion                  1     5     4    10         118.60407
   34 Torsion                  2     1     5     4           0.00000
   35 Torsion                  2     3     4     5          -0.00000
   36 Torsion                  2     3     4     9         118.60262
   37 Torsion                  2     3     4    10        -118.60262
   38 Torsion                  3     2     1     5           0.00000
   39 Torsion                  3     2     1     6         180.00000
   40 Torsion                  4     5     1     6         180.00000
   41 Torsion                  5     4     3     7        -118.60262
   42 Torsion                  5     4     3     8         118.60262
   43 Torsion                  7     3     4     9           0.00000
   44 Torsion                  7     3     4    10         122.79476
   45 Torsion                  8     3     4     9        -122.79476
   46 Torsion                  8     3     4    10          -0.00000


            XYZ format geometry
            -------------------
    10
 geometry
 C                     0.00000000     0.00000000     0.83110000
 O                     0.00000000     1.12050000     0.10130000
 C                     0.00000000     0.77040000    -1.31350000
 C                     0.00000000    -0.77040000    -1.31350000
 O                     0.00000000    -1.12050000     0.10130000
 O                     0.00000000     0.00000000     2.04540000
 H                    -0.89615000     1.15290000    -1.80215000
 H                     0.89615000     1.15290000    -1.80215000
 H                    -0.89615000    -1.15290000    -1.80215000
 H                     0.89615000    -1.15290000    -1.80215000

 ==============================================================================
                                internuclear distances
 ------------------------------------------------------------------------------
       center one      |      center two      | atomic units |  angstroms
 ------------------------------------------------------------------------------
    2 O                |   1 C                |     2.52696  |     1.33721
    3 C                |   2 O                |     2.75423  |     1.45747
    4 C                |   3 C                |     2.91169  |     1.54080
    5 O                |   1 C                |     2.52696  |     1.33721
    5 O                |   4 C                |     2.75423  |     1.45747
    6 O                |   1 C                |     2.29469  |     1.21430
    7 H                |   3 C                |     2.05986  |     1.09003
    8 H                |   3 C                |     2.05986  |     1.09003
    9 H                |   4 C                |     2.05986  |     1.09003
   10 H                |   4 C                |     2.05986  |     1.09003
 ------------------------------------------------------------------------------
                         number of included internuclear distances:         10
 ==============================================================================



 ==============================================================================
                                 internuclear angles
 ------------------------------------------------------------------------------
        center 1       |       center 2       |       center 3       |  degrees
 ------------------------------------------------------------------------------
    2 O                |   1 C                |   5 O                |   113.85
    2 O                |   1 C                |   6 O                |   123.08
    5 O                |   1 C                |   6 O                |   123.08
    1 C                |   2 O                |   3 C                |   109.18
    2 O                |   3 C                |   4 C                |   103.90
    2 O                |   3 C                |   7 H                |   110.54
    2 O                |   3 C                |   8 H                |   110.54
    4 C                |   3 C                |   7 H                |   110.54
    4 C                |   3 C                |   8 H                |   110.54
    7 H                |   3 C                |   8 H                |   110.60
    3 C                |   4 C                |   5 O                |   103.90
    3 C                |   4 C                |   9 H                |   110.54
    3 C                |   4 C                |  10 H                |   110.54
    5 O                |   4 C                |   9 H                |   110.54
    5 O                |   4 C                |  10 H                |   110.54
    9 H                |   4 C                |  10 H                |   110.60
    1 C                |   5 O                |   4 C                |   109.18
 ------------------------------------------------------------------------------
                            number of included internuclear angles:         17
 ==============================================================================



                                H4C3O3 dft optimize
                                -------------------
                      Basis "ao basis" -> "" (cartesian)
                      -----
  H (Hydrogen)
  ------------
            Exponent  Coefficients 
       -------------- ---------------------------------------------------------
  1 S  1.87311370E+01  0.033495
  1 S  2.82539370E+00  0.234727
  1 S  6.40121700E-01  0.813757

  2 S  1.61277800E-01  1.000000

  C (Carbon)
  ----------
            Exponent  Coefficients 
       -------------- ---------------------------------------------------------
  1 S  3.04752490E+03  0.001835
  1 S  4.57369510E+02  0.014037
  1 S  1.03948690E+02  0.068843
  1 S  2.92101550E+01  0.232184
  1 S  9.28666300E+00  0.467941
  1 S  3.16392700E+00  0.362312

  2 S  7.86827240E+00 -0.119332
  2 S  1.88128850E+00 -0.160854
  2 S  5.44249300E-01  1.143456

  3 P  7.86827240E+00  0.068999
  3 P  1.88128850E+00  0.316424
  3 P  5.44249300E-01  0.744308

  4 S  1.68714400E-01  1.000000

  5 P  1.68714400E-01  1.000000

  6 S  4.38000000E-02  1.000000

  7 P  4.38000000E-02  1.000000

  8 D  8.00000000E-01  1.000000

  O (Oxygen)
  ----------
            Exponent  Coefficients 
       -------------- ---------------------------------------------------------
  1 S  5.48467170E+03  0.001831
  1 S  8.25234950E+02  0.013950
  1 S  1.88046960E+02  0.068445
  1 S  5.29645000E+01  0.232714
  1 S  1.68975700E+01  0.470193
  1 S  5.79963530E+00  0.358521

  2 S  1.55396160E+01 -0.110778
  2 S  3.59993360E+00 -0.148026
  2 S  1.01376180E+00  1.130767

  3 P  1.55396160E+01  0.070874
  3 P  3.59993360E+00  0.339753
  3 P  1.01376180E+00  0.727159

  4 S  2.70005800E-01  1.000000

  5 P  2.70005800E-01  1.000000

  6 S  8.45000000E-02  1.000000

  7 P  8.45000000E-02  1.000000

  8 D  8.00000000E-01  1.000000



 Summary of "ao basis" -> "" (cartesian)
 ------------------------------------------------------------------------------
       Tag                 Description            Shells   Functions and Types
 ---------------- ------------------------------  ------  ---------------------
 H                          6-31+g*                  2        2   2s
 C                          6-31+g*                  8       19   4s3p1d
 O                          6-31+g*                  8       19   4s3p1d




                           NWChem Geometry Optimization
                           ----------------------------




                                H4C3O3 dft optimize


 maximum gradient threshold         (gmax) =   0.000450
 rms gradient threshold             (grms) =   0.000300
 maximum cartesian step threshold   (xmax) =   0.001800
 rms cartesian step threshold       (xrms) =   0.001200
 fixed trust radius                (trust) =   0.300000
 maximum step size to saddle      (sadstp) =   0.100000
 energy precision                  (eprec) =   5.0D-06
 maximum number of steps          (nptopt) =   20
 initial hessian option           (inhess) =    0
 line search option               (linopt) =    1
 hessian update option            (modupd) =    1
 saddle point option              (modsad) =    0
 initial eigen-mode to follow     (moddir) =    0
 initial variable to follow       (vardir) =    0
 follow first negative mode     (firstneg) =    T
 apply conjugacy                    (opcg) =    F
 source of zmatrix                         =   autoz   


          -------------------
          Energy Minimization
          -------------------


 Names of Z-matrix variables 
    1              2              3              4              5         
    6              7              8              9             10         
   11             12             13             14             15         
   16             17             18             19             20         
   21             22             23             24             25         
   26             27             28             29             30         
   31             32             33             34             35         
   36             37             38             39             40         
   41             42             43             44             45         
   46         

 Variables with the same non-blank name are constrained to be equal


 Using diagonal initial Hessian 
 Scaling for Hessian diagonals: bonds = 1.00  angles = 0.25  torsions = 0.10

          --------
          Step   0
          --------


                         Geometry "geometry" -> "geometry"
                         ---------------------------------

 Output coordinates in angstroms (scale by  1.889725989 to convert to a.u.)

  No.       Tag          Charge          X              Y              Z
 ---- ---------------- ---------- -------------- -------------- --------------
    1 C                    6.0000     0.00000000     0.00000000     0.83110000
    2 O                    8.0000     0.00000000     1.12050000     0.10130000
    3 C                    6.0000     0.00000000     0.77040000    -1.31350000
    4 C                    6.0000     0.00000000    -0.77040000    -1.31350000
    5 O                    8.0000     0.00000000    -1.12050000     0.10130000
    6 O                    8.0000     0.00000000     0.00000000     2.04540000
    7 H                    1.0000    -0.89615000     1.15290000    -1.80215000
    8 H                    1.0000     0.89615000     1.15290000    -1.80215000
    9 H                    1.0000    -0.89615000    -1.15290000    -1.80215000
   10 H                    1.0000     0.89615000    -1.15290000    -1.80215000

      Atomic Mass 
      ----------- 

      C                 12.000000
      O                 15.994910
      H                  1.007825


 Effective nuclear repulsion energy (a.u.)     245.1426042181

            Nuclear Dipole moment (a.u.) 
            ----------------------------
        X                 Y               Z
 ---------------- ---------------- ----------------
    -0.0000000000     0.0000000000     0.0000000000

      Symmetry information
      --------------------

 Group name             C2v       
 Group number             16
 Group order               4
 No. of unique centers     5

      Symmetry unique atoms

     1    2    3    6    7


                                 NWChem DFT Module
                                 -----------------


                                H4C3O3 dft optimize


  Caching 1-el integrals 

            General Information
            -------------------
          SCF calculation type: DFT
          Wavefunction type:  closed shell.
          No. of atoms     :    10
          No. of electrons :    46
           Alpha electrons :    23
            Beta electrons :    23
          Charge           :     0
          Spin multiplicity:     1
          Use of symmetry is: on ; symmetry adaption is: on 
          Maximum number of iterations:  30
          AO basis - number of functions:   122
                     number of shells:    56
          Convergence on energy requested: 1.00D-06
          Convergence on density requested: 1.00D-05
          Convergence on gradient requested: 5.00D-04

              XC Information
              --------------
                         B3LYP Method XC Potential
                     Hartree-Fock (Exact) Exchange  0.200          
                        Slater Exchange Functional  0.800 local    
                    Becke 1988 Exchange Functional  0.720 non-local
              Lee-Yang-Parr Correlation Functional  0.810          
                  VWN I RPA Correlation Functional  0.190 local    

             Grid Information
             ----------------
          Grid used for XC integration:  medium    
          Radial quadrature: Mura-Knowles        
          Angular quadrature: Lebedev. 
          Tag              B.-S. Rad. Rad. Pts. Rad. Cut. Ang. Pts.
          ---              ---------- --------- --------- ---------
          C                   0.70       49          11.0       434
          O                   0.60       49          12.0       434
          H                   0.35       45          12.0       434
          Grid pruning is: on 
          Number of quadrature shells:   241
          Spatial weights used:  Erf1

          Convergence Information
          -----------------------
          Convergence aids based upon iterative change in 
          total energy or number of iterations. 
          Levelshifting, if invoked, occurs when the 
          HOMO/LUMO gap drops below (HL_TOL): 1.00D-02
          DIIS, if invoked, will attempt to extrapolate 
          using up to (NFOCK): 10 stored Fock matrices.

                    Damping( 0%)  Levelshifting(0.5)       DIIS
                  --------------- ------------------- ---------------
          dE  on:    start            ASAP                start   
          dE off:    2 iters         30 iters            30 iters 


      Screening Tolerance Information
      -------------------------------
          Density screening/tol_rho: 1.00D-10
          AO Gaussian exp screening on grid/accAOfunc:  14
          CD Gaussian exp screening on grid/accCDfunc:  20
          XC Gaussian exp screening on grid/accXCfunc:  20
          Schwarz screening/accCoul: 1.00D-08


      Superposition of Atomic Density Guess
      -------------------------------------

 Sum of atomic energies:        -339.25363005

      Non-variational initial energy
      ------------------------------

 Total energy =    -342.388901
 1-e energy   =    -949.582856
 2-e energy   =     362.051351
 HOMO         =      -0.345178
 LUMO         =       0.038968


      Symmetry analysis of molecular orbitals - initial
      -------------------------------------------------

  Numbering of irreducible representations: 

     1 a1          2 a2          3 b1          4 b2      

  Orbital symmetries:

     1 a1          2 b2          3 a1          4 a1          5 b2      
     6 a1          7 a1          8 a1          9 b2         10 a1      
    11 b2         12 a1         13 b1         14 a1         15 b2      
    16 a1         17 b1         18 a2         19 b2         20 b2      
    21 b1         22 a1         23 a2         24 a1         25 a1      
    26 b2         27 b1         28 a1         29 b1         30 b2      
    31 a1         32 b1         33 a2      

   Time after variat. SCF:      1.0
   Time prior to 1st pass:      1.0

 Integral file          = ./H4C3O3.aoints.0
 Record size in doubles =    65536    No. of integs per rec  =    43688
 Max. records in memory =       37    Max. records in file   = 23749999
 No. of bits per label  =        8    No. of bits per value  =       64


 #quartets = 5.043D+05 #integrals = 7.416D+06 #direct =  0.0% #cached =100.0%


File balance: exchanges=    10  moved=    45  time=   0.3


 Grid_pts file          = ./H4C3O3.gridpts.0
 Record size in doubles =  12289        No. of grid_pts per rec  =   3070
 Max. records in memory =      6        Max. recs in file   = 126656358

 Grid integrated density:      45.999932923199
 Requested integration accuracy:   0.10E-05

           Memory utilization after 1st SCF pass: 
           Heap Space remaining (MW):       10.58            10575131
          Stack Space remaining (MW):       13.11            13106329

   convergence    iter        energy       DeltaE   RMS-Dens  Diis-err    time
 ---------------- ----- ----------------- --------- --------- ---------  ------
 d= 0,ls=0.0,diis     1   -342.2134399352 -5.87D+02  2.14D-02  1.83D+00     2.8
 Grid integrated density:      45.999943700540
 Requested integration accuracy:   0.10E-05
 d= 0,ls=0.0,diis     2   -341.7646723546  4.49D-01  1.48D-02  6.67D+00     3.2
 Grid integrated density:      45.999941167955
 Requested integration accuracy:   0.10E-05
 d= 0,ls=0.0,diis     3   -342.3860414845 -6.21D-01  3.24D-03  2.38D-01     3.5
 Grid integrated density:      45.999943453789
 Requested integration accuracy:   0.10E-05
 d= 0,ls=0.0,diis     4   -342.4008427128 -1.48D-02  1.21D-03  8.89D-02     3.8
 Grid integrated density:      45.999941672918
 Requested integration accuracy:   0.10E-05
 d= 0,ls=0.0,diis     5   -342.4086178870 -7.78D-03  2.56D-04  2.10D-03     4.2
 Grid integrated density:      45.999942049170
 Requested integration accuracy:   0.10E-05
  Resetting Diis
 d= 0,ls=0.0,diis     6   -342.4088042382 -1.86D-04  7.54D-05  7.97D-05     4.5
 Grid integrated density:      45.999942014228
 Requested integration accuracy:   0.10E-05
 d= 0,ls=0.0,diis     7   -342.4088135937 -9.36D-06  2.66D-05  2.15D-06     4.8
 Grid integrated density:      45.999942004440
 Requested integration accuracy:   0.10E-05
 d= 0,ls=0.0,diis     8   -342.4088130854  5.08D-07  1.42D-05  7.77D-06     5.2
 Grid integrated density:      45.999942010879
 Requested integration accuracy:   0.10E-05
 d= 0,ls=0.0,diis     9   -342.4088138458 -7.60D-07  2.74D-06  1.50D-07     5.5


         Total DFT energy =     -342.408813845810
      One electron energy =     -952.428975382206
           Coulomb energy =      408.376773946453
    Exchange-Corr. energy =      -43.499216628184
 Nuclear repulsion energy =      245.142604218127

 Numeric. integr. density =       45.999942010879

     Total iterative time =      4.5s



                  Occupations of the irreducible representations
                  ----------------------------------------------

                     irrep           alpha         beta
                     --------     --------     --------
                     a1               11.0         11.0
                     a2                2.0          2.0
                     b1                3.0          3.0
                     b2                7.0          7.0


                       DFT Final Molecular Orbital Analysis
                       ------------------------------------

 Vector    6  Occ=2.000000D+00  E=-1.028846D+01  Symmetry=b2
              MO Center= -9.9D-19, -2.7D-16, -1.3D+00, r^2= 6.2D-01
   Bfn.  Coefficient  Atom+Function         Bfn.  Coefficient  Atom+Function  
  ----- ------------  ---------------      ----- ------------  ---------------
    39      0.702414   3 C  s                58     -0.702414   4 C  s         

 Vector    7  Occ=2.000000D+00  E=-1.178214D+00  Symmetry=a1
              MO Center=  9.2D-20,  0.0D+00,  2.2D-01, r^2= 1.3D+00
   Bfn.  Coefficient  Atom+Function         Bfn.  Coefficient  Atom+Function  
  ----- ------------  ---------------      ----- ------------  ---------------
    25      0.272674   2 O  s                82      0.272674   5 O  s         
    21      0.270849   2 O  s                78      0.270849   5 O  s         
     2      0.227146   1 C  s         

 Vector    8  Occ=2.000000D+00  E=-1.070065D+00  Symmetry=b2
              MO Center=  3.0D-17, -1.0D-15,  4.9D-02, r^2= 1.5D+00
   Bfn.  Coefficient  Atom+Function         Bfn.  Coefficient  Atom+Function  
  ----- ------------  ---------------      ----- ------------  ---------------
    25      0.370397   2 O  s                82     -0.370397   5 O  s         
    21      0.333543   2 O  s                78     -0.333543   5 O  s         
     4      0.177248   1 C  py               20     -0.153063   2 O  s         
    77      0.153063   5 O  s         

 Vector    9  Occ=2.000000D+00  E=-1.035957D+00  Symmetry=a1
              MO Center=  8.2D-17, -1.6D-15,  1.4D+00, r^2= 1.1D+00
   Bfn.  Coefficient  Atom+Function         Bfn.  Coefficient  Atom+Function  
  ----- ------------  ---------------      ----- ------------  ---------------
   101      0.415120   6 O  s                97      0.402837   6 O  s         
     5      0.249304   1 C  pz               96     -0.187997   6 O  s         
     2      0.161772   1 C  s               100     -0.157997   6 O  pz        

 Vector   10  Occ=2.000000D+00  E=-8.075296D-01  Symmetry=a1
              MO Center=  1.1D-15,  7.2D-15, -1.0D+00, r^2= 2.1D+00
   Bfn.  Coefficient  Atom+Function         Bfn.  Coefficient  Atom+Function  
  ----- ------------  ---------------      ----- ------------  ---------------
    40      0.268841   3 C  s                59      0.268841   4 C  s         
    44      0.239383   3 C  s                63      0.239383   4 C  s         

 Vector   11  Occ=2.000000D+00  E=-6.991095D-01  Symmetry=b2
              MO Center= -9.3D-16,  1.5D-14, -6.8D-01, r^2= 2.6D+00
   Bfn.  Coefficient  Atom+Function         Bfn.  Coefficient  Atom+Function  
  ----- ------------  ---------------      ----- ------------  ---------------
    44     -0.235988   3 C  s                63      0.235988   4 C  s         
     4      0.234346   1 C  py               24      0.228235   2 O  pz        
    81     -0.228235   5 O  pz               40     -0.223500   3 C  s         
    59      0.223500   4 C  s                48     -0.171096   3 C  s         
    67      0.171096   4 C  s         

 Vector   12  Occ=2.000000D+00  E=-6.265940D-01  Symmetry=a1
              MO Center= -3.2D-19, -2.1D-14, -2.1D-01, r^2= 2.3D+00
   Bfn.  Coefficient  Atom+Function         Bfn.  Coefficient  Atom+Function  
  ----- ------------  ---------------      ----- ------------  ---------------
     2      0.236129   1 C  s                23     -0.220682   2 O  py        
    80      0.220682   5 O  py               25     -0.219252   2 O  s         
    82     -0.219252   5 O  s                 6      0.216459   1 C  s         
    24      0.189045   2 O  pz               81      0.189045   5 O  pz        
     5     -0.157359   1 C  pz        

 Vector   13  Occ=2.000000D+00  E=-5.591995D-01  Symmetry=b1
              MO Center= -1.1D-15,  0.0D+00, -7.8D-01, r^2= 2.5D+00
   Bfn.  Coefficient  Atom+Function         Bfn.  Coefficient  Atom+Function  
  ----- ------------  ---------------      ----- ------------  ---------------
    41      0.264583   3 C  px               60      0.264583   4 C  px        
    22      0.215937   2 O  px               79      0.215937   5 O  px        
     3      0.178189   1 C  px        

 Vector   14  Occ=2.000000D+00  E=-5.348096D-01  Symmetry=a1
              MO Center=  1.3D-18,  1.7D-16, -3.8D-01, r^2= 3.1D+00
   Bfn.  Coefficient  Atom+Function         Bfn.  Coefficient  Atom+Function  
  ----- ------------  ---------------      ----- ------------  ---------------
   101      0.248367   6 O  s                43      0.217646   3 C  pz        
    62      0.217646   4 C  pz               24     -0.200457   2 O  pz        
    81     -0.200457   5 O  pz               23     -0.176151   2 O  py        
    80      0.176151   5 O  py               25     -0.150773   2 O  s         
    82     -0.150773   5 O  s         

 Vector   15  Occ=2.000000D+00  E=-5.311984D-01  Symmetry=b2
              MO Center= -4.9D-15, -1.5D-15, -7.9D-01, r^2= 3.0D+00
   Bfn.  Coefficient  Atom+Function         Bfn.  Coefficient  Atom+Function  
  ----- ------------  ---------------      ----- ------------  ---------------
     4      0.256188   1 C  py               24      0.240080   2 O  pz        
    81     -0.240080   5 O  pz               43     -0.214635   3 C  pz        
    62      0.214635   4 C  pz               44      0.174627   3 C  s         
    63     -0.174627   4 C  s         

 Vector   16  Occ=2.000000D+00  E=-4.601480D-01  Symmetry=b1
              MO Center= -1.1D-15, -4.6D-14,  1.8D-02, r^2= 3.1D+00
   Bfn.  Coefficient  Atom+Function         Bfn.  Coefficient  Atom+Function  
  ----- ------------  ---------------      ----- ------------  ---------------
     3      0.338298   1 C  px               98      0.240508   6 O  px        
    22      0.215189   2 O  px               79      0.215189   5 O  px        
    41     -0.195124   3 C  px               60     -0.195124   4 C  px        

 Vector   17  Occ=2.000000D+00  E=-4.589101D-01  Symmetry=a2
              MO Center=  5.9D-15,  4.6D-14, -1.0D+00, r^2= 2.6D+00
   Bfn.  Coefficient  Atom+Function         Bfn.  Coefficient  Atom+Function  
  ----- ------------  ---------------      ----- ------------  ---------------
    41      0.286082   3 C  px               60     -0.286082   4 C  px        
    22      0.251606   2 O  px               79     -0.251606   5 O  px        
    26      0.155452   2 O  px               83     -0.155452   5 O  px        

 Vector   18  Occ=2.000000D+00  E=-4.397934D-01  Symmetry=a1
              MO Center= -4.1D-16, -1.6D-15,  1.7D+00, r^2= 1.9D+00
   Bfn.  Coefficient  Atom+Function         Bfn.  Coefficient  Atom+Function  
  ----- ------------  ---------------      ----- ------------  ---------------
   100      0.494391   6 O  pz              101      0.385267   6 O  s         
     5     -0.318036   1 C  pz              104      0.204647   6 O  pz        
    97      0.197418   6 O  s                 6     -0.171828   1 C  s         

 Vector   19  Occ=2.000000D+00  E=-4.001151D-01  Symmetry=b2
              MO Center= -2.8D-16,  6.2D-14,  8.5D-02, r^2= 2.2D+00
   Bfn.  Coefficient  Atom+Function         Bfn.  Coefficient  Atom+Function  
  ----- ------------  ---------------      ----- ------------  ---------------
    23      0.421999   2 O  py               80      0.421999   5 O  py        
    27      0.256144   2 O  py               84      0.256144   5 O  py        
     4     -0.153853   1 C  py               24      0.152196   2 O  pz        
    81     -0.152196   5 O  pz        

 Vector   20  Occ=2.000000D+00  E=-3.984320D-01  Symmetry=a1
              MO Center=  1.4D-15, -6.0D-14, -8.3D-01, r^2= 2.4D+00
   Bfn.  Coefficient  Atom+Function         Bfn.  Coefficient  Atom+Function  
  ----- ------------  ---------------      ----- ------------  ---------------
    42      0.373142   3 C  py               61     -0.373142   4 C  py        
    23     -0.201828   2 O  py               80      0.201828   5 O  py        
    25     -0.186435   2 O  s                82     -0.186435   5 O  s         
    46      0.164277   3 C  py               65     -0.164277   4 C  py        

 Vector   21  Occ=2.000000D+00  E=-3.340299D-01  Symmetry=a2
              MO Center=  1.8D-16,  6.1D-16, -4.8D-01, r^2= 2.7D+00
   Bfn.  Coefficient  Atom+Function         Bfn.  Coefficient  Atom+Function  
  ----- ------------  ---------------      ----- ------------  ---------------
    22      0.402722   2 O  px               79     -0.402722   5 O  px        
    26      0.278719   2 O  px               83     -0.278719   5 O  px        
    41     -0.181442   3 C  px               60      0.181442   4 C  px        

 Vector   22  Occ=2.000000D+00  E=-3.147366D-01  Symmetry=b1
              MO Center=  3.8D-16, -1.1D-16,  1.2D+00, r^2= 2.4D+00
   Bfn.  Coefficient  Atom+Function         Bfn.  Coefficient  Atom+Function  
  ----- ------------  ---------------      ----- ------------  ---------------
    98      0.499279   6 O  px              102      0.318604   6 O  px        
    22     -0.286666   2 O  px               79     -0.286666   5 O  px        
    26     -0.203706   2 O  px               83     -0.203706   5 O  px        

 Vector   23  Occ=2.000000D+00  E=-2.974248D-01  Symmetry=b2
              MO Center= -5.2D-19,  4.5D-16,  1.7D+00, r^2= 1.4D+00
   Bfn.  Coefficient  Atom+Function         Bfn.  Coefficient  Atom+Function  
  ----- ------------  ---------------      ----- ------------  ---------------
    99      0.616828   6 O  py              103      0.382926   6 O  py        
    25     -0.167157   2 O  s                82      0.167157   5 O  s         

 Vector   24  Occ=0.000000D+00  E=-1.241663D-02  Symmetry=a1
              MO Center= -1.2D-16, -1.7D-16, -2.6D+00, r^2= 6.9D+00
   Bfn.  Coefficient  Atom+Function         Bfn.  Coefficient  Atom+Function  
  ----- ------------  ---------------      ----- ------------  ---------------
    10      1.723509   1 C  s                13     -0.717963   1 C  pz        
    51     -0.526090   3 C  pz               70     -0.526090   4 C  pz        
    44     -0.423506   3 C  s                63     -0.423506   4 C  s         
    29     -0.389514   2 O  s                86     -0.389514   5 O  s         
   105     -0.312315   6 O  s               108      0.206870   6 O  pz        

 Vector   25  Occ=0.000000D+00  E=-9.305858D-03  Symmetry=a1
              MO Center= -5.9D-17,  5.6D-16, -7.7D-01, r^2= 7.7D+00
   Bfn.  Coefficient  Atom+Function         Bfn.  Coefficient  Atom+Function  
  ----- ------------  ---------------      ----- ------------  ---------------
    48      1.138461   3 C  s                67      1.138461   4 C  s         
    51      0.747771   3 C  pz               70      0.747771   4 C  pz        
    29     -0.666641   2 O  s                86     -0.666641   5 O  s         
    10     -0.647486   1 C  s                13      0.534616   1 C  pz        
    25     -0.429780   2 O  s                82     -0.429780   5 O  s         

 Vector   26  Occ=0.000000D+00  E= 1.244785D-02  Symmetry=b1
              MO Center= -1.1D-16,  1.1D-15, -9.7D-01, r^2= 8.3D+00
   Bfn.  Coefficient  Atom+Function         Bfn.  Coefficient  Atom+Function  
  ----- ------------  ---------------      ----- ------------  ---------------
    49      0.535078   3 C  px               68      0.535078   4 C  px        
     7      0.347671   1 C  px                3      0.309918   1 C  px        
    30     -0.233162   2 O  px               87     -0.233162   5 O  px        
    45     -0.227560   3 C  px               64     -0.227560   4 C  px        
    98     -0.220609   6 O  px              102     -0.209646   6 O  px        

 Vector   27  Occ=0.000000D+00  E= 1.744633D-02  Symmetry=b2
              MO Center= -2.1D-15,  1.2D-14, -2.1D+00, r^2= 1.2D+01
   Bfn.  Coefficient  Atom+Function         Bfn.  Coefficient  Atom+Function  
  ----- ------------  ---------------      ----- ------------  ---------------
    48      5.856042   3 C  s                67     -5.856042   4 C  s         
    50     -2.399098   3 C  py               69     -2.399098   4 C  py        
    51      0.745246   3 C  pz               70     -0.745246   4 C  pz        
    12     -0.497817   1 C  py               44      0.490576   3 C  s         
    63     -0.490576   4 C  s                31      0.279718   2 O  py        

 Vector   28  Occ=0.000000D+00  E= 3.180726D-02  Symmetry=b1
              MO Center=  5.8D-17, -2.8D-17,  2.3D-01, r^2= 5.3D+00
   Bfn.  Coefficient  Atom+Function         Bfn.  Coefficient  Atom+Function  
  ----- ------------  ---------------      ----- ------------  ---------------
     7      0.542597   1 C  px                3      0.536847   1 C  px        
    49     -0.352782   3 C  px               68     -0.352782   4 C  px        
    98     -0.288861   6 O  px              102     -0.269338   6 O  px        
    26     -0.223802   2 O  px               83     -0.223802   5 O  px        
   106     -0.212516   6 O  px               22     -0.206457   2 O  px        

 Vector   29  Occ=0.000000D+00  E= 5.585044D-02  Symmetry=a1
              MO Center=  5.8D-16,  5.5D-13, -1.6D+00, r^2= 1.2D+01
   Bfn.  Coefficient  Atom+Function         Bfn.  Coefficient  Atom+Function  
  ----- ------------  ---------------      ----- ------------  ---------------
    50      1.540326   3 C  py               69     -1.540326   4 C  py        
    10      0.825373   1 C  s                48     -0.758897   3 C  s         
    67     -0.758897   4 C  s                13     -0.656751   1 C  pz        
    29      0.618521   2 O  s                51     -0.617012   3 C  pz        
    70     -0.617012   4 C  pz               86      0.618521   5 O  s         

 Vector   30  Occ=0.000000D+00  E= 6.666990D-02  Symmetry=a2
              MO Center=  1.4D-16, -1.3D-15, -1.6D+00, r^2= 1.3D+01
   Bfn.  Coefficient  Atom+Function         Bfn.  Coefficient  Atom+Function  
  ----- ------------  ---------------      ----- ------------  ---------------
    49      2.093612   3 C  px               68     -2.093612   4 C  px        
    30     -0.259239   2 O  px               87      0.259239   5 O  px        
    41     -0.173372   3 C  px               60      0.173372   4 C  px        
    45     -0.171160   3 C  px               64      0.171160   4 C  px        

 Vector   31  Occ=0.000000D+00  E= 6.770449D-02  Symmetry=b2
              MO Center=  2.5D-15,  2.5D-12, -8.7D-01, r^2= 1.4D+01
   Bfn.  Coefficient  Atom+Function         Bfn.  Coefficient  Atom+Function  
  ----- ------------  ---------------      ----- ------------  ---------------
    48      3.207738   3 C  s                67     -3.207738   4 C  s         
    51     -1.872998   3 C  pz               70      1.872998   4 C  pz        
    50     -1.275234   3 C  py               69     -1.275234   4 C  py        
    29      0.882604   2 O  s                86     -0.882604   5 O  s         
    12     -0.710004   1 C  py               25      0.260128   2 O  s         

 Vector   32  Occ=0.000000D+00  E= 6.803068D-02  Symmetry=a1
              MO Center= -4.6D-16, -2.4D-12,  1.7D+00, r^2= 1.1D+01
   Bfn.  Coefficient  Atom+Function         Bfn.  Coefficient  Atom+Function  
  ----- ------------  ---------------      ----- ------------  ---------------
    10      2.260805   1 C  s               105     -1.837352   6 O  s         
    13      1.689127   1 C  pz               29      0.635147   2 O  s         
    86      0.635147   5 O  s                51     -0.463717   3 C  pz        
    70     -0.463717   4 C  pz               48     -0.423422   3 C  s         
    67     -0.423422   4 C  s                 6      0.404657   1 C  s         

 Vector   33  Occ=0.000000D+00  E= 8.061691D-02  Symmetry=b1
              MO Center= -2.6D-16, -9.7D-17,  7.6D-01, r^2= 1.1D+01
   Bfn.  Coefficient  Atom+Function         Bfn.  Coefficient  Atom+Function  
  ----- ------------  ---------------      ----- ------------  ---------------
    11      1.974209   1 C  px              106     -0.475632   6 O  px        
    49     -0.382748   3 C  px               68     -0.382748   4 C  px        
    45      0.231565   3 C  px               64      0.231565   4 C  px        
    30     -0.214921   2 O  px               87     -0.214921   5 O  px        
   116      0.212010   7 H  s               118     -0.212010   8 H  s         

 Vector   34  Occ=0.000000D+00  E= 1.045910D-01  Symmetry=b2
              MO Center= -1.6D-16,  1.9D-12,  6.0D-01, r^2= 1.3D+01
   Bfn.  Coefficient  Atom+Function         Bfn.  Coefficient  Atom+Function  
  ----- ------------  ---------------      ----- ------------  ---------------
    12      3.199060   1 C  py               48      3.214780   3 C  s         
    67     -3.214780   4 C  s                50     -2.108985   3 C  py        
    69     -2.108985   4 C  py               51     -1.972434   3 C  pz        
    70      1.972434   4 C  pz               46     -0.569834   3 C  py        
    65     -0.569834   4 C  py               32     -0.502542   2 O  pz        

 Vector   35  Occ=0.000000D+00  E= 1.048939D-01  Symmetry=a1
              MO Center= -2.0D-15, -1.8D-12, -1.4D+00, r^2= 8.4D+00
   Bfn.  Coefficient  Atom+Function         Bfn.  Coefficient  Atom+Function  
  ----- ------------  ---------------      ----- ------------  ---------------
    10      3.957476   1 C  s                48     -2.609774   3 C  s         
    67     -2.609774   4 C  s                51     -1.487538   3 C  pz        
    70     -1.487538   4 C  pz               13     -1.159639   1 C  pz        
    29      0.965963   2 O  s                86      0.965963   5 O  s         
    47      0.451833   3 C  pz               66      0.451833   4 C  pz        

 Vector   36  Occ=0.000000D+00  E= 1.205123D-01  Symmetry=a1
              MO Center= -6.3D-16,  4.9D-14,  8.2D-01, r^2= 1.3D+01
   Bfn.  Coefficient  Atom+Function         Bfn.  Coefficient  Atom+Function  
  ----- ------------  ---------------      ----- ------------  ---------------
    10     11.858756   1 C  s                13     -6.136434   1 C  pz        
    48     -5.838057   3 C  s                67     -5.838057   4 C  s         
    51     -2.339421   3 C  pz               70     -2.339421   4 C  pz        
   105      0.970668   6 O  s                29     -0.780034   2 O  s         
    86     -0.780034   5 O  s                32     -0.742813   2 O  pz        

 Vector   37  Occ=0.000000D+00  E= 1.219262D-01  Symmetry=b2
              MO Center=  1.5D-16, -9.9D-14, -1.3D+00, r^2= 1.4D+01
   Bfn.  Coefficient  Atom+Function         Bfn.  Coefficient  Atom+Function  
  ----- ------------  ---------------      ----- ------------  ---------------
    48     31.224716   3 C  s                67    -31.224716   4 C  s         
    50     -8.330769   3 C  py               69     -8.330769   4 C  py        
    51      3.330323   3 C  pz               70     -3.330323   4 C  pz        
    12     -2.274933   1 C  py               29     -2.110492   2 O  s         
    86      2.110492   5 O  s                32      0.730470   2 O  pz        

 Vector   38  Occ=0.000000D+00  E= 1.663626D-01  Symmetry=b2
              MO Center= -4.0D-17, -5.0D-13, -1.1D+00, r^2= 9.3D+00
   Bfn.  Coefficient  Atom+Function         Bfn.  Coefficient  Atom+Function  
  ----- ------------  ---------------      ----- ------------  ---------------
    48     11.137731   3 C  s                67    -11.137731   4 C  s         
    50     -4.404797   3 C  py               69     -4.404797   4 C  py        
    51     -1.987261   3 C  pz               70      1.987261   4 C  pz        
    12      1.528509   1 C  py               46      0.662894   3 C  py        
    65      0.662894   4 C  py               29     -0.634073   2 O  s         

 Vector   39  Occ=0.000000D+00  E= 1.664437D-01  Symmetry=b1
              MO Center= -1.1D-14, -6.2D-15, -1.3D+00, r^2= 7.9D+00
   Bfn.  Coefficient  Atom+Function         Bfn.  Coefficient  Atom+Function  
  ----- ------------  ---------------      ----- ------------  ---------------
   116      1.168687   7 H  s               118     -1.168687   8 H  s         
   120      1.168687   9 H  s               122     -1.168687  10 H  s         
    49      0.813589   3 C  px               68      0.813589   4 C  px        
    11     -0.773467   1 C  px               45      0.762515   3 C  px        
    64      0.762515   4 C  px               41      0.189552   3 C  px        

 Vector   40  Occ=0.000000D+00  E= 2.087199D-01  Symmetry=a1
              MO Center=  7.2D-16,  2.1D-13,  7.7D-01, r^2= 6.5D+00
   Bfn.  Coefficient  Atom+Function         Bfn.  Coefficient  Atom+Function  
  ----- ------------  ---------------      ----- ------------  ---------------
    10      3.861051   1 C  s                29     -2.554159   2 O  s         
    86     -2.554159   5 O  s                13     -1.561817   1 C  pz        
    44      1.038266   3 C  s                63      1.038266   4 C  s         
    31      0.806241   2 O  py               88     -0.806241   5 O  py        
    32      0.723504   2 O  pz               89      0.723504   5 O  pz        

 Vector   41  Occ=0.000000D+00  E= 2.123620D-01  Symmetry=a1
              MO Center=  2.8D-15,  4.8D-14, -2.1D-01, r^2= 9.7D+00
   Bfn.  Coefficient  Atom+Function         Bfn.  Coefficient  Atom+Function  
  ----- ------------  ---------------      ----- ------------  ---------------
    10      4.942283   1 C  s                48     -1.815327   3 C  s         
    67     -1.815327   4 C  s                13     -1.544080   1 C  pz        
    50      1.417376   3 C  py               69     -1.417376   4 C  py        
    31     -1.397304   2 O  py               88      1.397304   5 O  py        
   105     -1.351731   6 O  s                 6     -1.337879   1 C  s         

 Vector   42  Occ=0.000000D+00  E= 2.228376D-01  Symmetry=b2
              MO Center=  3.8D-16,  1.1D-14, -9.4D-01, r^2= 5.0D+00
   Bfn.  Coefficient  Atom+Function         Bfn.  Coefficient  Atom+Function  
  ----- ------------  ---------------      ----- ------------  ---------------
    48      8.047934   3 C  s                67     -8.047934   4 C  s         
    50     -2.743240   3 C  py               69     -2.743240   4 C  py        
    29     -1.765017   2 O  s                86      1.765017   5 O  s         
    44     -1.369278   3 C  s                63      1.369278   4 C  s         
    31      0.833901   2 O  py               46      0.830009   3 C  py        

 Vector   43  Occ=0.000000D+00  E= 2.322271D-01  Symmetry=a2
              MO Center= -2.8D-15,  4.4D-16, -1.3D-01, r^2= 7.8D+00
   Bfn.  Coefficient  Atom+Function         Bfn.  Coefficient  Atom+Function  
  ----- ------------  ---------------      ----- ------------  ---------------
    30      1.369410   2 O  px               87     -1.369410   5 O  px        
    49     -0.632365   3 C  px               68      0.632365   4 C  px        
   116      0.593448   7 H  s               118     -0.593448   8 H  s         
   120     -0.593448   9 H  s               122      0.593448  10 H  s         
    45      0.402450   3 C  px               64     -0.402450   4 C  px        

 Vector   44  Occ=0.000000D+00  E= 2.388984D-01  Symmetry=b1
              MO Center= -3.4D-15, -6.7D-16,  4.8D-01, r^2= 9.3D+00
   Bfn.  Coefficient  Atom+Function         Bfn.  Coefficient  Atom+Function  
  ----- ------------  ---------------      ----- ------------  ---------------
    30      1.549333   2 O  px               87      1.549333   5 O  px        
    11     -0.762232   1 C  px              106     -0.644002   6 O  px        
    49     -0.376201   3 C  px               68     -0.376201   4 C  px        
     7     -0.357204   1 C  px               45     -0.305155   3 C  px        
    64     -0.305155   4 C  px               26     -0.263793   2 O  px        

 Vector   45  Occ=0.000000D+00  E= 2.559956D-01  Symmetry=a1
              MO Center=  1.1D-14, -9.0D-13, -6.3D-01, r^2= 1.0D+01
   Bfn.  Coefficient  Atom+Function         Bfn.  Coefficient  Atom+Function  
  ----- ------------  ---------------      ----- ------------  ---------------
    10      3.869661   1 C  s                48     -3.554558   3 C  s         
    67     -3.554558   4 C  s                29      1.859471   2 O  s         
    86      1.859471   5 O  s                44     -1.562644   3 C  s         
    63     -1.562644   4 C  s                 6     -1.325493   1 C  s         
   116      1.307879   7 H  s               118      1.307879   8 H  s         

 Vector   46  Occ=0.000000D+00  E= 2.660267D-01  Symmetry=a2
              MO Center= -5.1D-16,  3.8D-15, -1.5D+00, r^2= 8.4D+00
   Bfn.  Coefficient  Atom+Function         Bfn.  Coefficient  Atom+Function  
  ----- ------------  ---------------      ----- ------------  ---------------
    49      2.168287   3 C  px               68     -2.168287   4 C  px        
   116      1.450121   7 H  s               118     -1.450121   8 H  s         
   120     -1.450121   9 H  s               122      1.450121  10 H  s         
    45      1.355059   3 C  px               64     -1.355059   4 C  px        
    30     -1.008855   2 O  px               87      1.008855   5 O  px        

 Vector   47  Occ=0.000000D+00  E= 2.722121D-01  Symmetry=b2
              MO Center=  1.5D-15,  2.3D-13,  1.8D-01, r^2= 1.1D+01
   Bfn.  Coefficient  Atom+Function         Bfn.  Coefficient  Atom+Function  
  ----- ------------  ---------------      ----- ------------  ---------------
    48     20.300008   3 C  s                67    -20.300008   4 C  s         
    50     -5.742999   3 C  py               69     -5.742999   4 C  py        
    29     -1.598895   2 O  s                86      1.598895   5 O  s         
    31      1.527470   2 O  py               44      1.531739   3 C  s         
    63     -1.531739   4 C  s                88      1.527470   5 O  py        

 Vector   48  Occ=0.000000D+00  E= 2.829798D-01  Symmetry=b2
              MO Center= -1.1D-16,  2.4D-13, -7.9D-02, r^2= 1.1D+01
   Bfn.  Coefficient  Atom+Function         Bfn.  Coefficient  Atom+Function  
  ----- ------------  ---------------      ----- ------------  ---------------
    48      8.575963   3 C  s                67     -8.575963   4 C  s         
    31     -2.634366   2 O  py               88     -2.634366   5 O  py        
    50     -1.480832   3 C  py               69     -1.480832   4 C  py        
    51      1.374049   3 C  pz               70     -1.374049   4 C  pz        
    12      1.292045   1 C  py              107     -1.079661   6 O  py        

 Vector   49  Occ=0.000000D+00  E= 2.902824D-01  Symmetry=a1
              MO Center= -6.4D-14,  8.0D-13,  1.0D+00, r^2= 9.7D+00
   Bfn.  Coefficient  Atom+Function         Bfn.  Coefficient  Atom+Function  
  ----- ------------  ---------------      ----- ------------  ---------------
    10      7.118028   1 C  s                48     -2.687027   3 C  s         
    67     -2.687027   4 C  s               105     -2.625262   6 O  s         
    32     -2.255908   2 O  pz               89     -2.255908   5 O  pz        
     6      1.484472   1 C  s                51     -1.158870   3 C  pz        
    70     -1.158870   4 C  pz               31      0.638440   2 O  py        

 Vector   50  Occ=0.000000D+00  E= 2.945344D-01  Symmetry=b1
              MO Center=  5.9D-14,  2.8D-17,  1.7D+00, r^2= 8.8D+00
   Bfn.  Coefficient  Atom+Function         Bfn.  Coefficient  Atom+Function  
  ----- ------------  ---------------      ----- ------------  ---------------
    11      2.690006   1 C  px              106     -2.229422   6 O  px        
    30     -0.829062   2 O  px               87     -0.829062   5 O  px        
   102      0.454264   6 O  px               49     -0.426608   3 C  px        
    68     -0.426608   4 C  px                7      0.336565   1 C  px        
   116     -0.267678   7 H  s               118      0.267678   8 H  s         

 Vector   51  Occ=0.000000D+00  E= 3.122136D-01  Symmetry=a1
              MO Center=  4.7D-15,  1.4D-12,  1.4D+00, r^2= 9.9D+00
   Bfn.  Coefficient  Atom+Function         Bfn.  Coefficient  Atom+Function  
  ----- ------------  ---------------      ----- ------------  ---------------
    10      8.655247   1 C  s                13     -5.674238   1 C  pz        
    48     -5.480652   3 C  s                67     -5.480652   4 C  s         
   108      3.291206   6 O  pz               29      2.606940   2 O  s         
    86      2.606940   5 O  s                51     -2.055978   3 C  pz        
    70     -2.055978   4 C  pz              105     -1.432833   6 O  s         

 Vector   52  Occ=0.000000D+00  E= 3.232467D-01  Symmetry=b2
              MO Center= -2.5D-16, -1.9D-12,  1.2D+00, r^2= 1.0D+01
   Bfn.  Coefficient  Atom+Function         Bfn.  Coefficient  Atom+Function  
  ----- ------------  ---------------      ----- ------------  ---------------
    48     15.978981   3 C  s                67    -15.978981   4 C  s         
    12     -4.234446   1 C  py               50     -3.093155   3 C  py        
    69     -3.093155   4 C  py               51      2.492626   3 C  pz        
    70     -2.492626   4 C  pz              107      2.169371   6 O  py        
     8     -1.171182   1 C  py              116     -0.967492   7 H  s         

 Vector   53  Occ=0.000000D+00  E= 3.577288D-01  Symmetry=a1
              MO Center=  2.8D-15,  5.5D-14,  1.2D+00, r^2= 8.9D+00
   Bfn.  Coefficient  Atom+Function         Bfn.  Coefficient  Atom+Function  
  ----- ------------  ---------------      ----- ------------  ---------------
    10     10.267244   1 C  s                13     -6.161241   1 C  pz        
    48     -4.866497   3 C  s                67     -4.866497   4 C  s         
   105      4.890646   6 O  s                29     -4.582917   2 O  s         
    86     -4.582917   5 O  s                 6      2.201907   1 C  s         
    31      1.703153   2 O  py               88     -1.703153   5 O  py        

 Vector   54  Occ=0.000000D+00  E= 3.668586D-01  Symmetry=b2
              MO Center=  8.7D-16, -1.0D-12, -3.9D-01, r^2= 8.4D+00
   Bfn.  Coefficient  Atom+Function         Bfn.  Coefficient  Atom+Function  
  ----- ------------  ---------------      ----- ------------  ---------------
    48     19.383672   3 C  s                67    -19.383672   4 C  s         
    29     -7.665983   2 O  s                86      7.665983   5 O  s         
    50     -4.190647   3 C  py               69     -4.190647   4 C  py        
    51      3.336890   3 C  pz               70     -3.336890   4 C  pz        
    32      2.420582   2 O  pz               89     -2.420582   5 O  pz        

 Vector   55  Occ=0.000000D+00  E= 3.747669D-01  Symmetry=b2
              MO Center= -6.7D-17, -1.9D-11,  1.4D-01, r^2= 9.4D+00
   Bfn.  Coefficient  Atom+Function         Bfn.  Coefficient  Atom+Function  
  ----- ------------  ---------------      ----- ------------  ---------------
    48     16.719989   3 C  s                67    -16.719989   4 C  s         
    50     -5.367685   3 C  py               69     -5.367685   4 C  py        
    29     -4.212505   2 O  s                86      4.212505   5 O  s         
    32     -2.419972   2 O  pz               89      2.419972   5 O  pz        
    31      1.922479   2 O  py               88      1.922479   5 O  py        

 Vector   56  Occ=0.000000D+00  E= 3.771997D-01  Symmetry=a1
              MO Center= -2.7D-15,  2.1D-11,  2.6D-01, r^2= 8.4D+00
   Bfn.  Coefficient  Atom+Function         Bfn.  Coefficient  Atom+Function  
  ----- ------------  ---------------      ----- ------------  ---------------
    10      7.839158   1 C  s               105     -5.373177   6 O  s         
    13     -3.492789   1 C  pz              108      2.974272   6 O  pz        
    48     -2.935173   3 C  s                67     -2.935173   4 C  s         
     6      2.608482   1 C  s                32      2.112008   2 O  pz        
    89      2.112008   5 O  pz               29     -1.210388   2 O  s         

 Vector   57  Occ=0.000000D+00  E= 4.077595D-01  Symmetry=b2
              MO Center= -2.2D-18, -2.7D-14,  7.1D-01, r^2= 3.1D+00
   Bfn.  Coefficient  Atom+Function         Bfn.  Coefficient  Atom+Function  
  ----- ------------  ---------------      ----- ------------  ---------------
    48      1.562777   3 C  s                67     -1.562777   4 C  s         
     8      1.448654   1 C  py               29     -1.197116   2 O  s         
    86      1.197116   5 O  s                12     -1.113140   1 C  py        
   107      1.039300   6 O  py               51      1.023226   3 C  pz        
    70     -1.023226   4 C  pz                4      0.719437   1 C  py        

 Vector   58  Occ=0.000000D+00  E= 4.869988D-01  Symmetry=a1
              MO Center= -1.3D-16,  1.8D-14,  7.7D-01, r^2= 3.4D+00
   Bfn.  Coefficient  Atom+Function         Bfn.  Coefficient  Atom+Function  
  ----- ------------  ---------------      ----- ------------  ---------------
   105      3.480183   6 O  s                 9     -2.956767   1 C  pz        
     6     -2.296099   1 C  s                10     -2.162798   1 C  s         
   101      1.641047   6 O  s                29     -1.403810   2 O  s         
    86     -1.403810   5 O  s               104     -1.254569   6 O  pz        
    48      1.107131   3 C  s                67      1.107131   4 C  s         

 Vector   59  Occ=0.000000D+00  E= 6.008863D-01  Symmetry=b2
              MO Center= -2.9D-16, -3.4D-14, -1.6D+00, r^2= 4.4D+00
   Bfn.  Coefficient  Atom+Function         Bfn.  Coefficient  Atom+Function  
  ----- ------------  ---------------      ----- ------------  ---------------
    48      6.871656   3 C  s                67     -6.871656   4 C  s         
    29     -2.212214   2 O  s                86      2.212214   5 O  s         
    47      2.128849   3 C  pz               66     -2.128849   4 C  pz        
    44      2.039118   3 C  s                63     -2.039118   4 C  s         
    50     -1.681202   3 C  py               69     -1.681202   4 C  py        


 center of mass
 --------------
 x =  -0.00000000 y =   0.00000000 z =   0.15331368

 moments of inertia (a.u.)
 ------------------
         675.720104587246          -0.000000000000          -0.000000000000
          -0.000000000000         473.851068210447           0.000000000000
          -0.000000000000           0.000000000000         224.991505167787

     Multipole analysis of the density
     ---------------------------------

     L   x y z        total         alpha         beta         nuclear
     -   - - -        -----         -----         ----         -------
     0   0 0 0     -0.000000    -23.000000    -23.000000     46.000000

     1   1 0 0      0.000000      0.000000      0.000000     -0.000000
     1   0 1 0      0.000000      0.000000      0.000000      0.000000
     1   0 0 1     -2.462454     -1.231227     -1.231227      0.000000

     2   2 0 0    -24.039276    -17.755373    -17.755373     11.471470
     2   1 1 0     -0.000000     -0.000000     -0.000000      0.000000
     2   1 0 1      0.000000      0.000000      0.000000      0.000000
     2   0 2 0    -27.474224    -71.815530    -71.815530    116.156836
     2   0 1 1      0.000000      0.000000      0.000000      0.000000
     2   0 0 2    -27.485836   -141.358838   -141.358838    255.231841


------------------------------------------------------------
EAF file 0: "./H4C3O3.aoints.0" size=1048576 bytes
------------------------------------------------------------
               write      read    awrite     aread      wait
               -----      ----    ------     -----      ----
     calls:       47        12         0        49        49
   data(b): 2.46e+07  6.29e+06  0.00e+00  2.57e+07
   time(s): 0.00e+00  0.00e+00  0.00e+00  0.00e+00  0.00e+00
rate(mb/s): 0.00e+00  0.00e+00
------------------------------------------------------------


 Parallel integral file used     175 records with       0 large values



                            NWChem DFT Gradient Module
                            --------------------------


                                H4C3O3 dft optimize



  charge          =   0.00
  wavefunction    = closed shell

  Using symmetry


                         DFT ENERGY GRADIENTS

    atom               coordinates                        gradient
                 x          y          z           x          y          z
   1 C       0.000000   0.000000   1.570551    0.000000   0.000000  -0.052129
   2 O       0.000000   2.117438   0.191429    0.000000  -0.005648   0.029175
   3 C       0.000000   1.455845  -2.482155    0.000000   0.004508  -0.005371
   4 C       0.000000  -1.455845  -2.482155    0.000000  -0.004508  -0.005371
   5 O       0.000000  -2.117438   0.191429    0.000000   0.005648   0.029175
   6 O       0.000000   0.000000   3.865246    0.000000   0.000000   0.017666
   7 H      -1.693478   2.178665  -3.405570    0.000520  -0.006658  -0.003286
   8 H       1.693478   2.178665  -3.405570   -0.000520  -0.006658  -0.003286
   9 H      -1.693478  -2.178665  -3.405570    0.000520   0.006658  -0.003286
  10 H       1.693478  -2.178665  -3.405570   -0.000520   0.006658  -0.003286

                 ----------------------------------------
                 |  Time  |  1-e(secs)   |  2-e(secs)   |
                 ----------------------------------------
                 |  CPU   |       0.01   |       3.64   |
                 ----------------------------------------
                 |  WALL  |       0.01   |       3.65   |
                 ----------------------------------------

@ Step       Energy      Delta E   Gmax     Grms     Xrms     Xmax   Walltime
@ ---- ---------------- -------- -------- -------- -------- -------- --------
@    0    -342.40881385  0.0D+00  0.01767  0.00529  0.00000  0.00000     11.7
                                                                    



                                Z-matrix (autoz)
                                -------- 

 Units are Angstrom for bonds and degrees for angles

      Type          Name      I     J     K     L     M      Value     Gradient
      ----------- --------  ----- ----- ----- ----- ----- ---------- ----------
    1 Stretch                  1     2                       1.33721   -0.01273
    2 Stretch                  1     5                       1.33721   -0.01273
    3 Stretch                  1     6                       1.21430    0.01767
    4 Stretch                  2     3                       1.45747    0.01119
    5 Stretch                  3     4                       1.54080   -0.01049
    6 Stretch                  3     7                       1.09003   -0.00129
    7 Stretch                  3     8                       1.09003   -0.00129
    8 Stretch                  4     5                       1.45747    0.01119
    9 Stretch                  4     9                       1.09003   -0.00129
   10 Stretch                  4    10                       1.09003   -0.00129
   11 Bend                     1     2     3               109.17791   -0.00170
   12 Bend                     1     5     4               109.17791   -0.00170
   13 Bend                     2     1     5               113.84629    0.00981
   14 Bend                     2     1     6               123.07686   -0.00490
   15 Bend                     2     3     4               103.89895   -0.00320
   16 Bend                     2     3     7               110.54070    0.00324
   17 Bend                     2     3     8               110.54070    0.00324
   18 Bend                     3     4     5               103.89895   -0.00320
   19 Bend                     3     4     9               110.54281   -0.00235
   20 Bend                     3     4    10               110.54281   -0.00235
   21 Bend                     4     3     7               110.54281   -0.00235
   22 Bend                     4     3     8               110.54281   -0.00235
   23 Bend                     5     1     6               123.07686   -0.00490
   24 Bend                     5     4     9               110.54070    0.00324
   25 Bend                     5     4    10               110.54070    0.00324
   26 Bend                     7     3     8               110.59753    0.00118
   27 Bend                     9     4    10               110.59753    0.00118
   28 Torsion                  1     2     3     4           0.00000    0.00000
   29 Torsion                  1     2     3     7         118.60407   -0.00298
   30 Torsion                  1     2     3     8        -118.60407    0.00298
   31 Torsion                  1     5     4     3           0.00000    0.00000
   32 Torsion                  1     5     4     9        -118.60407    0.00298
   33 Torsion                  1     5     4    10         118.60407   -0.00298
   34 Torsion                  2     1     5     4           0.00000    0.00000
   35 Torsion                  2     3     4     5          -0.00000    0.00000
   36 Torsion                  2     3     4     9         118.60262    0.00087
   37 Torsion                  2     3     4    10        -118.60262   -0.00087
   38 Torsion                  3     2     1     5           0.00000    0.00000
   39 Torsion                  3     2     1     6         180.00000    0.00000
   40 Torsion                  4     5     1     6         180.00000   -0.00000
   41 Torsion                  5     4     3     7        -118.60262   -0.00087
   42 Torsion                  5     4     3     8         118.60262    0.00087
   43 Torsion                  7     3     4     9           0.00000    0.00000
   44 Torsion                  7     3     4    10         122.79476   -0.00173
   45 Torsion                  8     3     4     9        -122.79476    0.00173
   46 Torsion                  8     3     4    10          -0.00000    0.00000


                                 NWChem DFT Module
                                 -----------------


                                H4C3O3 dft optimize


  Caching 1-el integrals 

            General Information
            -------------------
          SCF calculation type: DFT
          Wavefunction type:  closed shell.
          No. of atoms     :    10
          No. of electrons :    46
           Alpha electrons :    23
            Beta electrons :    23
          Charge           :     0
          Spin multiplicity:     1
          Use of symmetry is: on ; symmetry adaption is: on 
          Maximum number of iterations:  30
          AO basis - number of functions:   122
                     number of shells:    56
          Convergence on energy requested: 1.00D-06
          Convergence on density requested: 1.00D-05
          Convergence on gradient requested: 5.00D-04

              XC Information
              --------------
                         B3LYP Method XC Potential
                     Hartree-Fock (Exact) Exchange  0.200          
                        Slater Exchange Functional  0.800 local    
                    Becke 1988 Exchange Functional  0.720 non-local
              Lee-Yang-Parr Correlation Functional  0.810          
                  VWN I RPA Correlation Functional  0.190 local    

             Grid Information
             ----------------
          Grid used for XC integration:  medium    
          Radial quadrature: Mura-Knowles        
          Angular quadrature: Lebedev. 
          Tag              B.-S. Rad. Rad. Pts. Rad. Cut. Ang. Pts.
          ---              ---------- --------- --------- ---------
          C                   0.70       49          11.0       434
          O                   0.60       49          12.0       434
          H                   0.35       45          12.0       434
          Grid pruning is: on 
          Number of quadrature shells:   241
          Spatial weights used:  Erf1

          Convergence Information
          -----------------------
          Convergence aids based upon iterative change in 
          total energy or number of iterations. 
          Levelshifting, if invoked, occurs when the 
          HOMO/LUMO gap drops below (HL_TOL): 1.00D-02
          DIIS, if invoked, will attempt to extrapolate 
          using up to (NFOCK): 10 stored Fock matrices.

                    Damping( 0%)  Levelshifting(0.5)       DIIS
                  --------------- ------------------- ---------------
          dE  on:    start            ASAP                start   
          dE off:    2 iters         30 iters            30 iters 


      Screening Tolerance Information
      -------------------------------
          Density screening/tol_rho: 1.00D-10
          AO Gaussian exp screening on grid/accAOfunc:  14
          CD Gaussian exp screening on grid/accCDfunc:  20
          XC Gaussian exp screening on grid/accXCfunc:  20
          Schwarz screening/accCoul: 1.00D-08


 Loading old vectors from job with title :

H4C3O3 dft optimize


      Symmetry analysis of molecular orbitals - initial
      -------------------------------------------------

  Numbering of irreducible representations: 

     1 a1          2 a2          3 b1          4 b2      

  Orbital symmetries:

     1 b2          2 a1          3 a1          4 a1          5 a1      
     6 b2          7 a1          8 b2          9 a1         10 a1      
    11 b2         12 a1         13 b1         14 a1         15 b2      
    16 b1         17 a2         18 a1         19 b2         20 a1      
    21 a2         22 b1         23 b2         24 a1         25 a1      
    26 b1         27 b2         28 b1         29 a1         30 a2      
    31 b2         32 a1         33 b1      

   Time after variat. SCF:     11.3
   Time prior to 1st pass:     11.3

 Integral file          = ./H4C3O3.aoints.0
 Record size in doubles =    65536    No. of integs per rec  =    43688
 Max. records in memory =       37    Max. records in file   = 23749999
 No. of bits per label  =        8    No. of bits per value  =       64


 #quartets = 5.042D+05 #integrals = 7.409D+06 #direct =  0.0% #cached =100.0%


File balance: exchanges=    10  moved=    46  time=   0.3


 Grid_pts file          = ./H4C3O3.gridpts.0
 Record size in doubles =  12289        No. of grid_pts per rec  =   3070
 Max. records in memory =      6        Max. recs in file   = 126656358

 Grid integrated density:      45.999944562911
 Requested integration accuracy:   0.10E-05

           Memory utilization after 1st SCF pass: 
           Heap Space remaining (MW):       10.58            10575131
          Stack Space remaining (MW):       13.11            13106329

   convergence    iter        energy       DeltaE   RMS-Dens  Diis-err    time
 ---------------- ----- ----------------- --------- --------- ---------  ------
 d= 0,ls=0.0,diis     1   -342.4105564226 -5.87D+02  1.29D-03  1.07D-02    13.1
 Grid integrated density:      45.999944571937
 Requested integration accuracy:   0.10E-05
 d= 0,ls=0.0,diis     2   -342.4122813424 -1.72D-03  4.56D-04  2.77D-03    13.4
 Grid integrated density:      45.999944856673
 Requested integration accuracy:   0.10E-05
 d= 0,ls=0.0,diis     3   -342.4121436779  1.38D-04  3.28D-04  4.12D-03    13.8
 Grid integrated density:      45.999944666354
 Requested integration accuracy:   0.10E-05
 d= 0,ls=0.0,diis     4   -342.4125195907 -3.76D-04  5.67D-05  7.80D-05    14.1
 Grid integrated density:      45.999944702926
 Requested integration accuracy:   0.10E-05
 d= 0,ls=0.0,diis     5   -342.4125273842 -7.79D-06  1.09D-05  4.66D-06    14.5
 Grid integrated density:      45.999944693924
 Requested integration accuracy:   0.10E-05
  Resetting Diis
 d= 0,ls=0.0,diis     6   -342.4125278352 -4.51D-07  2.40D-06  1.77D-07    14.9
 Grid integrated density:      45.999944697634
 Requested integration accuracy:   0.10E-05
 d= 0,ls=0.0,diis     7   -342.4125278488 -1.36D-08  2.11D-06  3.19D-08    15.3


         Total DFT energy =     -342.412527848767
      One electron energy =     -951.962534427319
           Coulomb energy =      408.156241596220
    Exchange-Corr. energy =      -43.500076633436
 Nuclear repulsion energy =      244.893841615768

 Numeric. integr. density =       45.999944697634

     Total iterative time =      4.0s



                  Occupations of the irreducible representations
                  ----------------------------------------------

                     irrep           alpha         beta
                     --------     --------     --------
                     a1               11.0         11.0
                     a2                2.0          2.0
                     b1                3.0          3.0
                     b2                7.0          7.0


                       DFT Final Molecular Orbital Analysis
                       ------------------------------------

 Vector    6  Occ=2.000000D+00  E=-1.028567D+01  Symmetry=b2
              MO Center= -2.6D-18, -5.4D-12, -1.3D+00, r^2= 6.3D-01
   Bfn.  Coefficient  Atom+Function         Bfn.  Coefficient  Atom+Function  
  ----- ------------  ---------------      ----- ------------  ---------------
    39      0.702408   3 C  s                58     -0.702408   4 C  s         

 Vector    7  Occ=2.000000D+00  E=-1.172686D+00  Symmetry=a1
              MO Center= -1.1D-19, -1.1D-16,  2.3D-01, r^2= 1.4D+00
   Bfn.  Coefficient  Atom+Function         Bfn.  Coefficient  Atom+Function  
  ----- ------------  ---------------      ----- ------------  ---------------
    25      0.270205   2 O  s                82      0.270205   5 O  s         
    21      0.267103   2 O  s                78      0.267103   5 O  s         
     2      0.226525   1 C  s         

 Vector    8  Occ=2.000000D+00  E=-1.063688D+00  Symmetry=b2
              MO Center= -6.2D-18, -9.7D-15,  3.4D-03, r^2= 1.5D+00
   Bfn.  Coefficient  Atom+Function         Bfn.  Coefficient  Atom+Function  
  ----- ------------  ---------------      ----- ------------  ---------------
    25      0.370229   2 O  s                82     -0.370229   5 O  s         
    21      0.333475   2 O  s                78     -0.333475   5 O  s         
     4      0.163537   1 C  py               20     -0.152941   2 O  s         
    77      0.152941   5 O  s         

 Vector    9  Occ=2.000000D+00  E=-1.051679D+00  Symmetry=a1
              MO Center= -2.1D-17,  8.2D-15,  1.4D+00, r^2= 1.2D+00
   Bfn.  Coefficient  Atom+Function         Bfn.  Coefficient  Atom+Function  
  ----- ------------  ---------------      ----- ------------  ---------------
   101      0.407344   6 O  s                97      0.398472   6 O  s         
     5      0.253565   1 C  pz               96     -0.186386   6 O  s         
     2      0.159761   1 C  s               100     -0.159825   6 O  pz        

 Vector   10  Occ=2.000000D+00  E=-8.015664D-01  Symmetry=a1
              MO Center= -6.0D-18, -1.1D-16, -9.7D-01, r^2= 2.1D+00
   Bfn.  Coefficient  Atom+Function         Bfn.  Coefficient  Atom+Function  
  ----- ------------  ---------------      ----- ------------  ---------------
    40      0.266724   3 C  s                59      0.266724   4 C  s         
    44      0.237540   3 C  s                63      0.237540   4 C  s         

 Vector   11  Occ=2.000000D+00  E=-6.980271D-01  Symmetry=b2
              MO Center=  1.2D-15, -3.9D-16, -6.6D-01, r^2= 2.6D+00
   Bfn.  Coefficient  Atom+Function         Bfn.  Coefficient  Atom+Function  
  ----- ------------  ---------------      ----- ------------  ---------------
     4      0.235510   1 C  py               44     -0.232144   3 C  s         
    63      0.232144   4 C  s                24      0.229473   2 O  pz        
    81     -0.229473   5 O  pz               40     -0.220806   3 C  s         
    59      0.220806   4 C  s                48     -0.153979   3 C  s         
    67      0.153979   4 C  s         

 Vector   12  Occ=2.000000D+00  E=-6.246551D-01  Symmetry=a1
              MO Center= -1.0D-16,  1.1D-16, -2.7D-01, r^2= 2.3D+00
   Bfn.  Coefficient  Atom+Function         Bfn.  Coefficient  Atom+Function  
  ----- ------------  ---------------      ----- ------------  ---------------
     2      0.231087   1 C  s                25     -0.214498   2 O  s         
    82     -0.214498   5 O  s                23     -0.212817   2 O  py        
    80      0.212817   5 O  py                6      0.209788   1 C  s         
    24      0.186862   2 O  pz               81      0.186862   5 O  pz        
     5     -0.155706   1 C  pz               42     -0.150710   3 C  py        

 Vector   13  Occ=2.000000D+00  E=-5.545979D-01  Symmetry=b1
              MO Center= -1.0D-14, -3.7D-15, -7.5D-01, r^2= 2.6D+00
   Bfn.  Coefficient  Atom+Function         Bfn.  Coefficient  Atom+Function  
  ----- ------------  ---------------      ----- ------------  ---------------
    41      0.261738   3 C  px               60      0.261738   4 C  px        
    22      0.220022   2 O  px               79      0.220022   5 O  px        
     3      0.181508   1 C  px        

 Vector   14  Occ=2.000000D+00  E=-5.323817D-01  Symmetry=a1
              MO Center=  9.8D-15, -2.7D-14, -4.0D-01, r^2= 3.2D+00
   Bfn.  Coefficient  Atom+Function         Bfn.  Coefficient  Atom+Function  
  ----- ------------  ---------------      ----- ------------  ---------------
   101      0.253591   6 O  s                43      0.212171   3 C  pz        
    62      0.212171   4 C  pz               24     -0.190174   2 O  pz        
    81     -0.190174   5 O  pz               23     -0.177586   2 O  py        
[...]
   105     -0.175375   6 O  s                29      0.170903   2 O  s         
    86      0.170903   5 O  s                27      0.169901   2 O  py        
    84     -0.169901   5 O  py               25      0.161075   2 O  s         
    82      0.161075   5 O  s         

 Vector   14  Occ=1.000000D+00  E=-3.996682D-01  Symmetry=b1
              MO Center=  9.3D-16, -1.4D-17,  1.0D+00, r^2= 1.9D+00
   Bfn.  Coefficient  Atom+Function         Bfn.  Coefficient  Atom+Function  
  ----- ------------  ---------------      ----- ------------  ---------------
   102      0.273944   6 O  px                7      0.249227   1 C  px        
   106      0.211305   6 O  px               98      0.185797   6 O  px        
     3      0.161456   1 C  px        

 Vector   15  Occ=1.000000D+00  E=-3.207679D-01  Symmetry=b2
              MO Center=  1.8D-15, -1.0D-12, -8.1D-01, r^2= 3.6D+00
   Bfn.  Coefficient  Atom+Function         Bfn.  Coefficient  Atom+Function  
  ----- ------------  ---------------      ----- ------------  ---------------
    44      0.202136   3 C  s                63     -0.202136   4 C  s         
     8      0.162409   1 C  py               29     -0.162822   2 O  s         
    86      0.162822   5 O  s                48      0.155420   3 C  s         
    67     -0.155420   4 C  s         

 Vector   16  Occ=1.000000D+00  E=-3.201406D-01  Symmetry=a1
              MO Center= -4.1D-18,  1.0D-12, -5.5D-01, r^2= 2.9D+00
   Bfn.  Coefficient  Atom+Function         Bfn.  Coefficient  Atom+Function  
  ----- ------------  ---------------      ----- ------------  ---------------
    28      0.187109   2 O  pz               85      0.187109   5 O  pz        
    47     -0.173227   3 C  pz               66     -0.173227   4 C  pz        

 Vector   17  Occ=1.000000D+00  E=-3.048825D-01  Symmetry=b1
              MO Center= -1.1D-16, -5.6D-17, -1.5D-01, r^2= 3.8D+00
   Bfn.  Coefficient  Atom+Function         Bfn.  Coefficient  Atom+Function  
  ----- ------------  ---------------      ----- ------------  ---------------
   102      0.245472   6 O  px              106      0.223239   6 O  px        
    45     -0.171295   3 C  px               64     -0.171295   4 C  px        
    98      0.170367   6 O  px        

 Vector   18  Occ=1.000000D+00  E=-2.530347D-01  Symmetry=a2
              MO Center= -1.3D-15, -3.3D-16, -5.1D-01, r^2= 2.5D+00
   Bfn.  Coefficient  Atom+Function         Bfn.  Coefficient  Atom+Function  
  ----- ------------  ---------------      ----- ------------  ---------------
    26      0.245102   2 O  px               83     -0.245102   5 O  px        
    30      0.225976   2 O  px               87     -0.225976   5 O  px        
    22      0.167977   2 O  px               79     -0.167977   5 O  px        

 Vector   19  Occ=1.000000D+00  E=-2.324888D-01  Symmetry=b2
              MO Center=  8.9D-17, -1.1D-16,  2.2D-02, r^2= 2.3D+00
   Bfn.  Coefficient  Atom+Function         Bfn.  Coefficient  Atom+Function  
  ----- ------------  ---------------      ----- ------------  ---------------
    27      0.275076   2 O  py               84      0.275076   5 O  py        
    31      0.256969   2 O  py               88      0.256969   5 O  py        
    23      0.190837   2 O  py               80      0.190837   5 O  py        

 Vector   20  Occ=1.000000D+00  E=-1.948519D-01  Symmetry=b1
              MO Center=  2.4D-14, -8.0D-16, -2.7D-01, r^2= 3.5D+00
   Bfn.  Coefficient  Atom+Function         Bfn.  Coefficient  Atom+Function  
  ----- ------------  ---------------      ----- ------------  ---------------
   106      0.219739   6 O  px              102      0.198867   6 O  px        
    26     -0.192780   2 O  px               83     -0.192780   5 O  px        
    30     -0.185264   2 O  px               87     -0.185264   5 O  px        
    45      0.152331   3 C  px               64      0.152331   4 C  px        

 Vector   21  Occ=1.000000D+00  E=-1.818021D-01  Symmetry=a1
              MO Center= -2.4D-14,  6.3D-15, -1.1D+00, r^2= 2.1D+00
   Bfn.  Coefficient  Atom+Function         Bfn.  Coefficient  Atom+Function  
  ----- ------------  ---------------      ----- ------------  ---------------
    46      0.269413   3 C  py               65     -0.269413   4 C  py        
    42      0.178716   3 C  py               50      0.179529   3 C  py        
    61     -0.178716   4 C  py               69     -0.179529   4 C  py        

 Vector   22  Occ=1.000000D+00  E=-1.240136D-01  Symmetry=a2
              MO Center= -1.3D-15,  1.9D-15, -9.9D-01, r^2= 2.9D+00
   Bfn.  Coefficient  Atom+Function         Bfn.  Coefficient  Atom+Function  
  ----- ------------  ---------------      ----- ------------  ---------------
    30      0.233476   2 O  px               87     -0.233476   5 O  px        
    26      0.206363   2 O  px               83     -0.206363   5 O  px        
    45     -0.178145   3 C  px               64      0.178145   4 C  px        

 Vector   23  Occ=1.000000D+00  E= 1.758808D-01  Symmetry=a1
              MO Center=  2.7D-15,  4.7D-16, -1.4D+00, r^2= 5.9D+00
   Bfn.  Coefficient  Atom+Function         Bfn.  Coefficient  Atom+Function  
  ----- ------------  ---------------      ----- ------------  ---------------
    48      0.938706   3 C  s                67      0.938706   4 C  s         
   117     -0.737886   7 H  s               120     -0.737886   8 H  s         
   123     -0.737886   9 H  s               126     -0.737886  10 H  s         
    10     -0.693114   1 C  s                51     -0.490717   3 C  pz        
    70     -0.490717   4 C  pz              105      0.465430   6 O  s         

 Vector   24  Occ=0.000000D+00  E=-1.489422D-01  Symmetry=b2
              MO Center=  6.3D-16, -8.2D-16,  1.4D+00, r^2= 2.2D+00
   Bfn.  Coefficient  Atom+Function         Bfn.  Coefficient  Atom+Function  
  ----- ------------  ---------------      ----- ------------  ---------------
   107      0.383624   6 O  py              103      0.380698   6 O  py        
    99      0.262770   6 O  py        

 Vector   25  Occ=0.000000D+00  E= 1.293470D-01  Symmetry=b1
              MO Center=  6.0D-16, -6.9D-16,  7.7D-01, r^2= 1.8D+00
   Bfn.  Coefficient  Atom+Function         Bfn.  Coefficient  Atom+Function  
  ----- ------------  ---------------      ----- ------------  ---------------
    11      0.521907   1 C  px                7      0.473929   1 C  px        
   106     -0.342895   6 O  px                3      0.277286   1 C  px        
    30     -0.273059   2 O  px               87     -0.273059   5 O  px        
   102     -0.212722   6 O  px               26     -0.186684   2 O  px        
    83     -0.186684   5 O  px               98     -0.154573   6 O  px        

 Vector   26  Occ=0.000000D+00  E= 2.304868D-01  Symmetry=a1
              MO Center=  1.6D-14,  5.8D-14, -8.7D-01, r^2= 5.1D+00
   Bfn.  Coefficient  Atom+Function         Bfn.  Coefficient  Atom+Function  
  ----- ------------  ---------------      ----- ------------  ---------------
    10      1.155756   1 C  s                48      1.005126   3 C  s         
    67      1.005126   4 C  s               105     -0.802797   6 O  s         
    29     -0.658631   2 O  s                86     -0.658631   5 O  s         
    13      0.523563   1 C  pz              117     -0.404570   7 H  s         
   120     -0.404570   8 H  s               123     -0.404570   9 H  s         

 Vector   27  Occ=0.000000D+00  E= 2.459512D-01  Symmetry=b1
              MO Center= -1.3D-14, -1.0D-14, -1.9D+00, r^2= 6.1D+00
   Bfn.  Coefficient  Atom+Function         Bfn.  Coefficient  Atom+Function  
  ----- ------------  ---------------      ----- ------------  ---------------
   117      1.098479   7 H  s               120     -1.098479   8 H  s         
   123      1.098479   9 H  s               126     -1.098479  10 H  s         
    49      0.680704   3 C  px               68      0.680704   4 C  px        

 Vector   28  Occ=0.000000D+00  E= 2.521708D-01  Symmetry=b2
              MO Center= -3.9D-14, -6.1D-14, -2.0D+00, r^2= 7.0D+00
   Bfn.  Coefficient  Atom+Function         Bfn.  Coefficient  Atom+Function  
  ----- ------------  ---------------      ----- ------------  ---------------
    48      1.764406   3 C  s                67     -1.764406   4 C  s         
   117     -1.054403   7 H  s               120     -1.054403   8 H  s         
   123      1.054403   9 H  s               126      1.054403  10 H  s         
    51     -0.321476   3 C  pz               70      0.321476   4 C  pz        

 Vector   29  Occ=0.000000D+00  E= 3.112175D-01  Symmetry=a2
              MO Center=  3.7D-14,  8.8D-15, -2.0D+00, r^2= 7.2D+00
   Bfn.  Coefficient  Atom+Function         Bfn.  Coefficient  Atom+Function  
  ----- ------------  ---------------      ----- ------------  ---------------
   117      1.540584   7 H  s               120     -1.540584   8 H  s         
   123     -1.540584   9 H  s               126      1.540584  10 H  s         
    49      1.087073   3 C  px               68     -1.087073   4 C  px        

 Vector   30  Occ=0.000000D+00  E= 3.142782D-01  Symmetry=a1
              MO Center= -9.3D-16, -2.8D-15, -5.7D-02, r^2= 3.3D+00
   Bfn.  Coefficient  Atom+Function         Bfn.  Coefficient  Atom+Function  
  ----- ------------  ---------------      ----- ------------  ---------------
    10      2.337465   1 C  s               105     -0.866900   6 O  s         
    32     -0.582151   2 O  pz               89     -0.582151   5 O  pz        
    51     -0.449283   3 C  pz               70     -0.449283   4 C  pz        
   108      0.418423   6 O  pz               48     -0.326416   3 C  s         
    67     -0.326416   4 C  s                31      0.300357   2 O  py        

 Vector   31  Occ=0.000000D+00  E= 3.245490D-01  Symmetry=b2
              MO Center=  6.1D-16,  5.9D-15, -5.5D-01, r^2= 3.9D+00
   Bfn.  Coefficient  Atom+Function         Bfn.  Coefficient  Atom+Function  
  ----- ------------  ---------------      ----- ------------  ---------------
    50     -0.878739   3 C  py               69     -0.878739   4 C  py        
    29      0.865498   2 O  s                86     -0.865498   5 O  s         
    51     -0.613701   3 C  pz               70      0.613701   4 C  pz        
    12     -0.570296   1 C  py               48      0.429600   3 C  s         
    67     -0.429600   4 C  s                 8     -0.356336   1 C  py        

 Vector   32  Occ=0.000000D+00  E= 4.097250D-01  Symmetry=b2
              MO Center= -1.5D-16, -4.9D-15, -7.7D-01, r^2= 4.1D+00
   Bfn.  Coefficient  Atom+Function         Bfn.  Coefficient  Atom+Function  
  ----- ------------  ---------------      ----- ------------  ---------------
    48      1.890703   3 C  s                67     -1.890703   4 C  s         
    50     -1.785939   3 C  py               69     -1.785939   4 C  py        
    12      0.963263   1 C  py               29     -0.952206   2 O  s         
    86      0.952206   5 O  s                51      0.827540   3 C  pz        
    70     -0.827540   4 C  pz              117      0.379590   7 H  s         

 Vector   33  Occ=0.000000D+00  E= 4.152732D-01  Symmetry=a1
              MO Center= -3.6D-15, -3.4D-15,  8.5D-01, r^2= 3.8D+00
   Bfn.  Coefficient  Atom+Function         Bfn.  Coefficient  Atom+Function  
  ----- ------------  ---------------      ----- ------------  ---------------
    13      2.508500   1 C  pz              105     -2.005952   6 O  s         
    29      0.786182   2 O  s                86      0.786182   5 O  s         
    10      0.723325   1 C  s               108      0.673283   6 O  pz        
    31     -0.443259   2 O  py               88      0.443259   5 O  py        
     6     -0.434143   1 C  s                50     -0.395272   3 C  py        

 Vector   34  Occ=0.000000D+00  E= 4.622169D-01  Symmetry=b1
              MO Center= -5.9D-15,  1.0D-15, -4.7D-01, r^2= 4.0D+00
   Bfn.  Coefficient  Atom+Function         Bfn.  Coefficient  Atom+Function  
  ----- ------------  ---------------      ----- ------------  ---------------
    11      0.867123   1 C  px              116      0.556443   7 H  s         
   119     -0.556443   8 H  s               122      0.556443   9 H  s         
   125     -0.556443  10 H  s                49      0.486138   3 C  px        
    68      0.486138   4 C  px                7     -0.472732   1 C  px        
    30     -0.251863   2 O  px               87     -0.251863   5 O  px        

 Vector   35  Occ=0.000000D+00  E= 4.910092D-01  Symmetry=b2
              MO Center=  1.1D-15,  2.3D-15, -1.4D-01, r^2= 4.2D+00
   Bfn.  Coefficient  Atom+Function         Bfn.  Coefficient  Atom+Function  
  ----- ------------  ---------------      ----- ------------  ---------------
    12      1.604449   1 C  py               51     -1.262099   3 C  pz        
    70      1.262099   4 C  pz               32     -0.771052   2 O  pz        
    89      0.771052   5 O  pz               48     -0.547848   3 C  s         
    67      0.547848   4 C  s               107     -0.465112   6 O  py        
     8      0.387821   1 C  py               50     -0.293880   3 C  py        

 Vector   36  Occ=0.000000D+00  E= 5.077703D-01  Symmetry=a1
              MO Center=  6.8D-15,  2.6D-15, -1.3D+00, r^2= 4.4D+00
   Bfn.  Coefficient  Atom+Function         Bfn.  Coefficient  Atom+Function  
  ----- ------------  ---------------      ----- ------------  ---------------
    50      0.969119   3 C  py               69     -0.969119   4 C  py        
   116     -0.559790   7 H  s               119     -0.559790   8 H  s         
   122     -0.559790   9 H  s               125     -0.559790  10 H  s         
    10     -0.502889   1 C  s                13      0.492482   1 C  pz        
    51     -0.464005   3 C  pz               70     -0.464005   4 C  pz        


   alpha - beta orbital overlaps 
   ----------------------------- 


   alpha      1      2      3      4      5      6      7      8      9     10
    beta      1      2      3      4      5      6      7      8      9     10
 overlap   1.000  1.000  1.000  1.000  1.000  1.000  0.984  0.984  1.000  0.997


   alpha     11     12     13     14     15     16     17     18     19     20
    beta     11     12     13     14     15     16     17     24     18     19
 overlap   0.982  0.987  0.988  0.996  0.757  0.998  0.995  0.763  1.000  0.998


   alpha     21     22     23     24     25     26     27     28     29     30
    beta     20     21     22     23     25     26     27     28     30     31
 overlap   0.998  1.000  1.000  0.993  1.000  0.992  1.000  1.000  0.999  0.993


   alpha     31     32     33     34     35     36     37     38     39     40
    beta     29     32     33     34     35     36     37     38     39     40
 overlap   1.000  0.994  1.000  1.000  0.993  0.999  0.998  1.000  0.999  1.000


   alpha     41     42     43     44     45     46     47     48     49     50
    beta     41     42     43     44     45     46     47     48     49     50
 overlap   1.000  0.999  1.000  0.999  0.999  1.000  0.999  1.000  1.000  1.000


   alpha     51     52     53     54     55     56     57     58     59     60
    beta     51     52     53     55     54     56     57     58     59     60
 overlap   1.000  0.971  1.000  0.927  1.000  0.951  1.000  1.000  0.999  0.999


   alpha     61     62     63     64     65     66     67     68     69     70
    beta     61     62     64     63     65     66     67     68     69     70
 overlap   1.000  1.000  0.999  1.000  1.000  1.000  1.000  1.000  1.000  1.000


   alpha     71     72     73     74     75     76     77     78     79     80
    beta     71     72     73     74     75     76     77     78     79     80
 overlap   1.000  0.987  0.989  1.000  0.998  1.000  1.000  1.000  1.000  1.000


   alpha     81     82     83     84     85     86     87     88     89     90
    beta     81     82     84     85     83     86     87     88     89     90
 overlap   1.000  1.000  0.999  0.753  0.784  1.000  0.967  1.000  0.997  1.000


   alpha     91     92     93     94     95     96     97     98     99    100
    beta     91     92     93     94     95     96     97     98     99    100
 overlap   0.999  0.998  0.999  1.000  0.998  1.000  1.000  1.000  1.000  1.000


   alpha    101    102    103    104    105    106    107    108    109    110
    beta    101    102    103    104    105    106    107    108    109    110
 overlap   0.999  0.998  0.999  1.000  1.000  1.000  1.000  1.000  1.000  0.999


   alpha    111    112    113    114    115    116    117    118    119    120
    beta    111    112    113    114    115    116    117    118    119    120
 overlap   1.000  1.000  1.000  1.000  0.999  1.000  1.000  1.000  1.000  1.000


   alpha    121    122    123    124    125    126
    beta    121    122    123    124    125    126
 overlap   1.000  1.000  1.000  0.999  0.999  1.000

     --------------------------
     Expectation value of S2:  
     --------------------------
      <S2> =      0.7683 (Exact =     0.7500)


 center of mass
 --------------
 x =   0.00000000 y =  -0.00000000 z =   0.13147015

 moments of inertia (a.u.)
 ------------------
         678.685168794186           0.000000000000           0.000000000000
           0.000000000000         475.403357420403          -0.000000000000
           0.000000000000          -0.000000000000         226.213233371444

     Multipole analysis of the density
     ---------------------------------

     L   x y z        total         alpha         beta         nuclear
     -   - - -        -----         -----         ----         -------
     0   0 0 0     -1.000000    -24.000000    -23.000000     46.000000

     1   1 0 0     -0.000000     -0.000000     -0.000000      0.000000
     1   0 1 0      0.000000      0.000000      0.000000      0.000000
     1   0 0 1      3.289910      0.488222      3.698638     -0.896950

     2   2 0 0    -39.168936    -25.067450    -25.478174     11.376688
     2   1 1 0     -0.000000     -0.000000     -0.000000      0.000000
     2   1 0 1     -0.000000     -0.000000     -0.000000      0.000000
     2   0 2 0    -38.609198    -78.784656    -77.474972    117.650431
     2   0 1 1      0.000000     -0.000000      0.000000      0.000000
     2   0 0 2    -41.719005   -154.331984   -142.730562    255.343541


------------------------------------------------------------
EAF file 6: "./H4C3O3.aoints.0" size=16777216 bytes
------------------------------------------------------------
               write      read    awrite     aread      wait
               -----      ----    ------     -----      ----
     calls:       32         3         0        29        29
   data(b): 1.68e+07  1.57e+06  0.00e+00  1.52e+07
   time(s): 0.00e+00  0.00e+00  0.00e+00  0.00e+00  0.00e+00
rate(mb/s): 0.00e+00  0.00e+00
------------------------------------------------------------


 Parallel integral file used     150 records with       0 large values

 ------------------------------------------------------------------------
 dft energy failed                                                                       0
 ------------------------------------------------------------------------
 This type of error is most commonly associated with calculations not reaching convergence criteria
 ------------------------------------------------------------------------
 For more information see the NWChem manual at http://www.nwchem-sw.org/index.php/NWChem_Documentation


 For further details see manual section:                                                                                                                                                                                                                                                                
