
Running Job 1 of 1 mol.qcinp
qchem mol.qcinp_7905.0 /Users/xiaohuiqu/scratch/qchem7905/ 1
                  Welcome to Q-Chem
     A Quantum Leap Into The Future Of Chemistry

 Y. Shao, L. Fusti-Molnar, Y. Jung, J. Kussmann, C. Ochsenfeld, S. T. Brown, 
 A. T. B. Gilbert, L. V. Slipchenko, S. V. Levchenko, D. P. O'Neill, 
 R. A. DiStasio Jr., R. C. Lochan, T. Wang, G. J. O. Beran, N. A. Besley, 
 J. M. Herbert, C. Y. Lin, T. Van Voorhis, S. H. Chien, A. Sodt, R. P. Steele, 
 V. A. Rassolov, P. E. Maslen, P. P. Korambath, R. D. Adamson, B. Austin, 
 J. Baker, E. F. C. Byrd, H. Dachsel, R. J. Doerksen, A. Dreuw, B. D. Dunietz, 
 A. D. Dutoi, T. R. Furlani, S. R. Gwaltney, A. Heyden, S. Hirata, C.-P. Hsu, 
 G. Kedziora, R. Z. Khaliullin, P. Klunzinger, A. M. Lee, M. S. Lee, W. Liang, 
 I. Lotan, N. Nair, B. Peters, E. I. Proynov, P. A. Pieniazek, Y. M. Rhee, 
 J. Ritchie, E. Rosta, C. D. Sherrill, A. C. Simmonett, J. E. Subotnik, 
 H. L. Woodcock III, W. Zhang, A. T. Bell, A. K. Chakraborty, D. M. Chipman, 
 F. J. Keil, A. Warshel, W. J. Hehre, H. F. Schaefer III, J. Kong, 
 A. I. Krylov, P. M. W. Gill, M. Head-Gordon

 Additional authors for Version 3.1: 
 Z. Gan, Y. Zhao, N. E. Schultz, D. Truhlar, E. Epifanovsky, M. Oana

 Additional authors for Version 3.2: 
 R. Baer, B. R. Brooks, D. Casanova, J.-D. Chai, C.-L. Cheng, C. Cramer, 
 D. Crittenden, A. Ghysels, G. Hawkins, E. G. Hohenstein, C. Kelley, 
 W. Kurlancheek, D. Liotard, E. Livshits, P. Manohar, A. Marenich, 
 D. Neuhauser, R. Olson, M. A. Rohrdanz, K. S. Thanthiriwatte, A. J. W. Thom, 
 V. Vanovschi, C. F. Williams, Q. Wu, Z.-Q. You

 Additional authors for Version 4.0: 
 A. Aspuru-Guzik, Y. Bernard, C. Chang, J. Deng, A. Dreuw, M. Diedenhofen, 
 R. G. Edgar, D. Ghosh, W. A. Goddard III, M. Goldey, L. D. Jacobson, 
 M. Gordon, B. Kaduk, I. Kaliman, K. Khistyaev, R. King, A. Klamt, 
 D. Kosenkov, T. Kus, D. Lambrecht, A. Landau, A. W. Lange, K. Lawler, F. Liu, 
 J. Liu, R. Olivares-Amaya, S. P. Mao, J. Parkhill, N. Russ, M. Schmidt, 
 N. Shenvi, D. Small, Y. C. Su, E. Sundstrom, L. Vogt, O. Vydrov, M. Watson, 
 M. Wormit, X. Xu, S. Yeganeh, I. Y. Zhang, D. Zuev

 Additional authors for Version 4.1: 
 X. Feng, M. W. D. Hanson-Heine, P. Horn, H. Ji, A. Laurent, R. Peverati, 
 N. Mardirossian, N. Sergueev, S. Sharada, P. Zimmerman

 Q-Chem, Version 4.1, Q-Chem, Inc., Pittsburgh, PA (2013).

 Parts of Q-Chem use Armadillo 3.6.2 (Piazza del Duomo).
 http://arma.sourceforge.net/

 MAC (Intel) OSX Version 4.1.0.1 

 Q-chem begins on Tue Feb 18 15:55:29 2014  

Host: 
0

     Scratch files written to /Users/xiaohuiqu/scratch/qchem7905//
 Feb414 28838_zgan 4730   
Processing $rem in /Users/xiaohuiqu/program/qchem/config/preferences.
 MEM_TOTAL  2000 
Finally everything over in PARseQInput

--------------------------------------------------------------
User input:
--------------------------------------------------------------
$comment
CDI_15 singlet neutral B3LYP 6-31+G* geometry optimization
$end


$molecule
0  1
C          -2.11450000        4.12960000        0.59480000
C          -1.93420000        2.79590000        0.56900000
C          -0.72110000        2.32500000        0.92150000
C           0.28370000        3.17620000        1.22310000
C           0.07740000        4.51350000        1.20590000
C          -1.13600000        4.99860000        0.89020000
C           1.49760000        2.67530000        1.54020000
C           2.51060000        3.49930000        1.87490000
C           2.28450000        4.82410000        1.80440000
C           1.09000000        5.34980000        1.49370000
C           0.93870000        6.70480000        1.47700000
N          -0.34050000        7.15810000        1.21020000
C          -1.39850000        6.33640000        0.86600000
C          -0.52070000        0.99360000        0.96120000
C           0.69940000        0.49350000        1.25460000
C           1.71060000        1.34530000        1.53210000
C          -1.55560000        0.16730000        0.70990000
C          -1.30530000       -1.15490000        0.68800000
C          -0.10490000       -1.67990000        0.97630000
C           0.90650000       -0.84380000        1.26860000
C           2.12520000       -1.32830000        1.56410000
C           3.11030000       -0.45860000        1.83480000
C           2.94700000        0.87690000        1.79600000
C           0.05420000       -3.03400000        0.96300000
N           1.30580000       -3.49050000        1.33490000
C           2.38460000       -2.66640000        1.59980000
O          -2.47360000        6.80860000        0.56060000
C          -0.57530000        8.60970000        1.23380000
O           1.83970000        7.48820000        1.69180000
O          -0.82490000       -3.81500000        0.66470000
O           3.47760000       -3.13660000        1.83700000
C           1.51930000       -4.94440000        1.39220000
C          -2.96230000        1.97010000        0.25600000
C          -2.79520000        0.63430000        0.42500000
C           3.98440000        1.70380000        2.07360000
C           3.73670000        3.03080000        2.21080000
C          -4.13660000        2.50220000       -0.16970000
C           5.22380000        1.17890000        2.25170000
C          -3.82530000       -0.23950000        0.29030000
C           4.68760000        3.89590000        2.64690000
C           5.82770000        4.11490000        1.95300000
C           6.80490000        4.89290000        2.46900000
C           6.61440000        5.51450000        3.65230000
C           5.43310000        5.39130000        4.29360000
C           4.47420000        4.57520000        3.80220000
C           5.84170000        0.56720000        1.20850000
C           7.08350000        0.05270000        1.36200000
C           7.71770000        0.15550000        2.55020000
C           7.09950000        0.74880000        3.59270000
C           5.84380000        1.22530000        3.45240000
C          -4.17090000        3.17810000       -1.34700000
C          -5.33530000        3.70100000       -1.79580000
C          -6.46980000        3.54310000       -1.08000000
C          -6.43500000        2.88590000        0.09810000
C          -5.26580000        2.39980000        0.56720000
C          -4.47440000       -0.40450000       -0.88470000
C          -5.56780000       -1.19540000       -0.95820000
C          -5.97430000       -1.88280000        0.13040000
C          -5.26220000       -1.81110000        1.27490000
C          -4.19730000       -0.98330000        1.36270000
H          -3.11090000        4.54140000        0.38190000
H           3.11270000        5.52060000        1.99720000
H          -2.11150000       -1.84900000        0.41120000
H           4.08840000       -0.87240000        2.11700000
H           0.05790000        9.13580000        1.98170000
H          -0.37940000        9.04300000        0.22630000
H          -1.61020000        8.87330000        1.54440000
H           0.60800000       -5.50120000        1.70290000
H           1.84970000       -5.31970000        0.39670000
H           2.27180000       -5.23920000        2.15640000
C           3.20950000        4.37560000        4.63590000
H           2.53640000        5.25900000        4.55560000
H           3.45430000        4.20930000        5.70890000
H           2.60100000        3.48590000        4.37430000
C           5.18910000        0.47820000       -0.16980000
H           5.82380000        0.95710000       -0.94820000
H           4.21850000        1.00050000       -0.28650000
H           5.00370000       -0.58500000       -0.44600000
C          -3.50830000       -0.84700000        2.71950000
H          -2.86250000        0.04670000        2.83910000
H          -2.87010000       -1.73430000        2.93250000
H          -4.25100000       -0.73550000        3.54100000
C          -2.92680000        3.33210000       -2.21980000
H          -2.01680000        2.80290000       -1.87280000
H          -2.64430000        4.40580000       -2.31140000
H          -3.09040000        2.90520000       -3.23430000
C          -6.34230000       -1.35430000       -2.25850000
H          -5.87510000       -0.92130000       -3.16450000
H          -7.33080000       -0.84770000       -2.17530000
H          -6.49050000       -2.42970000       -2.50640000
C          -7.71670000        2.69730000        0.89580000
H          -7.70960000        1.79640000        1.54500000
H          -8.59880000        2.51500000        0.24390000
H          -7.91390000        3.58810000        1.53470000
C           7.82130000        0.87590000        4.92590000
H           8.90710000        1.08120000        4.80230000
H           7.69230000       -0.05100000        5.53000000
H           7.48290000        1.74020000        5.53560000
C           8.11580000        5.11090000        1.72760000
H           8.35110000        6.19590000        1.64290000
H           8.16020000        4.73390000        0.68720000
H           8.94320000        4.58670000        2.25810000
C          -5.66800000       -2.66590000        2.46650000
H          -4.81490000       -2.95930000        3.11430000
H          -6.08690000       -3.65100000        2.16700000
H          -6.41810000       -2.12900000        3.09100000
C          -7.22690000       -2.74430000        0.07600000
H          -6.95960000       -3.80330000       -0.14240000
H          -7.97180000       -2.41790000       -0.67910000
H          -7.80770000       -2.70050000        1.02350000
C          -3.92080000        0.19180000       -2.16570000
H          -2.91180000        0.63780000       -2.05530000
H          -4.61300000        0.94130000       -2.60840000
H          -3.73630000       -0.61200000       -2.91370000
C          -7.78260000        4.14440000       -1.56100000
H          -7.67200000        5.01100000       -2.24470000
H          -8.38270000        4.57060000       -0.72750000
H          -8.38690000        3.37120000       -2.08810000
C          -5.23010000        1.89050000        1.99750000
H          -4.20810000        1.85360000        2.42830000
H          -5.71610000        0.89750000        2.10310000
H          -5.75580000        2.60000000        2.67570000
C          -5.40700000        4.45390000       -3.11680000
H          -4.50680000        4.41070000       -3.75970000
H          -5.57880000        5.53850000       -2.92990000
H          -6.21930000        4.04790000       -3.76130000
C           7.71990000        6.35970000        4.26670000
H           8.74420000        6.06400000        3.95870000
H           7.76100000        6.25700000        5.37350000
H           7.57940000        7.43270000        4.00250000
C           5.98330000        3.59680000        0.53510000
H           6.81410000        2.86250000        0.44990000
H           6.17880000        4.44250000       -0.16230000
H           5.05650000        3.16000000        0.11120000
C           5.18900000        6.17460000        5.57510000
H           5.68700000        7.16830000        5.57380000
H           5.54310000        5.59390000        6.45730000
H           4.12370000        6.44460000        5.73490000
C           7.80570000       -0.62850000        0.20800000
H           8.82390000       -0.19970000        0.06880000
H           7.33680000       -0.53770000       -0.79080000
H           7.87890000       -1.72390000        0.39620000
C           9.10570000       -0.43780000        2.74440000
H           9.87990000        0.35420000        2.62540000
H           9.35770000       -1.26420000        2.04870000
H           9.22460000       -0.91720000        3.74080000
C           5.10300000        1.65710000        4.70590000
H           5.46040000        2.63590000        5.09000000
H           5.23760000        0.90470000        5.51550000
H           4.00080000        1.68510000        4.58040000
$end


$rem
jobtype = opt
exchange = pbe
basis = 6-31+g*
correlation = pbe
dft_d = empirical_grimme3
dft_d3_3body = False
dft_d3_rs6 = 1217
dft_d3_s6 = 1000
dft_d3_s8 = 722
geom_opt_max_cycles = 200
geom_opt_tol_displacement = 12000
geom_opt_tol_energy = 1000
geom_opt_tol_gradient = 300
max_scf_cycles = 100
mem_total = 1100
scf_algorithm = diis
thresh = 12
$end

--------------------------------------------------------------
 ----------------------------------------------------------------
             Standard Nuclear Orientation (Angstroms)
    I     Atom           X                Y                Z
 ----------------------------------------------------------------
    1      C      -2.3279319590    -2.6556461344     0.0556850003
    2      C      -2.3529931810    -1.3102160240     0.0891390434
    3      C      -1.1704101314    -0.6644482946     0.0433565075
    4      C      -0.0107879740    -1.3574466402     0.0308351228
    5      C      -0.0210543461    -2.7106350300     0.0324485887
    6      C      -1.1924934948    -3.3701405977     0.0429741357
    7      C       1.1592256044    -0.6822237387     0.0186412936
    8      C       2.3312493255    -1.3468012649    -0.0245582306
    9      C       2.2866489968    -2.6910169963     0.0232055422
   10      C       1.1403692029    -3.3878904771     0.0348337842
   11      C       1.1853538924    -4.7505821819     0.0504310693
   12      N      -0.0410645492    -5.3877313396    -0.0039244926
   13      C      -1.2582137256    -4.7320682688     0.0370919679
   14      C      -1.1591944981     0.6822611488     0.0186564187
   15      C       0.0108090713     1.3573667196     0.0309729166
   16      C       1.1704816759     0.6644741580     0.0433937906
   17      C      -2.3311879393     1.3467299058    -0.0244020842
   18      C      -2.2866742804     2.6910056876     0.0233859556
   19      C      -1.1403736499     3.3878296241     0.0349322062
   20      C       0.0210231291     2.7106407269     0.0326564089
   21      C       1.1924569597     3.3701295443     0.0430231976
   22      C       2.3279981830     2.6556652623     0.0558882695
   23      C       2.3530736766     1.3103064730     0.0892578353
   24      C      -1.1854331259     4.7504772641     0.0503452817
   25      N       0.0409785967     5.3877874254    -0.0040097080
   26      C       1.2581071184     4.7320135826     0.0369913742
   27      O      -2.2966279675    -5.3585895338     0.0724328320
   28      C      -0.0518040828    -6.8577523092    -0.0458001565
   29      O       2.2138524915    -5.3924435267     0.0935616353
   30      O      -2.2139732328     5.3923474850     0.0935722181
   31      O       2.2965054014     5.3585046263     0.0721887893
   32      C       0.0516836351     6.8577628769    -0.0458226738
   33      C      -3.5341708527    -0.6458460757     0.1074728865
   34      C      -3.5224033847     0.7016149884    -0.0508156394
   35      C       3.5342603323     0.6458609027     0.1075416683
   36      C       3.5223667170    -0.7016760373    -0.0509224195
   37      C      -4.6895901438    -1.3472183208     0.2355924617
   38      C       4.6897220329     1.3472003732     0.2355384868
   39      C      -4.6668260706     1.4148961659    -0.2067105331
   40      C       4.6667903329    -1.4149744949    -0.2067810980
   41      C       5.6110617818    -1.4724208920     0.7598302832
   42      C       6.7885738158    -2.0949549602     0.5309709732
   43      C       6.9975891626    -2.7262452911    -0.6440442621
   44      C       6.0141994992    -2.7700756522    -1.5675903028
   45      C       4.8550157000    -2.1069494647    -1.3589303905
   46      C       4.9265782174     2.0322324304     1.3839607821
   47      C       6.0795404502     2.7233956138     1.5366411141
   48      C       7.0041258029     2.7254035090     0.5518900726
   49      C       6.7641706718     2.0585243890    -0.5964461823
   50      C       5.5958502964     1.4030595167    -0.7664818604
   51      C      -4.9263321208    -2.0322104204     1.3839790037
   52      C      -6.0795014452    -2.7232627521     1.5366891674
   53      C      -7.0040807868    -2.7252377531     0.5520362130
   54      C      -6.7639801520    -2.0586653212    -0.5964738515
   55      C      -5.5957699932    -1.4031259255    -0.7665614337
   56      C      -5.6111891331     1.4723824046     0.7597544423
   57      C      -6.7886440103     2.0950281091     0.5309292711
   58      C      -6.9976881535     2.7264061221    -0.6440061828
   59      C      -6.0142275336     2.7700958844    -1.5675883198
   60      C      -4.8550908726     2.1069353320    -1.3587966222
   61      H      -3.2761144948    -3.2100720262     0.0199020541
   62      H       3.2274818848    -3.2577115006     0.0666813474
   63      H      -3.2275807550     3.2577188081     0.0667764513
   64      H       3.2760951375     3.2100737564     0.0199678519
   65      H       0.8199553472    -7.2789011012    -0.5932917557
   66      H      -0.0597857039    -7.2676091748     0.9901224243
   67      H      -0.9243102886    -7.2661279352    -0.6016217097
   68      H      -0.8200239256     7.2790031585    -0.5932813241
   69      H       0.0596510395     7.2675485168     0.9900570247
   70      H       0.9241959470     7.2662548335    -0.6017197119
   71      C       3.8300840833    -2.0854804830    -2.4918099975
   72      H       3.2923948165    -3.0581485782    -2.5604706774
   73      H       4.3143969123    -1.8750162330    -3.4716352948
   74      H       3.0541043012    -1.2963459071    -2.4183600229
   75      C       3.9378234966     2.0120659554     2.5482099245
   76      H       4.4144532579     1.6231473616     3.4753896579
   77      H       3.0546937285     1.3530006599     2.4290659405
   78      H       3.5378468095     3.0342679629     2.7384086247
   79      C      -3.8302526315     2.0853968782    -2.4916900878
   80      H      -3.0543006986     1.2963662407    -2.4182684232
   81      H      -3.2926015283     3.0581218425    -2.5602974133
   82      H      -4.3146479180     1.8749265437    -3.4714662024
   83      C      -3.9376099088    -2.0119403435     2.5481517407
   84      H      -3.0545951070    -1.3526507339     2.4290563567
   85      H      -3.5372190232    -3.0339401133     2.7384990791
   86      H      -4.4142356181    -1.6231676546     3.4754610471
   87      C      -7.8840407515     2.1270280121     1.5868466616
   88      H      -7.6067294835     1.7579194403     2.5935532538
   89      H      -8.7354797539     1.4828134983     1.2694552069
   90      H      -8.2429656517     3.1669845910     1.7587944447
   91      C      -7.8127868755    -2.0508986484    -1.6985601799
   92      H      -7.7691279543    -1.1523497685    -2.3495868068
   93      H      -8.8488201994    -2.0051671862    -1.2974979711
   94      H      -7.7106883093    -2.9547236886    -2.3414302054
   95      C       7.8130278417     2.0506330631    -1.6984481124
   96      H       8.8490693110     2.0043258835    -1.2973740432
   97      H       7.7113105594     2.9546671573    -2.3411746259
   98      H       7.7688628740     1.1521987896    -2.3496995629
   99      C       7.8838874707    -2.1270170555     1.5868671752
  100      H       8.2425257992    -3.1669974132     1.7588688757
  101      H       7.6066751617    -1.7575954737     2.5934522688
  102      H       8.7355018101    -1.4829272368     1.2695219808
  103      C      -6.2202541314     3.5681773063    -2.8466060386
  104      H      -5.2810770895     3.9888020474    -3.2643731042
  105      H      -6.8382736706     4.4789149589    -2.6910160409
  106      H      -6.7011568605     2.9338821410    -3.6259096242
  107      C      -8.3325937170     3.3959168122    -0.9337145577
  108      H      -8.2843421055     4.4803890967    -0.6842741920
  109      H      -9.1909924919     2.9573559980    -0.3838009868
  110      H      -8.6396916388     3.2771919742    -1.9960697758
  111      C      -5.3236657381     0.9506831987     2.1555222904
  112      H      -4.2668492327     0.6573253726     2.3175877699
  113      H      -5.9913362835     0.1042183200     2.4286296538
  114      H      -5.4533204294     1.7655407108     2.9030753562
  115      C      -8.2961516128    -3.5157545264     0.7003694247
  116      H      -8.2409874006    -4.3635762070     1.4136918745
  117      H      -8.5960917726    -4.0166968222    -0.2459822102
  118      H      -9.1192498166    -2.8438177700     1.0348264210
  119      C      -5.2692315515    -0.8803153857    -2.1545314822
  120      H      -4.1872663648    -0.6909610296    -2.3124254736
  121      H      -5.8490813881     0.0323717575    -2.4078548046
  122      H      -5.4971498108    -1.6521980843    -2.9239184764
  123      C      -6.3776851471    -3.4912560644     2.8166552029
  124      H      -5.6873023235    -3.3237207131     3.6656841500
  125      H      -6.3390021863    -4.5874621898     2.6226454887
  126      H      -7.3771015759    -3.2139884137     3.2220401948
  127      C       8.3325280214    -3.3956463475    -0.9335630333
  128      H       9.1909686927    -2.9570311602    -0.3838455500
  129      H       8.6398002119    -3.2774161238    -1.9960356942
  130      H       8.2842709239    -4.4801619518    -0.6838270794
  131      C       5.3235723428    -0.9508592467     2.1556822283
  132      H       5.9911227551    -0.1043437241     2.4285779721
  133      H       5.4534267372    -1.7657828993     2.9032334150
  134      H       4.2666047470    -0.6576586924     2.3178445737
  135      C       6.2201847188    -3.5681918281    -2.8466394063
  136      H       6.8382466346    -4.4788220476    -2.6910841056
  137      H       6.7009725451    -2.9336891564    -3.6258220329
  138      H       5.2810128741    -3.9887730920    -3.2642130844
  139      C       6.3778826150     3.4912948411     2.8167368173
  140      H       7.3772879391     3.2138905556     3.2219690725
  141      H       5.6874336129     3.3236301199     3.6657845231
  142      H       6.3391726236     4.5874474957     2.6227534821
  143      C       8.2959995370     3.5161885241     0.7001595737
  144      H       9.1192337903     2.8441580192     1.0340323109
  145      H       8.2410101461     4.3637290791     1.4136654423
  146      H       8.5955560320     4.0173502680    -0.2463483992
  147      C       5.2694419819     0.8801453159    -2.1544719471
  148      H       5.8493608492    -0.0324942468    -2.4076520137
  149      H       5.4972324936     1.6518762825    -2.9240288833
  150      H       4.1874889556     0.6908635579    -2.3123616390
 ----------------------------------------------------------------
 Molecular Point Group                 C1    NOp =  1
 Largest Abelian Subgroup              C1    NOp =  1
 Nuclear Repulsion Energy = 14343.1583339196 hartrees
 There are      280 alpha and      280 beta electrons
 Requested basis set is 6-31+G(d)
 There are 540 shells and 1660 basis functions

Total QAlloc Memory Limit   1100 MB
Mega-Array Size        61 MB
MEM_STATIC part        62 MB
 A cutoff of  1.0D-12 yielded  71147 shell pairs
 There are    774641 function pairs
 Smallest overlap matrix eigenvalue = 3.32E-12
 Linear dependence detected in AO basis
 Number of orthogonalized atomic orbitals = 1595
 Maximum deviation from orthogonality = 2.752E-10

  Scale SEOQF with 1.000000e-02/1.000000e-02/1.000000e-01

 Standard Electronic Orientation quadrupole field applied
 Nucleus-field energy     =    -0.0000000245 hartrees
 Guess from superposition of atomic densities
 Warning:  Energy on first SCF cycle will be non-variational
 A restricted Kohn-Sham SCF calculation will be
 performed using Pulay DIIS extrapolation
 Exchange:  PBE      Correlation:  PBE
 Using SG-1 standard quadrature grid
 SCF converges when DIIS error is below 1.0E-08
 Requested basis set is 6-31+G(d)
 There are 540 shells and 1660 basis functions
 A cutoff of  1.0D-12 yielded  82601 shell pairs
 There are    873710 function pairs
Available memory short by 9616056 bytes (1202007 double-precision words)

 Q-Chem fatal error occurred in module /scratch/svnadmin/28838_zgan/qchem/libmdc/qalloc.C, line 62:

 Unable to allocate requested memory in mega_alloc

