
Running Job 1 of 1 tfsi.inp
qchem tfsi.inp_8741.0 /Users/xiaohuiqu/scratch/qchem8741/ 1
                  Welcome to Q-Chem
     A Quantum Leap Into The Future Of Chemistry


 Q-Chem 4.2, Q-Chem, Inc., Pleasanton, CA (2014).

 Y. Shao,  Z. Gan,  E. Epifanovsky,  A. T. B. Gilbert,  M. Wormit,  
 J. Kussmann,  A. W. Lange,  A. Behn,  J. Deng,  X. Feng,  D. Ghosh,  
 M. Goldey,  P. R. Horn,  L. D. Jacobson,  I. Kaliman,  R. Z. Khaliullin,  
 T. Kus,  A. Landau,  J. Liu,  E. I. Proynov,  Y. M. Rhee,  R. M. Richard,  
 M. A. Rohrdanz,  R. P. Steele,  E. J. Sundstrom,  H. L. Woodcock III,  
 P. M. Zimmerman,  D. Zuev,  B. Albrecht,  E. Alguire,  B. Austin,  
 G. J. O. Beran,  Y. A. Bernard,  E. Berquist,  K. Brandhorst,  
 K. B. Bravaya,  S. T. Brown,  D. Casanova,  C.-M. Chang,  Y. Chen,  
 S. H. Chien,  K. D. Closser,  D. L. Crittenden,  M. Diedenhofen,  
 R. A. DiStasio Jr.,  H. Do,  A. D. Dutoi,  R. G. Edgar,  S. Fatehi,  
 L. Fusti-Molnar,  A. Ghysels,  A. Golubeva-Zadorozhnaya,  J. Gomes,  
 M. W. D. Hanson-Heine,  P. H. P. Harbach,  A. W. Hauser,  E. G. Hohenstein,  
 Z. C. Holden,  T.-C. Jagau,  H. Ji,  B. Kaduk,  K. Khistyaev,  Jaehoon Kim,  
 Jihan Kim,  R. A. King,  P. Klunzinger,  D. Kosenkov,  T. Kowalczyk,  
 C. M. Krauter,  K. U. Lao,  A. Laurent,  K. V. Lawler,  S. V. Levchenko,  
 C. Y. Lin,  F. Liu,  E. Livshits,  R. C. Lochan,  A. Luenser,  P. Manohar,  
 S. F. Manzer,  S.-P. Mao,  N. Mardirossian,  A. V. Marenich,  S. A. Maurer,  
 N. J. Mayhall,  C. M. Oana,  R. Olivares-Amaya,  D. P. O'Neill,  
 J. A. Parkhill,  T. M. Perrine,  R. Peverati,  P. A. Pieniazek,  A. Prociuk,  
 D. R. Rehn,  E. Rosta,  N. J. Russ,  N. Sergueev,  S. M. Sharada,  
 S. Sharma,  D. W. Small,  A. Sodt,  T. Stein,  D. Stuck,  Y.-C. Su,  
 A. J. W. Thom,  T. Tsuchimochi,  L. Vogt,  O. Vydrov,  T. Wang,  
 M. A. Watson,  J. Wenzel,  A. White,  C. F. Williams,  V. Vanovschi,  
 S. Yeganeh,  S. R. Yost,  Z.-Q. You,  I. Y. Zhang,  X. Zhang,  Y. Zhao,  
 B. R. Brooks,  G. K. L. Chan,  D. M. Chipman,  C. J. Cramer,  
 W. A. Goddard III,  M. S. Gordon,  W. J. Hehre,  A. Klamt,  
 H. F. Schaefer III,  M. W. Schmidt,  C. D. Sherrill,  D. G. Truhlar,  
 A. Warshel,  X. Xu,  A. Aspuru-Guzik,  R. Baer,  A. T. Bell,  N. A. Besley,  
 J.-D. Chai,  A. Dreuw,  B. D. Dunietz,  T. R. Furlani,  S. R. Gwaltney,  
 C.-P. Hsu,  Y. Jung,  J. Kong,  D. S. Lambrecht,  W. Liang,  C. Ochsenfeld,  
 V. A. Rassolov,  L. V. Slipchenko,  J. E. Subotnik,  T. Van Voorhis,  
 J. M. Herbert,  A. I. Krylov,  P. M. W. Gill,  M. Head-Gordon

 Contributors to earlier versions of Q-Chem not listed above: 
 R. D. Adamson,  J. Baker,  E. F. C. Byrd,  A. K. Chakraborty,  C.-L. Cheng,  
 H. Dachsel,  R. J. Doerksen,  G. Hawkins,  A. Heyden,  S. Hirata,  
 G. Kedziora,  F. J. Keil,  C. Kelley,  P. P. Korambath,  W. Kurlancheek,  
 A. M. Lee,  M. S. Lee,  D. Liotard,  I. Lotan,  P. E. Maslen,  N. Nair,  
 D. Neuhauser,  R. Olson,  B. Peters,  J. Ritchie,  N. E. Schultz,  
 N. Shenvi,  A. C. Simmonett,  K. S. Thanthiriwatte,  Q. Wu,  W. Zhang

 Q-Chem 4.2.0.0  for Mac (Intel) OS X

 Parts of Q-Chem use Armadillo 4.100.2 (Dirt Cruiser).
 http://arma.sourceforge.net/

 Q-Chem begins on Wed Aug  6 16:32:58 2014  

Host: 
0

     Scratch files written to /Users/xiaohuiqu/scratch/qchem8741//
 May1314 814_zgan 4730   
Processing $rem in /Users/xiaohuiqu/program/qchem/config/preferences.
 MEM_TOTAL  2000 
Finally everything over in PARseQInput

--------------------------------------------------------------
User input:
--------------------------------------------------------------
$molecule
-1 1
S         -2.99046        0.63100       -1.17060
S         -2.77589       -0.18490        1.59075
O         -3.74204       -0.04495       -2.21043
O         -1.48302        0.55301       -1.29017
O         -1.26968       -0.15988        1.45971
O         -3.32150        0.35096        2.82050
C         -3.30647        2.48147       -1.35459
C         -3.13590       -2.03684        1.57639
F         -2.88439        2.86673       -2.55899
F         -2.62487        3.13995       -0.41047
F         -4.60595        2.72953       -1.22933
F         -2.53019       -2.61029        2.61528
F         -2.65572       -2.55682        0.43670
F         -4.44672       -2.24218        1.64464
N         -3.54827        0.36554        0.30635
$end

$rem
jobtype = sp
exchange = b3lyp
basis = 6-31+g*
nbo = 1
$end

--------------------------------------------------------------
 ----------------------------------------------------------------
             Standard Nuclear Orientation (Angstroms)
    I     Atom           X                Y                Z
 ----------------------------------------------------------------
    1      S      -1.1746571725    -0.7226509935    -0.1401359368
    2      S       1.2530646148     0.8396844830    -0.0947299927
    3      O      -1.3739093915    -2.0190758464     0.4784176032
    4      O      -1.1281171606    -0.7145591757    -1.6535834345
    5      O       1.2141113823     0.9062919066    -1.6048664577
    6      O       1.6258391012     2.0592306510     0.5914679384
    7      C      -2.7088418008     0.3160736542     0.2138167348
    8      C       2.6296274926    -0.4156979059     0.2029021197
    9      F      -3.7675655359    -0.2952653001    -0.3177139695
   10      F      -2.5618294885     1.5223049943    -0.3455850698
   11      F      -2.8713460612     0.4438160511     1.5265034251
   12      F       3.7674897136     0.0499369561    -0.3103967017
   13      F       2.3007278316    -1.5636989232    -0.4084602984
   14      F       2.7725879763    -0.6278976055     1.5065912077
   15      N      -0.0347435144     0.1581919769     0.5582298870
 ----------------------------------------------------------------
 Molecular Point Group                 C1    NOp =  1
 Largest Abelian Subgroup              C1    NOp =  1
 Nuclear Repulsion Energy =  1562.5612386192 hartrees
 There are       69 alpha and       69 beta electrons
 Requested basis set is 6-31+G(d)
 There are 77 shells and 293 basis functions

Total QAlloc Memory Limit   2000 MB
Mega-Array Size        61 MB
MEM_STATIC part        62 MB

                       Distance Matrix (Angstroms)
             S (  1)   S (  2)   O (  3)   O (  4)   O (  5)   O (  6)
   S (  2)  2.887349
   O (  3)  1.450182  3.924538
   O (  4)  1.514185  3.242796  2.511495
   O (  5)  3.241158  1.512106  4.426703  2.848783
   O (  6)  4.014585  1.448144  5.063976  4.507598  2.514492
   C (  7)  1.886254  4.008250  2.702773  2.654822  4.364118  4.687289
   C (  8)  3.832033  1.886662  4.321462  4.201964  2.649409  2.698860
   F (  9)  2.633888  5.152141  3.055313  2.987816  5.283711  5.954752
   F ( 10)  2.646939  3.883596  3.825116  2.961410  4.027777  4.324688
   F ( 11)  2.648978  4.449255  3.067024  3.807050  5.168203  4.869141
   F ( 12)  5.005067  2.644342  5.597948  5.133768  2.988099  3.072017
   F ( 13)  3.585758  2.640507  3.807477  3.745444  2.951775  3.818501
   F ( 14)  4.278017  2.650845  4.492879  5.020928  3.803124  3.061559
   N ( 15)  1.600938  1.596633  2.557387  2.617113  2.607351  2.524398
             C (  7)   C (  8)   F (  9)   F ( 10)   F ( 11)   F ( 12)
   C (  8)  5.388401
   F (  9)  1.333100  6.419472
   F ( 10)  1.337736  5.568475  2.181316
   F ( 11)  1.328861  5.722883  2.179584  2.182580
   F ( 12)  6.502961  1.332299  7.542962  6.498414  6.899528
   F ( 13)  5.386702  1.341583  6.200108  5.759500  5.875759  2.182849
   F ( 14)  5.710378  1.328560  6.797966  6.042345  5.744820  2.179618
   N ( 15)  2.700805  2.748541  3.860940  3.010623  3.010888  3.901693
             F ( 13)   F ( 14)
   F ( 14)  2.183071
   N ( 15)  3.058402  3.065687
 
 A cutoff of  1.0D-08 yielded   2184 shell pairs
 There are     34015 function pairs
 Smallest overlap matrix eigenvalue = 6.43E-05

 Q-Chem warning in module /scratch/svnadmin/814_zgan/qchem/stvman/mkSTV.C, line 251:

 Overlap eigenvalue is smaller than square root of threshold


  Scale SEOQF with 1.000000e-01/1.000000e-01/1.000000e-01

 Standard Electronic Orientation quadrupole field applied
 Nucleus-field energy     =     0.0000000251 hartrees
 Guess from superposition of atomic densities
 Warning:  Energy on first SCF cycle will be non-variational
 A restricted hybrid HF-DFT SCF calculation will be
 performed using Pulay DIIS extrapolation
 Exchange:     0.2000 Hartree-Fock + 0.0800 Slater + 0.7200 Becke88
 Correlation:  0.8100 LYP + 0.1900 VWN1RPA
 Using SG-1 standard quadrature grid
 SCF converges when DIIS error is below 1.0E-05
 using 2 threads for integral computing 
 
 -------------------------------------------------------
 OpenMP Integral Computing Module                       
 Release: version 1.0, May 2013, Q-Chem Inc. Pittsburgh 
 -------------------------------------------------------
 Integral Job Info:
 Integral job number is                      22
 Integral operator is                         1
 short-range coefficients               -999999
 long-range coefficients                -999999
 Omega coefficients                           0
 if combine SR and LR in K              -999999
 Integral screening is                        1
 Integral computing path is                   2
 max size of driver memory is            800000
 size of driver memory is                593606
 size of scratch memory is              4374840
 max col of scratch BK array               1296
 max len of scratch array in speh3          155
 max len of scratch index in speh4           18
 max int batch size is                       50
 min int batch size is                       15
 fixed nKL is                                15
 max L of basis functions is                  2
 order of int derivative is                   0
 number of shells is                         77
 number of basis is                         293
 number of cartesian basis is               293
 number of contracted shell pairs          2184
 number of primitive shell pairs           7479
 maxK2 (contraction) of shell pair           36
 max number of K2 of shell pair               1
 max number of CS2 of shell pair            468
 max number of PS2 of shell pair           2376
 mem total for path MDJ                   97336
 -------------------------------------------------------
         cpu   1.58 wall   0.79
 -------------------------------------------------------
 OpenMP BLAS3 based DFT computing Module                
 Release: version 1.0, May 2013, Q-Chem Inc. Pittsburgh 
 -------------------------------------------------------
in dftxc.C, eleTot sum is:137.000214, tauTot is:0.000000
 ---------------------------------------
  Cycle       Energy         DIIS Error
 ---------------------------------------
    1   -1830.5318960837      4.21E-02
         cpu   9.08 wall   4.55
in dftxc.C, eleTot sum is:138.000181, tauTot is:0.000000
    2   -1826.6673925495      8.54E-03
         cpu   9.22 wall   4.61
in dftxc.C, eleTot sum is:137.999999, tauTot is:0.000000
    3   -1824.2319727300      1.93E-02
         cpu   8.98 wall   4.57
in dftxc.C, eleTot sum is:138.000175, tauTot is:0.000000
    4   -1827.1936686048      2.87E-03
         cpu   8.12 wall   4.16
in dftxc.C, eleTot sum is:138.000086, tauTot is:0.000000
    5   -1827.2498641571      1.51E-03
         cpu   8.23 wall   4.12
in dftxc.C, eleTot sum is:138.000121, tauTot is:0.000000
    6   -1827.2683091568      3.62E-04
         cpu   7.58 wall   3.79
in dftxc.C, eleTot sum is:138.000124, tauTot is:0.000000
    7   -1827.2691805319      1.66E-04
         cpu   6.82 wall   3.41
in dftxc.C, eleTot sum is:138.000121, tauTot is:0.000000
    8   -1827.2694053764      3.61E-05
         cpu   5.88 wall   2.96
in dftxc.C, eleTot sum is:138.000122, tauTot is:0.000000
    9   -1827.2694164442      9.07E-06 Convergence criterion met
 ---------------------------------------
 SCF time:  CPU 81.52 s  wall 41.18 s
 SCF   energy in the final basis set = -1827.2694164442
 Total energy in the final basis set = -1827.2694164442
 Analysis of SCF Wavefunction
 
 --------------------------------------------------------------
                    Orbital Energies (a.u.)
 --------------------------------------------------------------
 
 Alpha MOs
 -- Occupied --
-89.005 -89.005 -24.663 -24.662 -24.662 -24.661 -24.657 -24.655
-19.039 -19.039 -19.015 -19.015 -14.224 -10.355 -10.353  -8.028
 -8.028  -5.993  -5.993  -5.992  -5.992  -5.992  -5.992  -1.237
 -1.236  -1.153  -1.152  -1.148  -1.145  -1.000  -0.985  -0.874
 -0.865  -0.793  -0.655  -0.632  -0.589  -0.534  -0.514  -0.512
 -0.511  -0.509  -0.500  -0.415  -0.390  -0.388  -0.386  -0.385
 -0.380  -0.358  -0.357  -0.352  -0.352  -0.346  -0.342  -0.336
 -0.328  -0.327  -0.324  -0.265  -0.227  -0.225  -0.207  -0.204
 -0.185  -0.177  -0.175  -0.156  -0.149
 -- Virtual --
  0.111   0.119   0.124   0.144   0.149   0.153   0.154   0.160
  0.176   0.185   0.189   0.190   0.193   0.195   0.198   0.201
  0.204   0.218   0.225   0.235   0.237   0.254   0.258   0.265
  0.283   0.300   0.302   0.305   0.309   0.332   0.333   0.339
  0.347   0.349   0.351   0.352   0.359   0.369   0.377   0.382
  0.385   0.399   0.403   0.408   0.415   0.418   0.420   0.424
  0.424   0.429   0.441   0.444   0.450   0.452   0.456   0.464
  0.469   0.472   0.478   0.483   0.487   0.500   0.501   0.513
  0.520   0.530   0.541   0.546   0.558   0.567   0.574   0.589
  0.603   0.640   0.651   0.688   0.703   0.723   0.766   0.779
  0.794   0.797   0.804   0.852   0.888   0.896   0.929   0.940
  0.997   1.010   1.011   1.024   1.052   1.105   1.174   1.189
  1.222   1.242   1.250   1.251   1.335   1.340   1.350   1.364
  1.372   1.376   1.393   1.416   1.421   1.444   1.452   1.454
  1.457   1.482   1.495   1.503   1.508   1.515   1.550   1.587
  1.651   1.661   1.680   1.688   1.693   1.703   1.708   1.711
  1.717   1.736   1.743   1.752   1.756   1.757   1.761   1.762
  1.769   1.786   1.807   1.810   1.851   1.869   1.879   1.894
  1.901   1.903   1.910   1.916   1.918   1.921   1.930   1.933
  1.940   1.944   1.955   1.973   1.979   1.989   2.003   2.009
  2.014   2.034   2.044   2.050   2.066   2.092   2.103   2.107
  2.123   2.123   2.129   2.130   2.147   2.159   2.170   2.230
  2.237   2.259   2.267   2.275   2.279   2.303   2.382   2.387
  2.399   2.412   2.414   2.428   2.444   2.469   2.492   2.650
  2.696   2.762   2.763   2.895   2.905   2.913   2.931   2.942
  2.974   3.053   3.061   3.283   3.295   3.299   3.315   3.327
  3.334   4.081   4.129   4.251   4.320   4.376   4.418   4.477
  4.624   4.632   5.761   5.787   5.832   6.004   6.375   6.413
 --------------------------------------------------------------
 
          Ground-State Mulliken Net Atomic Charges

     Atom                 Charge (a.u.)
  ----------------------------------------
      1 S                     1.073293
      2 S                     1.032303
      3 O                    -0.539285
      4 O                    -0.583403
      5 O                    -0.580763
      6 O                    -0.546398
      7 C                     0.814400
      8 C                     0.837467
      9 F                    -0.292996
     10 F                    -0.266460
     11 F                    -0.272609
     12 F                    -0.291351
     13 F                    -0.273293
     14 F                    -0.273039
     15 N                    -0.837866
  ----------------------------------------
  Sum of atomic charges =    -1.000000

 -----------------------------------------------------------------
                    Cartesian Multipole Moments
 -----------------------------------------------------------------
    Charge (ESU x 10^10)
                -4.8032
    Dipole Moment (Debye)
         X      -0.3021      Y      -0.3370      Z       2.3461
       Tot       2.3894
    Quadrupole Moments (Debye-Ang)
        XX    -112.0135     XY      -9.5501     YY    -113.0886
        XZ      -0.2016     YZ      -0.0997     ZZ    -111.4063
    Octopole Moments (Debye-Ang^2)
       XXX      -3.8858    XXY      -3.4826    XYY      -2.8799
       YYY      -3.2382    XXZ       4.2504    XYZ       0.1539
       YYZ      -3.0344    XZZ      -0.9715    YZZ      -2.2306
       ZZZ      19.0094
    Hexadecapole Moments (Debye-Ang^3)
      XXXX   -2897.6260   XXXY     -64.9669   XXYY    -617.0233
      XYYY     -86.3026   YYYY    -767.2425   XXXZ      -1.9663
      XXYZ      -1.2668   XYYZ      -1.9391   YYYZ      -2.1021
      XXZZ    -570.7341   XYZZ     -25.2413   YYZZ    -208.7564
      XZZZ      -1.0436   YZZZ      -0.0270   ZZZZ    -503.4580
 -----------------------------------------------------------------

 Begin NBO analysis for the ground state 


 *********************************** NBO 5.0 ***********************************
             N A T U R A L   A T O M I C   O R B I T A L   A N D
          N A T U R A L   B O N D   O R B I T A L   A N A L Y S I S
 *******************************************************************************
  (c) Copyright 1996-2002 Board of Regents of the University of Wisconsin System
      on behalf of the Theoretical Chemistry Institute.  All Rights Reserved.

          Cite this program as:

          NBO 5.0.  E. D. Glendening, J. K. Badenhoop, A. E. Reed,
          J. E. Carpenter, J. A. Bohmann, C. M. Morales, and F. Weinhold
          (Theoretical Chemistry Institute, University of Wisconsin,
          Madison, WI, 2001); http://www.chem.wisc.edu/~nbo5

       /PRINT  / : Print level set to  1
  This is a closed-shell NBO calculation

 Job title: Starting NBO analysis.                                          

 Storage needed:      430579 in NPA,      344523 in NBO (     7681962 available)


 NATURAL POPULATIONS:  Natural atomic orbital occupancies 
                                                          
  NAO Atom No lang   Type(AO)    Occupancy      Energy    
 ---------------------------------------------------------
   1    S  1  s      Cor( 1s)     2.00000     -87.72991
   2    S  1  s      Cor( 2s)     1.99893      -9.08159
   3    S  1  s      Val( 3s)     1.08403      -0.44337
   4    S  1  s      Ryd( 5s)     0.00752       0.88498
   5    S  1  s      Ryd( 4s)     0.00131       0.80902
   6    S  1  s      Ryd( 6s)     0.00017       3.79555
   7    S  1  px     Cor( 2p)     1.99984      -5.98171
   8    S  1  px     Val( 3p)     0.92643      -0.08681
   9    S  1  px     Ryd( 5p)     0.00741       0.68243
  10    S  1  px     Ryd( 4p)     0.00017       0.56370
  11    S  1  py     Cor( 2p)     1.99987      -5.97966
  12    S  1  py     Val( 3p)     0.79476      -0.03286
  13    S  1  py     Ryd( 5p)     0.01116       0.72996
  14    S  1  py     Ryd( 4p)     0.00043       0.58916
  15    S  1  pz     Cor( 2p)     1.99988      -5.97972
  16    S  1  pz     Val( 3p)     0.76430      -0.02988
  17    S  1  pz     Ryd( 5p)     0.01190       0.73509
  18    S  1  pz     Ryd( 4p)     0.00070       0.46844
  19    S  1  dxy    Ryd( 3d)     0.03775       1.07552
  20    S  1  dxz    Ryd( 3d)     0.03127       1.00445
  21    S  1  dyz    Ryd( 3d)     0.03638       1.09298
  22    S  1  dx2y2  Ryd( 3d)     0.02316       1.04988
  23    S  1  dz2    Ryd( 3d)     0.03524       1.15922
 
  24    S  2  s      Cor( 1s)     2.00000     -87.73201
  25    S  2  s      Cor( 2s)     1.99891      -9.07869
  26    S  2  s      Val( 3s)     1.07909      -0.43955
  27    S  2  s      Ryd( 5s)     0.00850       0.86108
  28    S  2  s      Ryd( 4s)     0.00165       0.81167
  29    S  2  s      Ryd( 6s)     0.00017       3.78424
  30    S  2  px     Cor( 2p)     1.99983      -5.98107
  31    S  2  px     Val( 3p)     0.89610      -0.07151
  32    S  2  px     Ryd( 5p)     0.00767       0.67630
  33    S  2  px     Ryd( 4p)     0.00022       0.53862
  34    S  2  py     Cor( 2p)     1.99987      -5.97988
  35    S  2  py     Val( 3p)     0.82398      -0.04642
  36    S  2  py     Ryd( 5p)     0.01033       0.73542
  37    S  2  py     Ryd( 4p)     0.00039       0.64841
  38    S  2  pz     Cor( 2p)     1.99989      -5.97927
  39    S  2  pz     Val( 3p)     0.75961      -0.02624
  40    S  2  pz     Ryd( 5p)     0.01187       0.74436
  41    S  2  pz     Ryd( 4p)     0.00066       0.50400
  42    S  2  dxy    Ryd( 3d)     0.03735       1.08574
  43    S  2  dxz    Ryd( 3d)     0.03179       1.02746
  44    S  2  dyz    Ryd( 3d)     0.03546       1.08338
  45    S  2  dx2y2  Ryd( 3d)     0.02369       1.03488
  46    S  2  dz2    Ryd( 3d)     0.03713       1.15824
 
  47    O  3  s      Cor( 1s)     1.99985     -18.82943
  48    O  3  s      Val( 2s)     1.82182      -0.86099
  49    O  3  s      Ryd( 3s)     0.00136       1.22267
  50    O  3  s      Ryd( 4s)     0.00101       2.06178
  51    O  3  s      Ryd( 5s)     0.00001       3.66671
  52    O  3  px     Val( 2p)     1.78506      -0.18006
  53    O  3  px     Ryd( 3p)     0.00168       0.70398
  54    O  3  px     Ryd( 4p)     0.00019       1.18472
  55    O  3  py     Val( 2p)     1.55122      -0.23036
  56    O  3  py     Ryd( 3p)     0.00096       0.80345
  57    O  3  py     Ryd( 4p)     0.00052       1.19486
  58    O  3  pz     Val( 2p)     1.75725      -0.18890
  59    O  3  pz     Ryd( 3p)     0.00113       0.69393
  60    O  3  pz     Ryd( 4p)     0.00019       1.15099
  61    O  3  dxy    Ryd( 3d)     0.00473       2.07433
  62    O  3  dxz    Ryd( 3d)     0.00116       1.96916
  63    O  3  dyz    Ryd( 3d)     0.00594       2.27204
  64    O  3  dx2y2  Ryd( 3d)     0.00497       2.23796
  65    O  3  dz2    Ryd( 3d)     0.00279       2.04507
 
  66    O  4  s      Cor( 1s)     1.99988     -18.82418
  67    O  4  s      Val( 2s)     1.84911      -0.83099
  68    O  4  s      Ryd( 3s)     0.00097       1.29620
  69    O  4  s      Ryd( 4s)     0.00085       1.52950
  70    O  4  s      Ryd( 5s)     0.00001       4.29518
  71    O  4  px     Val( 2p)     1.80544      -0.15006
  72    O  4  px     Ryd( 3p)     0.00105       0.71804
  73    O  4  px     Ryd( 4p)     0.00015       1.21706
  74    O  4  py     Val( 2p)     1.81688      -0.14845
  75    O  4  py     Ryd( 3p)     0.00122       0.68774
  76    O  4  py     Ryd( 4p)     0.00010       1.22445
  77    O  4  pz     Val( 2p)     1.45380      -0.19551
  78    O  4  pz     Ryd( 3p)     0.00062       0.76662
  79    O  4  pz     Ryd( 4p)     0.00040       1.21900
  80    O  4  dxy    Ryd( 3d)     0.00011       1.98312
  81    O  4  dxz    Ryd( 3d)     0.00473       2.09286
  82    O  4  dyz    Ryd( 3d)     0.00475       2.11296
  83    O  4  dx2y2  Ryd( 3d)     0.00011       1.96412
  84    O  4  dz2    Ryd( 3d)     0.00558       2.54418
 
  85    O  5  s      Cor( 1s)     1.99988     -18.82360
  86    O  5  s      Val( 2s)     1.84835      -0.83041
  87    O  5  s      Ryd( 3s)     0.00102       0.92276
  88    O  5  s      Ryd( 4s)     0.00094       1.89383
  89    O  5  s      Ryd( 5s)     0.00001       4.30143
  90    O  5  px     Val( 2p)     1.81185      -0.14954
  91    O  5  px     Ryd( 3p)     0.00092       0.71873
  92    O  5  px     Ryd( 4p)     0.00015       1.19913
  93    O  5  py     Val( 2p)     1.80762      -0.14884
  94    O  5  py     Ryd( 3p)     0.00137       0.69672
  95    O  5  py     Ryd( 4p)     0.00013       1.22513
  96    O  5  pz     Val( 2p)     1.45864      -0.19568
  97    O  5  pz     Ryd( 3p)     0.00060       0.77056
  98    O  5  pz     Ryd( 4p)     0.00038       1.21158
  99    O  5  dxy    Ryd( 3d)     0.00011       1.98488
 100    O  5  dxz    Ryd( 3d)     0.00471       2.09678
 101    O  5  dyz    Ryd( 3d)     0.00478       2.11264
 102    O  5  dx2y2  Ryd( 3d)     0.00014       1.96302
 103    O  5  dz2    Ryd( 3d)     0.00559       2.54485
 
 104    O  6  s      Cor( 1s)     1.99985     -18.82916
 105    O  6  s      Val( 2s)     1.82067      -0.86060
 106    O  6  s      Ryd( 3s)     0.00146       1.19225
 107    O  6  s      Ryd( 4s)     0.00107       2.04843
 108    O  6  s      Ryd( 5s)     0.00002       3.64779
 109    O  6  px     Val( 2p)     1.77428      -0.18288
 110    O  6  px     Ryd( 3p)     0.00145       0.73150
 111    O  6  px     Ryd( 4p)     0.00018       1.13676
 112    O  6  py     Val( 2p)     1.57302      -0.22480
 113    O  6  py     Ryd( 3p)     0.00103       0.83152
 114    O  6  py     Ryd( 4p)     0.00047       1.15899
 115    O  6  pz     Val( 2p)     1.74779      -0.19209
 116    O  6  pz     Ryd( 3p)     0.00115       0.73327
 117    O  6  pz     Ryd( 4p)     0.00021       1.11758
 118    O  6  dxy    Ryd( 3d)     0.00459       2.10796
 119    O  6  dxz    Ryd( 3d)     0.00165       1.99982
 120    O  6  dyz    Ryd( 3d)     0.00572       2.28129
 121    O  6  dx2y2  Ryd( 3d)     0.00466       2.17399
 122    O  6  dz2    Ryd( 3d)     0.00303       2.04249
 
 123    C  7  s      Cor( 1s)     1.99971     -10.28699
 124    C  7  s      Val( 2s)     0.91681      -0.25507
 125    C  7  s      Ryd( 3s)     0.01529       1.22861
 126    C  7  s      Ryd( 5s)     0.00125       2.90594
 127    C  7  s      Ryd( 4s)     0.00013       1.56496
 128    C  7  px     Val( 2p)     0.85216      -0.08885
 129    C  7  px     Ryd( 4p)     0.01062       0.86409
 130    C  7  px     Ryd( 3p)     0.00030       0.62463
 131    C  7  py     Val( 2p)     0.70155      -0.05869
 132    C  7  py     Ryd( 4p)     0.01412       0.85725
 133    C  7  py     Ryd( 3p)     0.00040       0.51279
 134    C  7  pz     Val( 2p)     0.59093      -0.03194
 135    C  7  pz     Ryd( 4p)     0.01718       0.85988
 136    C  7  pz     Ryd( 3p)     0.00035       0.45023
 137    C  7  dxy    Ryd( 3d)     0.00374       2.24429
 138    C  7  dxz    Ryd( 3d)     0.00303       2.21961
 139    C  7  dyz    Ryd( 3d)     0.00337       2.29186
 140    C  7  dx2y2  Ryd( 3d)     0.00301       2.23105
 141    C  7  dz2    Ryd( 3d)     0.00406       2.38567
 
 142    C  8  s      Cor( 1s)     1.99971     -10.28522
 143    C  8  s      Val( 2s)     0.91952      -0.25442
 144    C  8  s      Ryd( 3s)     0.01517       1.23691
 145    C  8  s      Ryd( 5s)     0.00135       2.82125
 146    C  8  s      Ryd( 4s)     0.00015       1.61833
 147    C  8  px     Val( 2p)     0.79744      -0.07595
 148    C  8  px     Ryd( 4p)     0.01199       0.86684
 149    C  8  px     Ryd( 3p)     0.00031       0.65378
 150    C  8  py     Val( 2p)     0.76211      -0.07048
 151    C  8  py     Ryd( 4p)     0.01258       0.85942
 152    C  8  py     Ryd( 3p)     0.00040       0.54028
 153    C  8  pz     Val( 2p)     0.58753      -0.02987
 154    C  8  pz     Ryd( 4p)     0.01739       0.86504
 155    C  8  pz     Ryd( 3p)     0.00042       0.44284
 156    C  8  dxy    Ryd( 3d)     0.00383       2.25007
 157    C  8  dxz    Ryd( 3d)     0.00314       2.24300
 158    C  8  dyz    Ryd( 3d)     0.00330       2.27997
 159    C  8  dx2y2  Ryd( 3d)     0.00288       2.22022
 160    C  8  dz2    Ryd( 3d)     0.00405       2.38170
 
 161    F  9  s      Cor( 1s)     1.99991     -24.37783
 162    F  9  s      Val( 2s)     1.84276      -1.24295
 163    F  9  s      Ryd( 3s)     0.00115       1.33715
 164    F  9  s      Ryd( 4s)     0.00031       2.12850
 165    F  9  s      Ryd( 5s)     0.00008       5.16316
 166    F  9  px     Val( 2p)     1.73821      -0.37104
 167    F  9  px     Ryd( 3p)     0.00134       0.67104
 168    F  9  px     Ryd( 4p)     0.00012       1.84044
 169    F  9  py     Val( 2p)     1.87482      -0.35994
 170    F  9  py     Ryd( 3p)     0.00163       0.59644
 171    F  9  py     Ryd( 4p)     0.00008       1.64886
 172    F  9  pz     Val( 2p)     1.88704      -0.35772
 173    F  9  pz     Ryd( 3p)     0.00080       0.58582
 174    F  9  pz     Ryd( 4p)     0.00008       1.64386
 175    F  9  dxy    Ryd( 3d)     0.00221       2.23552
 176    F  9  dxz    Ryd( 3d)     0.00207       2.19272
 177    F  9  dyz    Ryd( 3d)     0.00107       2.04370
 178    F  9  dx2y2  Ryd( 3d)     0.00203       2.14775
 179    F  9  dz2    Ryd( 3d)     0.00128       2.05729
 
 180    F 10  s      Cor( 1s)     1.99991     -24.37366
 181    F 10  s      Val( 2s)     1.84536      -1.23702
 182    F 10  s      Ryd( 4s)     0.00120       1.90920
 183    F 10  s      Ryd( 3s)     0.00041       1.71749
 184    F 10  s      Ryd( 5s)     0.00006       5.17767
 185    F 10  px     Val( 2p)     1.93431      -0.34885
 186    F 10  px     Ryd( 3p)     0.00287       0.61277
 187    F 10  px     Ryd( 4p)     0.00011       1.65603
 188    F 10  py     Val( 2p)     1.67786      -0.36738
 189    F 10  py     Ryd( 3p)     0.00076       0.65400
 190    F 10  py     Ryd( 4p)     0.00017       1.95439
 191    F 10  pz     Val( 2p)     1.88120      -0.35121
 192    F 10  pz     Ryd( 3p)     0.00076       0.57909
 193    F 10  pz     Ryd( 4p)     0.00007       1.68049
 194    F 10  dxy    Ryd( 3d)     0.00198       2.11611
 195    F 10  dxz    Ryd( 3d)     0.00060       1.98303
 196    F 10  dyz    Ryd( 3d)     0.00258       2.28431
 197    F 10  dx2y2  Ryd( 3d)     0.00220       2.27097
 198    F 10  dz2    Ryd( 3d)     0.00129       2.06179
 
 199    F 11  s      Cor( 1s)     1.99991     -24.37574
 200    F 11  s      Val( 2s)     1.84150      -1.24250
 201    F 11  s      Ryd( 4s)     0.00145       1.82295
 202    F 11  s      Ryd( 3s)     0.00037       1.68482
 203    F 11  s      Ryd( 5s)     0.00007       5.19854
 204    F 11  px     Val( 2p)     1.93293      -0.35496
 205    F 11  px     Ryd( 3p)     0.00197       0.64568
 206    F 11  px     Ryd( 4p)     0.00007       1.63050
 207    F 11  py     Val( 2p)     1.93207      -0.35432
 208    F 11  py     Ryd( 3p)     0.00117       0.60562
 209    F 11  py     Ryd( 4p)     0.00009       1.55753
 210    F 11  pz     Val( 2p)     1.63669      -0.37937
 211    F 11  pz     Ryd( 3p)     0.00058       0.73267
 212    F 11  pz     Ryd( 4p)     0.00014       1.93839
 213    F 11  dxy    Ryd( 3d)     0.00016       1.94636
 214    F 11  dxz    Ryd( 3d)     0.00243       2.14887
 215    F 11  dyz    Ryd( 3d)     0.00241       2.13672
 216    F 11  dx2y2  Ryd( 3d)     0.00015       1.93209
 217    F 11  dz2    Ryd( 3d)     0.00367       2.52013
 
 218    F 12  s      Cor( 1s)     1.99991     -24.37662
 219    F 12  s      Val( 2s)     1.84254      -1.24221
 220    F 12  s      Ryd( 3s)     0.00112       1.38288
 221    F 12  s      Ryd( 4s)     0.00036       2.09033
 222    F 12  s      Ryd( 5s)     0.00008       5.16219
 223    F 12  px     Val( 2p)     1.70780      -0.37254
 224    F 12  px     Ryd( 3p)     0.00104       0.69142
 225    F 12  px     Ryd( 4p)     0.00013       1.86254
 226    F 12  py     Val( 2p)     1.90208      -0.35704
 227    F 12  py     Ryd( 3p)     0.00186       0.60592
 228    F 12  py     Ryd( 4p)     0.00007       1.60684
 229    F 12  pz     Val( 2p)     1.88998      -0.35656
 230    F 12  pz     Ryd( 3p)     0.00075       0.59573
 231    F 12  pz     Ryd( 4p)     0.00008       1.63034
 232    F 12  dxy    Ryd( 3d)     0.00215       2.19312
 233    F 12  dxz    Ryd( 3d)     0.00229       2.22055
 234    F 12  dyz    Ryd( 3d)     0.00082       2.00653
 235    F 12  dx2y2  Ryd( 3d)     0.00214       2.20069
 236    F 12  dz2    Ryd( 3d)     0.00127       2.05940
 
 237    F 13  s      Cor( 1s)     1.99992     -24.37221
 238    F 13  s      Val( 2s)     1.84705      -1.23547
 239    F 13  s      Ryd( 4s)     0.00138       1.91254
 240    F 13  s      Ryd( 3s)     0.00041       1.78317
 241    F 13  s      Ryd( 5s)     0.00006       5.03514
 242    F 13  px     Val( 2p)     1.92027      -0.34795
 243    F 13  px     Ryd( 3p)     0.00294       0.60127
 244    F 13  px     Ryd( 4p)     0.00013       1.69240
 245    F 13  py     Val( 2p)     1.70237      -0.36273
 246    F 13  py     Ryd( 3p)     0.00098       0.62077
 247    F 13  py     Ryd( 4p)     0.00019       1.98310
 248    F 13  pz     Val( 2p)     1.87123      -0.34954
 249    F 13  pz     Ryd( 3p)     0.00085       0.55448
 250    F 13  pz     Ryd( 4p)     0.00009       1.72948
 251    F 13  dxy    Ryd( 3d)     0.00195       2.14956
 252    F 13  dxz    Ryd( 3d)     0.00081       2.01271
 253    F 13  dyz    Ryd( 3d)     0.00247       2.28529
 254    F 13  dx2y2  Ryd( 3d)     0.00202       2.21482
 255    F 13  dz2    Ryd( 3d)     0.00135       2.06464
 
 256    F 14  s      Cor( 1s)     1.99991     -24.37475
 257    F 14  s      Val( 2s)     1.84134      -1.24186
 258    F 14  s      Ryd( 4s)     0.00136       1.85702
 259    F 14  s      Ryd( 3s)     0.00039       1.67490
 260    F 14  s      Ryd( 5s)     0.00007       5.20319
 261    F 14  px     Val( 2p)     1.93321      -0.35395
 262    F 14  px     Ryd( 3p)     0.00175       0.63606
 263    F 14  px     Ryd( 4p)     0.00008       1.63186
 264    F 14  py     Val( 2p)     1.92748      -0.35426
 265    F 14  py     Ryd( 3p)     0.00144       0.61306
 266    F 14  py     Ryd( 4p)     0.00010       1.56514
 267    F 14  pz     Val( 2p)     1.64120      -0.37835
 268    F 14  pz     Ryd( 3p)     0.00059       0.73001
 269    F 14  pz     Ryd( 4p)     0.00014       1.94717
 270    F 14  dxy    Ryd( 3d)     0.00019       1.95278
 271    F 14  dxz    Ryd( 3d)     0.00239       2.14295
 272    F 14  dyz    Ryd( 3d)     0.00242       2.15365
 273    F 14  dx2y2  Ryd( 3d)     0.00019       1.93292
 274    F 14  dz2    Ryd( 3d)     0.00363       2.50561
 
 275    N 15  s      Cor( 1s)     1.99949     -14.11259
 276    N 15  s      Val( 2s)     1.56293      -0.54996
 277    N 15  s      Ryd( 4s)     0.00195       1.57576
 278    N 15  s      Ryd( 3s)     0.00151       0.97863
 279    N 15  s      Ryd( 5s)     0.00003       4.02298
 280    N 15  px     Val( 2p)     1.40327      -0.19220
 281    N 15  px     Ryd( 3p)     0.00231       0.90654
 282    N 15  px     Ryd( 4p)     0.00057       1.14671
 283    N 15  py     Val( 2p)     1.60494      -0.15932
 284    N 15  py     Ryd( 3p)     0.00424       0.71598
 285    N 15  py     Ryd( 4p)     0.00026       1.02790
 286    N 15  pz     Val( 2p)     1.66839      -0.15784
 287    N 15  pz     Ryd( 3p)     0.00223       0.66432
 288    N 15  pz     Ryd( 4p)     0.00083       0.98724
 289    N 15  dxy    Ryd( 3d)     0.00165       2.28581
 290    N 15  dxz    Ryd( 3d)     0.00327       2.25064
 291    N 15  dyz    Ryd( 3d)     0.00351       2.04501
 292    N 15  dx2y2  Ryd( 3d)     0.00069       2.06224
 293    N 15  dz2    Ryd( 3d)     0.00347       1.98913
 
   1 low occupancy (<1.9990e) core orbital  found on  S  1
   1 low occupancy (<1.9990e) core orbital  found on  S  2
 
     Population inversion found on atom  S  1
     Population inversion found on atom  S  2
     Population inversion found on atom  C  7
     Population inversion found on atom  C  8
     Population inversion found on atom  F 10
     Population inversion found on atom  F 11
     Population inversion found on atom  F 13
     Population inversion found on atom  F 14
     Population inversion found on atom  N 15


 Summary of Natural Population Analysis:

                                     Natural Population
             Natural    ---------------------------------------------
  Atom No    Charge        Core      Valence    Rydberg      Total
 --------------------------------------------------------------------
    S  1    2.22740      9.99852     3.56952    0.20456    13.77260
    S  2    2.23584      9.99850     3.55878    0.20688    13.76416
    O  3   -0.94183      1.99985     6.91535    0.02663     8.94183
    O  4   -0.94575      1.99988     6.92522    0.02065     8.94575
    O  5   -0.94719      1.99988     6.92647    0.02084     8.94719
    O  6   -0.94230      1.99985     6.91576    0.02669     8.94230
    C  7    0.86201      1.99971     3.06144    0.07684     5.13799
    C  8    0.85672      1.99971     3.06661    0.07697     5.14328
    F  9   -0.35698      1.99991     7.34282    0.01425     9.35698
    F 10   -0.35373      1.99991     7.33873    0.01508     9.35373
    F 11   -0.35782      1.99991     7.34319    0.01472     9.35782
    F 12   -0.35647      1.99991     7.34240    0.01416     9.35647
    F 13   -0.35646      1.99992     7.34092    0.01562     9.35646
    F 14   -0.35787      1.99991     7.34323    0.01474     9.35787
    N 15   -1.26555      1.99949     6.23954    0.02653     8.26555
 ====================================================================
 * Total * -1.00000     45.99487    91.22996    0.77517   138.00000

                                 Natural Population      
 --------------------------------------------------------
   Core                      45.99487 ( 99.9888% of  46)
   Valence                   91.22996 ( 99.1630% of  92)
   Natural Minimal Basis    137.22483 ( 99.4383% of 138)
   Natural Rydberg Basis      0.77517 (  0.5617% of 138)
 --------------------------------------------------------

    Atom No         Natural Electron Configuration
 ----------------------------------------------------------------------------
      S  1      [core]3s( 1.08)3p( 2.49)3d( 0.16)5s( 0.01)5p( 0.03)
      S  2      [core]3s( 1.08)3p( 2.48)3d( 0.17)5s( 0.01)5p( 0.03)
      O  3      [core]2s( 1.82)2p( 5.09)3d( 0.02)
      O  4      [core]2s( 1.85)2p( 5.08)3d( 0.02)
      O  5      [core]2s( 1.85)2p( 5.08)3d( 0.02)
      O  6      [core]2s( 1.82)2p( 5.10)3d( 0.02)
      C  7      [core]2s( 0.92)2p( 2.14)3s( 0.02)3d( 0.02)4p( 0.04)
      C  8      [core]2s( 0.92)2p( 2.15)3s( 0.02)3d( 0.02)4p( 0.04)
      F  9      [core]2s( 1.84)2p( 5.50)3d( 0.01)
      F 10      [core]2s( 1.85)2p( 5.49)3d( 0.01)
      F 11      [core]2s( 1.84)2p( 5.50)3d( 0.01)
      F 12      [core]2s( 1.84)2p( 5.50)3d( 0.01)
      F 13      [core]2s( 1.85)2p( 5.49)3d( 0.01)
      F 14      [core]2s( 1.84)2p( 5.50)3d( 0.01)
      N 15      [core]2s( 1.56)2p( 4.68)3p( 0.01)3d( 0.01)


 NATURAL BOND ORBITAL ANALYSIS:

                       Occupancies       Lewis Structure    Low   High
           Occ.    -------------------  -----------------   occ   occ
  Cycle   Thresh.   Lewis   Non-Lewis     CR  BD  3C  LP    (L)   (NL)   Dev
 =============================================================================
   1(1)    1.90   133.30598   4.69402     23  20   0  26    12     22    0.68
   2(2)    1.90   133.37935   4.62065     23  19   0  27    11     20    0.67
   3(3)    1.90   133.41195   4.58805     23  18   0  28    11     19    0.97
   4(4)    1.90   133.79156   4.20844     23  19   0  27    13     19    1.21
   5(5)    1.90   133.77131   4.22869     23  19   0  27    12     19    0.21
   6(6)    1.90   134.15852   3.84148     23  20   0  26    12     20    0.14
   7(7)    1.90   133.74787   4.25213     23  20   0  26    11     21    0.68
   8(8)    1.90   134.15384   3.84616     23  20   0  26    12     20    0.14
   9(9)    1.90   133.74787   4.25213     23  20   0  26    11     21    0.68
  10(1)    1.80   134.51272   3.48728     23  17   0  29     2     17    0.21
  11(2)    1.80   134.52530   3.47470     23  17   0  29     2     17    0.21
  12(3)    1.80   134.51272   3.48728     23  17   0  29     2     17    0.21
  13(4)    1.80   134.52530   3.47470     23  17   0  29     2     17    0.21
  14(1)    1.70   134.92151   3.07849     23  14   0  32     0     14    0.25
  15(2)    1.70   134.92151   3.07849     23  14   0  32     0     14    0.25
  16(1)    1.60   134.92151   3.07849     23  14   0  32     0     14    0.25
  17(2)    1.60   134.92151   3.07849     23  14   0  32     0     14    0.25
  18(1)    1.50   134.92151   3.07849     23  14   0  32     0     14    0.25
  19(2)    1.50   134.92151   3.07849     23  14   0  32     0     14    0.25
  20(1)    1.60   134.92151   3.07849     23  14   0  32     0     14    0.25
 -----------------------------------------------------------------------------

 Strongly delocalized structure accepted

           1 low occupancy (<1.9990e) core orbital  found on  S 1
           1 low occupancy (<1.9990e) core orbital  found on  S 2

 --------------------------------------------------------
   Core                     45.99487 ( 99.989% of  46)
   Valence Lewis            88.92664 ( 96.659% of  92)
  ==================       ============================
   Total Lewis             134.92151 ( 97.769% of 138)
  -----------------------------------------------------
   Valence non-Lewis         2.41349 (  1.749% of 138)
   Rydberg non-Lewis         0.66500 (  0.482% of 138)
  ==================       ============================
   Total non-Lewis           3.07849 (  2.231% of 138)
 --------------------------------------------------------


     (Occupancy)   Bond orbital/ Coefficients/ Hybrids
 -------------------------------------------------------------------------------
   1. (1.98314) BD ( 1) S  1- O  3       
               ( 34.05%)   0.5835* S  1 s( 28.93%)p 2.41( 69.59%)d 0.05(  1.48%)
                                         0.0000  0.0002 -0.5355  0.0496  0.0066
                                         0.0005  0.0000  0.0897  0.0039 -0.0032
                                         0.0001  0.7415 -0.0541 -0.0049  0.0001
                                        -0.3673  0.0107  0.0025 -0.0280  0.0177
                                         0.0900  0.0735  0.0161
               ( 65.95%)   0.8121* O  3 s( 25.87%)p 2.85( 73.62%)d 0.02(  0.51%)
                                         0.0000 -0.5082  0.0218 -0.0018 -0.0009
                                        -0.1067  0.0026 -0.0022 -0.7922  0.0112
                                        -0.0107  0.3113 -0.0062  0.0061 -0.0138
                                         0.0066  0.0441  0.0500  0.0199
   2. (1.97947) BD ( 1) S  1- O  4       
               ( 36.34%)   0.6028* S  1 s( 27.42%)p 2.60( 71.21%)d 0.05(  1.37%)
                                         0.0000 -0.0001  0.5230 -0.0256 -0.0004
                                        -0.0017  0.0001  0.0408 -0.0048  0.0028
                                         0.0000 -0.0431  0.0163  0.0016  0.0000
                                        -0.8399  0.0523  0.0056 -0.0065 -0.0036
                                        -0.0104  0.0060  0.1162
               ( 63.66%)   0.7979* O  4 s( 20.48%)p 3.86( 79.14%)d 0.02(  0.38%)
                                         0.0000  0.4522 -0.0165  0.0040 -0.0006
                                        -0.0267  0.0034  0.0028  0.0146  0.0057
                                         0.0018  0.8889 -0.0126  0.0089 -0.0007
                                        -0.0042  0.0014  0.0009  0.0617
   3. (1.94969) BD ( 1) S  1- C  7       
               ( 44.69%)   0.6685* S  1 s( 18.59%)p 4.28( 79.61%)d 0.10(  1.80%)
                                         0.0000 -0.0001  0.4265  0.0629 -0.0049
                                         0.0011 -0.0003 -0.7271  0.0162  0.0017
                                         0.0000  0.4776 -0.0177 -0.0059 -0.0001
                                         0.1964 -0.0007 -0.0015 -0.1027 -0.0390
                                         0.0371  0.0388 -0.0554
               ( 55.31%)   0.7437* C  7 s( 26.59%)p 2.76( 73.28%)d 0.01(  0.13%)
                                         0.0001  0.5123  0.0583  0.0062  0.0007
                                         0.6998  0.0304 -0.0036 -0.4692 -0.0168
                                         0.0005 -0.1473 -0.0025  0.0011 -0.0287
                                        -0.0084  0.0056  0.0108 -0.0171
   4. (1.97185) BD ( 1) S  1- N 15       
               ( 37.25%)   0.6104* S  1 s( 25.67%)p 2.83( 72.72%)d 0.06(  1.61%)
                                         0.0000  0.0002  0.5066 -0.0015  0.0083
                                        -0.0018  0.0002  0.6607 -0.0217 -0.0027
                                         0.0001  0.4353 -0.0119 -0.0063  0.0000
                                         0.3150 -0.0349 -0.0036  0.0839  0.0572
                                         0.0523  0.0281 -0.0480
               ( 62.75%)   0.7921* N 15 s( 30.03%)p 2.32( 69.79%)d 0.01(  0.18%)
                                        -0.0003  0.5479  0.0058 -0.0081 -0.0010
                                        -0.5410 -0.0123  0.0032 -0.4547 -0.0117
                                        -0.0021 -0.4451  0.0013 -0.0019  0.0223
                                         0.0238  0.0260  0.0040  0.0083
   5. (1.97965) BD ( 1) S  2- O  5       
               ( 36.24%)   0.6020* S  2 s( 27.62%)p 2.57( 70.99%)d 0.05(  1.39%)
                                         0.0000 -0.0001  0.5248  0.0280  0.0008
                                        -0.0022  0.0000 -0.0303  0.0034 -0.0029
                                         0.0000  0.0887 -0.0192 -0.0022  0.0000
                                        -0.8356  0.0497  0.0055 -0.0070  0.0028
                                         0.0004  0.0034  0.1175
               ( 63.76%)   0.7985* O  5 s( 20.69%)p 3.81( 78.92%)d 0.02(  0.38%)
                                         0.0000  0.4546 -0.0133 -0.0108 -0.0006
                                         0.0241 -0.0036 -0.0027 -0.0595 -0.0054
                                        -0.0021  0.8859 -0.0133  0.0085 -0.0010
                                         0.0036 -0.0069  0.0003  0.0615
   6. (1.98356) BD ( 1) S  2- O  6       
               ( 34.07%)   0.5837* S  2 s( 29.11%)p 2.39( 69.43%)d 0.05(  1.46%)
                                         0.0000 -0.0003  0.5369  0.0523 -0.0061
                                        -0.0004  0.0001  0.1857 -0.0040 -0.0025
                                         0.0001  0.7018 -0.0498 -0.0046 -0.0001
                                         0.4057 -0.0120 -0.0026  0.0440  0.0309
                                         0.0915 -0.0576 -0.0068
               ( 65.93%)   0.8120* O  6 s( 26.02%)p 2.82( 73.47%)d 0.02(  0.51%)
                                         0.0000  0.5096 -0.0225  0.0026  0.0010
                                        -0.2173  0.0047 -0.0032 -0.7514  0.0112
                                        -0.0095 -0.3500  0.0077 -0.0063  0.0264
                                         0.0140  0.0468 -0.0420 -0.0157
   7. (1.94924) BD ( 1) S  2- C  8       
               ( 44.56%)   0.6675* S  2 s( 18.44%)p 4.32( 79.72%)d 0.10(  1.84%)
                                         0.0000  0.0000  0.4242 -0.0667 -0.0064
                                         0.0014  0.0002  0.6564 -0.0170 -0.0019
                                        -0.0001 -0.5801  0.0197  0.0065  0.0000
                                         0.1708 -0.0005 -0.0007 -0.1114  0.0294
                                        -0.0374  0.0079 -0.0604
               ( 55.44%)   0.7446* C  8 s( 26.65%)p 2.75( 73.22%)d 0.00(  0.13%)
                                         0.0001  0.5129  0.0584  0.0060  0.0007
                                        -0.6239 -0.0278  0.0035  0.5719  0.0207
                                        -0.0013 -0.1212 -0.0018  0.0011 -0.0305
                                         0.0059 -0.0056  0.0024 -0.0175
   8. (1.97232) BD ( 1) S  2- N 15       
               ( 37.06%)   0.6088* S  2 s( 25.48%)p 2.86( 72.90%)d 0.06(  1.62%)
                                         0.0000  0.0002  0.5047  0.0029  0.0072
                                        -0.0016 -0.0001 -0.7133  0.0295  0.0030
                                         0.0000 -0.3624 -0.0012  0.0062  0.0000
                                         0.2949 -0.0328 -0.0033  0.0806 -0.0595
                                        -0.0414  0.0434 -0.0506
               ( 62.94%)   0.7933* N 15 s( 30.73%)p 2.25( 69.09%)d 0.01(  0.18%)
                                        -0.0002  0.5543  0.0058 -0.0067 -0.0012
                                         0.6530  0.0132 -0.0033  0.2986  0.0118
                                         0.0029 -0.4182  0.0021 -0.0024  0.0175
                                        -0.0323 -0.0116  0.0160  0.0063
   9. (1.99430) BD ( 1) C  7- F  9       
               ( 26.93%)   0.5189* C  7 s( 24.60%)p 3.05( 75.09%)d 0.01(  0.31%)
                                         0.0001 -0.4936  0.0479  0.0072  0.0014
                                         0.6918 -0.0504 -0.0069  0.3907 -0.0234
                                         0.0003  0.3407 -0.0218 -0.0012 -0.0329
                                        -0.0299 -0.0183 -0.0228  0.0172
               ( 73.07%)   0.8548* F  9 s( 28.81%)p 2.46( 70.97%)d 0.01(  0.22%)
                                         0.0000 -0.5367  0.0095  0.0039  0.0051
                                        -0.6742  0.0070 -0.0019 -0.3790  0.0074
                                        -0.0019 -0.3336  0.0058 -0.0016 -0.0294
                                        -0.0259 -0.0153 -0.0167  0.0122
  10. (1.99423) BD ( 1) C  7- F 10       
               ( 27.15%)   0.5210* C  7 s( 24.76%)p 3.03( 74.94%)d 0.01(  0.31%)
                                         0.0001 -0.4953  0.0472  0.0065  0.0017
                                        -0.0891  0.0023 -0.0035 -0.7807  0.0558
                                         0.0045  0.3580 -0.0236 -0.0003 -0.0054
                                         0.0048  0.0360  0.0384  0.0157
               ( 72.85%)   0.8535* F 10 s( 28.13%)p 2.55( 71.65%)d 0.01(  0.22%)
                                         0.0000 -0.5303  0.0078  0.0046  0.0046
                                         0.0856 -0.0051  0.0019  0.7651 -0.0094
                                         0.0022 -0.3517  0.0057 -0.0015 -0.0084
                                         0.0042  0.0309  0.0320  0.0111
  11. (1.99446) BD ( 1) C  7- F 11       
               ( 26.88%)   0.5185* C  7 s( 24.63%)p 3.05( 75.06%)d 0.01(  0.31%)
                                         0.0001 -0.4938  0.0490  0.0071  0.0002
                                         0.1176 -0.0111 -0.0041 -0.0903  0.0083
                                         0.0027 -0.8513  0.0600  0.0046  0.0043
                                         0.0146 -0.0106 -0.0018 -0.0528
               ( 73.12%)   0.8551* F 11 s( 29.15%)p 2.42( 70.62%)d 0.01(  0.22%)
                                         0.0000 -0.5398  0.0083  0.0063  0.0046
                                        -0.1041 -0.0016  0.0009  0.0826  0.0002
                                        -0.0001  0.8297 -0.0113  0.0028  0.0012
                                         0.0090 -0.0075 -0.0003 -0.0458
  12. (1.99431) BD ( 1) C  8- F 12       
               ( 26.93%)   0.5189* C  8 s( 24.75%)p 3.03( 74.93%)d 0.01(  0.31%)
                                        -0.0001  0.4951 -0.0485 -0.0072 -0.0013
                                         0.7405 -0.0539 -0.0068  0.2980 -0.0170
                                         0.0015 -0.3293  0.0216  0.0015  0.0258
                                        -0.0313 -0.0134  0.0310 -0.0182
               ( 73.07%)   0.8548* F 12 s( 28.87%)p 2.46( 70.91%)d 0.01(  0.22%)
                                         0.0000  0.5371 -0.0094 -0.0042 -0.0051
                                        -0.7234  0.0081 -0.0021 -0.2854  0.0062
                                        -0.0016  0.3227 -0.0055  0.0015  0.0243
                                        -0.0271 -0.0114  0.0243 -0.0129
  13. (1.99415) BD ( 1) C  8- F 13       
               ( 27.15%)   0.5210* C  8 s( 24.55%)p 3.06( 75.14%)d 0.01(  0.31%)
                                        -0.0001  0.4932 -0.0466 -0.0061 -0.0020
                                        -0.2045  0.0105 -0.0029 -0.7438  0.0538
                                         0.0046 -0.3908  0.0257  0.0005  0.0163
                                         0.0109  0.0373 -0.0334 -0.0131
               ( 72.85%)   0.8535* F 13 s( 27.83%)p 2.59( 71.95%)d 0.01(  0.22%)
                                         0.0000  0.5274 -0.0079 -0.0041 -0.0045
                                         0.2013 -0.0071  0.0022  0.7286 -0.0085
                                         0.0017  0.3847 -0.0063  0.0015  0.0170
                                         0.0095  0.0319 -0.0266 -0.0088
  14. (1.99444) BD ( 1) C  8- F 14       
               ( 26.86%)   0.5183* C  8 s( 24.63%)p 3.05( 75.06%)d 0.01(  0.32%)
                                         0.0001 -0.4937  0.0493  0.0070  0.0003
                                        -0.1039  0.0098  0.0040  0.1452 -0.0126
                                        -0.0033 -0.8455  0.0600  0.0045  0.0052
                                        -0.0128  0.0170  0.0003 -0.0518
               ( 73.14%)   0.8552* F 14 s( 29.20%)p 2.42( 70.58%)d 0.01(  0.22%)
                                         0.0000 -0.5402  0.0082  0.0061  0.0047
                                         0.0915  0.0014 -0.0008 -0.1368  0.0002
                                         0.0001  0.8237 -0.0112  0.0028  0.0015
                                        -0.0078  0.0125  0.0006 -0.0449
  15. (2.00000) CR ( 1) S  1             s(100.00%)
                                         1.0000  0.0000  0.0000  0.0000  0.0000
                                         0.0000  0.0000  0.0000  0.0000  0.0000
                                         0.0000  0.0000  0.0000  0.0000  0.0000
                                         0.0000  0.0000  0.0000  0.0000  0.0000
                                         0.0000  0.0000  0.0000
  16. (1.99894) CR ( 2) S  1             s(100.00%)p 0.00(  0.00%)
                                         0.0000  1.0000  0.0001  0.0000  0.0000
                                         0.0000  0.0000 -0.0002  0.0000  0.0000
                                         0.0000 -0.0002  0.0000  0.0000  0.0000
                                         0.0000  0.0000  0.0000  0.0000  0.0000
                                         0.0000  0.0000  0.0000
  17. (1.99984) CR ( 3) S  1             s(  0.00%)p 1.00(100.00%)
                                         0.0000  0.0000  0.0000  0.0000  0.0000
                                         0.0000  1.0000 -0.0003  0.0000  0.0000
                                         0.0000  0.0000  0.0000  0.0000  0.0000
                                         0.0001  0.0000  0.0000  0.0000  0.0000
                                         0.0000  0.0000  0.0000
  18. (1.99987) CR ( 4) S  1             s(  0.00%)p 1.00(100.00%)
                                         0.0000  0.0000  0.0000  0.0000  0.0000
                                         0.0000  0.0000  0.0000  0.0000  0.0000
                                         1.0000 -0.0001  0.0000  0.0000  0.0000
                                         0.0000  0.0000  0.0000  0.0000  0.0000
                                         0.0000  0.0000  0.0000
  19. (1.99988) CR ( 5) S  1             s(  0.00%)p 1.00(100.00%)
                                         0.0000  0.0000  0.0001  0.0000  0.0000
                                         0.0000  0.0000 -0.0001  0.0000  0.0000
                                         0.0000  0.0000  0.0000  0.0000  1.0000
                                         0.0000  0.0000  0.0000  0.0000  0.0000
                                         0.0000  0.0000  0.0000
  20. (2.00000) CR ( 1) S  2             s(100.00%)
                                         1.0000  0.0000  0.0000  0.0000  0.0000
                                         0.0000  0.0000  0.0000  0.0000  0.0000
                                         0.0000  0.0000  0.0000  0.0000  0.0000
                                         0.0000  0.0000  0.0000  0.0000  0.0000
                                         0.0000  0.0000  0.0000
  21. (1.99892) CR ( 2) S  2             s(100.00%)p 0.00(  0.00%)
                                         0.0000  1.0000  0.0001  0.0000  0.0000
                                         0.0000  0.0000  0.0002  0.0000  0.0000
                                         0.0000  0.0002  0.0000  0.0000  0.0000
                                         0.0000  0.0000  0.0000  0.0000  0.0000
                                         0.0000  0.0000  0.0000
  22. (1.99983) CR ( 3) S  2             s(  0.00%)p 1.00(100.00%)
                                         0.0000  0.0000  0.0000  0.0000  0.0000
                                         0.0000  1.0000 -0.0003  0.0000  0.0000
                                         0.0000  0.0000  0.0000  0.0000  0.0000
                                        -0.0001  0.0000  0.0000  0.0000  0.0000
                                         0.0000  0.0000  0.0000
  23. (1.99987) CR ( 4) S  2             s(  0.00%)p 1.00(100.00%)
                                         0.0000  0.0000  0.0000  0.0000  0.0000
                                         0.0000  0.0000  0.0000  0.0000  0.0000
                                         1.0000 -0.0001  0.0000  0.0000  0.0000
                                         0.0000  0.0000  0.0000  0.0000  0.0000
                                         0.0000  0.0000  0.0000
  24. (1.99989) CR ( 5) S  2             s(  0.00%)p 1.00(100.00%)
                                         0.0000  0.0000  0.0001  0.0000  0.0000
                                         0.0000  0.0000  0.0001  0.0000  0.0000
                                         0.0000  0.0000  0.0000  0.0000  1.0000
                                         0.0000  0.0000  0.0000  0.0000  0.0000
                                         0.0000  0.0000  0.0000
  25. (1.99985) CR ( 1) O  3             s(100.00%)p 0.00(  0.00%)
                                         1.0000  0.0002  0.0000  0.0000  0.0000
                                        -0.0001  0.0000  0.0000 -0.0001  0.0000
                                         0.0000  0.0002  0.0000  0.0000  0.0000
                                         0.0000  0.0000  0.0000  0.0000
  26. (1.99988) CR ( 1) O  4             s(100.00%)p 0.00(  0.00%)
                                         1.0000  0.0002  0.0000  0.0000  0.0000
                                        -0.0001  0.0000  0.0000  0.0001  0.0000
                                         0.0000 -0.0001  0.0000  0.0000  0.0000
                                         0.0000  0.0000  0.0000  0.0000
  27. (1.99988) CR ( 1) O  5             s(100.00%)p 0.00(  0.00%)
                                         1.0000  0.0002  0.0000  0.0000  0.0000
                                         0.0000  0.0000  0.0000 -0.0001  0.0000
                                         0.0000 -0.0001  0.0000  0.0000  0.0000
                                         0.0000  0.0000  0.0000  0.0000
  28. (1.99985) CR ( 1) O  6             s(100.00%)p 0.00(  0.00%)
                                         1.0000  0.0002  0.0000  0.0000  0.0000
                                         0.0001  0.0000  0.0000  0.0000  0.0000
                                         0.0000  0.0002  0.0000  0.0000  0.0000
                                         0.0000  0.0000  0.0000  0.0000
  29. (1.99971) CR ( 1) C  7             s(100.00%)p 0.00(  0.00%)
                                         1.0000  0.0001  0.0000  0.0000  0.0000
                                        -0.0001  0.0000  0.0000  0.0001  0.0000
                                         0.0000  0.0000  0.0000  0.0000  0.0000
                                         0.0000  0.0000  0.0000  0.0000
  30. (1.99971) CR ( 1) C  8             s(100.00%)p 0.00(  0.00%)
                                         1.0000  0.0001  0.0000  0.0000  0.0000
                                         0.0001  0.0000  0.0000 -0.0001  0.0000
                                         0.0000  0.0000  0.0000  0.0000  0.0000
                                         0.0000  0.0000  0.0000  0.0000
  31. (1.99991) CR ( 1) F  9             s(100.00%)
                                         1.0000  0.0002  0.0000  0.0000  0.0000
                                        -0.0001  0.0000  0.0000 -0.0001  0.0000
                                         0.0000 -0.0001  0.0000  0.0000  0.0000
                                         0.0000  0.0000  0.0000  0.0000
  32. (1.99991) CR ( 1) F 10             s(100.00%)p 0.00(  0.00%)
                                         1.0000  0.0002  0.0000  0.0000  0.0000
                                         0.0000  0.0000  0.0000  0.0001  0.0000
                                         0.0000 -0.0001  0.0000  0.0000  0.0000
                                         0.0000  0.0000  0.0000  0.0000
  33. (1.99991) CR ( 1) F 11             s(100.00%)p 0.00(  0.00%)
                                         1.0000  0.0002  0.0000  0.0000  0.0000
                                         0.0000  0.0000  0.0000  0.0000  0.0000
                                         0.0000  0.0001  0.0000  0.0000  0.0000
                                         0.0000  0.0000  0.0000  0.0000
  34. (1.99991) CR ( 1) F 12             s(100.00%)
                                         1.0000  0.0002  0.0000  0.0000  0.0000
                                         0.0001  0.0000  0.0000  0.0001  0.0000
                                         0.0000 -0.0001  0.0000  0.0000  0.0000
                                         0.0000  0.0000  0.0000  0.0000
  35. (1.99992) CR ( 1) F 13             s(100.00%)
                                         1.0000  0.0002  0.0000  0.0000  0.0000
                                        -0.0001  0.0000  0.0000 -0.0001  0.0000
                                         0.0000 -0.0001  0.0000  0.0000  0.0000
                                         0.0000  0.0000  0.0000  0.0000
  36. (1.99991) CR ( 1) F 14             s(100.00%)p 0.00(  0.00%)
                                         1.0000  0.0002  0.0000  0.0000  0.0000
                                         0.0000  0.0000  0.0000  0.0000  0.0000
                                         0.0000  0.0001  0.0000  0.0000  0.0000
                                         0.0000  0.0000  0.0000  0.0000
  37. (1.99948) CR ( 1) N 15             s(100.00%)p 0.00(  0.00%)
                                         1.0000  0.0001  0.0000  0.0000  0.0000
                                         0.0001  0.0000  0.0000 -0.0001  0.0000
                                         0.0000 -0.0004  0.0000  0.0000  0.0000
                                         0.0000  0.0000  0.0000  0.0000
  38. (1.98250) LP ( 1) O  3             s( 73.97%)p 0.35( 26.00%)d 0.00(  0.03%)
                                        -0.0002  0.8600  0.0082 -0.0030 -0.0003
                                        -0.0542  0.0002 -0.0009 -0.4531  0.0034
                                        -0.0049  0.2273 -0.0019  0.0021 -0.0028
                                         0.0010  0.0118  0.0123  0.0035
  39. (1.80606) LP ( 2) O  3             s(  0.11%)p99.99( 99.57%)d 2.87(  0.32%)
                                         0.0000  0.0331  0.0031  0.0005  0.0003
                                        -0.7132 -0.0019  0.0061 -0.1890  0.0009
                                         0.0021 -0.6718 -0.0005  0.0030 -0.0372
                                         0.0132 -0.0310  0.0056  0.0248
  40. (1.78387) LP ( 3) O  3             s(  0.05%)p99.99( 99.63%)d 6.05(  0.32%)
                                         0.0001  0.0229  0.0009  0.0003  0.0001
                                         0.6883  0.0048 -0.0046 -0.3549 -0.0026
                                         0.0047 -0.6297 -0.0035  0.0019  0.0326
                                        -0.0199 -0.0253  0.0230  0.0232
  41. (1.98444) LP ( 1) O  4             s( 79.47%)p 0.26( 20.51%)d 0.00(  0.01%)
                                        -0.0002  0.8915  0.0047 -0.0031  0.0002
                                         0.0321 -0.0028 -0.0010 -0.0219 -0.0035
                                        -0.0017 -0.4511  0.0038 -0.0071 -0.0008
                                         0.0026 -0.0007  0.0001 -0.0113
  42. (1.82829) LP ( 2) O  4             s(  0.00%)p 1.00( 99.74%)d 0.00(  0.26%)
                                         0.0001 -0.0024  0.0055 -0.0029 -0.0005
                                        -0.5167  0.0010  0.0034 -0.8546 -0.0007
                                         0.0042 -0.0002 -0.0012  0.0007  0.0032
                                        -0.0263 -0.0434  0.0038 -0.0010
  43. (1.80397) LP ( 3) O  4             s(  0.04%)p99.99( 99.70%)d 5.89(  0.26%)
                                        -0.0001  0.0208 -0.0011  0.0018 -0.0004
                                        -0.8536 -0.0054  0.0045  0.5160  0.0056
                                        -0.0016 -0.0448 -0.0014 -0.0024 -0.0009
                                        -0.0433  0.0262  0.0020 -0.0040
  44. (1.98453) LP ( 1) O  5             s( 79.27%)p 0.26( 20.72%)d 0.00(  0.01%)
                                        -0.0002  0.8903  0.0055  0.0019  0.0002
                                        -0.0254  0.0030  0.0012  0.0463  0.0035
                                         0.0022 -0.4520  0.0042 -0.0067 -0.0006
                                        -0.0022  0.0018  0.0000 -0.0114
  45. (1.82401) LP ( 2) O  5             s(  0.00%)p 1.00( 99.73%)d 0.00(  0.26%)
                                         0.0001 -0.0002  0.0056  0.0025 -0.0005
                                         0.7631  0.0002 -0.0042  0.6437 -0.0006
                                        -0.0041  0.0226 -0.0015  0.0000 -0.0001
                                         0.0389  0.0328  0.0060  0.0010
  46. (1.80686) LP ( 3) O  5             s(  0.04%)p99.99( 99.71%)d 7.28(  0.26%)
                                        -0.0001  0.0184 -0.0040 -0.0003 -0.0004
                                         0.6432  0.0053 -0.0023 -0.7597 -0.0065
                                         0.0032 -0.0780 -0.0020 -0.0034 -0.0030
                                         0.0323 -0.0385 -0.0011 -0.0067
  47. (1.98312) LP ( 1) O  6             s( 73.83%)p 0.35( 26.14%)d 0.00(  0.03%)
                                        -0.0002  0.8592  0.0084 -0.0032 -0.0003
                                         0.1155 -0.0009  0.0014  0.4308 -0.0036
                                         0.0040  0.2499 -0.0027  0.0019 -0.0059
                                        -0.0030 -0.0125  0.0106  0.0025
  48. (1.80397) LP ( 2) O  6             s(  0.11%)p99.99( 99.58%)d 3.03(  0.32%)
                                         0.0000  0.0323  0.0030  0.0002  0.0004
                                         0.7867  0.0023 -0.0065  0.0780 -0.0017
                                        -0.0016 -0.6089 -0.0003  0.0034 -0.0389
                                        -0.0131  0.0289 -0.0059  0.0253
  49. (1.78882) LP ( 3) O  6             s(  0.06%)p99.99( 99.62%)d 5.49(  0.32%)
                                         0.0001  0.0240  0.0019  0.0002  0.0003
                                        -0.5632 -0.0050  0.0020  0.4883  0.0037
                                        -0.0056 -0.6638 -0.0044  0.0012  0.0204
                                         0.0235  0.0210  0.0315  0.0279
  50. (1.98817) LP ( 1) F  9             s( 71.17%)p 0.40( 28.82%)d 0.00(  0.02%)
                                        -0.0002  0.8436  0.0055  0.0014  0.0023
                                        -0.4354  0.0027  0.0036 -0.2312  0.0046
                                         0.0018 -0.2124  0.0036  0.0016 -0.0077
                                        -0.0069 -0.0040 -0.0045  0.0029
  51. (1.94149) LP ( 2) F  9             s(  0.01%)p99.99( 99.87%)d 9.11(  0.12%)
                                         0.0000  0.0095 -0.0049 -0.0034  0.0018
                                         0.5670  0.0048  0.0006 -0.7724 -0.0051
                                         0.0000 -0.2838 -0.0014  0.0000 -0.0110
                                         0.0007 -0.0163  0.0275 -0.0057
  52. (1.93744) LP ( 3) F  9             s(  0.00%)p 1.00( 99.88%)d 0.00(  0.12%)
                                         0.0000  0.0030  0.0013  0.0005 -0.0003
                                        -0.1798 -0.0003 -0.0003 -0.4525 -0.0012
                                         0.0000  0.8727  0.0019  0.0001 -0.0152
                                         0.0214  0.0071  0.0020  0.0209
  53. (1.98826) LP ( 1) F 10             s( 71.85%)p 0.39( 28.13%)d 0.00(  0.01%)
                                        -0.0002  0.8476  0.0047  0.0017  0.0020
                                         0.0456 -0.0041  0.0002  0.4797 -0.0042
                                        -0.0043 -0.2215  0.0034  0.0019 -0.0024
                                         0.0012  0.0080  0.0082  0.0025
  54. (1.94033) LP ( 2) F 10             s(  0.01%)p 1.00( 99.87%)d 0.00(  0.12%)
                                         0.0000  0.0062 -0.0054 -0.0046  0.0016
                                         0.9352  0.0066  0.0008 -0.2249 -0.0028
                                        -0.0003 -0.2712 -0.0013  0.0001 -0.0273
                                         0.0159  0.0051 -0.0115 -0.0058
  55. (1.93761) LP ( 3) F 10             s(  0.00%)p 1.00( 99.88%)d 0.00(  0.12%)
                                         0.0000  0.0030  0.0002  0.0001 -0.0001
                                         0.3388  0.0001  0.0005  0.3629  0.0008
                                         0.0001  0.8673  0.0019 -0.0003 -0.0120
                                         0.0014 -0.0216  0.0101  0.0216
  56. (1.98794) LP ( 1) F 11             s( 70.81%)p 0.41( 29.17%)d 0.00(  0.02%)
                                        -0.0002  0.8415  0.0054  0.0026  0.0021
                                        -0.0846 -0.0020  0.0010  0.0634  0.0004
                                        -0.0006  0.5296 -0.0064 -0.0040  0.0002
                                         0.0026 -0.0023  0.0000 -0.0123
  57. (1.94230) LP ( 2) F 11             s(  0.03%)p99.99( 99.85%)d 3.42(  0.12%)
                                         0.0000  0.0175 -0.0050 -0.0039  0.0017
                                         0.8203  0.0057  0.0008 -0.5450 -0.0047
                                         0.0003  0.1686  0.0000 -0.0004 -0.0037
                                        -0.0277  0.0181  0.0005 -0.0092
  58. (1.93525) LP ( 3) F 11             s(  0.00%)p 1.00( 99.88%)d 0.00(  0.12%)
                                         0.0000 -0.0009  0.0017  0.0011 -0.0003
                                        -0.5548 -0.0004 -0.0008 -0.8312 -0.0020
                                         0.0003  0.0124  0.0002  0.0000 -0.0014
                                         0.0191  0.0284 -0.0056 -0.0009
  59. (1.98816) LP ( 1) F 12             s( 71.12%)p 0.41( 28.87%)d 0.00(  0.02%)
                                        -0.0002  0.8433  0.0054  0.0015  0.0023
                                         0.4650 -0.0035 -0.0038  0.1727 -0.0041
                                        -0.0013 -0.2063  0.0035  0.0015 -0.0063
                                         0.0072  0.0030 -0.0064  0.0031
  60. (1.94123) LP ( 2) F 12             s(  0.01%)p 1.00( 99.87%)d 0.00(  0.12%)
                                         0.0000  0.0078 -0.0048 -0.0036  0.0017
                                        -0.4613 -0.0039 -0.0006  0.8289  0.0056
                                         0.0001 -0.3142 -0.0013  0.0000 -0.0175
                                         0.0026  0.0160  0.0237 -0.0061
  61. (1.93711) LP ( 3) F 12             s(  0.00%)p 1.00( 99.88%)d 0.00(  0.12%)
                                         0.0000  0.0032  0.0012  0.0004 -0.0001
                                         0.2130  0.0001  0.0003  0.4474  0.0015
                                        -0.0001  0.8679  0.0019  0.0001 -0.0155
                                        -0.0226 -0.0040 -0.0011  0.0202
  62. (1.98840) LP ( 1) F 13             s( 72.15%)p 0.39( 27.84%)d 0.00(  0.01%)
                                        -0.0002  0.8494  0.0047  0.0014  0.0020
                                        -0.1127  0.0051  0.0003 -0.4561  0.0033
                                         0.0046 -0.2400  0.0035  0.0023 -0.0044
                                        -0.0025 -0.0082  0.0069  0.0018
  63. (1.94139) LP ( 2) F 13             s(  0.01%)p99.99( 99.87%)d 8.22(  0.12%)
                                         0.0000  0.0099 -0.0054 -0.0039  0.0015
                                        -0.8561 -0.0063 -0.0010  0.4006  0.0040
                                         0.0004 -0.3244 -0.0014  0.0002 -0.0207
                                        -0.0174 -0.0030 -0.0194 -0.0080
  64. (1.93832) LP ( 3) F 13             s(  0.00%)p 1.00( 99.88%)d 0.00(  0.12%)
                                         0.0000  0.0047 -0.0002 -0.0001 -0.0001
                                        -0.4610 -0.0008 -0.0007 -0.3139 -0.0005
                                         0.0000  0.8293  0.0018 -0.0004 -0.0162
                                        -0.0004  0.0194  0.0055  0.0225
  65. (1.98793) LP ( 1) F 14             s( 70.76%)p 0.41( 29.22%)d 0.00(  0.02%)
                                        -0.0002  0.8412  0.0053  0.0025  0.0021
                                         0.0753  0.0019 -0.0010 -0.0996 -0.0003
                                         0.0009  0.5259 -0.0064 -0.0040  0.0003
                                        -0.0023  0.0036  0.0002 -0.0120
  66. (1.94225) LP ( 2) F 14             s(  0.03%)p99.99( 99.85%)d 3.56(  0.12%)
                                         0.0000  0.0172 -0.0046 -0.0037  0.0017
                                        -0.7569 -0.0051 -0.0009  0.6213  0.0053
                                        -0.0002  0.1986  0.0003 -0.0004 -0.0049
                                         0.0254 -0.0201 -0.0012 -0.0109
  67. (1.93507) LP ( 3) F 14             s(  0.00%)p 1.00( 99.88%)d 0.00(  0.12%)
                                         0.0000 -0.0013  0.0015  0.0010 -0.0003
                                         0.6416  0.0006  0.0007  0.7643  0.0021
                                        -0.0004  0.0548  0.0003  0.0000  0.0012
                                        -0.0220 -0.0256 -0.0071 -0.0034
  68. (1.86584) LP ( 1) N 15             s( 38.89%)p 1.57( 60.94%)d 0.00(  0.17%)
                                         0.0002  0.6235  0.0014  0.0114  0.0013
                                        -0.0639  0.0009  0.0005  0.0682 -0.0002
                                         0.0005  0.7749 -0.0089  0.0083  0.0107
                                         0.0056 -0.0069  0.0071 -0.0382
  69. (1.74691) LP ( 2) N 15             s(  0.24%)p99.99( 99.58%)d 0.74(  0.18%)
                                         0.0000  0.0492 -0.0002  0.0007  0.0000
                                        -0.5236  0.0002  0.0073  0.8349 -0.0043
                                        -0.0030 -0.1563  0.0010 -0.0012  0.0083
                                         0.0196 -0.0348  0.0031  0.0107
  70. (0.06465) RY*( 1) S  1             s(  3.91%)p 4.40( 17.21%)d20.16( 78.88%)
                                         0.0000  0.0000  0.0250  0.1699  0.0981
                                        -0.0045  0.0000  0.0227  0.0671 -0.0193
                                         0.0000 -0.1562 -0.3235 -0.0516  0.0000
                                        -0.0715 -0.1692 -0.0346 -0.1901  0.0784
                                         0.6786  0.2148 -0.4897
  71. (0.05717) RY*( 2) S  1             s(  1.90%)p 8.91( 16.93%)d42.73( 81.18%)
                                         0.0000  0.0000  0.0126  0.1371 -0.0059
                                         0.0047  0.0000  0.1445  0.3234  0.0283
                                         0.0000 -0.0204 -0.0517  0.0106  0.0000
                                         0.0607  0.1863  0.0366 -0.7866 -0.3505
                                        -0.1009  0.1107  0.2185
  72. (0.04391) RY*( 3) S  1             s(  0.38%)p36.70( 14.06%)d99.99( 85.56%)
                                         0.0000  0.0000  0.0047  0.0192  0.0576
                                        -0.0112  0.0000 -0.0445 -0.1640 -0.0071
                                         0.0000 -0.0573 -0.1954 -0.0080  0.0000
                                         0.1080  0.2364  0.0509  0.1118  0.2428
                                         0.3304  0.4456  0.6902
  73. (0.03059) RY*( 4) S  1             s(  0.21%)p 4.75(  1.00%)d99.99( 98.78%)
                                         0.0000  0.0000  0.0008  0.0432 -0.0134
                                         0.0083  0.0000  0.0053  0.0337  0.0028
                                         0.0000 -0.0059 -0.0488 -0.0123  0.0000
                                         0.0036  0.0791  0.0058  0.4376 -0.8585
                                         0.1429  0.1972  0.0014
  74. (0.01816) RY*( 5) S  1             s(  0.21%)p21.37(  4.45%)d99.99( 95.34%)
                                         0.0000  0.0000  0.0027  0.0413 -0.0126
                                         0.0146  0.0000  0.0029 -0.0409 -0.0151
                                         0.0000 -0.0297 -0.1300 -0.0246  0.0000
                                        -0.0338 -0.1518 -0.0058  0.0260  0.0912
                                        -0.5470  0.7610 -0.2571
  75. (0.00772) RY*( 6) S  1             s(  0.41%)p99.99( 87.27%)d30.41( 12.33%)
                                         0.0000  0.0000 -0.0034  0.0436  0.0458
                                         0.0067  0.0000 -0.0075  0.1244 -0.0031
                                         0.0000 -0.0025  0.4030 -0.0482  0.0000
                                        -0.0057 -0.8111  0.1857 -0.0455 -0.0630
                                         0.1342  0.1160  0.2929
  76. (0.00448) RY*( 7) S  1             s( 12.77%)p 5.49( 70.11%)d 1.34( 17.12%)
                                         0.0000  0.0000  0.0157  0.3413 -0.0424
                                        -0.0960  0.0000  0.0077 -0.2392  0.0642
                                         0.0000 -0.0039 -0.6804  0.2026  0.0000
                                        -0.0066 -0.3547  0.0993  0.0078 -0.0867
                                        -0.2140 -0.2916  0.1811
  77. (0.00155) RY*( 8) S  1             s( 61.04%)p 0.47( 28.63%)d 0.17( 10.33%)
                                         0.0000  0.0000  0.0069  0.7434 -0.2336
                                        -0.0564  0.0000  0.0030  0.4558 -0.1852
                                         0.0000 -0.0302  0.1526  0.0230  0.0000
                                        -0.0079  0.1388 -0.0129  0.2597  0.1849
                                        -0.0320 -0.0170  0.0193
  78. (0.00105) RY*( 9) S  1             s( 29.99%)p 2.18( 65.43%)d 0.15(  4.58%)
                                         0.0000  0.0000 -0.0056  0.4911  0.1802
                                         0.1618  0.0000  0.0338 -0.6880  0.0667
                                         0.0000 -0.0234  0.3888  0.0806  0.0000
                                        -0.0074  0.0989 -0.0858 -0.1719 -0.0939
                                         0.0241  0.0331 -0.0760
  79. (0.00048) RY*(10) S  1             s( 81.38%)p 0.19( 15.41%)d 0.04(  3.20%)
                                         0.0000  0.0000  0.0026  0.0793  0.8981
                                         0.0295  0.0000 -0.0145  0.2608  0.1131
                                         0.0000  0.0085 -0.0210  0.1665  0.0000
                                        -0.0001  0.0788  0.1966  0.1290  0.0460
                                        -0.1046 -0.0453 -0.0171
  80. (0.00017) RY*(11) S  1             s(  9.90%)p 8.93( 88.39%)d 0.17(  1.71%)
                                         0.0000  0.0000  0.0005 -0.0130 -0.1732
                                         0.2623  0.0000  0.0043 -0.0894 -0.1092
                                         0.0000 -0.0039 -0.0032 -0.0443  0.0000
                                        -0.0022  0.1442  0.9172 -0.0097  0.0165
                                         0.0193 -0.0115 -0.1275
  81. (0.00009) RY*(12) S  1             s( 72.37%)p 0.35( 25.58%)d 0.03(  2.05%)
[...]
                                        -0.0009 -0.6343  0.0969  0.0012 -0.7443
                                         0.1087 -0.0001 -0.0497 -0.0045 -0.0224
                                        -0.0252 -0.0110 -0.0737 -0.0113
 255. (0.00033) RY*( 4) F 14             s( 82.34%)p 0.17( 13.71%)d 0.05(  3.95%)
                                         0.0000  0.0023  0.2904  0.8489 -0.1358
                                        -0.0044 -0.0021  0.1220 -0.0004  0.1743
                                        -0.0597 -0.0137 -0.2943  0.0384 -0.1579
                                         0.0075 -0.0822 -0.0147 -0.0869
 256. (0.00023) RY*( 5) F 14             s( 10.57%)p 5.56( 58.72%)d 2.91( 30.72%)
                                         0.0000 -0.0005 -0.1799  0.2628 -0.0652
                                        -0.0108  0.1505  0.1502 -0.0022 -0.0699
                                         0.4060  0.0027  0.5014 -0.3474  0.0605
                                        -0.3430 -0.1326  0.4027 -0.0777
 257. (0.00016) RY*( 6) F 14             s(  8.40%)p 3.90( 32.78%)d 7.00( 58.82%)
                                         0.0000 -0.0013 -0.1906  0.2171 -0.0217
                                         0.0139  0.0929 -0.2645  0.0151 -0.1061
                                        -0.1090  0.0031  0.3171 -0.3537 -0.3606
                                         0.3763  0.5144 -0.2275  0.0150
 258. (0.00011) RY*( 7) F 14             s(  3.02%)p 4.63( 13.97%)d27.50( 83.01%)
                                         0.0000  0.0026  0.0736  0.1510 -0.0442
                                        -0.0089  0.0325  0.2252  0.0182 -0.0367
                                        -0.2724 -0.0025  0.1037 -0.0347  0.7599
                                        -0.1023  0.4817 -0.0977  0.0251
 259. (0.00008) RY*( 8) F 14             s(  2.06%)p12.49( 25.72%)d35.08( 72.23%)
 260. (0.00007) RY*( 9) F 14             s(  5.10%)p 6.21( 31.67%)d12.41( 63.23%)
 261. (0.00004) RY*(10) F 14             s(  1.23%)p22.68( 27.89%)d57.64( 70.88%)
 262. (0.00001) RY*(11) F 14             s(  1.28%)p37.96( 48.46%)d39.38( 50.27%)
 263. (0.00001) RY*(12) F 14             s(  4.68%)p 9.82( 45.94%)d10.56( 49.39%)
 264. (0.00002) RY*(13) F 14             s( 10.39%)p 7.74( 80.39%)d 0.89(  9.22%)
 265. (0.00001) RY*(14) F 14             s( 94.54%)p 0.02(  1.58%)d 0.04(  3.88%)
 266. (0.00402) RY*( 1) N 15             s(  0.20%)p99.99( 97.99%)d 8.99(  1.81%)
                                         0.0000 -0.0007  0.0425  0.0142  0.0019
                                         0.0223 -0.0765  0.0601  0.0104 -0.9835
                                         0.0098  0.0005 -0.0431  0.0249 -0.0034
                                         0.0956  0.0945 -0.0002  0.0035
 267. (0.00249) RY*( 2) N 15             s( 30.94%)p 2.15( 66.66%)d 0.08(  2.40%)
                                         0.0000 -0.0083  0.5518 -0.0702  0.0034
                                         0.0100 -0.5870 -0.1721  0.0070  0.0874
                                        -0.0710 -0.0019 -0.5199  0.0959  0.1264
                                         0.0563 -0.0034 -0.0657 -0.0226
 268. (0.00227) RY*( 3) N 15             s( 26.43%)p 2.67( 70.55%)d 0.11(  3.02%)
                                         0.0000 -0.0080  0.5120 -0.0456 -0.0011
                                        -0.0123  0.7379  0.2021 -0.0071 -0.0146
                                         0.0951 -0.0005 -0.3124  0.1148  0.1130
                                        -0.0800 -0.0001 -0.1047 -0.0091
 269. (0.00193) RY*( 4) N 15             s( 34.72%)p 1.74( 60.37%)d 0.14(  4.90%)
                                         0.0000 -0.0079  0.5876 -0.0429  0.0022
                                         0.0025 -0.0846 -0.0194  0.0009 -0.0054
                                        -0.0156  0.0069  0.7608 -0.1306  0.1700
                                         0.0406 -0.0173 -0.0039 -0.1347
 270. (0.00119) RY*( 5) N 15             s( 87.58%)p 0.02(  2.06%)d 0.12( 10.36%)
                                         0.0000  0.0018  0.1436  0.9236 -0.0461
                                        -0.0029 -0.0005 -0.0074 -0.0057  0.0105
                                         0.0331 -0.0215 -0.0600 -0.1235 -0.2226
                                        -0.0098 -0.0775  0.1380 -0.1700
 271. (0.00096) RY*( 6) N 15             s(  2.52%)p24.19( 61.02%)d14.45( 36.46%)
                                         0.0000  0.0106  0.1175  0.1010 -0.0332
                                        -0.0002 -0.0272 -0.0191 -0.0021  0.0213
                                        -0.0566  0.0116  0.1902  0.7544 -0.2602
                                         0.0033  0.0065  0.1787  0.5147
 272. (0.00045) RY*( 7) N 15             s(  0.12%)p99.99( 25.02%)d99.99( 74.86%)
                                         0.0000 -0.0012 -0.0078  0.0331  0.0008
                                         0.0377 -0.0501  0.4499  0.0160  0.1448
                                         0.1496 -0.0011 -0.0175  0.0036  0.0101
                                         0.7953  0.3392  0.0314  0.0061
 273. (0.00033) RY*( 8) N 15             s(  0.09%)p99.99( 80.83%)d99.99( 19.08%)
                                         0.0000 -0.0014 -0.0038  0.0291  0.0005
                                         0.0107  0.2849 -0.5894  0.0108 -0.0059
                                        -0.6144 -0.0010 -0.0206 -0.0399  0.0196
                                         0.3625  0.2378  0.0440 -0.0233
 274. (0.00014) RY*( 9) N 15             s(  0.20%)p10.65(  2.08%)d99.99( 97.72%)
                                         0.0000 -0.0099  0.0383 -0.0193  0.0045
                                        -0.0184 -0.0322 -0.0182  0.0338  0.0449
                                         0.1238  0.0055 -0.0145 -0.0200  0.0179
                                        -0.3865  0.8201  0.3828 -0.0920
 275. (0.00012) RY*(10) N 15             s(  0.59%)p99.99( 63.62%)d60.58( 35.79%)
                                         0.0000 -0.0127  0.0113 -0.0476  0.0579
                                        -0.0005 -0.0488  0.5073 -0.0149 -0.0016
                                        -0.6061  0.0036 -0.0627 -0.0712  0.1591
                                        -0.1094 -0.2059  0.5273 -0.0114
 276. (0.00007) RY*(11) N 15             s(  1.56%)p20.14( 31.49%)d42.82( 66.94%)
 277. (0.00007) RY*(12) N 15             s(  4.08%)p 5.56( 22.66%)d17.98( 73.27%)
 278. (0.00005) RY*(13) N 15             s( 27.75%)p 0.46( 12.79%)d 2.14( 59.46%)
 279. (0.00002) RY*(14) N 15             s( 83.33%)p 0.04(  3.45%)d 0.16( 13.22%)
 280. (0.16344) BD*( 1) S  1- O  3       
               ( 65.95%)   0.8121* S  1 s( 28.93%)p 2.41( 69.59%)d 0.05(  1.48%)
                                         0.0000  0.0002 -0.5355  0.0496  0.0066
                                         0.0005  0.0000  0.0897  0.0039 -0.0032
                                         0.0001  0.7415 -0.0541 -0.0049  0.0001
                                        -0.3673  0.0107  0.0025 -0.0280  0.0177
                                         0.0900  0.0735  0.0161
               ( 34.05%)  -0.5835* O  3 s( 25.87%)p 2.85( 73.62%)d 0.02(  0.51%)
                                         0.0000 -0.5082  0.0218 -0.0018 -0.0009
                                        -0.1067  0.0026 -0.0022 -0.7922  0.0112
                                        -0.0107  0.3113 -0.0062  0.0061 -0.0138
                                         0.0066  0.0441  0.0500  0.0199
 281. (0.17757) BD*( 1) S  1- O  4       
               ( 63.66%)   0.7979* S  1 s( 27.42%)p 2.60( 71.21%)d 0.05(  1.37%)
                                         0.0000 -0.0001  0.5230 -0.0256 -0.0004
                                        -0.0017  0.0001  0.0408 -0.0048  0.0028
                                         0.0000 -0.0431  0.0163  0.0016  0.0000
                                        -0.8399  0.0523  0.0056 -0.0065 -0.0036
                                        -0.0104  0.0060  0.1162
               ( 36.34%)  -0.6028* O  4 s( 20.48%)p 3.86( 79.14%)d 0.02(  0.38%)
                                         0.0000  0.4522 -0.0165  0.0040 -0.0006
                                        -0.0267  0.0034  0.0028  0.0146  0.0057
                                         0.0018  0.8889 -0.0126  0.0089 -0.0007
                                        -0.0042  0.0014  0.0009  0.0617
 282. (0.33578) BD*( 1) S  1- C  7       
               ( 55.31%)   0.7437* S  1 s( 18.59%)p 4.28( 79.61%)d 0.10(  1.80%)
                                         0.0000 -0.0001  0.4265  0.0629 -0.0049
                                         0.0011 -0.0003 -0.7271  0.0162  0.0017
                                         0.0000  0.4776 -0.0177 -0.0059 -0.0001
                                         0.1964 -0.0007 -0.0015 -0.1027 -0.0390
                                         0.0371  0.0388 -0.0554
               ( 44.69%)  -0.6685* C  7 s( 26.59%)p 2.76( 73.28%)d 0.01(  0.13%)
                                         0.0001  0.5123  0.0583  0.0062  0.0007
                                         0.6998  0.0304 -0.0036 -0.4692 -0.0168
                                         0.0005 -0.1473 -0.0025  0.0011 -0.0287
                                        -0.0084  0.0056  0.0108 -0.0171
 283. (0.21831) BD*( 1) S  1- N 15       
               ( 62.75%)   0.7921* S  1 s( 25.67%)p 2.83( 72.72%)d 0.06(  1.61%)
                                         0.0000  0.0002  0.5066 -0.0015  0.0083
                                        -0.0018  0.0002  0.6607 -0.0217 -0.0027
                                         0.0001  0.4353 -0.0119 -0.0063  0.0000
                                         0.3150 -0.0349 -0.0036  0.0839  0.0572
                                         0.0523  0.0281 -0.0480
               ( 37.25%)  -0.6104* N 15 s( 30.03%)p 2.32( 69.79%)d 0.01(  0.18%)
                                        -0.0003  0.5479  0.0058 -0.0081 -0.0010
                                        -0.5410 -0.0123  0.0032 -0.4547 -0.0117
                                        -0.0021 -0.4451  0.0013 -0.0019  0.0223
                                         0.0238  0.0260  0.0040  0.0083
 284. (0.17968) BD*( 1) S  2- O  5       
               ( 63.76%)   0.7985* S  2 s( 27.62%)p 2.57( 70.99%)d 0.05(  1.39%)
                                         0.0000 -0.0001  0.5248  0.0280  0.0008
                                        -0.0022  0.0000 -0.0303  0.0034 -0.0029
                                         0.0000  0.0887 -0.0192 -0.0022  0.0000
                                        -0.8356  0.0497  0.0055 -0.0070  0.0028
                                         0.0004  0.0034  0.1175
               ( 36.24%)  -0.6020* O  5 s( 20.69%)p 3.81( 78.92%)d 0.02(  0.38%)
                                         0.0000  0.4546 -0.0133 -0.0108 -0.0006
                                         0.0241 -0.0036 -0.0027 -0.0595 -0.0054
                                        -0.0021  0.8859 -0.0133  0.0085 -0.0010
                                         0.0036 -0.0069  0.0003  0.0615
 285. (0.15526) BD*( 1) S  2- O  6       
               ( 65.93%)   0.8120* S  2 s( 29.11%)p 2.39( 69.43%)d 0.05(  1.46%)
                                         0.0000 -0.0003  0.5369  0.0523 -0.0061
                                        -0.0004  0.0001  0.1857 -0.0040 -0.0025
                                         0.0001  0.7018 -0.0498 -0.0046 -0.0001
                                         0.4057 -0.0120 -0.0026  0.0440  0.0309
                                         0.0915 -0.0576 -0.0068
               ( 34.07%)  -0.5837* O  6 s( 26.02%)p 2.82( 73.47%)d 0.02(  0.51%)
                                         0.0000  0.5096 -0.0225  0.0026  0.0010
                                        -0.2173  0.0047 -0.0032 -0.7514  0.0112
                                        -0.0095 -0.3500  0.0077 -0.0063  0.0264
                                         0.0140  0.0468 -0.0420 -0.0157
 286. (0.34068) BD*( 1) S  2- C  8       
               ( 55.44%)   0.7446* S  2 s( 18.44%)p 4.32( 79.72%)d 0.10(  1.84%)
                                         0.0000  0.0000  0.4242 -0.0667 -0.0064
                                         0.0014  0.0002  0.6564 -0.0170 -0.0019
                                        -0.0001 -0.5801  0.0197  0.0065  0.0000
                                         0.1708 -0.0005 -0.0007 -0.1114  0.0294
                                        -0.0374  0.0079 -0.0604
               ( 44.56%)  -0.6675* C  8 s( 26.65%)p 2.75( 73.22%)d 0.00(  0.13%)
                                         0.0001  0.5129  0.0584  0.0060  0.0007
                                        -0.6239 -0.0278  0.0035  0.5719  0.0207
                                        -0.0013 -0.1212 -0.0018  0.0011 -0.0305
                                         0.0059 -0.0056  0.0024 -0.0175
 287. (0.21388) BD*( 1) S  2- N 15       
               ( 62.94%)   0.7933* S  2 s( 25.48%)p 2.86( 72.90%)d 0.06(  1.62%)
                                         0.0000  0.0002  0.5047  0.0029  0.0072
                                        -0.0016 -0.0001 -0.7133  0.0295  0.0030
                                         0.0000 -0.3624 -0.0012  0.0062  0.0000
                                         0.2949 -0.0328 -0.0033  0.0806 -0.0595
                                        -0.0414  0.0434 -0.0506
               ( 37.06%)  -0.6088* N 15 s( 30.73%)p 2.25( 69.09%)d 0.01(  0.18%)
                                        -0.0002  0.5543  0.0058 -0.0067 -0.0012
                                         0.6530  0.0132 -0.0033  0.2986  0.0118
                                         0.0029 -0.4182  0.0021 -0.0024  0.0175
                                        -0.0323 -0.0116  0.0160  0.0063
 288. (0.10176) BD*( 1) C  7- F  9       
               ( 73.07%)   0.8548* C  7 s( 24.60%)p 3.05( 75.09%)d 0.01(  0.31%)
                                         0.0001 -0.4936  0.0479  0.0072  0.0014
                                         0.6918 -0.0504 -0.0069  0.3907 -0.0234
                                         0.0003  0.3407 -0.0218 -0.0012 -0.0329
                                        -0.0299 -0.0183 -0.0228  0.0172
               ( 26.93%)  -0.5189* F  9 s( 28.81%)p 2.46( 70.97%)d 0.01(  0.22%)
                                         0.0000 -0.5367  0.0095  0.0039  0.0051
                                        -0.6742  0.0070 -0.0019 -0.3790  0.0074
                                        -0.0019 -0.3336  0.0058 -0.0016 -0.0294
                                        -0.0259 -0.0153 -0.0167  0.0122
 289. (0.10561) BD*( 1) C  7- F 10       
               ( 72.85%)   0.8535* C  7 s( 24.76%)p 3.03( 74.94%)d 0.01(  0.31%)
                                         0.0001 -0.4953  0.0472  0.0065  0.0017
                                        -0.0891  0.0023 -0.0035 -0.7807  0.0558
                                         0.0045  0.3580 -0.0236 -0.0003 -0.0054
                                         0.0048  0.0360  0.0384  0.0157
               ( 27.15%)  -0.5210* F 10 s( 28.13%)p 2.55( 71.65%)d 0.01(  0.22%)
                                         0.0000 -0.5303  0.0078  0.0046  0.0046
                                         0.0856 -0.0051  0.0019  0.7651 -0.0094
                                         0.0022 -0.3517  0.0057 -0.0015 -0.0084
                                         0.0042  0.0309  0.0320  0.0111
 290. (0.10624) BD*( 1) C  7- F 11       
               ( 73.12%)   0.8551* C  7 s( 24.63%)p 3.05( 75.06%)d 0.01(  0.31%)
                                         0.0001 -0.4938  0.0490  0.0071  0.0002
                                         0.1176 -0.0111 -0.0041 -0.0903  0.0083
                                         0.0027 -0.8513  0.0600  0.0046  0.0043
                                         0.0146 -0.0106 -0.0018 -0.0528
               ( 26.88%)  -0.5185* F 11 s( 29.15%)p 2.42( 70.62%)d 0.01(  0.22%)
                                         0.0000 -0.5398  0.0083  0.0063  0.0046
                                        -0.1041 -0.0016  0.0009  0.0826  0.0002
                                        -0.0001  0.8297 -0.0113  0.0028  0.0012
                                         0.0090 -0.0075 -0.0003 -0.0458
 291. (0.10257) BD*( 1) C  8- F 12       
               ( 73.07%)   0.8548* C  8 s( 24.75%)p 3.03( 74.93%)d 0.01(  0.31%)
                                        -0.0001  0.4951 -0.0485 -0.0072 -0.0013
                                         0.7405 -0.0539 -0.0068  0.2980 -0.0170
                                         0.0015 -0.3293  0.0216  0.0015  0.0258
                                        -0.0313 -0.0134  0.0310 -0.0182
               ( 26.93%)  -0.5189* F 12 s( 28.87%)p 2.46( 70.91%)d 0.01(  0.22%)
                                         0.0000  0.5371 -0.0094 -0.0042 -0.0051
                                        -0.7234  0.0081 -0.0021 -0.2854  0.0062
                                        -0.0016  0.3227 -0.0055  0.0015  0.0243
                                        -0.0271 -0.0114  0.0243 -0.0129
 292. (0.10678) BD*( 1) C  8- F 13       
               ( 72.85%)   0.8535* C  8 s( 24.55%)p 3.06( 75.14%)d 0.01(  0.31%)
                                        -0.0001  0.4932 -0.0466 -0.0061 -0.0020
                                        -0.2045  0.0105 -0.0029 -0.7438  0.0538
                                         0.0046 -0.3908  0.0257  0.0005  0.0163
                                         0.0109  0.0373 -0.0334 -0.0131
               ( 27.15%)  -0.5210* F 13 s( 27.83%)p 2.59( 71.95%)d 0.01(  0.22%)
                                         0.0000  0.5274 -0.0079 -0.0041 -0.0045
                                         0.2013 -0.0071  0.0022  0.7286 -0.0085
                                         0.0017  0.3847 -0.0063  0.0015  0.0170
                                         0.0095  0.0319 -0.0266 -0.0088
 293. (0.10593) BD*( 1) C  8- F 14       
               ( 73.14%)   0.8552* C  8 s( 24.63%)p 3.05( 75.06%)d 0.01(  0.32%)
                                         0.0001 -0.4937  0.0493  0.0070  0.0003
                                        -0.1039  0.0098  0.0040  0.1452 -0.0126
                                        -0.0033 -0.8455  0.0600  0.0045  0.0052
                                        -0.0128  0.0170  0.0003 -0.0518
               ( 26.86%)  -0.5183* F 14 s( 29.20%)p 2.42( 70.58%)d 0.01(  0.22%)
                                         0.0000 -0.5402  0.0082  0.0061  0.0047
                                         0.0915  0.0014 -0.0008 -0.1368  0.0002
                                         0.0001  0.8237 -0.0112  0.0028  0.0015
                                        -0.0078  0.0125  0.0006 -0.0449
 SVNBO: NDIM =          293
 NBO state            0

 *******************************************************************************
Archival summary:
1\1\MacQu.local\SP\ProcedureUnspecified\6-31+G*\2112(1-,1)\WedAug616:33:412014WedAug616:33:412014\0\\#,ProcedureUnspecified,6-31+G*,\\-1,1\S\O,1,1.45018\O,1,1.51418,2,115.806\N,1,1.60094,2,113.806,3,135.442,0\S,4,1.59663,1,129.106,2,-125.496,0\O,5,1.44814,4,111.919,1,-149.127,0\O,5,1.51211,4,113.982,1,-14.5905,0\C,1,1.88625,2,107.488,3,-113.357,0\F,8,1.32886,1,109.741,2,-59.6424,0\F,8,1.3331,1,108.578,2,60.5318,0\F,8,1.33774,1,109.19,2,179.881,0\C,5,1.88666,4,103.885,1,95.3978,0\F,12,1.32856,5,109.852,4,59.4452,0\F,12,1.3323,5,109.257,4,-179.806,0\F,12,1.34158,5,108.58,4,-60.5031,0\\\@

 Total job time:  43.13s(wall), 83.57s(cpu) 
 Wed Aug  6 16:33:41 2014

        *************************************************************
        *                                                           *
        *  Thank you very much for using Q-Chem.  Have a nice day.  *
        *                                                           *
        *************************************************************


