
Running Job 1 of 1 mol.qcinp
qchem mol.qcinp_17718.0 /scratch2/scratchdirs/xhqu/qc_scratch/qchem17718/ 1
aprun -b -n1 -d24 -cc none /global/project/projectdirs/jcesr/qchem/qc41/exe/qcprog.exe_s mol.qcinp_17718.0 /scratch2/scratchdirs/xhqu/qc_scratch/qchem17718/
aprun -b -n1 -d24 -cc none /global/project/projectdirs/jcesr/qchem/qc41/exe/qcprog.exe_s mol.qcinp_17718.0 /scratch2/scratchdirs/xhqu/qc_scratch/qchem17718/

                  Welcome to Q-Chem
     A Quantum Leap Into The Future Of Chemistry

 Y. Shao, L. Fusti-Molnar, Y. Jung, J. Kussmann, C. Ochsenfeld, S. T. Brown, 
 A. T. B. Gilbert, L. V. Slipchenko, S. V. Levchenko, D. P. O'Neill, 
 R. A. DiStasio Jr., R. C. Lochan, T. Wang, G. J. O. Beran, N. A. Besley, 
 J. M. Herbert, C. Y. Lin, T. Van Voorhis, S. H. Chien, A. Sodt, R. P. Steele, 
 V. A. Rassolov, P. E. Maslen, P. P. Korambath, R. D. Adamson, B. Austin, 
 J. Baker, E. F. C. Byrd, H. Dachsel, R. J. Doerksen, A. Dreuw, B. D. Dunietz, 
 A. D. Dutoi, T. R. Furlani, S. R. Gwaltney, A. Heyden, S. Hirata, C.-P. Hsu, 
 G. Kedziora, R. Z. Khaliullin, P. Klunzinger, A. M. Lee, M. S. Lee, W. Liang, 
 I. Lotan, N. Nair, B. Peters, E. I. Proynov, P. A. Pieniazek, Y. M. Rhee, 
 J. Ritchie, E. Rosta, C. D. Sherrill, A. C. Simmonett, J. E. Subotnik, 
 H. L. Woodcock III, W. Zhang, A. T. Bell, A. K. Chakraborty, D. M. Chipman, 
 F. J. Keil, A. Warshel, W. J. Hehre, H. F. Schaefer III, J. Kong, 
 A. I. Krylov, P. M. W. Gill, M. Head-Gordon

 Additional authors for Version 3.1: 
 Z. Gan, Y. Zhao, N. E. SchultzD. Truhlar, E. Epifanovsky, M. Oana

 Additional authors for Version 3.2: 
 R. Baer, B. R. Brooks, D. Casanova, J.-D. Chai, C.-L. Cheng, C. Cramer, 
 D. Crittenden, A. Ghysels, G. Hawkins, E. G. Hohenstein, C. Kelley, 
 W. Kurlancheek, D. Liotard, E. Livshits, P. Manohar, A. Marenich, 
 D. Neuhauser, R. Olson, M. A. Rohrdanz, K. S. Thanthiriwatte, A. J. W. Thom, 
 V. Vanovschi, C. F. Williams, Q. Wu, Z.-Q. You

 Additional authors for Version 4.0: 
 A. Aspuru-Guzik, Y. Bernard, C. Chang, J. Deng, A. Dreuw, M. Diedenhofen, 
 R. G. Edgar, D. Ghosh, W. A. Goddard III, M. Goldey, L. D. Jacobson, 
 M. Gordon, B. Kaduk, I. Kaliman, K. Khistyaev, R. King, A. Klamt, 
 D. Kosenkov, T. Kus, D. Lambrecht, A. Landau, A. W. Lange, K. Lawler, F. Liu, 
 J. Liu, R. Olivares-Amaya, S. P. Mao, J. Parkhill, N. Russ, M. Schmidt, 
 N. Shenvi, D. Small, Y. C. Su, E. Sundstrom, L. Vogt, O. Vydrov, M. Watson, 
 M. Wormit, X. Xu, S. Yeganeh, I. Y. Zhang, D. Zuev

 Additional authors for Version 4.1: 
 X. Feng, M. W. D. Hanson-Heine, P. Horn, H. Ji, A. Laurent, R. Peverati, 
 N. Mardirossian, N. Sergueev, S. Sharada, P. Zimmerman


 Q-Chem, Version 4.1, Q-Chem, Inc., Pittsburgh, PA (2013).

 Intel X86 Linux Version 4.1.1

 Q-chem begins on Sat Mar  7 12:27:46 2015  

 Host: nid03935

 Scratch files written to /scratch2/scratchdirs/xhqu/qc_scratch/qchem17718//
 Dec313 .. -1
Processing $rem in /global/project/projectdirs/jcesr/qchem/qc41/config/preferences.
 mem_total = 4000
Finally everything over in PARseQInput

--------------------------------------------------------------
User input:
--------------------------------------------------------------
$comment
4_phenyl_7_trifluoromethyl_1_3_dihydro_2_1_3_benzothiadiazole singlet
neutral B3lYP/6-31+G* geometry optimization
$end


$molecule
0  1
C          -1.22970000       -3.27610000       -1.57840000
C          -1.45560000       -2.17570000       -2.42380000
C          -0.06310000       -3.33080000       -0.79580000
C          -0.51630000       -1.12920000       -2.48550000
C           0.87730000       -2.28580000       -0.85890000
C           2.15570000        0.28830000       -3.00960000
C           3.10610000        1.32460000       -3.09390000
C           0.66260000       -1.16770000       -1.70130000
C           1.61290000       -0.11040000       -1.76550000
C           3.55600000        2.01200000       -1.93930000
C           2.05100000        0.57630000       -0.60880000
C           3.00470000        1.61610000       -0.69540000
C           4.56470000        3.11010000       -2.01360000
F           4.02800000        4.27790000       -1.52770000
F           5.01840000        3.38510000       -3.28280000
F           5.67060000        2.78760000       -1.26470000
N           1.62110000        0.34650000        0.65220000
N           3.30600000        2.16370000        0.50360000
S           2.40760000        1.40110000        1.73570000
H          -1.91210000       -4.03610000       -1.53380000
H          -2.30410000       -2.13580000       -2.99310000
H           0.10270000       -4.13150000       -0.18190000
H          -0.70440000       -0.33560000       -3.10410000
H           1.72460000       -2.35270000       -0.28880000
H           1.86850000       -0.18160000       -3.87280000
H           3.46720000        1.56910000       -4.01840000
H           0.96160000       -0.31770000        0.90650000
H           3.93740000        2.88620000        0.64580000
$end


$rem
jobtype = opt
exchange = b3lyp
basis = 6-31+g*
mem_static = 3000
mem_total = 28000
$end

--------------------------------------------------------------
 ----------------------------------------------------
       Standard Nuclear Orientation (Angstroms)
    I     Atom         X            Y            Z
 ----------------------------------------------------
    1      C      -5.260627    -0.392471     0.053274
    2      C      -4.593455    -1.211051    -0.874854
    3      C      -4.521236     0.363428     0.979733
    4      C      -3.187235    -1.272587    -0.878065
    5      C      -3.115395     0.300440     0.978302
    6      C      -0.346463    -1.826624     0.144984
    7      C       1.059598    -1.911191     0.156180
    8      C      -2.427574    -0.515037     0.046755
    9      C      -1.005967    -0.579098     0.044427
   10      C       1.871469    -0.753370     0.064818
   11      C      -0.202507     0.581063    -0.055176
   12      C       1.208363     0.494195    -0.043934
   13      C       3.362465    -0.827994     0.078326
   14      F       3.871823    -0.307783    -1.086937
   15      F       3.870415    -2.101101     0.194613
   16      F       3.862152    -0.109711     1.137692
   17      N      -0.660934     1.846343    -0.184227
   18      N       1.816916     1.696879    -0.150994
   19      S       0.649051     2.932991    -0.272947
   20      H      -6.282035    -0.347985     0.055412
   21      H      -5.131149    -1.760929    -1.548773
   22      H      -5.005746     0.957783     1.656103
   23      H      -2.722915    -1.871295    -1.566399
   24      H      -2.598579     0.850615     1.669400
   25      H      -0.887838    -2.692435     0.220400
   26      H       1.482925    -2.838335     0.234106
   27      H      -1.595814     2.101820    -0.222975
   28      H       2.776325     1.839485    -0.160511
 ----------------------------------------------------
 Molecular Point Group                 C1    NOp =  1
 Largest Abelian Subgroup              C1    NOp =  1
 Nuclear Repulsion Energy =  1535.8664869903 hartrees
 There are       72 alpha and       72 beta electrons
 Requested basis set is 6-31+G(d)
 There are 114 shells and 383 basis functions

Total QAlloc Memory Limit  28000 MB
Mega-Array Size      2933 MB
MEM_STATIC part      3000 MB
 A cutoff of  1.0D-11 yielded   4991 shell pairs
 There are     59702 function pairs
 Smallest overlap matrix eigenvalue = 3.00E-07

 Q-Chem warning in module ../qchem/stvman/mkSTV.C, line 251:

 Overlap eigenvalue is smaller than square root of threshold

 Linear dependence detected in AO basis
 Number of orthogonalized atomic orbitals = 380
 Maximum deviation from orthogonality = 2.485E-10

  Scale SEOQF with 1.000000e-02/1.000000e-01/1.000000e-01

 Standard Electronic Orientation quadrupole field applied
 Nucleus-field energy     =     0.0000000221 hartrees
 Guess from superposition of atomic densities
 Warning:  Energy on first SCF cycle will be non-variational
 A restricted hybrid HF-DFT SCF calculation will be
 performed using Pulay DIIS extrapolation
 Exchange:     0.2000 Hartree-Fock + 0.0800 Slater + 0.7200 Becke88
 Correlation:  0.8100 LYP + 0.1900 VWN1RPA
 Using SG-1 standard quadrature grid
 SCF converges when DIIS error is below 1.0E-08
 using 24 threads for integral computing 
 reading int configure file ... done
 
 -------------------------------------------------------
 OpenMP Integral Computing Module                       
 Release: version 1.0, May 2013, Q-Chem Inc. Pittsburgh 
 -------------------------------------------------------
 Integral Job Info:
 Integral screening is                        1
 Integral computing path is                   2
 max size of driver memory is            800000
 size of driver memory is                593606
 size of scratch memory is              4374840
 max col of scratch BK array               1296
 max len of scratch array in speh3          155
 max len of scratch index in speh4           18
 max int batch size is                       50
 min int batch size is                       15
 fixed nKL is                                15
 max L of basis functions is                  2
 order of int derivative is                   0
 number of shells is                        114
 number of basis is                         383
 number of cartesian basis is               383
 number of contracted shell pairs          4991
 number of primitive shell pairs          15980
 maxK2 (contraction) of shell pair           36
 max number of K2 of shell pair               1
 max number of CS2 of shell pair            770
 max number of PS2 of shell pair           4434
 -------------------------------------------------------
         cpu  21.45 wall   0.90
 -------------------------------------------------------
 OpenMP BLAS3 based DFT computing Module                
 Release: version 1.0, May 2013, Q-Chem Inc. Pittsburgh 
 -------------------------------------------------------
in dftxc.C, eleTot sum is:143.999533, tauTot is:0.000000
 ---------------------------------------
  Cycle       Energy         DIIS Error
 ---------------------------------------
    1   -1312.6498683858      3.73E-02
         cpu  87.63 wall   4.32
in dftxc.C, eleTot sum is:143.999483, tauTot is:0.000000
    2   -1307.6659243767      4.09E-03
         cpu  86.47 wall   4.15
in dftxc.C, eleTot sum is:143.998264, tauTot is:0.000000
    3   -1307.4048193917      5.69E-03
         cpu  85.25 wall   4.24
in dftxc.C, eleTot sum is:143.999005, tauTot is:0.000000
    4   -1307.9474976321      1.09E-03
         cpu  82.03 wall   4.04
in dftxc.C, eleTot sum is:143.999009, tauTot is:0.000000
    5   -1307.9643098944      5.67E-04
         cpu  79.45 wall   3.95
in dftxc.C, eleTot sum is:143.999022, tauTot is:0.000000
    6   -1307.9700364618      1.69E-04
         cpu  77.81 wall   4.06
in dftxc.C, eleTot sum is:143.999013, tauTot is:0.000000
    7   -1307.9704796248      5.60E-05
         cpu  74.96 wall   3.69
in dftxc.C, eleTot sum is:143.999014, tauTot is:0.000000
    8   -1307.9705338170      1.54E-05
         cpu  69.47 wall   3.55
in dftxc.C, eleTot sum is:143.999014, tauTot is:0.000000
    9   -1307.9705376654      4.66E-06
         cpu  67.25 wall   3.38
in dftxc.C, eleTot sum is:143.999014, tauTot is:0.000000
   10   -1307.9705379835      2.78E-06
         cpu  64.47 wall   3.27
in dftxc.C, eleTot sum is:143.999014, tauTot is:0.000000
   11   -1307.9705381343      6.76E-07
         cpu  61.04 wall   3.10
in dftxc.C, eleTot sum is:143.999014, tauTot is:0.000000
   12   -1307.9705381424      2.65E-07
         cpu  57.78 wall   3.03
in dftxc.C, eleTot sum is:143.999014, tauTot is:0.000000
   13   -1307.9705381446      8.76E-08
         cpu  54.39 wall   2.73
in dftxc.C, eleTot sum is:143.999014, tauTot is:0.000000
   14   -1307.9705381453      2.96E-08
         cpu  50.25 wall   2.55
in dftxc.C, eleTot sum is:143.999014, tauTot is:0.000000
   15   -1307.9705381446      1.21E-08
         cpu  85.83 wall   4.18
in dftxc.C, eleTot sum is:143.999014, tauTot is:0.000000
   16   -1307.9705381444      2.08E-08
         cpu  45.99 wall   2.47
in dftxc.C, eleTot sum is:143.999014, tauTot is:0.000000
   17   -1307.9705381445      2.50E-09 Convergence criterion met
 ---------------------------------------
 SCF time:  CPU 1437.66 s  wall 75.44 s
 SCF   energy in the final basis set = -1307.9705381445
 Total energy in the final basis set = -1307.9705381445
 Analysis of SCF Wavefunction
 
 --------------------------------------------------------------
                    Orbital Energies (a.u.)
 --------------------------------------------------------------
 
 Alpha MOs
 -- Occupied --
-88.964 -24.750 -24.750 -24.749 -14.395 -14.392 -10.454 -10.263
-10.255 -10.219 -10.215 -10.208 -10.203 -10.203 -10.202 -10.201
-10.201 -10.197 -10.190  -8.018  -5.985  -5.981  -5.970  -1.310
 -1.232  -1.227  -1.035  -0.944  -0.880  -0.859  -0.806  -0.775
 -0.765  -0.759  -0.714  -0.706  -0.660  -0.644  -0.627  -0.620
 -0.597  -0.596  -0.591  -0.559  -0.541  -0.520  -0.508  -0.491
 -0.482  -0.478  -0.473  -0.467  -0.461  -0.453  -0.444  -0.440
 -0.435  -0.424  -0.420  -0.402  -0.394  -0.384  -0.378  -0.366
 -0.361  -0.357  -0.350  -0.277  -0.272  -0.267  -0.237  -0.164
 -- Virtual --
 -0.048  -0.044  -0.029  -0.007  -0.006  -0.004   0.004   0.009
  0.016   0.025   0.027   0.035   0.043   0.044   0.046   0.055
  0.059   0.066   0.068   0.075   0.082   0.085   0.086   0.091
  0.099   0.101   0.104   0.110   0.112   0.121   0.122   0.127
  0.128   0.132   0.136   0.143   0.148   0.149   0.152   0.166
  0.172   0.174   0.177   0.181   0.186   0.188   0.192   0.195
  0.196   0.200   0.204   0.208   0.211   0.216   0.218   0.221
  0.230   0.232   0.235   0.240   0.243   0.246   0.248   0.252
  0.256   0.259   0.262   0.265   0.275   0.278   0.283   0.284
  0.287   0.289   0.296   0.302   0.303   0.308   0.309   0.315
  0.318   0.326   0.333   0.337   0.339   0.346   0.355   0.360
  0.364   0.371   0.379   0.382   0.386   0.389   0.398   0.410
  0.415   0.432   0.437   0.442   0.447   0.473   0.487   0.501
  0.517   0.527   0.541   0.554   0.573   0.591   0.622   0.634
  0.645   0.665   0.678   0.692   0.697   0.699   0.708   0.714
  0.721   0.725   0.728   0.730   0.735   0.744   0.753   0.755
  0.763   0.783   0.789   0.795   0.802   0.806   0.821   0.829
  0.840   0.856   0.868   0.877   0.894   0.908   0.913   0.925
  0.945   0.961   0.970   0.977   0.987   1.002   1.011   1.018
  1.040   1.047   1.054   1.058   1.072   1.080   1.094   1.107
  1.110   1.119   1.128   1.150   1.155   1.159   1.164   1.165
  1.193   1.201   1.211   1.233   1.246   1.256   1.269   1.278
  1.293   1.317   1.335   1.347   1.371   1.394   1.429   1.443
  1.451   1.455   1.474   1.475   1.478   1.482   1.494   1.513
  1.559   1.570   1.597   1.615   1.634   1.650   1.665   1.665
  1.667   1.689   1.699   1.700   1.713   1.722   1.744   1.773
  1.789   1.796   1.799   1.809   1.813   1.815   1.829   1.844
  1.854   1.856   1.881   1.890   1.900   1.914   1.943   1.961
  1.980   1.985   1.994   2.017   2.030   2.031   2.045   2.053
  2.066   2.076   2.083   2.097   2.122   2.130   2.136   2.139
  2.163   2.172   2.197   2.214   2.226   2.242   2.255   2.266
  2.274   2.291   2.301   2.306   2.328   2.349   2.389   2.436
  2.448   2.467   2.468   2.512   2.526   2.573   2.598   2.613
  2.639   2.651   2.666   2.698   2.719   2.731   2.738   2.739
  2.749   2.764   2.775   2.823   2.861   2.891   2.901   2.963
  3.003   3.087   3.104   3.115   3.243   3.275   3.329   3.383
  3.469   3.964   4.110   4.219   4.252   4.266   4.288   4.342
  4.358   4.397   4.406   4.455   4.491   4.523   4.643   4.707
  4.863   5.562   6.061   6.962
 --------------------------------------------------------------
 
          Ground-State Mulliken Net Atomic Charges

     Atom                 Charge (a.u.)
  ----------------------------------------
      1 C                    -0.217843
      2 C                    -0.129151
      3 C                    -0.100652
      4 C                    -0.377927
      5 C                    -0.453185
      6 C                    -0.718525
      7 C                    -0.807754
      8 C                     0.249326
      9 C                    -0.310035
     10 C                    -0.972787
     11 C                     0.840554
     12 C                     1.131428
     13 C                     1.452405
     14 F                    -0.280276
     15 F                    -0.341827
     16 F                    -0.281090
     17 N                    -0.756127
     18 N                    -0.757067
     19 S                     0.664106
     20 H                     0.173354
     21 H                     0.175835
     22 H                     0.175202
     23 H                     0.182079
     24 H                     0.189006
     25 H                     0.178323
     26 H                     0.189739
     27 H                     0.449901
     28 H                     0.452990
  ----------------------------------------
  Sum of atomic charges =     0.000000

 -----------------------------------------------------------------
                    Cartesian Multipole Moments
 -----------------------------------------------------------------
    Charge (ESU x 10^10)
                 0.0000
    Dipole Moment (Debye)
         X      -3.3590      Y       1.6959      Z      -0.2239
       Tot       3.7695
    Quadrupole Moments (Debye-Ang)
        XX    -110.7986     XY       3.8011     YY    -110.2412
        XZ      -0.0196     YZ       2.9397     ZZ    -119.2622
    Octapole Moments (Debye-Ang^2)
       XXX      -8.9719    XXY      28.4648    XYY      24.6439
       YYY      -4.4123    XXZ      -4.1440    XYZ     -15.9461
       YYZ      -4.6647    XZZ      17.0620    YZZ      -5.0505
       ZZZ       1.7563
    Hexadecapole Moments (Debye-Ang^3)
      XXXX   -5460.6679   XXXY      51.9345   XXYY   -1205.1244
      XYYY     -57.5641   YYYY   -1638.4042   XXXZ       5.0295
      XXYZ      64.7505   XYYZ      16.3827   YYYZ      -5.0750
      XXZZ   -1028.5844   XYZZ     -23.1990   YYZZ    -359.7673
      XZZZ       6.7522   YZZZ      17.3515   ZZZZ    -375.2680
 -----------------------------------------------------------------
 Calculating analytic gradient of the SCF energy
         cpu 303.57 wall  29.12
 Gradient of Coulomb and Exchange Energy
            1           2           3           4           5           6
    1  16.7866870   9.4967213   8.4216484   2.6256202   2.5014174   2.5368902
    2   0.0832506   7.4774303  -6.7708769  10.1745391  -5.7646150  20.8247538
    3  -0.3027042   8.7339220  -8.0850367  12.8640891 -14.3155586  -3.5240379
            7           8           9          10          11          12
    1  -3.2030589   0.3103645  23.3462204 -11.9265449  -3.2839385  -1.7620673
    2  16.6541744   4.7369455  15.9279232  17.8952662 -29.1829165 -22.4096607
    3  -0.1719446  -1.0529037  -0.8447713  -2.7362242   4.0801643   1.8215298
           13          14          15          16          17          18
    1  -4.9130405 -15.6258480 -15.0033441 -15.4705613   7.1737139  -9.0859913
    2   5.5996239  -5.4499664  24.5156348  -9.1536437 -10.7374246 -11.0377733
    3  -0.2355841  21.5431297  -2.2598396 -20.3422920   1.6016789   0.9243933
           19          20          21          22          23          24
    1  -1.9798702   5.9343259   3.5232522   3.3253003  -2.0463494  -2.2847497
    2 -32.1391967  -0.2076993   3.1777687  -3.4106861   4.2097016  -3.8374908
    3   3.2052419  -0.0150910   3.8719973  -3.9516927   4.6864838  -4.8549881
           25          26          27          28
    1   3.2188127  -2.1758522   8.4066531  -8.8464114
    2   6.5180719   7.1259541  -2.8564955  -1.9625927
    3  -0.4756069  -0.6042577   0.2963719   0.1435315
in dftxc.C, eleTot sum is:143.999014, tauTot is:0.000000
 Gradient of SCF Energy
            1           2           3           4           5           6
    1  -0.0575978  -0.0337135  -0.0297553   0.0333667   0.0368246  -0.0514119
    2   0.0025820  -0.0329304   0.0358201  -0.0329671   0.0284198  -0.0439753
    3   0.0002849  -0.0419555   0.0413047  -0.0394098   0.0407540   0.0061406
            7           8           9          10          11          12
    1   0.0344467   0.0453503  -0.0467936   0.0227944   0.0040222  -0.0086630
    2  -0.0457186  -0.0044370   0.0005614   0.0045428   0.0510332   0.0415596
    3   0.0043330   0.0012505  -0.0008497  -0.0003776  -0.0064297  -0.0039685
           13          14          15          16          17          18
    1   0.0063397  -0.0069557   0.0085746  -0.0070450  -0.0381747   0.0395706
    2   0.0117614  -0.0013621  -0.0180845   0.0005171   0.0067299   0.0064812
    3  -0.0012216  -0.0112726   0.0020516   0.0111617  -0.0018026  -0.0004496
           19          20          21          22          23          24
    1  -0.0044774   0.0532529   0.0273050   0.0247310  -0.0263832  -0.0286823
    2  -0.0685012  -0.0024319   0.0286920  -0.0306984   0.0290686  -0.0264410
    3   0.0064490  -0.0000469   0.0353258  -0.0358056   0.0341054  -0.0354097
           25          26          27          28
    1   0.0287548  -0.0246963   0.0366323  -0.0376164
    2   0.0413919   0.0456849  -0.0151052  -0.0121934
    3  -0.0042830  -0.0041906   0.0030157   0.0012960
 Max gradient component =       6.850E-02
 RMS gradient           =       2.827E-02
 Gradient time:  CPU 338.43 s  wall 33.08 s
 Geometry Optimization Parameters
   NAtoms,    NIC,     NZ,  NCons,   NDum,   NFix, NCnnct, MaxDiis
       28     205       0       0       0       0       0       0


** GEOMETRY OPTIMIZATION IN DELOCALIZED INTERNAL COORDINATES **
   Searching for a Minimum

   Optimization Cycle:   1

                       Coordinates (Angstroms)
     ATOM              X           Y           Z
      1  C        -5.260627   -0.392471    0.053274
      2  C        -4.593455   -1.211051   -0.874854
      3  C        -4.521236    0.363428    0.979733
      4  C        -3.187235   -1.272587   -0.878065
      5  C        -3.115395    0.300440    0.978302
      6  C        -0.346463   -1.826624    0.144984
      7  C         1.059598   -1.911191    0.156180
      8  C        -2.427574   -0.515037    0.046755
      9  C        -1.005967   -0.579098    0.044427
     10  C         1.871469   -0.753370    0.064818
     11  C        -0.202507    0.581063   -0.055176
     12  C         1.208363    0.494195   -0.043934
     13  C         3.362465   -0.827994    0.078326
     14  F         3.871823   -0.307783   -1.086937
     15  F         3.870415   -2.101101    0.194613
     16  F         3.862152   -0.109711    1.137692
     17  N        -0.660934    1.846343   -0.184227
     18  N         1.816916    1.696879   -0.150994
     19  S         0.649051    2.932991   -0.272947
     20  H        -6.282035   -0.347985    0.055412
     21  H        -5.131149   -1.760929   -1.548773
     22  H        -5.005746    0.957783    1.656103
     23  H        -2.722915   -1.871295   -1.566399
     24  H        -2.598579    0.850615    1.669400
     25  H        -0.887838   -2.692435    0.220400
     26  H         1.482925   -2.838335    0.234106
     27  H        -1.595814    2.101820   -0.222975
     28  H         2.776325    1.839485   -0.160511
   Point Group: c1    Number of degrees of freedom:    78


   Energy is  -1307.970538144


 Attempting to Generate Delocalized Internal Coordinates
 GETINT wrote B to file, NVib is           78
 calling HSSCONV
 HCONV 3*NATOMS:           84
 wrote HINT to file
  writing hessian 

 78 Hessian modes will be used to form the next step
  Hessian Eigenvalues:
     0.010115    0.012415    0.015735    0.016214    0.016636    0.019358
     0.020012    0.020101    0.020293    0.020423    0.020499    0.020614
     0.020678    0.020772    0.020868    0.020881    0.020972    0.021152
     0.021229    0.021505    0.021536    0.021577    0.021628    0.106593
     0.113451    0.159993    0.159995    0.159996    0.159999    0.160000
     0.160000    0.160000    0.160000    0.160000    0.219999    0.220000
     0.224713    0.231755    0.234697    0.242686    0.245169    0.249967
     0.249994    0.249999    0.250000    0.250000    0.250000    0.250000
     0.331312    0.341060    0.341956    0.388122    0.399760    0.401171
     0.402082    0.420041    0.426504    0.430962    0.431232    0.433429
     0.437191    0.437616    0.437955    0.438711    0.439308    0.439434
     0.439607    0.439811    0.439904    0.444137    0.446140    0.499112
     0.502138    0.502159    0.504819    0.533777    0.533906    0.540183

 Minimum Search - Taking Simple RFO Step
 Searching for Lamda that Minimizes Along All modes
 Value Taken    Lamda =  -0.07187873
 Calculated Step too Large.  Step scaled by  0.749711
 Step Taken.  Stepsize is  0.300000

                             Maximum     Tolerance    Cnvgd?
         Gradient           0.077870      0.000300      NO
         Displacement       0.111542      0.001200      NO
         Energy change     *********      0.000001      NO


 New Cartesian Coordinates Obtained by Inverse Iteration

 Displacement from previous Coordinates is:  0.348762
 ----------------------------------------------------
       Standard Nuclear Orientation (Angstroms)
    I     Atom         X            Y            Z
 ----------------------------------------------------
    1      C      -5.274270    -0.391217     0.049723
    2      C      -4.605113    -1.210271    -0.868602
    3      C      -4.535939     0.362825     0.970638
    4      C      -3.205332    -1.273323    -0.868737
    5      C      -3.135971     0.297959     0.971988
    6      C      -0.322679    -1.839347     0.145912
    7      C       1.069755    -1.924023     0.155786
    8      C      -2.445559    -0.518751     0.049751
    9      C      -0.988171    -0.592614     0.049674
   10      C       1.866284    -0.762165     0.065667
   11      C      -0.187461     0.562156    -0.047878
   12      C       1.215658     0.481414    -0.039343
   13      C       3.356286    -0.831874     0.075695
   14      F       3.900979    -0.308649    -1.066753
   15      F       3.846196    -2.097652     0.185037
   16      F       3.896225    -0.121193     1.114584
   17      N      -0.622996     1.860782    -0.180666
   18      N       1.801497     1.719633    -0.150788
   19      S       0.661576     3.013723    -0.277367
   20      H      -6.336935    -0.343699     0.049311
   21      H      -5.160433    -1.784972    -1.570675
   22      H      -5.037846     0.983180     1.674154
   23      H      -2.714245    -1.895728    -1.578429
   24      H      -2.593511     0.865413     1.690748
   25      H      -0.890070    -2.735181     0.224217
   26      H       1.525015    -2.880771     0.234868
   27      H      -1.580734     2.129664    -0.224699
   28      H       2.783824     1.880727    -0.165085
 ----------------------------------------------------
 Molecular Point Group                 C1    NOp =  1
 Largest Abelian Subgroup              C1    NOp =  1
 Nuclear Repulsion Energy =  1528.3805241507 hartrees
 There are       72 alpha and       72 beta electrons
 Applying Cartesian multipole field
    Component          Value
    ---------          -----
     (2,0,0)        1.00000E-12
     (0,2,0)        2.00000E-11
     (0,0,2)       -3.00000E-11
 Nucleus-field energy     =     0.0000000229 hartrees
 Requested basis set is 6-31+G(d)
 There are 114 shells and 383 basis functions
 A cutoff of  1.0D-11 yielded   4988 shell pairs
 There are     59670 function pairs
 Smallest overlap matrix eigenvalue = 3.39E-07

 Q-Chem warning in module ../qchem/stvman/mkSTV.C, line 251:

 Overlap eigenvalue is smaller than square root of threshold

 Linear dependence detected in AO basis
 Number of orthogonalized atomic orbitals = 380
 Maximum deviation from orthogonality = 2.780E-10
 Guess MOs from SCF MO coefficient file
Reading MOs from coefficient file
Reading MOs from coefficient file
 A restricted hybrid HF-DFT SCF calculation will be
 performed using Pulay DIIS extrapolation
 Exchange:     0.2000 Hartree-Fock + 0.0800 Slater + 0.7200 Becke88
 Correlation:  0.8100 LYP + 0.1900 VWN1RPA
 Using SG-1 standard quadrature grid
 SCF converges when DIIS error is below 1.0E-08
Geometry optimization detected.  Setting ReadMinima to 0
Setting SaveMinima to 0
 using 24 threads for integral computing 
 reading int configure file ... done
         cpu  87.07 wall   4.28
 -------------------------------------------------------
 OpenMP BLAS3 based DFT computing Module                
 Release: version 1.0, May 2013, Q-Chem Inc. Pittsburgh 
 -------------------------------------------------------
in dftxc.C, eleTot sum is:143.941771, tauTot is:0.000000
 ---------------------------------------
  Cycle       Energy         DIIS Error
 ---------------------------------------
    1   -1307.9391018477      1.36E-03
         cpu  87.40 wall   4.16
in dftxc.C, eleTot sum is:143.999072, tauTot is:0.000000
    2   -1308.0028648525      3.75E-04
         cpu  83.21 wall   4.00
in dftxc.C, eleTot sum is:143.999142, tauTot is:0.000000
    3   -1308.0016672085      4.76E-04
         cpu  79.78 wall   3.90
in dftxc.C, eleTot sum is:143.999114, tauTot is:0.000000
    4   -1308.0054646970      9.44E-05
         cpu  75.12 wall   3.75
in dftxc.C, eleTot sum is:143.999109, tauTot is:0.000000
    5   -1308.0055992157      3.29E-05
         cpu  71.77 wall   3.63
in dftxc.C, eleTot sum is:143.999110, tauTot is:0.000000
    6   -1308.0056194891      8.55E-06
         cpu  68.78 wall   3.41
in dftxc.C, eleTot sum is:143.999110, tauTot is:0.000000
    7   -1308.0056207123      3.00E-06
         cpu  64.84 wall   3.27
in dftxc.C, eleTot sum is:143.999110, tauTot is:0.000000
    8   -1308.0056208696      1.17E-06
         cpu  61.36 wall   3.13
in dftxc.C, eleTot sum is:143.999110, tauTot is:0.000000
    9   -1308.0056208938      4.07E-07
         cpu  58.44 wall   2.95
in dftxc.C, eleTot sum is:143.999110, tauTot is:0.000000
   10   -1308.0056208963      1.62E-07
         cpu  53.86 wall   2.80
in dftxc.C, eleTot sum is:143.999110, tauTot is:0.000000
   11   -1308.0056208968      5.07E-08
         cpu  50.70 wall   2.73
in dftxc.C, eleTot sum is:143.999110, tauTot is:0.000000
   12   -1308.0056208971      1.27E-08
         cpu  46.92 wall   2.48
in dftxc.C, eleTot sum is:143.999110, tauTot is:0.000000
   13   -1308.0056208964      2.08E-08
         cpu  46.41 wall   2.38
in dftxc.C, eleTot sum is:143.999110, tauTot is:0.000000
   14   -1308.0056208969      3.05E-09 Convergence criterion met
 ---------------------------------------
 SCF time:  CPU 1183.40 s  wall 62.65 s
 SCF   energy in the final basis set = -1308.0056208969
 Total energy in the final basis set = -1308.0056208969
 Analysis of SCF Wavefunction
 
 --------------------------------------------------------------
                    Orbital Energies (a.u.)
 --------------------------------------------------------------
 
 Alpha MOs
 -- Occupied --
-88.969 -24.747 -24.746 -24.746 -14.396 -14.393 -10.450 -10.263
-10.256 -10.220 -10.218 -10.213 -10.207 -10.207 -10.206 -10.205
-10.205 -10.201 -10.196  -8.022  -5.989  -5.985  -5.974  -1.313
 -1.229  -1.227  -1.020  -0.926  -0.881  -0.862  -0.804  -0.777
 -0.762  -0.758  -0.706  -0.702  -0.659  -0.639  -0.622  -0.616
 -0.594  -0.593  -0.591  -0.550  -0.530  -0.509  -0.500  -0.491
 -0.476  -0.475  -0.471  -0.465  -0.457  -0.451  -0.438  -0.434
 -0.432  -0.423  -0.416  -0.410  -0.395  -0.383  -0.378  -0.364
 -0.358  -0.353  -0.349  -0.278  -0.276  -0.268  -0.240  -0.169
 -- Virtual --
 -0.061  -0.047  -0.028  -0.008  -0.006  -0.004   0.004   0.008
  0.015   0.024   0.027   0.034   0.042   0.044   0.045   0.056
  0.059   0.065   0.069   0.075   0.082   0.083   0.087   0.091
  0.098   0.102   0.105   0.111   0.112   0.119   0.122   0.125
  0.127   0.130   0.135   0.142   0.147   0.148   0.152   0.165
  0.168   0.172   0.177   0.179   0.182   0.187   0.191   0.193
  0.196   0.202   0.203   0.207   0.208   0.212   0.216   0.220
  0.228   0.230   0.232   0.238   0.240   0.242   0.246   0.251
  0.254   0.256   0.261   0.262   0.273   0.277   0.279   0.280
  0.284   0.286   0.295   0.301   0.302   0.307   0.308   0.316
  0.318   0.324   0.333   0.336   0.339   0.344   0.355   0.358
  0.360   0.369   0.373   0.381   0.383   0.389   0.398   0.407
  0.410   0.425   0.438   0.442   0.446   0.472   0.488   0.497
  0.508   0.525   0.542   0.559   0.573   0.594   0.625   0.634
  0.644   0.664   0.678   0.693   0.696   0.699   0.709   0.716
  0.719   0.723   0.727   0.730   0.733   0.742   0.751   0.753
  0.761   0.780   0.785   0.794   0.805   0.805   0.817   0.825
  0.837   0.853   0.864   0.874   0.880   0.908   0.912   0.916
  0.930   0.947   0.954   0.966   0.982   0.999   1.002   1.006
  1.018   1.034   1.040   1.047   1.056   1.080   1.096   1.102
  1.105   1.113   1.137   1.150   1.154   1.158   1.163   1.166
  1.191   1.200   1.211   1.240   1.245   1.254   1.266   1.285
  1.297   1.316   1.330   1.351   1.368   1.395   1.421   1.431
  1.442   1.452   1.470   1.474   1.478   1.482   1.499   1.511
  1.549   1.572   1.597   1.616   1.624   1.648   1.659   1.663
  1.671   1.688   1.696   1.699   1.712   1.719   1.738   1.767
  1.786   1.793   1.798   1.814   1.815   1.821   1.824   1.832
  1.854   1.858   1.873   1.886   1.891   1.917   1.921   1.950
  1.973   1.980   1.990   2.008   2.016   2.035   2.041   2.048
  2.057   2.073   2.079   2.095   2.122   2.128   2.138   2.145
  2.165   2.169   2.195   2.204   2.216   2.239   2.257   2.265
  2.273   2.293   2.296   2.302   2.323   2.345   2.378   2.425
  2.439   2.447   2.472   2.482   2.521   2.561   2.597   2.613
  2.624   2.647   2.655   2.686   2.715   2.726   2.733   2.740
  2.742   2.760   2.776   2.809   2.846   2.893   2.900   2.962
  2.995   3.082   3.103   3.132   3.246   3.263   3.324   3.371
  3.460   3.954   4.106   4.211   4.246   4.260   4.289   4.334
  4.351   4.390   4.395   4.453   4.483   4.516   4.639   4.703
  4.856   5.578   6.092   6.983
 --------------------------------------------------------------
 
          Ground-State Mulliken Net Atomic Charges

     Atom                 Charge (a.u.)
  ----------------------------------------
      1 C                    -0.241409
      2 C                    -0.138745
      3 C                    -0.110425
      4 C                    -0.395626
      5 C                    -0.430466
      6 C                    -0.682898
      7 C                    -0.846999
      8 C                     0.290230
      9 C                    -0.314725
     10 C                    -0.950542
     11 C                     0.824905
     12 C                     1.154566
     13 C                     1.446235
     14 F                    -0.287397
     15 F                    -0.343133
     16 F                    -0.287777
     17 N                    -0.775570
     18 N                    -0.778890
     19 S                     0.656885
     20 H                     0.179634
     21 H                     0.181379
     22 H                     0.180869
     23 H                     0.187748
     24 H                     0.194429
     25 H                     0.185693
     26 H                     0.200514
     27 H                     0.448400
     28 H                     0.453114
  ----------------------------------------
  Sum of atomic charges =     0.000000

 -----------------------------------------------------------------
                    Cartesian Multipole Moments
 -----------------------------------------------------------------
    Charge (ESU x 10^10)
                 0.0000
    Dipole Moment (Debye)
         X      -3.4560      Y       1.7760      Z      -0.2322
       Tot       3.8926
    Quadrupole Moments (Debye-Ang)
        XX    -111.9288     XY       3.8380     YY    -109.0017
        XZ      -0.0286     YZ       2.7650     ZZ    -119.6293
    Octapole Moments (Debye-Ang^2)
       XXX     -12.3813    XXY      27.6950    XYY      26.9721
       YYY      -1.2369    XXZ      -4.0965    XYZ     -16.1406
       YYZ      -5.2429    XZZ      17.6156    YZZ      -5.9538
       ZZZ       1.8874
    Hexadecapole Moments (Debye-Ang^3)
      XXXX   -5522.0396   XXXY      45.1888   XXYY   -1218.7271
      XYYY     -59.7518   YYYY   -1662.4458   XXXZ       6.4740
      XXYZ      64.8016   XYYZ      16.3858   YYYZ      -7.3986
      XXZZ   -1038.2591   XYZZ     -25.3518   YYZZ    -368.7825
      XZZZ       7.9191   YZZZ      18.3031   ZZZZ    -374.1735
 -----------------------------------------------------------------
 Calculating analytic gradient of the SCF energy
         cpu 300.53 wall  29.08
 Gradient of Coulomb and Exchange Energy
            1           2           3           4           5           6
    1  17.1230925   9.8793528   8.7747363   2.5480015   1.9430539   3.0482637
    2   0.0377022   7.5797471  -6.8412767   9.7510806  -5.4527191  19.9419108
    3  -0.2731892   8.8994374  -8.1729131  12.5106033 -13.6248610  -3.7477228
            7           8           9          10          11          12
    1  -3.6329100  -0.1604745  23.8843359 -10.9061789  -3.2090633  -3.0075547
    2  17.5412989   4.4184823  16.3746152  16.6831037 -28.5637877 -21.5890550
    3  -0.1629239  -1.3070909  -0.8782412  -2.6657137   4.1248757   1.6087960
           13          14          15          16          17          18
    1  -3.9442344 -16.2711577 -14.7943472 -16.1833826   6.2926823  -8.0778327
    2   5.5697056  -5.6980845  24.8051534  -9.2373186 -10.0966257 -10.3160272
    3  -0.2582441  21.2347568  -2.1642404 -20.0184919   1.5898310   0.8639839
           19          20          21          22          23          24
    1  -2.0443992   6.0034439   3.5175197   3.3311238  -2.2196333  -2.4479265
    2 -33.4920980  -0.2181605   3.2348761  -3.4630475   4.2109758  -3.7931758
    3   3.3326520  -0.0031095   3.9283629  -4.0096236   4.6791210  -4.9162062
           25          26          27          28
    1   3.3371661  -2.3820605   8.1577837  -8.5594003
    2   6.5436716   7.1535990  -2.9097863  -2.1747599
    3  -0.5012281  -0.5977102   0.3337969   0.1952929
in dftxc.C, eleTot sum is:143.999110, tauTot is:0.000000
 Gradient of SCF Energy
            1           2           3           4           5           6
    1  -0.0186381  -0.0113281  -0.0102387   0.0115900   0.0123838  -0.0203070
    2   0.0009496  -0.0107887   0.0118933  -0.0103827   0.0085200  -0.0144648
    3   0.0001250  -0.0142578   0.0139243  -0.0131653   0.0142592   0.0029374
            7           8           9          10          11          12
    1   0.0153271   0.0192249  -0.0193529   0.0076792   0.0081824  -0.0098502
    2  -0.0124872  -0.0022438  -0.0021482  -0.0017335   0.0194673   0.0135501
    3   0.0014471   0.0006306  -0.0008166   0.0000705  -0.0028057  -0.0013467
           13          14          15          16          17          18
    1  -0.0015259  -0.0016241   0.0050207  -0.0015328  -0.0089511   0.0101767
    2   0.0075058  -0.0020930  -0.0067549  -0.0013419   0.0039292   0.0064857
    3  -0.0007407  -0.0027766   0.0008183   0.0030480  -0.0015757  -0.0006990
           19          20          21          22          23          24
    1  -0.0012789   0.0169401   0.0085305   0.0077007  -0.0091728  -0.0098047
    2  -0.0229592  -0.0008256   0.0093083  -0.0097947   0.0090963  -0.0079550
    3   0.0023349   0.0000766   0.0114601  -0.0116655   0.0108278  -0.0116001
           25          26          27          28
    1   0.0104896  -0.0090325   0.0109696  -0.0115776
    2   0.0126618   0.0134079  -0.0057169  -0.0050853
    3  -0.0016176  -0.0013860   0.0017055   0.0007880
 Max gradient component =       2.296E-02
 RMS gradient           =       9.695E-03
 Gradient time:  CPU 336.02 s  wall 33.08 s
 Geometry Optimization Parameters
   NAtoms,    NIC,     NZ,  NCons,   NDum,   NFix, NCnnct, MaxDiis
       28     205       0       0       0       0       0       0

 Cartesian Hessian Update
 Hessian Updated using BFGS Update


** GEOMETRY OPTIMIZATION IN DELOCALIZED INTERNAL COORDINATES **
   Searching for a Minimum

   Optimization Cycle:   2

                       Coordinates (Angstroms)
     ATOM              X           Y           Z
      1  C        -5.274270   -0.391217    0.049723
      2  C        -4.605113   -1.210271   -0.868602
      3  C        -4.535939    0.362825    0.970638
      4  C        -3.205332   -1.273323   -0.868737
      5  C        -3.135971    0.297959    0.971988
      6  C        -0.322679   -1.839347    0.145912
      7  C         1.069755   -1.924023    0.155786
      8  C        -2.445559   -0.518751    0.049751
      9  C        -0.988171   -0.592614    0.049674
     10  C         1.866284   -0.762165    0.065667
     11  C        -0.187461    0.562156   -0.047878
     12  C         1.215658    0.481414   -0.039343
     13  C         3.356286   -0.831874    0.075695
     14  F         3.900979   -0.308649   -1.066753
     15  F         3.846196   -2.097652    0.185037
     16  F         3.896225   -0.121193    1.114584
     17  N        -0.622996    1.860782   -0.180666
     18  N         1.801497    1.719633   -0.150788
     19  S         0.661576    3.013723   -0.277367
     20  H        -6.336935   -0.343699    0.049311
     21  H        -5.160433   -1.784972   -1.570675
     22  H        -5.037846    0.983180    1.674154
     23  H        -2.714245   -1.895728   -1.578429
     24  H        -2.593511    0.865413    1.690748
     25  H        -0.890070   -2.735181    0.224217
     26  H         1.525015   -2.880771    0.234868
     27  H        -1.580734    2.129664   -0.224699
     28  H         2.783824    1.880727   -0.165085
   Point Group: c1    Number of degrees of freedom:    78


   Energy is  -1308.005620897

 GETINT wrote B to file, NVib is           78
 Hessian Updated using BFGS Update

 77 Hessian modes will be used to form the next step
  Hessian Eigenvalues:
     0.010115    0.012416    0.015735    0.016214    0.016635    0.019356
     0.020013    0.020101    0.020293    0.020424    0.020499    0.020614
     0.020679    0.020773    0.020869    0.020882    0.020972    0.021152
     0.021229    0.021505    0.021536    0.021577    0.021628    0.106594
     0.113384    0.159286    0.159995    0.159997    0.159997    0.159999
     0.160000    0.160000    0.160000    0.160089    0.219992    0.220004
     0.224687    0.234630    0.240094    0.242653    0.245681    0.248990
     0.249971    0.249994    0.249999    0.250000    0.258283    0.331312
     0.341061    0.342108    0.385636    0.399741    0.400519    0.402084
     0.409511    0.423189    0.430046    0.431218    0.433424    0.437319
     0.437769    0.437949    0.438419    0.439359    0.439520    0.439640
     0.439801    0.443846    0.446132    0.461007    0.498161    0.502149
     0.502934    0.504991    0.533804    0.534757    0.545804

 Minimum Search - Taking Simple RFO Step
 Searching for Lamda that Minimizes Along All modes
 Value Taken    Lamda =  -0.00905234
 Step Taken.  Stepsize is  0.175365

                             Maximum     Tolerance    Cnvgd?
         Gradient           0.029869      0.000300      NO
         Displacement       0.074553      0.001200      NO
         Energy change     -0.035083      0.000001      NO


 New Cartesian Coordinates Obtained by Inverse Iteration

 Displacement from previous Coordinates is:  0.242343
 ----------------------------------------------------
       Standard Nuclear Orientation (Angstroms)
    I     Atom         X            Y            Z
 ----------------------------------------------------
    1      C      -5.280712    -0.392836     0.041768
    2      C      -4.606828    -1.223152    -0.858081
    3      C      -4.546452     0.374266     0.950941
    4      C      -3.211613    -1.281414    -0.853418
    5      C      -3.150840     0.312645     0.957470
    6      C      -0.311055    -1.842374     0.144966
    7      C       1.071420    -1.931905     0.149753
    8      C      -2.458760    -0.514616     0.053261
    9      C      -0.979146    -0.595769     0.062228
   10      C       1.865315    -0.768085     0.066523
   11      C      -0.182747     0.550038    -0.026949
   12      C       1.226700     0.470906    -0.024781
   13      C       3.354743    -0.835117     0.065609
   14      F       3.899687    -0.279517    -1.060921
   15      F       3.823843    -2.100887     0.146882
   16      F       3.908336    -0.135787     1.104256
   17      N      -0.608861     1.864142    -0.159236
   18      N       1.806754     1.720397    -0.139810
   19      S       0.673597     3.040852    -0.266189
   20      H      -6.363133    -0.347029     0.037490
   21      H      -5.165507    -1.821354    -1.568200
   22      H      -5.058066     1.011364     1.662769
   23      H      -2.697976    -1.919787    -1.562741
   24      H      -2.594213     0.888203     1.688823
   25      H      -0.903098    -2.745309     0.223203
   26      H       1.549821    -2.898250     0.223708
   27      H      -1.573327     2.148895    -0.221256
   28      H       2.798152     1.897526    -0.169335
 ----------------------------------------------------
 Molecular Point Group                 C1    NOp =  1
 Largest Abelian Subgroup              C1    NOp =  1
 Nuclear Repulsion Energy =  1526.1805927757 hartrees
 There are       72 alpha and       72 beta electrons
 Applying Cartesian multipole field
    Component          Value
    ---------          -----
     (2,0,0)        1.00000E-12
     (0,2,0)        2.00000E-11
     (0,0,2)       -3.00000E-11
 Nucleus-field energy     =     0.0000000234 hartrees
 Requested basis set is 6-31+G(d)
 There are 114 shells and 383 basis functions
 A cutoff of  1.0D-11 yielded   4983 shell pairs
 There are     59659 function pairs
 Smallest overlap matrix eigenvalue = 3.54E-07

 Q-Chem warning in module ../qchem/stvman/mkSTV.C, line 251:

 Overlap eigenvalue is smaller than square root of threshold

 Linear dependence detected in AO basis
 Number of orthogonalized atomic orbitals = 380
 Maximum deviation from orthogonality = 4.876E-10
 Guess MOs from SCF MO coefficient file
Reading MOs from coefficient file
Reading MOs from coefficient file
 A restricted hybrid HF-DFT SCF calculation will be
 performed using Pulay DIIS extrapolation
 Exchange:     0.2000 Hartree-Fock + 0.0800 Slater + 0.7200 Becke88
 Correlation:  0.8100 LYP + 0.1900 VWN1RPA
 Using SG-1 standard quadrature grid
 SCF converges when DIIS error is below 1.0E-08
Geometry optimization detected.  Setting ReadMinima to 0
Setting SaveMinima to 0
 using 24 threads for integral computing 
 reading int configure file ... done
         cpu  86.47 wall   4.15
 -------------------------------------------------------
 OpenMP BLAS3 based DFT computing Module                
 Release: version 1.0, May 2013, Q-Chem Inc. Pittsburgh 
 -------------------------------------------------------
in dftxc.C, eleTot sum is:143.997975, tauTot is:0.000000
 ---------------------------------------
  Cycle       Energy         DIIS Error
 ---------------------------------------
    1   -1307.9965666437      8.56E-04
         cpu  86.67 wall   4.19
in dftxc.C, eleTot sum is:143.999323, tauTot is:0.000000
    2   -1308.0098631729      2.09E-04
         cpu  80.20 wall   3.94
in dftxc.C, eleTot sum is:143.999379, tauTot is:0.000000
    3   -1308.0092059559      2.83E-04
         cpu  78.76 wall   3.88
in dftxc.C, eleTot sum is:143.999352, tauTot is:0.000000
    4   -1308.0106671406      6.92E-05
         cpu  73.63 wall   3.74
in dftxc.C, eleTot sum is:143.999350, tauTot is:0.000000
    5   -1308.0107488029      2.08E-05
         cpu  70.50 wall   3.55
in dftxc.C, eleTot sum is:143.999350, tauTot is:0.000000
    6   -1308.0107566817      4.96E-06
         cpu  66.40 wall   3.58
in dftxc.C, eleTot sum is:143.999351, tauTot is:0.000000
    7   -1308.0107570537      2.10E-06
         cpu  64.90 wall   3.44
in dftxc.C, eleTot sum is:143.999350, tauTot is:0.000000
    8   -1308.0107571391      7.65E-07
         cpu  59.88 wall   3.06
in dftxc.C, eleTot sum is:143.999350, tauTot is:0.000000
    9   -1308.0107571502      2.77E-07
         cpu  57.33 wall   2.89
in dftxc.C, eleTot sum is:143.999350, tauTot is:0.000000
   10   -1308.0107571515      1.02E-07
         cpu  53.16 wall   2.74
in dftxc.C, eleTot sum is:143.999350, tauTot is:0.000000
   11   -1308.0107571522      3.99E-08
         cpu  49.89 wall   2.59
in dftxc.C, eleTot sum is:143.999350, tauTot is:0.000000
   12   -1308.0107571516      1.07E-08
         cpu  48.28 wall   2.56
in dftxc.C, eleTot sum is:143.999350, tauTot is:0.000000
   13   -1308.0107571514      5.18E-09 Convergence criterion met
 ---------------------------------------
 SCF time:  CPU 1123.35 s  wall 59.33 s
 SCF   energy in the final basis set = -1308.0107571514
 Total energy in the final basis set = -1308.0107571514
 Analysis of SCF Wavefunction
 
 --------------------------------------------------------------
                    Orbital Energies (a.u.)
 --------------------------------------------------------------
 
 Alpha MOs
 -- Occupied --
-88.971 -24.749 -24.744 -24.744 -14.397 -14.393 -10.449 -10.264
-10.257 -10.219 -10.219 -10.214 -10.209 -10.208 -10.208 -10.207
-10.206 -10.202 -10.197  -8.022  -5.990  -5.986  -5.974  -1.315
 -1.233  -1.225  -1.012  -0.919  -0.881  -0.864  -0.803  -0.776
 -0.762  -0.758  -0.706  -0.697  -0.658  -0.637  -0.620  -0.613
 -0.593  -0.593  -0.592  -0.547  -0.527  -0.504  -0.494  -0.491
 -0.475  -0.474  -0.469  -0.464  -0.456  -0.449  -0.436  -0.433
 -0.432  -0.423  -0.416  -0.412  -0.393  -0.382  -0.378  -0.362
 -0.357  -0.353  -0.346  -0.278  -0.277  -0.269  -0.241  -0.171
 -- Virtual --
 -0.067  -0.046  -0.027  -0.008  -0.006  -0.004   0.003   0.007
  0.014   0.023   0.026   0.034   0.042   0.044   0.045   0.055
  0.059   0.065   0.068   0.075   0.082   0.082   0.087   0.091
  0.098   0.103   0.105   0.111   0.116   0.118   0.123   0.124
  0.127   0.130   0.134   0.141   0.147   0.148   0.152   0.164
  0.165   0.171   0.176   0.178   0.182   0.187   0.191   0.191
  0.196   0.202   0.203   0.206   0.208   0.211   0.215   0.219
  0.227   0.229   0.231   0.236   0.239   0.242   0.245   0.250
  0.253   0.255   0.259   0.262   0.273   0.275   0.277   0.279
  0.283   0.285   0.295   0.300   0.301   0.307   0.308   0.317
  0.319   0.324   0.333   0.335   0.339   0.344   0.355   0.356
  0.359   0.369   0.371   0.380   0.383   0.389   0.398   0.405
  0.409   0.423   0.438   0.443   0.447   0.471   0.487   0.497
  0.504   0.525   0.542   0.562   0.573   0.598   0.625   0.636
  0.646   0.665   0.678   0.695   0.696   0.699   0.709   0.716
  0.718   0.722   0.727   0.730   0.732   0.742   0.750   0.752
  0.761   0.777   0.784   0.794   0.805   0.806   0.816   0.824
  0.836   0.851   0.862   0.873   0.874   0.904   0.911   0.916
  0.926   0.936   0.949   0.968   0.979   0.990   1.001   1.006
  1.009   1.026   1.035   1.047   1.052   1.081   1.093   1.100
  1.103   1.112   1.141   1.149   1.152   1.161   1.167   1.169
  1.191   1.200   1.211   1.242   1.245   1.254   1.267   1.289
  1.300   1.315   1.328   1.353   1.368   1.395   1.416   1.428
  1.435   1.452   1.467   1.473   1.479   1.484   1.503   1.511
  1.546   1.574   1.598   1.617   1.618   1.641   1.657   1.662
  1.672   1.685   1.696   1.699   1.710   1.718   1.735   1.762
  1.784   1.792   1.793   1.803   1.815   1.820   1.828   1.834
  1.857   1.861   1.868   1.885   1.890   1.913   1.914   1.948
  1.958   1.971   1.987   1.998   2.013   2.029   2.040   2.053
  2.066   2.068   2.082   2.096   2.125   2.127   2.142   2.150
  2.162   2.173   2.196   2.202   2.210   2.236   2.257   2.265
  2.279   2.290   2.297   2.303   2.323   2.347   2.372   2.414
  2.435   2.446   2.471   2.472   2.522   2.553   2.595   2.617
  2.619   2.645   2.657   2.683   2.711   2.726   2.731   2.743
  2.746   2.759   2.777   2.805   2.844   2.889   2.904   2.966
  2.995   3.078   3.101   3.145   3.252   3.256   3.323   3.369
  3.461   3.949   4.102   4.210   4.243   4.258   4.292   4.330
  4.350   4.387   4.391   4.453   4.479   4.515   4.641   4.702
  4.853   5.588   6.107   6.996
 --------------------------------------------------------------
 
          Ground-State Mulliken Net Atomic Charges

     Atom                 Charge (a.u.)
  ----------------------------------------
      1 C                    -0.257912
      2 C                    -0.151163
      3 C                    -0.114480
      4 C                    -0.415342
      5 C                    -0.414130
      6 C                    -0.685048
      7 C                    -0.871861
      8 C                     0.334531
      9 C                    -0.290739
     10 C                    -0.995830
     11 C                     0.845796
     12 C                     1.179583
     13 C                     1.445943
     14 F                    -0.291486
     15 F                    -0.339679
     16 F                    -0.289327
     17 N                    -0.781771
     18 N                    -0.783695
     19 S                     0.652263
     20 H                     0.181707
     21 H                     0.182944
     22 H                     0.182414
     23 H                     0.189522
     24 H                     0.197132
     25 H                     0.187494
     26 H                     0.203756
     27 H                     0.446723
     28 H                     0.452655
  ----------------------------------------
  Sum of atomic charges =    -0.000000

 -----------------------------------------------------------------
                    Cartesian Multipole Moments
 -----------------------------------------------------------------
    Charge (ESU x 10^10)
                 0.0000
    Dipole Moment (Debye)
         X      -3.3905      Y       1.7586      Z      -0.2520
       Tot       3.8278
    Quadrupole Moments (Debye-Ang)
        XX    -111.9793     XY       3.6509     YY    -108.4466
        XZ      -0.0440     YZ       2.6192     ZZ    -119.8525
    Octapole Moments (Debye-Ang^2)
       XXX     -10.8656    XXY      26.3025    XYY      28.1164
       YYY       0.3205    XXZ      -4.1349    XYZ     -16.2656
       YYZ      -5.8254    XZZ      18.2691    YZZ      -6.2491
       ZZZ       1.3035
    Hexadecapole Moments (Debye-Ang^3)
      XXXX   -5539.9312   XXXY      37.7199   XXYY   -1220.6025
      XYYY     -62.6407   YYYY   -1671.9903   XXXZ       8.4589
      XXYZ      62.8720   XYYZ      16.9253   YYYZ     -12.1203
      XXZZ   -1043.0877   XYZZ     -27.0431   YYZZ    -371.4575
      XZZZ       9.4933   YZZZ      14.0987   ZZZZ    -369.2110
 -----------------------------------------------------------------
 Calculating analytic gradient of the SCF energy
         cpu 302.40 wall  29.02
 Gradient of Coulomb and Exchange Energy
            1           2           3           4           5           6
    1  17.3414747  10.2032881   9.1121556   2.4404053   1.4872934   3.5011235
    2   0.0290062   7.7964173  -6.8103711   9.4690143  -5.6484068  19.2537567
    3  -0.1899464   8.8985128  -8.0771075  12.0881891 -12.9618541  -3.4968459
            7           8           9          10          11          12
    1  -4.3119550  -0.3704868  24.8036430 -10.5668766  -4.5027006  -2.2965732
    2  18.1137410   4.2539967  16.9563959  16.8478102 -28.4374616 -21.9601703
    3  -0.3153967  -1.4554337  -1.2619786  -2.5116510   4.0571276   1.4085674
           13          14          15          16          17          18
    1  -4.0280103 -16.3814676 -14.5212940 -16.4295392   6.0391347  -7.8359777
    2   5.7028605  -6.2642414  25.1180747  -9.0881655  -9.7268696  -9.9426278
    3  -0.1840389  20.9701189  -1.6491666 -19.9636125   1.2737562   0.7335181
           19          20          21          22          23          24
    1  -2.1038747   6.0253893   3.4713889   3.3255408  -2.3698040  -2.5504885
    2 -33.8830111  -0.2055909   3.3184276  -3.4989764   4.2194360  -3.7379033
    3   3.3051061   0.0191477   3.9226007  -4.0095114   4.5930156  -4.9244720
           25          26          27          28
    1   3.5081257  -2.5821674   8.0075723  -8.4153197
    2   6.4481044   7.0990647  -3.0476152  -2.3746950
    3  -0.5071365  -0.5574007   0.4754897   0.3204027
in dftxc.C, eleTot sum is:143.999350, tauTot is:0.000000
 Gradient of SCF Energy
            1           2           3           4           5           6
    1  -0.0023049  -0.0012146  -0.0010506   0.0011386   0.0011701  -0.0035514
    2   0.0000958  -0.0013708   0.0015104  -0.0005745   0.0004959  -0.0003906
    3  -0.0000797  -0.0017146   0.0017711  -0.0016210   0.0018695   0.0009582
            7           8           9          10          11          12
    1   0.0038548   0.0028532  -0.0031871   0.0008988   0.0024192  -0.0024517
    2  -0.0002694  -0.0001830  -0.0014974  -0.0014067   0.0018926  -0.0001745
    3   0.0000082   0.0001912  -0.0004351   0.0001779  -0.0003176   0.0004060
           13          14          15          16          17          18
    1   0.0005295  -0.0009479  -0.0003165  -0.0008270  -0.0001651   0.0008405
    2   0.0022461   0.0001244  -0.0024669   0.0003995   0.0011430   0.0029277
    3  -0.0004113   0.0004027   0.0003332  -0.0003819  -0.0021242  -0.0009382
           19          20          21          22          23          24
    1  -0.0000836   0.0024091   0.0012703   0.0011925  -0.0013278  -0.0013773
    2  -0.0042469  -0.0001446   0.0013976  -0.0014601   0.0012736  -0.0010525
    3   0.0006652   0.0000298   0.0016406  -0.0016814   0.0015782  -0.0017339
           25          26          27          28
    1   0.0017286  -0.0014196   0.0008006  -0.0008806
    2   0.0017216   0.0016905  -0.0008589  -0.0008217
    3  -0.0003909  -0.0002603   0.0014062   0.0006520
 Max gradient component =       4.247E-03
 RMS gradient           =       1.506E-03
 Gradient time:  CPU 338.13 s  wall 33.02 s
 Geometry Optimization Parameters
   NAtoms,    NIC,     NZ,  NCons,   NDum,   NFix, NCnnct, MaxDiis
       28     205       0       0       0       0       0       0

 Cartesian Hessian Update
 Hessian Updated using BFGS Update


** GEOMETRY OPTIMIZATION IN DELOCALIZED INTERNAL COORDINATES **
   Searching for a Minimum

   Optimization Cycle:   3

                       Coordinates (Angstroms)
     ATOM              X           Y           Z
      1  C        -5.280712   -0.392836    0.041768
      2  C        -4.606828   -1.223152   -0.858081
      3  C        -4.546452    0.374266    0.950941
      4  C        -3.211613   -1.281414   -0.853418
      5  C        -3.150840    0.312645    0.957470
      6  C        -0.311055   -1.842374    0.144966
      7  C         1.071420   -1.931905    0.149753
      8  C        -2.458760   -0.514616    0.053261
      9  C        -0.979146   -0.595769    0.062228
     10  C         1.865315   -0.768085    0.066523
     11  C        -0.182747    0.550038   -0.026949
     12  C         1.226700    0.470906   -0.024781
     13  C         3.354743   -0.835117    0.065609
     14  F         3.899687   -0.279517   -1.060921
     15  F         3.823843   -2.100887    0.146882
     16  F         3.908336   -0.135787    1.104256
     17  N        -0.608861    1.864142   -0.159236
     18  N         1.806754    1.720397   -0.139810
     19  S         0.673597    3.040852   -0.266189
     20  H        -6.363133   -0.347029    0.037490
     21  H        -5.165507   -1.821354   -1.568200
     22  H        -5.058066    1.011364    1.662769
     23  H        -2.697976   -1.919787   -1.562741
     24  H        -2.594213    0.888203    1.688823
     25  H        -0.903098   -2.745309    0.223203
     26  H         1.549821   -2.898250    0.223708
     27  H        -1.573327    2.148895   -0.221256
     28  H         2.798152    1.897526   -0.169335
   Point Group: c1    Number of degrees of freedom:    78


   Energy is  -1308.010757151

 GETINT wrote B to file, NVib is           78
 Hessian Updated using BFGS Update

 78 Hessian modes will be used to form the next step
  Hessian Eigenvalues:
     0.010102    0.012409    0.015719    0.016207    0.016475    0.019243
     0.020014    0.020100    0.020289    0.020424    0.020499    0.020612
     0.020679    0.020777    0.020868    0.020891    0.020972    0.021165
     0.021230    0.021505    0.021541    0.021577    0.021628    0.106593
     0.114008    0.156999    0.159996    0.159997    0.159998    0.160000
     0.160000    0.160000    0.160048    0.160081    0.219993    0.220005
     0.224832    0.234334    0.240384    0.242717    0.245328    0.249852
     0.249973    0.249997    0.250000    0.250000    0.254250    0.256127
     0.326156    0.335965    0.341252    0.370697    0.394704    0.401101
     0.402041    0.402549    0.422668    0.430970    0.433340    0.433418
     0.437178    0.437379    0.437772    0.438421    0.439359    0.439517
     0.439759    0.440408    0.444717    0.446153    0.452201    0.497327
     0.502150    0.503241    0.505320    0.533835    0.534782    0.547547

 Minimum Search - Taking Simple RFO Step
 Searching for Lamda that Minimizes Along All modes
 Value Taken    Lamda =  -0.00053735
 Step Taken.  Stepsize is  0.124109

                             Maximum     Tolerance    Cnvgd?
         Gradient           0.004140      0.000300      NO
         Displacement       0.045209      0.001200      NO
         Energy change     -0.005136      0.000001      NO


 New Cartesian Coordinates Obtained by Inverse Iteration

 Displacement from previous Coordinates is:  0.228506
 ----------------------------------------------------
       Standard Nuclear Orientation (Angstroms)
    I     Atom         X            Y            Z
 ----------------------------------------------------
    1      C      -5.283753    -0.396744     0.036722
    2      C      -4.605842    -1.240959    -0.847211
    3      C      -4.553530     0.387187     0.934765
    4      C      -3.210522    -1.295846    -0.838575
    5      C      -3.157745     0.329240     0.945924
    6      C      -0.311758    -1.841960     0.139433
    7      C       1.068067    -1.934098     0.140478
    8      C      -2.462386    -0.511219     0.056719
    9      C      -0.977961    -0.591543     0.070986
   10      C       1.864966    -0.768540     0.065146
   11      C      -0.182591     0.553918    -0.006386
   12      C       1.229633     0.472944    -0.010832
   13      C       3.357099    -0.839780     0.057751
   14      F       3.904983    -0.257145    -1.054697
   15      F       3.828200    -2.103321     0.102031
   16      F       3.920427    -0.173514     1.113519
   17      N      -0.606106     1.871881    -0.130048
   18      N       1.809282     1.722648    -0.124548
   19      S       0.678367     3.050833    -0.248934
   20      H      -6.370042    -0.352959     0.028852
   21      H      -5.163319    -1.854634    -1.551072
   22      H      -5.070303     1.035951     1.638349
   23      H      -2.689867    -1.945087    -1.538727
   24      H      -2.600981     0.915467     1.674464
   25      H      -0.911624    -2.744636     0.214132
   26      H       1.550863    -2.902557     0.207121
   27      H      -1.568416     2.159199    -0.228254
   28      H       2.800894     1.901318    -0.178376
 ----------------------------------------------------
 Molecular Point Group                 C1    NOp =  1
 Largest Abelian Subgroup              C1    NOp =  1
 Nuclear Repulsion Energy =  1524.6753300400 hartrees
 There are       72 alpha and       72 beta electrons
 Applying Cartesian multipole field
    Component          Value
    ---------          -----
     (2,0,0)        1.00000E-12
     (0,2,0)        2.00000E-11
     (0,0,2)       -3.00000E-11
 Nucleus-field energy     =     0.0000000237 hartrees
 Requested basis set is 6-31+G(d)
 There are 114 shells and 383 basis functions
 A cutoff of  1.0D-11 yielded   4984 shell pairs
 There are     59645 function pairs
 Smallest overlap matrix eigenvalue = 3.56E-07

 Q-Chem warning in module ../qchem/stvman/mkSTV.C, line 251:

 Overlap eigenvalue is smaller than square root of threshold

 Linear dependence detected in AO basis
 Number of orthogonalized atomic orbitals = 380
 Maximum deviation from orthogonality = 2.836E-10
 Guess MOs from SCF MO coefficient file
Reading MOs from coefficient file
Reading MOs from coefficient file
 A restricted hybrid HF-DFT SCF calculation will be
 performed using Pulay DIIS extrapolation
 Exchange:     0.2000 Hartree-Fock + 0.0800 Slater + 0.7200 Becke88
 Correlation:  0.8100 LYP + 0.1900 VWN1RPA
 Using SG-1 standard quadrature grid
 SCF converges when DIIS error is below 1.0E-08
Geometry optimization detected.  Setting ReadMinima to 0
Setting SaveMinima to 0
 using 24 threads for integral computing 
 reading int configure file ... done
         cpu  87.84 wall   4.16
 -------------------------------------------------------
 OpenMP BLAS3 based DFT computing Module                
 Release: version 1.0, May 2013, Q-Chem Inc. Pittsburgh 
 -------------------------------------------------------
in dftxc.C, eleTot sum is:143.995545, tauTot is:0.000000
 ---------------------------------------
  Cycle       Energy         DIIS Error
 ---------------------------------------
    1   -1307.9947953231      6.01E-04
         cpu  87.02 wall   4.18
in dftxc.C, eleTot sum is:143.999601, tauTot is:0.000000
    2   -1308.0110237336      7.30E-05
         cpu  77.20 wall   3.80
in dftxc.C, eleTot sum is:143.999613, tauTot is:0.000000
    3   -1308.0108335725      1.26E-04
         cpu  74.58 wall   3.73
in dftxc.C, eleTot sum is:143.999605, tauTot is:0.000000
    4   -1308.0111372865      1.99E-05
         cpu  69.87 wall   3.55
in dftxc.C, eleTot sum is:143.999605, tauTot is:0.000000
    5   -1308.0111424326      1.10E-05
         cpu  68.23 wall   3.48
in dftxc.C, eleTot sum is:143.999605, tauTot is:0.000000
    6   -1308.0111445392      2.89E-06
         cpu  65.35 wall   3.27
in dftxc.C, eleTot sum is:143.999605, tauTot is:0.000000
    7   -1308.0111446770      1.42E-06
         cpu  61.48 wall   3.11
in dftxc.C, eleTot sum is:143.999605, tauTot is:0.000000
    8   -1308.0111447177      2.80E-07
         cpu  57.58 wall   3.05
in dftxc.C, eleTot sum is:143.999605, tauTot is:0.000000
    9   -1308.0111447188      1.21E-07
         cpu  54.02 wall   2.75
in dftxc.C, eleTot sum is:143.999605, tauTot is:0.000000
   10   -1308.0111447190      5.11E-08
         cpu  51.04 wall   2.64
in dftxc.C, eleTot sum is:143.999605, tauTot is:0.000000
   11   -1308.0111447199      1.70E-08
         cpu  47.82 wall   2.49
in dftxc.C, eleTot sum is:143.999605, tauTot is:0.000000
   12   -1308.0111447192      5.86E-09 Convergence criterion met
 ---------------------------------------
 SCF time:  CPU 1022.68 s  wall 54.13 s
 SCF   energy in the final basis set = -1308.0111447192
 Total energy in the final basis set = -1308.0111447192
 Analysis of SCF Wavefunction
 
 --------------------------------------------------------------
                    Orbital Energies (a.u.)
 --------------------------------------------------------------
 
 Alpha MOs
 -- Occupied --
-88.971 -24.749 -24.744 -24.743 -14.397 -14.393 -10.449 -10.264
-10.257 -10.220 -10.219 -10.214 -10.209 -10.208 -10.208 -10.207
-10.207 -10.203 -10.198  -8.023  -5.990  -5.986  -5.975  -1.315
 -1.232  -1.224  -1.011  -0.918  -0.881  -0.863  -0.802  -0.776
 -0.761  -0.758  -0.705  -0.696  -0.658  -0.637  -0.619  -0.613
 -0.593  -0.592  -0.592  -0.546  -0.527  -0.503  -0.492  -0.491
 -0.475  -0.473  -0.469  -0.463  -0.456  -0.449  -0.436  -0.432
 -0.431  -0.423  -0.415  -0.412  -0.393  -0.382  -0.378  -0.362
 -0.357  -0.353  -0.346  -0.279  -0.277  -0.269  -0.240  -0.172
 -- Virtual --
 -0.069  -0.046  -0.027  -0.008  -0.006  -0.005   0.002   0.007
  0.014   0.023   0.026   0.034   0.042   0.044   0.045   0.055
  0.059   0.065   0.068   0.075   0.081   0.082   0.087   0.091
  0.098   0.103   0.104   0.110   0.115   0.118   0.123   0.124
  0.127   0.130   0.134   0.141   0.146   0.148   0.152   0.163
  0.165   0.170   0.176   0.178   0.182   0.187   0.190   0.192
  0.195   0.201   0.203   0.205   0.209   0.211   0.215   0.219
  0.227   0.228   0.231   0.236   0.239   0.242   0.245   0.249
  0.253   0.254   0.259   0.263   0.272   0.275   0.276   0.278
  0.282   0.285   0.295   0.299   0.301   0.306   0.308   0.317
  0.319   0.325   0.333   0.335   0.339   0.343   0.354   0.356
  0.358   0.368   0.371   0.378   0.384   0.389   0.398   0.405
  0.408   0.422   0.438   0.443   0.448   0.471   0.487   0.496
  0.502   0.525   0.542   0.562   0.572   0.597   0.624   0.636
  0.646   0.664   0.678   0.694   0.696   0.699   0.709   0.714
  0.717   0.722   0.726   0.730   0.732   0.741   0.749   0.752
  0.761   0.775   0.783   0.793   0.805   0.806   0.816   0.823
  0.836   0.850   0.860   0.872   0.875   0.903   0.909   0.918
  0.927   0.934   0.947   0.967   0.979   0.988   1.000   1.006
  1.009   1.024   1.034   1.047   1.052   1.081   1.092   1.100
  1.103   1.111   1.141   1.146   1.152   1.162   1.167   1.169
  1.190   1.199   1.210   1.241   1.244   1.255   1.266   1.289
  1.301   1.312   1.327   1.351   1.366   1.394   1.414   1.428
  1.432   1.451   1.464   1.473   1.479   1.484   1.504   1.510
  1.545   1.574   1.598   1.616   1.618   1.639   1.650   1.662
  1.673   1.685   1.696   1.699   1.708   1.718   1.734   1.759
  1.781   1.790   1.792   1.802   1.813   1.821   1.828   1.835
  1.857   1.861   1.866   1.884   1.889   1.911   1.913   1.946
  1.954   1.968   1.984   1.994   2.012   2.026   2.047   2.049
  2.067   2.076   2.081   2.096   2.124   2.127   2.142   2.149
  2.159   2.173   2.195   2.202   2.207   2.233   2.254   2.265
  2.280   2.288   2.296   2.302   2.322   2.344   2.368   2.411
  2.434   2.444   2.468   2.472   2.520   2.551   2.594   2.615
  2.619   2.642   2.654   2.681   2.709   2.724   2.728   2.742
  2.744   2.761   2.777   2.803   2.841   2.888   2.903   2.963
  2.993   3.075   3.101   3.145   3.250   3.257   3.322   3.365
  3.459   3.948   4.100   4.209   4.241   4.258   4.289   4.328
  4.349   4.386   4.390   4.452   4.476   4.513   4.639   4.701
  4.850   5.590   6.112   6.990
 --------------------------------------------------------------
 
          Ground-State Mulliken Net Atomic Charges

     Atom                 Charge (a.u.)
  ----------------------------------------
      1 C                    -0.264333
      2 C                    -0.162353
      3 C                    -0.116954
      4 C                    -0.431736
      5 C                    -0.398449
      6 C                    -0.694607
      7 C                    -0.890629
      8 C                     0.363655
      9 C                    -0.258171
     10 C                    -1.006035
     11 C                     0.855354
     12 C                     1.174867
     13 C                     1.440653
     14 F                    -0.294959
     15 F                    -0.338944
     16 F                    -0.288554
     17 N                    -0.784658
     18 N                    -0.783364
     19 S                     0.651104
     20 H                     0.182019
     21 H                     0.183181
     22 H                     0.182665
     23 H                     0.189787
     24 H                     0.198598
     25 H                     0.187996
     26 H                     0.204362
     27 H                     0.446494
     28 H                     0.453012
  ----------------------------------------
  Sum of atomic charges =    -0.000000

 -----------------------------------------------------------------
                    Cartesian Multipole Moments
 -----------------------------------------------------------------
    Charge (ESU x 10^10)
                -0.0000
    Dipole Moment (Debye)
         X      -3.4028      Y       1.7786      Z      -0.3262
       Tot       3.8534
    Quadrupole Moments (Debye-Ang)
        XX    -112.2724     XY       3.6962     YY    -108.1770
        XZ      -0.0804     YZ       2.4644     ZZ    -120.0023
    Octapole Moments (Debye-Ang^2)
       XXX     -11.7534    XXY      26.2670    XYY      27.8258
       YYY       0.5412    XXZ      -4.7151    XYZ     -16.4009
       YYZ      -6.5985    XZZ      18.6570    YZZ      -6.1968
       ZZZ       0.0537
    Hexadecapole Moments (Debye-Ang^3)
      XXXX   -5559.0625   XXXY      38.3643   XXYY   -1222.1863
      XYYY     -61.9265   YYYY   -1680.1678   XXXZ       9.1366
      XXYZ      60.9744   XYYZ      17.5709   YYYZ     -17.1919
      XXZZ   -1047.1016   XYZZ     -27.3677   YYZZ    -372.4248
      XZZZ      10.4492   YZZZ       8.3954   ZZZZ    -364.4340
 -----------------------------------------------------------------
 Calculating analytic gradient of the SCF energy
         cpu 299.99 wall  28.99
 Gradient of Coulomb and Exchange Energy
            1           2           3           4           5           6
    1  17.3593479  10.3679538   9.2607004   2.4200307   1.1105123   3.4154984
    2   0.0205242   7.9830631  -6.7429135   9.2045127  -5.9679690  18.7326643
    3  -0.1158536   8.8156403  -7.9911073  11.6351846 -12.3800789  -3.0503986
            7           8           9          10          11          12
    1  -4.6128489  -0.2933439  25.2463380 -11.0125144  -4.6035058  -1.8741433
    2  18.2766881   4.4838315  16.9870108  16.9387441 -27.8581604 -22.2261610
    3  -0.5384645  -1.4892289  -1.5401345  -2.3990863   4.0568326   1.3625407
           13          14          15          16          17          18
    1  -3.6688264 -16.4574410 -14.5671723 -16.4773519   6.0344697  -7.8610216
    2   5.5419139  -6.6950395  25.1585552  -8.5479310  -9.6675064  -9.8110021
    3  -0.0293271  20.7139153  -0.9527981 -20.2054759   0.5611119   0.4641340
           19          20          21          22          23          24
    1  -2.1678413   6.0270666   3.4526087   3.3438407  -2.4069157  -2.5521786
    2 -33.9675133  -0.1953901   3.3920147  -3.5503887   4.2703216  -3.7856816
    3   3.1757471   0.0390530   3.8776476  -3.9518243   4.5213162  -4.8927476
           25          26          27          28
    1   3.5623313  -2.6225221   7.9507467  -8.3738182
    2   6.4131701   7.0798676  -3.0687108  -2.3985144
    3  -0.4868278  -0.5089054   0.7886945   0.5204410
in dftxc.C, eleTot sum is:143.999605, tauTot is:0.000000
 Gradient of SCF Energy
            1           2           3           4           5           6
    1   0.0002142   0.0000406   0.0001227  -0.0001008  -0.0001705  -0.0001962
    2  -0.0000399   0.0001076  -0.0000407   0.0004771  -0.0004357   0.0007282
    3  -0.0000378   0.0001574  -0.0001154  -0.0000372   0.0000748   0.0003554
            7           8           9          10          11          12
    1   0.0001610  -0.0002732   0.0002593  -0.0005150   0.0004382  -0.0006177
    2   0.0003614   0.0001640  -0.0007536  -0.0006780  -0.0000479  -0.0007378
    3  -0.0002371  -0.0000520  -0.0002625   0.0001142   0.0008232   0.0010969
           13          14          15          16          17          18
    1  -0.0002667   0.0002294   0.0004232   0.0003891   0.0004467  -0.0003577
    2   0.0008506  -0.0007619   0.0004392  -0.0002742  -0.0000147   0.0009579
    3  -0.0005501   0.0005828   0.0000324  -0.0002594  -0.0036987  -0.0016145
           19          20          21          22          23          24
    1   0.0000432  -0.0002195  -0.0000847  -0.0000711   0.0001835   0.0001849
    2  -0.0001265  -0.0000000  -0.0001133   0.0001181  -0.0001744   0.0001355
    3   0.0005875   0.0000149  -0.0001451   0.0001470  -0.0001097   0.0001835
           25          26          27          28
    1  -0.0001098  -0.0000713  -0.0003179   0.0002360
    2  -0.0002724  -0.0002147   0.0002464   0.0000997
    3  -0.0000744  -0.0000093   0.0020420   0.0009911
 Max gradient component =       3.699E-03
 RMS gradient           =       6.219E-04
 Gradient time:  CPU 335.71 s  wall 32.99 s
 Geometry Optimization Parameters
   NAtoms,    NIC,     NZ,  NCons,   NDum,   NFix, NCnnct, MaxDiis
       28     205       0       0       0       0       0       0

 Cartesian Hessian Update
 Hessian Updated using BFGS Update


** GEOMETRY OPTIMIZATION IN DELOCALIZED INTERNAL COORDINATES **
   Searching for a Minimum

   Optimization Cycle:   4

                       Coordinates (Angstroms)
     ATOM              X           Y           Z
      1  C        -5.283753   -0.396744    0.036722
      2  C        -4.605842   -1.240959   -0.847211
      3  C        -4.553530    0.387187    0.934765
      4  C        -3.210522   -1.295846   -0.838575
      5  C        -3.157745    0.329240    0.945924
      6  C        -0.311758   -1.841960    0.139433
      7  C         1.068067   -1.934098    0.140478
      8  C        -2.462386   -0.511219    0.056719
      9  C        -0.977961   -0.591543    0.070986
     10  C         1.864966   -0.768540    0.065146
     11  C        -0.182591    0.553918   -0.006386
     12  C         1.229633    0.472944   -0.010832
     13  C         3.357099   -0.839780    0.057751
     14  F         3.904983   -0.257145   -1.054697
     15  F         3.828200   -2.103321    0.102031
     16  F         3.920427   -0.173514    1.113519
     17  N        -0.606106    1.871881   -0.130048
     18  N         1.809282    1.722648   -0.124548
     19  S         0.678367    3.050833   -0.248934
     20  H        -6.370042   -0.352959    0.028852
     21  H        -5.163319   -1.854634   -1.551072
     22  H        -5.070303    1.035951    1.638349
     23  H        -2.689867   -1.945087   -1.538727
     24  H        -2.600981    0.915467    1.674464
     25  H        -0.911624   -2.744636    0.214132
     26  H         1.550863   -2.902557    0.207121
     27  H        -1.568416    2.159199   -0.228254
     28  H         2.800894    1.901318   -0.178376
   Point Group: c1    Number of degrees of freedom:    78


   Energy is  -1308.011144719

 GETINT wrote B to file, NVib is           78
 Hessian Updated using BFGS Update

 78 Hessian modes will be used to form the next step
  Hessian Eigenvalues:
     0.005030    0.010694    0.012591    0.015790    0.016237    0.019326
     0.020020    0.020125    0.020319    0.020435    0.020499    0.020618
     0.020710    0.020800    0.020867    0.020907    0.020977    0.021224
     0.021503    0.021514    0.021575    0.021586    0.021646    0.106600
     0.114852    0.159159    0.159996    0.159998    0.159999    0.160000
     0.160000    0.160037    0.160042    0.161057    0.219990    0.220004
     0.224842    0.234656    0.240041    0.242361    0.244252    0.249439
     0.249972    0.249997    0.250000    0.250047    0.254948    0.273417
     0.333619    0.341220    0.347960    0.388741    0.401031    0.401622
     0.402133    0.422111    0.424288    0.430943    0.433413    0.435222
     0.437334    0.437520    0.437785    0.438638    0.439364    0.439536
     0.439824    0.441661    0.445549    0.446141    0.487377    0.500517
     0.502660    0.504400    0.520636    0.533837    0.535122    0.624580

 Minimum Search - Taking Simple RFO Step
 Searching for Lamda that Minimizes Along All modes
 Value Taken    Lamda =  -0.00088901
 Calculated Step too Large.  Step scaled by  0.792317
 Step Taken.  Stepsize is  0.300000

                             Maximum     Tolerance    Cnvgd?
         Gradient           0.001268      0.000300      NO
         Displacement       0.119297      0.001200      NO
         Energy change     -0.000388      0.000001      NO


 New Cartesian Coordinates Obtained by Inverse Iteration

 Displacement from previous Coordinates is:  0.419101
 ----------------------------------------------------
[...]
 Hessian Updated using BFGS Update

 78 Hessian modes will be used to form the next step
  Hessian Eigenvalues:
     0.001273    0.010932    0.013832    0.015786    0.016258    0.020016
     0.020061    0.020306    0.020410    0.020494    0.020532    0.020636
     0.020767    0.020857    0.020871    0.020932    0.020990    0.021227
     0.021504    0.021542    0.021577    0.021627    0.035458    0.106607
     0.114687    0.157980    0.159975    0.159996    0.159999    0.160000
     0.160002    0.160016    0.160125    0.161123    0.219993    0.220008
     0.224942    0.234191    0.241017    0.242328    0.244413    0.249320
     0.249906    0.249986    0.250003    0.250218    0.254940    0.286908
     0.320695    0.340930    0.343959    0.368777    0.393041    0.401314
     0.402069    0.405113    0.422267    0.431051    0.433389    0.434174
     0.436680    0.437356    0.437784    0.438497    0.439363    0.439536
     0.439813    0.441227    0.445069    0.446138    0.467497    0.500381
     0.501495    0.503978    0.505420    0.534074    0.534559    0.568609

 Minimum Search - Taking Simple RFO Step
 Searching for Lamda that Minimizes Along All modes
 Value Taken    Lamda =  -0.00572336
 Calculated Step too Large.  Step scaled by  0.362871
 Step Taken.  Stepsize is  0.300000

                             Maximum     Tolerance    Cnvgd?
         Gradient           0.005383      0.000300      NO
         Displacement       0.123462      0.001200      NO
         Energy change     -0.007985      0.000001      NO


 New Cartesian Coordinates Obtained by Inverse Iteration

 Displacement from previous Coordinates is:  0.432572
 ----------------------------------------------------
       Standard Nuclear Orientation (Angstroms)
    I     Atom         X            Y            Z
 ----------------------------------------------------
    1      C      -5.282398    -0.404137     0.025209
    2      C      -4.594297    -1.307524    -0.789699
    3      C      -4.561241     0.446498     0.867547
    4      C      -3.199658    -1.354986    -0.767895
    5      C      -3.165615     0.399304     0.890785
    6      C      -0.317050    -1.831969     0.094196
    7      C       1.063799    -1.927030     0.085382
    8      C      -2.459342    -0.501484     0.071024
    9      C      -0.979474    -0.578241     0.103609
   10      C       1.862076    -0.763864     0.062260
   11      C      -0.180674     0.569278     0.104813
   12      C       1.230907     0.483411     0.067340
   13      C       3.352077    -0.846126     0.043268
   14      F       3.899066    -0.113257    -0.981241
   15      F       3.811485    -2.110037    -0.090266
   16      F       3.919394    -0.338593     1.177783
   17      N      -0.622469     1.893044     0.070315
   18      N       1.820239     1.726733    -0.020374
   19      S       0.677213     3.038569    -0.200517
   20      H      -6.364990    -0.365100     0.005641
   21      H      -5.142136    -1.971393    -1.448358
   22      H      -5.083712     1.138672     1.517668
   23      H      -2.675343    -2.044167    -1.419084
   24      H      -2.620158     1.031794     1.581238
   25      H      -0.919189    -2.730310     0.133538
   26      H       1.548252    -2.892926     0.105027
   27      H      -1.514602     2.118432    -0.348328
   28      H       2.783873     1.881457    -0.272150
 ----------------------------------------------------
 Molecular Point Group                 C1    NOp =  1
 Largest Abelian Subgroup              C1    NOp =  1
 Nuclear Repulsion Energy =  1526.5913691045 hartrees
 There are       72 alpha and       72 beta electrons
 Applying Cartesian multipole field
    Component          Value
    ---------          -----
     (2,0,0)        1.00000E-12
     (0,2,0)        2.00000E-11
     (0,0,2)       -3.00000E-11
 Nucleus-field energy     =     0.0000000244 hartrees
 Requested basis set is 6-31+G(d)
 There are 114 shells and 383 basis functions
 A cutoff of  1.0D-11 yielded   4984 shell pairs
 There are     59651 function pairs
 Smallest overlap matrix eigenvalue = 3.39E-07

 Q-Chem warning in module ../qchem/stvman/mkSTV.C, line 251:

 Overlap eigenvalue is smaller than square root of threshold

 Linear dependence detected in AO basis
 Number of orthogonalized atomic orbitals = 380
 Maximum deviation from orthogonality = 2.814E-10
 Guess MOs from SCF MO coefficient file
Reading MOs from coefficient file
Reading MOs from coefficient file
 A restricted hybrid HF-DFT SCF calculation will be
 performed using Pulay DIIS extrapolation
 Exchange:     0.2000 Hartree-Fock + 0.0800 Slater + 0.7200 Becke88
 Correlation:  0.8100 LYP + 0.1900 VWN1RPA
 Using SG-1 standard quadrature grid
 SCF converges when DIIS error is below 1.0E-08
Geometry optimization detected.  Setting ReadMinima to 0
Setting SaveMinima to 0
 using 24 threads for integral computing 
 reading int configure file ... done
         cpu  86.99 wall   4.15
 -------------------------------------------------------
 OpenMP BLAS3 based DFT computing Module                
 Release: version 1.0, May 2013, Q-Chem Inc. Pittsburgh 
 -------------------------------------------------------
in dftxc.C, eleTot sum is:144.008924, tauTot is:0.000000
 ---------------------------------------
  Cycle       Energy         DIIS Error
 ---------------------------------------
    1   -1307.9965818739      1.19E-03
         cpu  87.43 wall   4.18
in dftxc.C, eleTot sum is:144.000228, tauTot is:0.000000
    2   -1308.0154794464      1.64E-04
         cpu  78.66 wall   3.88
in dftxc.C, eleTot sum is:144.000255, tauTot is:0.000000
    3   -1308.0143611356      2.98E-04
         cpu  78.39 wall   3.83
in dftxc.C, eleTot sum is:144.000241, tauTot is:0.000000
    4   -1308.0160559422      3.88E-05
         cpu  73.20 wall   3.88
in dftxc.C, eleTot sum is:144.000241, tauTot is:0.000000
    5   -1308.0160721539      2.42E-05
         cpu  70.70 wall   3.55
in dftxc.C, eleTot sum is:144.000241, tauTot is:0.000000
    6   -1308.0160827621      6.40E-06
         cpu  67.80 wall   3.42
in dftxc.C, eleTot sum is:144.000242, tauTot is:0.000000
    7   -1308.0160835538      2.25E-06
         cpu  64.04 wall   3.24
in dftxc.C, eleTot sum is:144.000242, tauTot is:0.000000
    8   -1308.0160836454      5.39E-07
         cpu  59.46 wall   3.03
in dftxc.C, eleTot sum is:144.000242, tauTot is:0.000000
    9   -1308.0160836501      1.85E-07
         cpu  55.13 wall   2.85
in dftxc.C, eleTot sum is:144.000242, tauTot is:0.000000
   10   -1308.0160836507      7.76E-08
         cpu  52.82 wall   2.73
in dftxc.C, eleTot sum is:144.000242, tauTot is:0.000000
   11   -1308.0160836508      4.14E-08
         cpu  51.04 wall   2.59
in dftxc.C, eleTot sum is:144.000242, tauTot is:0.000000
   12   -1308.0160836508      9.27E-09 Convergence criterion met
 ---------------------------------------
 SCF time:  CPU 1039.23 s  wall 54.50 s
 SCF   energy in the final basis set = -1308.0160836508
 Total energy in the final basis set = -1308.0160836508
 Analysis of SCF Wavefunction
 
 --------------------------------------------------------------
                    Orbital Energies (a.u.)
 --------------------------------------------------------------
 
 Alpha MOs
 -- Occupied --
-88.966 -24.751 -24.748 -24.743 -14.396 -14.393 -10.451 -10.265
-10.256 -10.222 -10.220 -10.218 -10.208 -10.208 -10.207 -10.207
-10.207 -10.207 -10.200  -8.018  -5.986  -5.981  -5.970  -1.317
 -1.234  -1.226  -1.011  -0.921  -0.882  -0.864  -0.804  -0.775
 -0.762  -0.759  -0.707  -0.694  -0.659  -0.639  -0.619  -0.613
 -0.594  -0.593  -0.593  -0.547  -0.528  -0.505  -0.493  -0.492
 -0.477  -0.475  -0.471  -0.462  -0.456  -0.449  -0.437  -0.434
 -0.431  -0.424  -0.417  -0.409  -0.394  -0.384  -0.381  -0.363
 -0.359  -0.353  -0.346  -0.284  -0.277  -0.269  -0.240  -0.177
 -- Virtual --
 -0.065  -0.052  -0.027  -0.009  -0.007  -0.004   0.004   0.007
  0.014   0.024   0.025   0.034   0.042   0.045   0.047   0.055
  0.058   0.066   0.068   0.074   0.083   0.083   0.089   0.092
  0.099   0.100   0.104   0.109   0.115   0.120   0.123   0.125
  0.128   0.131   0.132   0.143   0.147   0.149   0.153   0.163
  0.164   0.171   0.175   0.178   0.185   0.186   0.188   0.193
  0.195   0.200   0.201   0.208   0.209   0.214   0.216   0.221
  0.225   0.228   0.234   0.237   0.239   0.242   0.245   0.250
  0.254   0.254   0.260   0.263   0.271   0.274   0.276   0.276
  0.281   0.287   0.292   0.298   0.300   0.307   0.309   0.316
  0.320   0.325   0.329   0.335   0.340   0.345   0.351   0.356
  0.362   0.365   0.369   0.375   0.387   0.395   0.401   0.405
  0.407   0.418   0.433   0.442   0.450   0.467   0.479   0.490
  0.498   0.528   0.539   0.559   0.569   0.596   0.622   0.630
  0.644   0.660   0.676   0.689   0.691   0.699   0.704   0.712
  0.714   0.720   0.726   0.727   0.736   0.740   0.746   0.753
  0.761   0.769   0.780   0.788   0.802   0.806   0.818   0.825
  0.840   0.849   0.854   0.874   0.883   0.899   0.905   0.921
  0.933   0.940   0.943   0.969   0.979   0.991   0.996   1.011
  1.016   1.021   1.035   1.056   1.061   1.075   1.084   1.096
  1.103   1.107   1.131   1.141   1.151   1.160   1.164   1.174
  1.179   1.197   1.204   1.232   1.245   1.256   1.263   1.275
  1.283   1.310   1.332   1.340   1.362   1.388   1.410   1.428
  1.435   1.455   1.457   1.471   1.481   1.483   1.497   1.513
  1.521   1.550   1.576   1.608   1.619   1.637   1.643   1.659
  1.670   1.671   1.686   1.695   1.705   1.715   1.729   1.758
  1.777   1.789   1.791   1.802   1.821   1.823   1.838   1.855
  1.860   1.864   1.876   1.885   1.889   1.914   1.933   1.952
  1.958   1.963   1.980   2.001   2.008   2.040   2.046   2.052
  2.064   2.072   2.081   2.097   2.120   2.134   2.136   2.146
  2.158   2.176   2.195   2.204   2.210   2.223   2.248   2.260
  2.278   2.292   2.299   2.304   2.328   2.349   2.364   2.415
  2.423   2.442   2.461   2.468   2.519   2.554   2.595   2.613
  2.618   2.633   2.655   2.676   2.708   2.720   2.726   2.744
  2.746   2.754   2.782   2.806   2.840   2.887   2.896   2.951
  2.986   3.067   3.105   3.147   3.239   3.247   3.312   3.363
  3.462   3.943   4.097   4.212   4.240   4.260   4.287   4.325
  4.339   4.380   4.394   4.446   4.464   4.509   4.627   4.698
  4.846   5.628   6.082   6.935
 --------------------------------------------------------------
 
          Ground-State Mulliken Net Atomic Charges

     Atom                 Charge (a.u.)
  ----------------------------------------
      1 C                    -0.281109
      2 C                    -0.228062
      3 C                    -0.060219
      4 C                    -0.545722
      5 C                    -0.255542
      6 C                    -0.762376
      7 C                    -0.902339
      8 C                     0.403220
      9 C                    -0.019870
     10 C                    -0.906661
     11 C                     0.608235
     12 C                     1.000105
     13 C                     1.482378
     14 F                    -0.311885
     15 F                    -0.336086
     16 F                    -0.274813
     17 N                    -0.718904
     18 N                    -0.754443
     19 S                     0.647040
     20 H                     0.181916
     21 H                     0.182665
     22 H                     0.182833
     23 H                     0.187417
     24 H                     0.211036
     25 H                     0.186891
     26 H                     0.205413
     27 H                     0.432595
     28 H                     0.446286
  ----------------------------------------
  Sum of atomic charges =    -0.000000

 -----------------------------------------------------------------
                    Cartesian Multipole Moments
 -----------------------------------------------------------------
    Charge (ESU x 10^10)
                -0.0000
    Dipole Moment (Debye)
         X      -3.2866      Y       1.2911      Z      -0.9821
       Tot       3.6652
    Quadrupole Moments (Debye-Ang)
        XX    -112.3289     XY       3.6875     YY    -108.8392
        XZ      -0.3746     YZ       1.0219     ZZ    -120.1184
    Octapole Moments (Debye-Ang^2)
       XXX     -11.2564    XXY      23.8293    XYY      26.2484
       YYY      -5.9666    XXZ      -9.2902    XYZ     -16.7245
       YYZ     -12.4476    XZZ      21.2008    YZZ      -5.4710
       ZZZ      -7.2956
    Hexadecapole Moments (Debye-Ang^3)
      XXXX   -5540.2371   XXXY      36.1788   XXYY   -1218.8085
      XYYY     -57.2742   YYYY   -1705.5550   XXXZ       5.2891
      XXYZ      48.7058   XYYZ      17.9373   YYYZ     -41.5635
      XXZZ   -1049.3032   XYZZ     -27.6507   YYZZ    -369.6014
      XZZZ      10.5057   YZZZ     -15.6800   ZZZZ    -343.9641
 -----------------------------------------------------------------
 Calculating analytic gradient of the SCF energy
         cpu 300.69 wall  28.97
 Gradient of Coulomb and Exchange Energy
            1           2           3           4           5           6
    1  17.4005790  11.1531214   8.7895147   2.5614602   0.3693994   2.1462757
    2  -0.0736946   8.6456209  -6.6514467   8.9253791  -9.3217861  17.3778152
    3   0.2704795   8.2681789  -7.6475781   9.3448447  -8.5152812  -0.5941623
            7           8           9          10          11          12
    1  -4.8158187   0.3179459  26.7178099 -14.2668956  -4.1860466   0.4782614
    2  18.2735905   7.7929108  13.4325967  15.5580730 -23.2196349 -21.1897934
    3  -1.7821670  -2.2723772  -2.3881748  -1.0814059   3.9703441   1.8383898
           13          14          15          16          17          18
    1  -3.3924143 -16.9441286 -14.3557531 -16.3067386   7.3996780  -8.7369282
    2   5.2400236  -8.9304684  25.1511799  -5.9542334  -9.7312729 -10.0075337
    3   0.7897036  19.1926283   2.3487362 -21.5882079  -6.4316603  -2.4887189
           19          20          21          22          23          24
    1  -2.0701485   6.0250792   3.4189436   3.4016261  -2.3631022  -2.5061917
    2 -34.1474910  -0.1740532   3.6718362  -3.8072550   4.5311195  -4.1509694
    3   3.6189957   0.1065624   3.6436342  -3.6742427   4.2326230  -4.6553421
           25          26          27          28
    1   3.6032500  -2.7063693   6.8595671  -7.9919763
    2   6.3801814   7.0608147  -2.4327612  -2.2487474
    3  -0.2522179  -0.1904296   3.6647400   2.2721056
in dftxc.C, eleTot sum is:144.000242, tauTot is:0.000000
 Gradient of SCF Energy
            1           2           3           4           5           6
    1  -0.0021978  -0.0011087  -0.0009746   0.0008400   0.0012258  -0.0020187
    2  -0.0000770  -0.0013605   0.0016137  -0.0019059   0.0020529  -0.0014848
    3  -0.0000134  -0.0011699   0.0012374  -0.0010134   0.0006234  -0.0012674
            7           8           9          10          11          12
    1   0.0016850   0.0016375  -0.0013311   0.0002680  -0.0020817   0.0014651
    2  -0.0020338   0.0001347  -0.0005788   0.0002410   0.0049892   0.0016180
    3  -0.0007890  -0.0005729  -0.0002539  -0.0007141   0.0055665   0.0052461
           13          14          15          16          17          18
    1  -0.0006705  -0.0002198   0.0002737  -0.0001035   0.0025581  -0.0007549
    2   0.0005467   0.0004345  -0.0014355   0.0002647  -0.0041298  -0.0018688
    3  -0.0007940   0.0004392   0.0001144  -0.0000286  -0.0128237  -0.0089281
           19          20          21          22          23          24
    1  -0.0006631   0.0023429   0.0011725   0.0011274  -0.0009308  -0.0010593
    2  -0.0032670  -0.0000155   0.0014225  -0.0015679   0.0015865  -0.0019080
    3   0.0032591   0.0000033   0.0015012  -0.0014269   0.0014715  -0.0009849
           25          26          27          28
    1   0.0007276  -0.0003955   0.0001406  -0.0009541
    2   0.0023080   0.0023577   0.0011272   0.0009359
    3   0.0002035   0.0002602   0.0065182   0.0043361
 Max gradient component =       1.282E-02
 RMS gradient           =       2.539E-03
 Gradient time:  CPU 337.02 s  wall 33.00 s
 Geometry Optimization Parameters
   NAtoms,    NIC,     NZ,  NCons,   NDum,   NFix, NCnnct, MaxDiis
       28     205       0       0       0       0       0       0

 Cartesian Hessian Update
 Hessian Updated using BFGS Update
**WARNING** Hereditary positive definiteness endangered


** GEOMETRY OPTIMIZATION IN DELOCALIZED INTERNAL COORDINATES **
   Searching for a Minimum

   Optimization Cycle:   8

                       Coordinates (Angstroms)
     ATOM              X           Y           Z
      1  C        -5.282398   -0.404137    0.025209
      2  C        -4.594297   -1.307524   -0.789699
      3  C        -4.561241    0.446498    0.867547
      4  C        -3.199658   -1.354986   -0.767895
      5  C        -3.165615    0.399304    0.890785
      6  C        -0.317050   -1.831969    0.094196
      7  C         1.063799   -1.927030    0.085382
      8  C        -2.459342   -0.501484    0.071024
      9  C        -0.979474   -0.578241    0.103609
     10  C         1.862076   -0.763864    0.062260
     11  C        -0.180674    0.569278    0.104813
     12  C         1.230907    0.483411    0.067340
     13  C         3.352077   -0.846126    0.043268
     14  F         3.899066   -0.113257   -0.981241
     15  F         3.811485   -2.110037   -0.090266
     16  F         3.919394   -0.338593    1.177783
     17  N        -0.622469    1.893044    0.070315
     18  N         1.820239    1.726733   -0.020374
     19  S         0.677213    3.038569   -0.200517
     20  H        -6.364990   -0.365100    0.005641
     21  H        -5.142136   -1.971393   -1.448358
     22  H        -5.083712    1.138672    1.517668
     23  H        -2.675343   -2.044167   -1.419084
     24  H        -2.620158    1.031794    1.581238
     25  H        -0.919189   -2.730310    0.133538
     26  H         1.548252   -2.892926    0.105027
     27  H        -1.514602    2.118432   -0.348328
     28  H         2.783873    1.881457   -0.272150
   Point Group: c1    Number of degrees of freedom:    78


   Energy is  -1308.016083651

 GETINT wrote B to file, NVib is           78
 Hessian Updated using BFGS Update
**WARNING** Hereditary positive definiteness endangered

 78 Hessian modes will be used to form the next step
  Hessian Eigenvalues:
   -27.496691    0.000000    0.010362    0.012933    0.016034    0.016459
     0.020015    0.020069    0.020306    0.020410    0.020523    0.020626
     0.020660    0.020763    0.020862    0.020889    0.020936    0.021224
     0.021497    0.021515    0.021577    0.021621    0.021705    0.029625
     0.106621    0.116034    0.159572    0.159993    0.159995    0.160000
     0.160000    0.160008    0.160043    0.160126    0.193223    0.219992
     0.220015    0.224932    0.235691    0.240855    0.242250    0.248867
     0.249538    0.249934    0.249996    0.250011    0.254892    0.266667
     0.287422    0.329031    0.341104    0.345708    0.388379    0.401255
     0.402062    0.403970    0.420495    0.429806    0.431424    0.433416
     0.434640    0.437353    0.437779    0.438481    0.439363    0.439535
     0.439801    0.441146    0.444725    0.446133    0.450769    0.492353
     0.501297    0.501586    0.504069    0.526576    0.534301    0.537560
**WARNING** Magnitude of eigenvalue   2 too small.  Replaced by     0.000100
**WARNING** Magnitude of eigenvalue   1 too large.  Replaced by   -25.000000
**WARNING** Hessian does not have the Desired Local Structure

 Minimum Search - Taking Simple RFO Step
 Searching for Lamda that Minimizes Along All modes


 ****************************************
 ** UNABLE TO DETERMINE Lamda IN FormD **
 ****************************************



 Q-Chem fatal error occurred in module 0, line    9:

 OPTIMIZE fatal error

Application 47171528 exit codes: 1
Application 47171528 resources: utime ~12705s, stime ~255s, Rss ~498716, inblocks ~8058902, outblocks ~2946280
