unknown system                          
   1.00000000000000     
     2.969072   -0.000523   -0.000907
    -0.987305    2.800110    0.000907
    -0.987305   -1.402326    2.423654
   Li
     1
Direct
  0.000000  0.000000  0.000000
 
   48   48   48
 0.44143837606E+00 0.44404397585E+00 0.45174379508E+00 0.46419177113E+00 0.48084711822E+00
 0.50107628911E+00 0.52433258783E+00 0.55036303383E+00 0.57934179180E+00 0.61183142332E+00
 0.64853662602E+00 0.68991088445E+00 0.73575419420E+00 0.78495920389E+00 0.83551356108E+00
 0.88477337954E+00 0.92993116766E+00 0.96890933496E+00 0.10009696904E+01 0.10260332548E+01
 0.10445615034E+01 0.10574085146E+01 0.10655949568E+01 0.10700646356E+01 0.10714760491E+01
 0.10700646356E+01 0.10655949568E+01 0.10574085146E+01 0.10445615034E+01 0.10260332548E+01
 0.10009696904E+01 0.96890933496E+00 0.92993116766E+00 0.88477337954E+00 0.83551356108E+00
 0.78495920389E+00 0.73575419420E+00 0.68991088445E+00 0.64853662602E+00 0.61183142332E+00
 0.57934179180E+00 0.55036303383E+00 0.52433258783E+00 0.50107628911E+00 0.48084711822E+00
 0.46419177113E+00 0.45174379508E+00 0.44404397585E+00 0.44404398310E+00 0.44497468196E+00
 0.45102849197E+00 0.46193010047E+00 0.47719679510E+00 0.49621814739E+00 0.51841276117E+00
 0.54343151397E+00 0.57132024164E+00 0.60253849238E+00 0.63777579781E+00 0.67759569498E+00
 0.72202464348E+00 0.77024231375E+00 0.82050081350E+00 0.87031811865E+00 0.91689346003E+00
 0.95779209213E+00 0.99194636571E+00 0.10190999548E+01 0.10395540759E+01 0.10540565023E+01
 0.10635955035E+01 0.10691584682E+01 0.10715105624E+01 0.10710337207E+01 0.10676493562E+01
 0.10608340980E+01 0.10497267908E+01 0.10333130550E+01 0.10106586598E+01 0.98114566495E+00
 0.94465309423E+00 0.90163881814E+00 0.85364022284E+00 0.80333761117E+00 0.75347949025E+00
 0.70633960118E+00 0.66336515196E+00 0.62507422752E+00 0.59122283866E+00 0.56116503309E+00
 0.53426146878E+00 0.51018608239E+00 0.48903957207E+00 0.47127179614E+00 0.45749325673E+00
 0.44828021823E+00 0.45174382192E+00 0.45102851168E+00 0.45537726483E+00 0.46458774780E+00
 0.47824644571E+00 0.49579581037E+00 0.51666972137E+00 0.54048071394E+00 0.56718903060E+00
 0.59715653288E+00 0.63101597642E+00 0.66936176324E+00 0.71235530969E+00 0.75939028426E+00
 0.80895296133E+00 0.85874490681E+00 0.90604154332E+00 0.94824958827E+00 0.98397480400E+00
 0.10128108181E+01 0.10349108168E+01 0.10509049941E+01 0.10617196204E+01 0.10683475069E+01
 0.10716250005E+01 0.10720577206E+01 0.10697203687E+01 0.10642422359E+01 0.10548797868E+01
 0.10406684870E+01 0.10206334278E+01 0.99402229911E+00 0.96050884505E+00 0.92030911797E+00
 0.87438176098E+00 0.82503947469E+00 0.77504086421E+00 0.72687411058E+00 0.68234184830E+00
 0.64235357480E+00 0.60698139260E+00 0.57574184207E+00 0.54798603387E+00 0.52324899804E+00
 0.50144268447E+00 0.48285691036E+00 0.46801710481E+00 0.45749327621E+00 0.46419182410E+00
 0.46193014673E+00 0.46458777470E+00 0.47203798220E+00 0.48394417115E+00 0.49982089313E+00
 0.51915325814E+00 0.54156407616E+00 0.56697385897E+00 0.59566934751E+00 0.62821060696E+00
 0.66516767976E+00 0.70675771723E+00 0.75251089891E+00 0.80109767477E+00 0.85039696114E+00
 0.89779966296E+00 0.94068707863E+00 0.97742017601E+00 0.10074672291E+01 0.10308575117E+01
 0.10481064641E+01 0.10600602857E+01 0.10676843332E+01 0.10718481846E+01 0.10731488796E+01
 0.10717972630E+01 0.10675792391E+01 0.10598948673E+01 0.10478723031E+01 0.10305447300E+01
 0.10070653374E+01 0.97691884324E+00 0.94007673637E+00 0.89707251317E+00 0.84954923314E+00
 0.80012513111E+00 0.75140850040E+00 0.70552181706E+00 0.66380007639E+00 0.62672365488E+00
 0.59409067850E+00 0.56534904904E+00 0.53995602995E+00 0.51763794562E+00 0.49848013452E+00
 0.48285693608E+00 0.47127184145E+00 0.48084719632E+00 0.47719686738E+00 0.47824649959E+00
 0.48394419880E+00 0.49403686778E+00 0.50812516781E+00 0.52577027259E+00 0.54664102020E+00
 0.57065681484E+00 0.59805572529E+00 0.62932439922E+00 0.66497401048E+00 0.70521580864E+00
 0.74964601180E+00 0.79706282000E+00 0.84549877778E+00 0.89247725640E+00 0.93543446744E+00
 0.97259926683E+00 0.10033480944E+01 0.10276173356E+01 0.10458219955E+01 0.10587221690E+01
 0.10672313969E+01 0.10722166487E+01 0.10743288393E+01 0.10738863658E+01 0.10708212215E+01
 0.10646900289E+01 0.10547496625E+01 0.10400932374E+01 0.10198333100E+01 0.99330425308E+00
 0.96024034303E+00 0.92087853444E+00 0.87613993616E+00 0.82820164398E+00 0.77965661633E+00
 0.73285485798E+00 0.68953412211E+00 0.65063556999E+00 0.61634820295E+00 0.58634587409E+00
 0.56011559836E+00 0.53725389672E+00 0.51763797005E+00 0.50144273454E+00 0.48903964194E+00
 0.50107638443E+00 0.49621823843E+00 0.49579588482E+00 0.49982094299E+00 0.50812519098E+00
 0.52040455426E+00 0.53631232275E+00 0.55558643586E+00 0.57817186332E+00 0.60427937541E+00
 0.63432681336E+00 0.66874634282E+00 0.70769928231E+00 0.75079095376E+00 0.79689492444E+00
 0.84416679768E+00 0.89026445358E+00 0.93272535623E+00 0.96975561220E+00 0.10006840504E+01
 0.10253871808E+01 0.10442015596E+01 0.10578058996E+01 0.10670477812E+01 0.10727618028E+01
 0.10756147001E+01 0.10759961247E+01 0.10739603408E+01 0.10692181803E+01 0.10611788827E+01
 0.10490428914E+01 0.10319431358E+01 0.10091213337E+01 0.98010917512E+00 0.94487021219E+00
 0.90386553332E+00 0.85847299375E+00 0.81106442199E+00 0.76407463192E+00 0.71955670673E+00
 0.67890409091E+00 0.64276666650E+00 0.61116764645E+00 0.58375952229E+00 0.56011561545E+00
 0.53995607098E+00 0.52324906431E+00 0.51018616861E+00 0.52433268822E+00 0.51841285952E+00
 0.51666980596E+00 0.51915332087E+00 0.52577031070E+00 0.53631233875E+00 0.55053123280E+00
 0.56824486925E+00 0.58943735600E+00 0.61430413003E+00 0.64319754699E+00 0.67645884453E+00
 0.71417030492E+00 0.75590531634E+00 0.80057122124E+00 0.84641806631E+00 0.89123308634E+00
 0.93268164238E+00 0.96903956947E+00 0.99963523362E+00 0.10243160356E+01 0.10433653579E+01
 0.10573932374E+01 0.10671773544E+01 0.10734990319E+01 0.10770069400E+01 0.10781228579E+01
 0.10769894564E+01 0.10734541341E+01 0.10670858574E+01 0.10572279786E+01 0.10430929594E+01
 0.10238990213E+01 0.99903436903E+00 0.96821627567E+00 0.93160037891E+00 0.88986560921E+00
 0.84474729025E+00 0.79858633807E+00 0.75360536635E+00 0.71157070973E+00 0.67359917503E+00
 0.64014797290E+00 0.61116765367E+00 0.58634589741E+00 0.56534909497E+00 0.54798610404E+00
 0.53426155887E+00 0.55036312670E+00 0.54343160766E+00 0.54048079762E+00 0.54156414180E+00
 0.54664106433E+00 0.55558645985E+00 0.56824487808E+00 0.58451220610E+00 0.60441234980E+00
 0.62812694956E+00 0.65594184736E+00 0.68809944787E+00 0.72458558006E+00 0.76491620427E+00
 0.80800490125E+00 0.85217538108E+00 0.89533845574E+00 0.93530487401E+00 0.97049508625E+00
 0.10002749659E+01 0.10244881866E+01 0.10433891551E+01 0.10575361696E+01 0.10676415352E+01
 0.10744224438E+01 0.10784835588E+01 0.10802421544E+01 0.10798902982E+01 0.10773816906E+01
 0.10724348211E+01 0.10645540838E+01 0.10530794148E+01 0.10372756906E+01 0.10164629030E+01
 0.99016953750E+00 0.95827287497E+00 0.92108125064E+00 0.87948562214E+00 0.83539521498E+00
 0.79101876560E+00 0.74835163201E+00 0.70890841050E+00 0.67359917427E+00 0.64276667171E+00
 0.61634822202E+00 0.59409071777E+00 0.57574190378E+00 0.56116511433E+00 0.57934186757E+00
 0.57132032135E+00 0.56718910469E+00 0.56697391967E+00 0.57065685799E+00 0.57817188903E+00
 0.58943736787E+00 0.60441235318E+00 0.62314926698E+00 0.64580798694E+00 0.67260209290E+00
 0.70366931364E+00 0.73889066978E+00 0.77771300585E+00 0.81904312000E+00 0.86126835779E+00
 0.90242112704E+00 0.94047527625E+00 0.97405442092E+00 0.10025809966E+01 0.10259130019E+01
 0.10442952733E+01 0.10582513199E+01 0.10684379737E+01 0.10755067677E+01 0.10800026479E+01
 0.10823089813E+01 0.10826289653E+01 0.10809846195E+01 0.10772181719E+01 0.10709930831E+01
 0.10618059736E+01 0.10490280915E+01 0.10319905883E+01 0.10101119364E+01 0.98304421337E+00
 0.95079779979E+00 0.91380148244E+00 0.87311596164E+00 0.83066394475E+00 0.78848418195E+00
 0.74835162755E+00 0.71157070342E+00 0.67890408824E+00 0.65063557787E+00 0.62672367949E+00
 0.60698143701E+00 0.59122290162E+00 0.61183147756E+00 0.60253855351E+00 0.59715659293E+00
 0.59566939920E+00 0.59805576390E+00 0.60427939965E+00 0.61430414189E+00 0.62812695319E+00
 0.64580798697E+00 0.66747025415E+00 0.69324598129E+00 0.72316418048E+00 0.75699996301E+00
 0.79413092943E+00 0.83345711581E+00 0.87343052005E+00 0.91220905207E+00 0.94795899895E+00
 0.97954176089E+00 0.10064354182E+01 0.10285223495E+01 0.10460498183E+01 0.10595195758E+01
 0.10695443292E+01 0.10767153159E+01 0.10815125332E+01 0.10842665728E+01 0.10851599157E+01
 0.10842436260E+01 0.10814472343E+01 0.10765724368E+01 0.10692789794E+01 0.10590842667E+01
 0.10454006140E+01 0.10276227075E+01 0.10052571487E+01 0.97806357741E+00 0.94616405240E+00
 0.91008372795E+00 0.87097024924E+00 0.83066394089E+00 0.79101875680E+00 0.75360535410E+00
 0.71955669522E+00 0.68953411717E+00 0.66380008392E+00 0.64235359871E+00 0.62507426827E+00
 0.64853665975E+00 0.63777584067E+00 0.63101602221E+00 0.62821064923E+00 0.62932443286E+00
 0.63432683582E+00 0.64319755859E+00 0.65594185080E+00 0.67260209198E+00 0.69324597965E+00
 0.71791454704E+00 0.74652657720E+00 0.77875629281E+00 0.81392096988E+00 0.85092428786E+00
 0.88829325810E+00 0.92432110400E+00 0.95742356448E+00 0.98668619496E+00 0.10116339273E+01
 0.10321761871E+01 0.10485661041E+01 0.10612898893E+01 0.10709249361E+01 0.10780108085E+01
 0.10829659615E+01 0.10860610340E+01 0.10874366629E+01 0.10871390189E+01 0.10851448391E+01
 0.10813593681E+01 0.10755896982E+01 0.10675138694E+01 0.10566745284E+01 0.10425207802E+01
 0.10245043364E+01 0.10022128322E+01 0.97550360988E+00 0.94459476399E+00 0.91008372679E+00
 0.87311595676E+00 0.83539520486E+00 0.79858632316E+00 0.76407461498E+00 0.73285484368E+00
 0.70552181071E+00 0.68234185435E+00 0.66336517239E+00 0.68991090259E+00 0.67759572326E+00
 0.66936179739E+00 0.66516771442E+00 0.66497404057E+00 0.66874636483E+00 0.67645885722E+00
 0.68809945234E+00 0.70366931265E+00 0.72316417740E+00 0.74652657486E+00 0.77356738684E+00
 0.80387026822E+00 0.83670760962E+00 0.87100413434E+00 0.90537855219E+00 0.93828375508E+00
 0.96846052824E+00 0.99514353262E+00 0.10179043051E+01 0.10366762706E+01 0.10517139102E+01
 0.10634859875E+01 0.10725377963E+01 0.10793650693E+01 0.10843333512E+01 0.10876565386E+01
 0.10894250322E+01 0.10896568145E+01 0.10883396760E+01 0.10854414905E+01 0.10808838200E+01
 0.10744944623E+01 0.10659680956E+01 0.10548651196E+01 0.10406663874E+01 0.10228801836E+01
 0.10011757437E+01 0.97550361104E+00 0.94616405297E+00 0.91380148008E+00 0.87948561492E+00
 0.84474727769E+00 0.81106440549E+00 0.77965659916E+00 0.75140848699E+00 0.72687410538E+00
 0.70633960729E+00 0.73575420324E+00 0.72202466218E+00 0.71235533571E+00 0.70675774649E+00
 0.70521583657E+00 0.70769930495E+00 0.71417031990E+00 0.72458558705E+00 0.73889067033E+00
 0.75699995984E+00 0.77875628885E+00 0.80387026573E+00 0.83184993204E+00 0.86194221599E+00
 0.89311368649E+00 0.92409401549E+00 0.95357702435E+00 0.98061316470E+00 0.10045250262E+01
 0.10249325679E+01 0.10417869639E+01 0.10553337607E+01 0.10660149537E+01 0.10743399220E+01
 0.10807643088E+01 0.10856104289E+01 0.10890457307E+01 0.10911139237E+01 0.10917949958E+01
 0.10910619291E+01 0.10889066670E+01 0.10853236006E+01 0.10802593538E+01 0.10735543643E+01
 0.10649081310E+01 0.10538932235E+01 0.10400259685E+01 0.10228801854E+01 0.10022128356E+01
 0.97806358133E+00 0.95079780233E+00 0.92108124970E+00 0.88986560344E+00 0.85847298332E+00
 0.82820163071E+00 0.80012511826E+00 0.77504085565E+00 0.75347948951E+00 0.78495920941E+00
 0.77024232709E+00 0.75939030467E+00 0.75251092383E+00 0.74964603754E+00 0.75079097660E+00
 0.75590533338E+00 0.76491621415E+00 0.77771300897E+00 0.79413092764E+00 0.81392096577E+00
 0.83670760564E+00 0.86194221377E+00 0.88886746876E+00 0.91651247069E+00 0.94376231297E+00
 0.96965323665E+00 0.99340619688E+00 0.10144294636E+01 0.10323935320E+01 0.10472606507E+01
 0.10592547047E+01 0.10687767917E+01 0.10762902151E+01 0.10822084435E+01 0.10868175514E+01
 0.10902514751E+01 0.10925194441E+01 0.10935668029E+01 0.10933398212E+01 0.10918257010E+01
 0.10890508383E+01 0.10850387624E+01 0.10797469758E+01 0.10730119987E+01 0.10645306299E+01
 0.10538932248E+01 0.10406663905E+01 0.10245043418E+01 0.10052571557E+01 0.98304422085E+00
 0.95827288109E+00 0.93160038189E+00 0.90386553212E+00 0.87613993126E+00 0.84954922646E+00
 0.82503946913E+00 0.80333760987E+00 0.83551356631E+00 0.82050082386E+00 0.80895297708E+00
 0.80109769478E+00 0.79706284189E+00 0.79689494523E+00 0.80057123822E+00 0.80800491266E+00
 0.81904312540E+00 0.83345711612E+00 0.85092428495E+00 0.87100413037E+00 0.89311368325E+00
 0.91651246911E+00 0.94032538015E+00 0.96372289792E+00 0.98595859694E+00 0.10063745789E+01
 0.10244741806E+01 0.10399810871E+01 0.10528638057E+01 0.10633130665E+01 0.10716740224E+01
 0.10783500868E+01 0.10837050540E+01 0.10879907903E+01 0.10913190056E+01 0.10936805114E+01
 0.10949992571E+01 0.10951969517E+01 0.10942414612E+01 0.10921595424E+01 0.10890092370E+01
 0.10848237425E+01 0.10795504882E+01 0.10730119992E+01 0.10649081326E+01 0.10548651231E+01
 0.10425207862E+01 0.10276227160E+01 0.10101119467E+01 0.99016954845E+00 0.96821628567E+00
 0.94487021979E+00 0.92087853885E+00 0.89707251478E+00 0.87438176149E+00 0.85364022455E+00
 0.88477338534E+00 0.87031812649E+00 0.85874491758E+00 0.85039697476E+00 0.84549879324E+00
 0.84416681326E+00 0.84641808005E+00 0.85217539139E+00 0.86126836389E+00 0.87343052211E+00
 0.88829325712E+00 0.90537854965E+00 0.92409401282E+00 0.94376231112E+00 0.96372289714E+00
 0.98332648559E+00 0.10019588985E+01 0.10190891879E+01 0.10343208008E+01 0.10474330967E+01
 0.10583989907E+01 0.10673688432E+01 0.10746200209E+01 0.10804826053E+01 0.10852602403E+01
 0.10891675389E+01 0.10923006505E+01 0.10946469454E+01 0.10961269033E+01 0.10966506119E+01
 0.10961667159E+01 0.10946850455E+01 0.10922644955E+01 0.10889712180E+01 0.10848237427E+01
 0.10797469762E+01 0.10735543656E+01 0.10659680984E+01 0.10566745333E+01 0.10454006214E+01
 0.10319905982E+01 0.10164629149E+01 0.99903438170E+00 0.98010918731E+00 0.96024035360E+00
 0.94007674472E+00 0.92030912425E+00 0.90163882337E+00 0.92993117327E+00 0.91689346506E+00
 0.90604154864E+00 0.89779966920E+00 0.89247726365E+00 0.89026446143E+00 0.89123309401E+00
 0.89533846231E+00 0.90242113183E+00 0.91220905483E+00 0.92432110496E+00 0.93828375478E+00
 0.95357702345E+00 0.96965323574E+00 0.98595859638E+00 0.10019588984E+01 0.10171679437E+01
 0.10311785179E+01 0.10436929492E+01 0.10545469177E+01 0.10637185513E+01 0.10713163716E+01
 0.10775445631E+01 0.10826509577E+01 0.10868693805E+01 0.10903710232E+01 0.10932377021E+01
 0.10954635204E+01 0.10969824981E+01 0.10977112357E+01 0.10975906844E+01 0.10966116357E+01
 0.10948146280E+01 0.10922644955E+01 0.10890092371E+01 0.10850387627E+01 0.10802593544E+01
 0.10744944637E+01 0.10675138721E+01 0.10590842712E+01 0.10490280982E+01 0.10372756993E+01
 0.10238990318E+01 0.10091213451E+01 0.99330426435E+00 0.97691885349E+00 0.96050885369E+00
 0.94465310116E+00 0.96890933822E+00 0.95779209359E+00 0.94824958833E+00 0.94068707793E+00
 0.93543446671E+00 0.93272535601E+00 0.93268164299E+00 0.93530487545E+00 0.94047527826E+00
 0.94795900115E+00 0.95742356650E+00 0.96846052986E+00 0.98061316584E+00 0.99340619760E+00
 0.10063745794E+01 0.10190891881E+01 0.10311785180E+01 0.10423463577E+01 0.10523851710E+01
 0.10611838834E+01 0.10687276422E+01 0.10750869620E+01 0.10803952456E+01 0.10848167322E+01
 0.10885104642E+01 0.10915982767E+01 0.10941448218E+01 0.10961547790E+01 0.10975873900E+01
 0.10983829259E+01 0.10984916705E+01 0.10978950937E+01 0.10966116356E+01 0.10946850454E+01
 0.10921595424E+01 0.10890508384E+01 0.10853236007E+01 0.10808838202E+01 0.10755896986E+01
 0.10692789804E+01 0.10618059756E+01 0.10530794181E+01 0.10430929643E+01 0.10319431420E+01
 0.10198333171E+01 0.10070653446E+01 0.99402230561E+00 0.98114567003E+00 0.10009696898E+01
 0.99194636310E+00 0.98397479930E+00 0.97742016963E+00 0.97259925961E+00 0.96975560519E+00
 0.96903956365E+00 0.97049508233E+00 0.97405441919E+00 0.97954176118E+00 0.98668619675E+00
 0.99514353520E+00 0.10045250289E+01 0.10144294659E+01 0.10244741823E+01 0.10343208018E+01
 0.10436929497E+01 0.10523851711E+01 0.10602641053E+01 0.10672638128E+01 0.10733770010E+01
 0.10786431956E+01 0.10831343148E+01 0.10869382212E+01 0.10901416391E+01 0.10928149008E+01
 0.10950015319E+01 0.10967151585E+01 0.10979444813E+01 0.10986646531E+01 0.10988512071E+01
 0.10984916702E+01 0.10975906841E+01 0.10961667158E+01 0.10942414612E+01 0.10918257011E+01
 0.10889066670E+01 0.10854414901E+01 0.10813593671E+01 0.10765724352E+01 0.10709930812E+01
 0.10645540820E+01 0.10572279773E+01 0.10490428910E+01 0.10400932380E+01 0.10305447314E+01
 0.10206334293E+01 0.10106586607E+01 0.10260332507E+01 0.10190999494E+01 0.10128108108E+01
 0.10074672200E+01 0.10033480841E+01 0.10006840398E+01 0.99963522405E+00 0.10002749584E+01
 0.10025809919E+01 0.10064354165E+01 0.10116339280E+01 0.10179043076E+01 0.10249325712E+01
 0.10323935352E+01 0.10399810897E+01 0.10474330984E+01 0.10545469185E+01 0.10611838836E+01
 0.10672638128E+01 0.10727528148E+01 0.10776485933E+01 0.10819669574E+01 0.10857317822E+01
 0.10889689241E+01 0.10917033048E+01 0.10939578514E+01 0.10957531697E+01 0.10971073618E+01
 0.10980358880E+01 0.10985515595E+01 0.10986646528E+01 0.10983829253E+01 0.10977112351E+01
 0.10966506114E+01 0.10951969516E+01 0.10933398214E+01 0.10910619294E+01 0.10883396760E+01
 0.10851448382E+01 0.10814472322E+01 0.10772181685E+01 0.10724348165E+01 0.10670858520E+01
 0.10611788772E+01 0.10547496575E+01 0.10478722989E+01 0.10406684834E+01 0.10333130515E+01
 0.10445614977E+01 0.10395540699E+01 0.10349108099E+01 0.10308575036E+01 0.10276173265E+01
 0.10253871712E+01 0.10243160265E+01 0.10244881789E+01 0.10259129964E+01 0.10285223468E+01
 0.10321761870E+01 0.10366762725E+01 0.10417869669E+01 0.10472606541E+01 0.10528638086E+01
 0.10583989926E+01 0.10637185523E+01 0.10687276424E+01 0.10733770008E+01 0.10776485931E+01
 0.10815389504E+01 0.10850451584E+01 0.10881570347E+01 0.10908566636E+01 0.10931239704E+01
 0.10949452440E+01 0.10963209062E+01 0.10972694605E+01 0.10978260477E+01 0.10980358876E+01
 0.10979444805E+01 0.10975873889E+01 0.10969824970E+01 0.10961269024E+01 0.10949992567E+01
 0.10935668032E+01 0.10917949965E+01 0.10896568154E+01 0.10871390193E+01 0.10842436255E+01
 0.10809846175E+01 0.10773816867E+01 0.10734541286E+01 0.10692181736E+01 0.10646900217E+01
 0.10598948602E+01 0.10548797803E+01 0.10497267848E+01 0.10574085097E+01 0.10540564980E+01
 0.10509049901E+01 0.10481064600E+01 0.10458219911E+01 0.10442015548E+01 0.10433653530E+01
 0.10433891506E+01 0.10442952698E+01 0.10460498163E+01 0.10485661037E+01 0.10517139114E+01
 0.10553337629E+01 0.10592547073E+01 0.10633130688E+01 0.10673688449E+01 0.10713163724E+01
 0.10750869620E+01 0.10786431952E+01 0.10819669569E+01 0.10850451580E+01 0.10878577658E+01
 0.10903719423E+01 0.10925440225E+01 0.10943284431E+01 0.10956904205E+01 0.10966179246E+01
 0.10971286786E+01 0.10972694602E+01 0.10971073611E+01 0.10967151574E+01 0.10961547776E+01
 0.10954635188E+01 0.10946469441E+01 0.10936805106E+01 0.10925194441E+01 0.10911139247E+01
 0.10894250341E+01 0.10874366653E+01 0.10851599180E+01 0.10826289667E+01 0.10798902981E+01
 0.10769894544E+01 0.10739603369E+01 0.10708212161E+01 0.10675792329E+01 0.10642422297E+01
 0.10608340922E+01 0.10655949542E+01 0.10635955021E+01 0.10617196203E+01 0.10600602866E+01
 0.10587221705E+01 0.10578059011E+01 0.10573932387E+01 0.10575361703E+01 0.10582513204E+01
 0.10595195762E+01 0.10612898898E+01 0.10634859884E+01 0.10660149550E+01 0.10687767931E+01
 0.10716740237E+01 0.10746200217E+01 0.10775445634E+01 0.10803952453E+01 0.10831343142E+01
 0.10857317815E+01 0.10881570341E+01 0.10903719420E+01 0.10923282583E+01 0.10939708936E+01
 0.10952467318E+01 0.10961166793E+01 0.10965672725E+01 0.10966179243E+01 0.10963209056E+01
 0.10957531687E+01 0.10950015307E+01 0.10941448202E+01 0.10932377004E+01 0.10923006488E+01
 0.10913190045E+01 0.10902514748E+01 0.10890457317E+01 0.10876565411E+01 0.10860610380E+01
 0.10842665778E+01 0.10823089866E+01 0.10802421591E+01 0.10781228612E+01 0.10759961261E+01
 0.10738863651E+01 0.10717972606E+01 0.10697203653E+01 0.10676493528E+01 0.10700646352E+01
 0.10691584690E+01 0.10683475095E+01 0.10676843377E+01 0.10672314029E+01 0.10670477880E+01
 0.10671773611E+01 0.10676415411E+01 0.10684379785E+01 0.10695443326E+01 0.10709249383E+01
 0.10725377976E+01 0.10743399227E+01 0.10762902154E+01 0.10783500869E+01 0.10804826051E+01
 0.10826509573E+01 0.10848167315E+01 0.10869382203E+01 0.10889689231E+01 0.10908566628E+01
 0.10925440220E+01 0.10939708933E+01 0.10950795940E+01 0.10958222576E+01 0.10961692629E+01
 0.10961166791E+01 0.10956904200E+01 0.10949452432E+01 0.10939578503E+01 0.10928148996E+01
 0.10915982752E+01 0.10903710217E+01 0.10891675373E+01 0.10879907891E+01 0.10868175509E+01
 0.10856104296E+01 0.10843333537E+01 0.10829659660E+01 0.10815125396E+01 0.10800026556E+01
 0.10784835670E+01 0.10770069478E+01 0.10756147065E+01 0.10743288435E+01 0.10731488817E+01
 0.10720577210E+01 0.10710337202E+01 0.10714760497E+01 0.10715105636E+01 0.10716250033E+01
 0.10718481895E+01 0.10722166558E+01 0.10727618114E+01 0.10734990411E+01 0.10744224526E+01
 0.10755067752E+01 0.10767153216E+01 0.10780108122E+01 0.10793650713E+01 0.10807643094E+01
 0.10822084432E+01 0.10837050532E+01 0.10852602392E+01 0.10868693794E+01 0.10885104631E+01
 0.10901416380E+01 0.10917033037E+01 0.10931239696E+01 0.10943284426E+01 0.10952467315E+01
 0.10958222575E+01 0.10960183316E+01 0.10958222575E+01 0.10952467315E+01 0.10943284426E+01
 0.10931239696E+01 0.10917033037E+01 0.10901416380E+01 0.10885104631E+01 0.10868693794E+01
 0.10852602392E+01 0.10837050532E+01 0.10822084432E+01 0.10807643094E+01 0.10793650713E+01
 0.10780108122E+01 0.10767153216E+01 0.10755067752E+01 0.10744224526E+01 0.10734990411E+01
 0.10727618114E+01 0.10722166558E+01 0.10718481895E+01 0.10716250033E+01 0.10715105636E+01
 0.10700646352E+01 0.10710337202E+01 0.10720577210E+01 0.10731488817E+01 0.10743288435E+01
 0.10756147065E+01 0.10770069478E+01 0.10784835670E+01 0.10800026556E+01 0.10815125396E+01
 0.10829659660E+01 0.10843333537E+01 0.10856104296E+01 0.10868175509E+01 0.10879907891E+01
 0.10891675373E+01 0.10903710217E+01 0.10915982752E+01 0.10928148996E+01 0.10939578503E+01
 0.10949452432E+01 0.10956904200E+01 0.10961166791E+01 0.10961692629E+01 0.10958222576E+01
 0.10950795940E+01 0.10939708933E+01 0.10925440220E+01 0.10908566628E+01 0.10889689231E+01
 0.10869382203E+01 0.10848167315E+01 0.10826509573E+01 0.10804826051E+01 0.10783500869E+01
 0.10762902154E+01 0.10743399227E+01 0.10725377976E+01 0.10709249383E+01 0.10695443326E+01
 0.10684379785E+01 0.10676415411E+01 0.10671773611E+01 0.10670477880E+01 0.10672314029E+01
 0.10676843377E+01 0.10683475095E+01 0.10691584690E+01 0.10655949542E+01 0.10676493528E+01
 0.10697203653E+01 0.10717972606E+01 0.10738863651E+01 0.10759961261E+01 0.10781228612E+01
 0.10802421591E+01 0.10823089866E+01 0.10842665778E+01 0.10860610380E+01 0.10876565411E+01
 0.10890457317E+01 0.10902514748E+01 0.10913190045E+01 0.10923006488E+01 0.10932377004E+01
 0.10941448202E+01 0.10950015307E+01 0.10957531687E+01 0.10963209056E+01 0.10966179243E+01
 0.10965672725E+01 0.10961166793E+01 0.10952467318E+01 0.10939708936E+01 0.10923282583E+01
 0.10903719420E+01 0.10881570341E+01 0.10857317815E+01 0.10831343142E+01 0.10803952453E+01
 0.10775445634E+01 0.10746200217E+01 0.10716740237E+01 0.10687767931E+01 0.10660149550E+01
 0.10634859884E+01 0.10612898898E+01 0.10595195762E+01 0.10582513204E+01 0.10575361703E+01
 0.10573932387E+01 0.10578059011E+01 0.10587221705E+01 0.10600602866E+01 0.10617196203E+01
 0.10635955021E+01 0.10574085097E+01 0.10608340922E+01 0.10642422297E+01 0.10675792329E+01
 0.10708212161E+01 0.10739603369E+01 0.10769894544E+01 0.10798902981E+01 0.10826289667E+01
 0.10851599180E+01 0.10874366653E+01 0.10894250341E+01 0.10911139247E+01 0.10925194441E+01
 0.10936805106E+01 0.10946469441E+01 0.10954635188E+01 0.10961547776E+01 0.10967151574E+01
 0.10971073611E+01 0.10972694602E+01 0.10971286786E+01 0.10966179246E+01 0.10956904205E+01
 0.10943284431E+01 0.10925440225E+01 0.10903719423E+01 0.10878577658E+01 0.10850451580E+01
 0.10819669569E+01 0.10786431952E+01 0.10750869620E+01 0.10713163724E+01 0.10673688449E+01
 0.10633130688E+01 0.10592547073E+01 0.10553337629E+01 0.10517139114E+01 0.10485661037E+01
 0.10460498163E+01 0.10442952698E+01 0.10433891506E+01 0.10433653530E+01 0.10442015548E+01
 0.10458219911E+01 0.10481064600E+01 0.10509049901E+01 0.10540564980E+01 0.10445614977E+01
 0.10497267848E+01 0.10548797803E+01 0.10598948602E+01 0.10646900217E+01 0.10692181736E+01
 0.10734541286E+01 0.10773816867E+01 0.10809846175E+01 0.10842436255E+01 0.10871390193E+01
 0.10896568154E+01 0.10917949965E+01 0.10935668032E+01 0.10949992567E+01 0.10961269024E+01
 0.10969824970E+01 0.10975873889E+01 0.10979444805E+01 0.10980358876E+01 0.10978260477E+01
 0.10972694605E+01 0.10963209062E+01 0.10949452440E+01 0.10931239704E+01 0.10908566636E+01
 0.10881570347E+01 0.10850451584E+01 0.10815389504E+01 0.10776485931E+01 0.10733770008E+01
 0.10687276424E+01 0.10637185523E+01 0.10583989926E+01 0.10528638086E+01 0.10472606541E+01
 0.10417869669E+01 0.10366762725E+01 0.10321761870E+01 0.10285223468E+01 0.10259129964E+01
 0.10244881789E+01 0.10243160265E+01 0.10253871712E+01 0.10276173265E+01 0.10308575036E+01
 0.10349108099E+01 0.10395540699E+01 0.10260332507E+01 0.10333130515E+01 0.10406684834E+01
 0.10478722989E+01 0.10547496575E+01 0.10611788772E+01 0.10670858520E+01 0.10724348165E+01
 0.10772181685E+01 0.10814472322E+01 0.10851448382E+01 0.10883396760E+01 0.10910619294E+01
 0.10933398214E+01 0.10951969516E+01 0.10966506114E+01 0.10977112351E+01 0.10983829253E+01
 0.10986646528E+01 0.10985515595E+01 0.10980358880E+01 0.10971073618E+01 0.10957531697E+01
 0.10939578514E+01 0.10917033048E+01 0.10889689241E+01 0.10857317822E+01 0.10819669574E+01
 0.10776485933E+01 0.10727528148E+01 0.10672638128E+01 0.10611838836E+01 0.10545469185E+01
 0.10474330984E+01 0.10399810897E+01 0.10323935352E+01 0.10249325712E+01 0.10179043076E+01
 0.10116339280E+01 0.10064354165E+01 0.10025809919E+01 0.10002749584E+01 0.99963522405E+00
 0.10006840398E+01 0.10033480841E+01 0.10074672200E+01 0.10128108108E+01 0.10190999494E+01
 0.10009696898E+01 0.10106586607E+01 0.10206334293E+01 0.10305447314E+01 0.10400932380E+01
 0.10490428910E+01 0.10572279773E+01 0.10645540820E+01 0.10709930812E+01 0.10765724352E+01
 0.10813593671E+01 0.10854414901E+01 0.10889066670E+01 0.10918257011E+01 0.10942414612E+01
 0.10961667158E+01 0.10975906841E+01 0.10984916702E+01 0.10988512071E+01 0.10986646531E+01
 0.10979444813E+01 0.10967151585E+01 0.10950015319E+01 0.10928149008E+01 0.10901416391E+01
 0.10869382212E+01 0.10831343148E+01 0.10786431956E+01 0.10733770010E+01 0.10672638128E+01
 0.10602641053E+01 0.10523851711E+01 0.10436929497E+01 0.10343208018E+01 0.10244741823E+01
 0.10144294659E+01 0.10045250289E+01 0.99514353520E+00 0.98668619675E+00 0.97954176118E+00
 0.97405441919E+00 0.97049508233E+00 0.96903956365E+00 0.96975560519E+00 0.97259925961E+00
 0.97742016963E+00 0.98397479930E+00 0.99194636310E+00 0.96890933822E+00 0.98114567003E+00
 0.99402230561E+00 0.10070653446E+01 0.10198333171E+01 0.10319431420E+01 0.10430929643E+01
 0.10530794181E+01 0.10618059756E+01 0.10692789804E+01 0.10755896986E+01 0.10808838202E+01
 0.10853236007E+01 0.10890508384E+01 0.10921595424E+01 0.10946850454E+01 0.10966116356E+01
 0.10978950937E+01 0.10984916705E+01 0.10983829259E+01 0.10975873900E+01 0.10961547790E+01
 0.10941448218E+01 0.10915982767E+01 0.10885104642E+01 0.10848167322E+01 0.10803952456E+01
 0.10750869620E+01 0.10687276422E+01 0.10611838834E+01 0.10523851710E+01 0.10423463577E+01
 0.10311785180E+01 0.10190891881E+01 0.10063745794E+01 0.99340619760E+00 0.98061316584E+00
 0.96846052986E+00 0.95742356650E+00 0.94795900115E+00 0.94047527826E+00 0.93530487545E+00
 0.93268164299E+00 0.93272535601E+00 0.93543446671E+00 0.94068707793E+00 0.94824958833E+00
 0.95779209359E+00 0.92993117327E+00 0.94465310116E+00 0.96050885369E+00 0.97691885349E+00
 0.99330426435E+00 0.10091213451E+01 0.10238990318E+01 0.10372756993E+01 0.10490280982E+01
 0.10590842712E+01 0.10675138721E+01 0.10744944637E+01 0.10802593544E+01 0.10850387627E+01
 0.10890092371E+01 0.10922644955E+01 0.10948146280E+01 0.10966116357E+01 0.10975906844E+01
 0.10977112357E+01 0.10969824981E+01 0.10954635204E+01 0.10932377021E+01 0.10903710232E+01
 0.10868693805E+01 0.10826509577E+01 0.10775445631E+01 0.10713163716E+01 0.10637185513E+01
 0.10545469177E+01 0.10436929492E+01 0.10311785179E+01 0.10171679437E+01 0.10019588984E+01
 0.98595859638E+00 0.96965323574E+00 0.95357702345E+00 0.93828375478E+00 0.92432110496E+00
 0.91220905483E+00 0.90242113183E+00 0.89533846231E+00 0.89123309401E+00 0.89026446143E+00
 0.89247726365E+00 0.89779966920E+00 0.90604154864E+00 0.91689346506E+00 0.88477338534E+00
 0.90163882337E+00 0.92030912425E+00 0.94007674472E+00 0.96024035360E+00 0.98010918731E+00
 0.99903438170E+00 0.10164629149E+01 0.10319905982E+01 0.10454006214E+01 0.10566745333E+01
 0.10659680984E+01 0.10735543656E+01 0.10797469762E+01 0.10848237427E+01 0.10889712180E+01
 0.10922644955E+01 0.10946850455E+01 0.10961667159E+01 0.10966506119E+01 0.10961269033E+01
 0.10946469454E+01 0.10923006505E+01 0.10891675389E+01 0.10852602403E+01 0.10804826053E+01
 0.10746200209E+01 0.10673688432E+01 0.10583989907E+01 0.10474330967E+01 0.10343208008E+01
 0.10190891879E+01 0.10019588985E+01 0.98332648559E+00 0.96372289714E+00 0.94376231112E+00
 0.92409401282E+00 0.90537854965E+00 0.88829325712E+00 0.87343052211E+00 0.86126836389E+00
 0.85217539139E+00 0.84641808005E+00 0.84416681326E+00 0.84549879324E+00 0.85039697476E+00