 vasp.5.3.3 18Dez12 (build Feb 11 2013 15:00:06) complex                        
  
 executed on             LinuxIFC date 2014.06.05  13:45:54
 running on   24 total cores
 distrk:  each k-point on   24 cores,    1 groups
 distr:  one band on NCORES_PER_BAND=   6 cores,    4 groups


--------------------------------------------------------------------------------------------------------


 INCAR:
 POTCAR:    PAW_PBE O 08Apr2002                   
 POTCAR:    PAW_PBE O 08Apr2002                   
 POTCAR:    PAW_PBE P 06Sep2000                   
 POTCAR:    PAW_PBE N 08Apr2002                   
 POTCAR:    PAW_PBE Li_sv 10Sep2004               
 POTCAR:    PAW_PBE O 08Apr2002                   
   VRHFIN =O: s2p4                                                              
   LEXCH  = PE                                                                  
   EATOM  =   432.3788 eV,   31.7789 Ry                                         
                                                                                
   TITEL  = PAW_PBE O 08Apr2002                                                 
   LULTRA =        F    use ultrasoft PP ?                                      
   IUNSCR =        1    unscreen: 0-lin 1-nonlin 2-no                           
   RPACOR =    1.200    partial core radius                                     
   POMASS =   16.000; ZVAL   =    6.000    mass and valenz                      
   RCORE  =    1.520    outmost cutoff radius                                   
   RWIGS  =    1.550; RWIGS  =    0.820    wigner-seitz radius (au A)           
   ENMAX  =  400.000; ENMIN  =  300.000 eV                                      
   ICORE  =        2    local potential                                         
   LCOR   =        T    correct aug charges                                     
   LPAW   =        T    paw PP                                                  
   EAUG   =  605.392                                                            
   DEXC   =    0.000                                                            
   RMAX   =    1.553    core radius for proj-oper                               
   RAUG   =    1.300    factor for augmentation sphere                          
   RDEP   =    1.550    radius for radial grids                                 
   RDEPT  =    1.329    core radius for aug-charge                              
                                                                                
   Atomic configuration                                                         
    4 entries                                                                   
     n  l   j            E        occ.                                          
     1  0  0.50      -514.6923   2.0000                                         
     2  0  0.50       -23.9615   2.0000                                         
     2  1  0.50        -9.0305   4.0000                                         
     3  2  1.50        -9.5241   0.0000                                         
   Description                                                                  
     l       E           TYP  RCUT    TYP  RCUT                                 
     0    -23.9615318     23  1.200                                             
     0     -9.5240782     23  1.200                                             
     1     -9.0304911     23  1.520                                             
     1      8.1634956     23  1.520                                             
     2     -9.5240782      7  1.500                                             
  local pseudopotential read in
  partial core-charges read in
  partial kinetic energy density read in
  kinetic energy density of atom read in
  atomic valenz-charges read in
  non local Contribution for L=           0  read in
    real space projection operators read in
  non local Contribution for L=           0  read in
    real space projection operators read in
  non local Contribution for L=           1  read in
    real space projection operators read in
  non local Contribution for L=           1  read in
    real space projection operators read in
    PAW grid and wavefunctions read in
 
   number of l-projection  operators is LMAX  =           4
   number of lm-projection operators is LMMAX =           8
 
 POTCAR:    PAW_PBE O 08Apr2002                   
   VRHFIN =O: s2p4                                                              
   LEXCH  = PE                                                                  
   EATOM  =   432.3788 eV,   31.7789 Ry                                         
                                                                                
   TITEL  = PAW_PBE O 08Apr2002                                                 
   LULTRA =        F    use ultrasoft PP ?                                      
   IUNSCR =        1    unscreen: 0-lin 1-nonlin 2-no                           
   RPACOR =    1.200    partial core radius                                     
   POMASS =   16.000; ZVAL   =    6.000    mass and valenz                      
   RCORE  =    1.520    outmost cutoff radius                                   
   RWIGS  =    1.550; RWIGS  =    0.820    wigner-seitz radius (au A)           
   ENMAX  =  400.000; ENMIN  =  300.000 eV                                      
   ICORE  =        2    local potential                                         
   LCOR   =        T    correct aug charges                                     
   LPAW   =        T    paw PP                                                  
   EAUG   =  605.392                                                            
   DEXC   =    0.000                                                            
   RMAX   =    1.553    core radius for proj-oper                               
   RAUG   =    1.300    factor for augmentation sphere                          
   RDEP   =    1.550    radius for radial grids                                 
   RDEPT  =    1.329    core radius for aug-charge                              
                                                                                
   Atomic configuration                                                         
    4 entries                                                                   
     n  l   j            E        occ.                                          
     1  0  0.50      -514.6923   2.0000                                         
     2  0  0.50       -23.9615   2.0000                                         
     2  1  0.50        -9.0305   4.0000                                         
     3  2  1.50        -9.5241   0.0000                                         
   Description                                                                  
     l       E           TYP  RCUT    TYP  RCUT                                 
     0    -23.9615318     23  1.200                                             
     0     -9.5240782     23  1.200                                             
     1     -9.0304911     23  1.520                                             
     1      8.1634956     23  1.520                                             
     2     -9.5240782      7  1.500                                             
  local pseudopotential read in
  partial core-charges read in
  partial kinetic energy density read in
  kinetic energy density of atom read in
  atomic valenz-charges read in
  non local Contribution for L=           0  read in
    real space projection operators read in
  non local Contribution for L=           0  read in
    real space projection operators read in
  non local Contribution for L=           1  read in
    real space projection operators read in
  non local Contribution for L=           1  read in
    real space projection operators read in
    PAW grid and wavefunctions read in
 
   number of l-projection  operators is LMAX  =           4
   number of lm-projection operators is LMMAX =           8
 
 POTCAR:    PAW_PBE P 06Sep2000                   
   VRHFIN =P : s2p3                                                             
   LEXCH  = PE                                                                  
   EATOM  =   176.0430 eV,   12.9388 Ry                                         
                                                                                
   TITEL  = PAW_PBE P 06Sep2000                                                 
   LULTRA =        F    use ultrasoft PP ?                                      
   IUNSCR =        1    unscreen: 0-lin 1-nonlin 2-no                           
   RPACOR =    1.500    partial core radius                                     
   POMASS =   30.974; ZVAL   =    5.000    mass and valenz                      
   RCORE  =    1.900    outmost cutoff radius                                   
   RWIGS  =    2.330; RWIGS  =    1.233    wigner-seitz radius (au A)           
   ENMAX  =  255.040; ENMIN  =  191.280 eV                                      
   ICORE  =        2    local potential                                         
   LCOR   =        T    correct aug charges                                     
   LPAW   =        T    paw PP                                                  
   EAUG   =  342.924                                                            
   DEXC   =    0.000                                                            
   RMAX   =    1.935    core radius for proj-oper                               
   RAUG   =    1.300    factor for augmentation sphere                          
   RDEP   =    1.931    radius for radial grids                                 
   RDEPT  =    1.794    core radius for aug-charge                              
                                                                                
   Atomic configuration                                                         
    6 entries                                                                   
     n  l   j            E        occ.                                          
     1  0  0.50     -2084.0982   2.0000                                         
     2  0  0.50      -173.9859   2.0000                                         
     2  1  1.50      -124.4865   6.0000                                         
     3  0  0.50       -13.9692   2.0000                                         
     3  1  0.50        -5.5067   3.0000                                         
     3  2  1.50        -5.4423   0.0000                                         
   Description                                                                  
     l       E           TYP  RCUT    TYP  RCUT                                 
     0    -13.9691527     23  1.900                                             
     0    -11.7794650     23  1.900                                             
     1     -5.5066937     23  1.900                                             
     1     -0.2556953     23  1.900                                             
     2     -5.4423304     23  1.900                                             
  local pseudopotential read in
  partial core-charges read in
  partial kinetic energy density read in
  atomic valenz-charges read in
  non local Contribution for L=           0  read in
    real space projection operators read in
  non local Contribution for L=           0  read in
    real space projection operators read in
  non local Contribution for L=           1  read in
    real space projection operators read in
  non local Contribution for L=           1  read in
    real space projection operators read in
    PAW grid and wavefunctions read in
 
   number of l-projection  operators is LMAX  =           4
   number of lm-projection operators is LMMAX =           8
 
 POTCAR:    PAW_PBE N 08Apr2002                   
   VRHFIN =N: s2p3                                                              
   LEXCH  = PE                                                                  
   EATOM  =   264.5486 eV,   19.4438 Ry                                         
                                                                                
   TITEL  = PAW_PBE N 08Apr2002                                                 
   LULTRA =        F    use ultrasoft PP ?                                      
   IUNSCR =        1    unscreen: 0-lin 1-nonlin 2-no                           
   RPACOR =    1.200    partial core radius                                     
   POMASS =   14.001; ZVAL   =    5.000    mass and valenz                      
   RCORE  =    1.500    outmost cutoff radius                                   
   RWIGS  =    1.400; RWIGS  =    0.741    wigner-seitz radius (au A)           
   ENMAX  =  400.000; ENMIN  =  300.000 eV                                      
   ICORE  =        2    local potential                                         
   LCOR   =        T    correct aug charges                                     
   LPAW   =        T    paw PP                                                  
   EAUG   =  627.112                                                            
   DEXC   =    0.000                                                            
   RMAX   =    1.529    core radius for proj-oper                               
   RAUG   =    1.300    factor for augmentation sphere                          
   RDEP   =    1.514    radius for radial grids                                 
   RDEPT  =    1.338    core radius for aug-charge                              
                                                                                
   Atomic configuration                                                         
    4 entries                                                                   
     n  l   j            E        occ.                                          
     1  0  0.50      -384.7179   2.0000                                         
     2  0  0.50       -18.5828   2.0000                                         
     2  1  0.50        -7.0898   3.0000                                         
     3  2  1.50        -6.8029   0.0000                                         
   Description                                                                  
     l       E           TYP  RCUT    TYP  RCUT                                 
     0    -18.5828119     23  1.200                                             
     0    -13.5018863     23  1.200                                             
     1     -7.0897853     23  1.500                                             
     1      9.5240782     23  1.500                                             
     2     -6.8029130      7  1.500                                             
  local pseudopotential read in
  partial core-charges read in
  partial kinetic energy density read in
  atomic valenz-charges read in
  non local Contribution for L=           0  read in
    real space projection operators read in
  non local Contribution for L=           0  read in
    real space projection operators read in
  non local Contribution for L=           1  read in
    real space projection operators read in
  non local Contribution for L=           1  read in
    real space projection operators read in
    PAW grid and wavefunctions read in
 
   number of l-projection  operators is LMAX  =           4
   number of lm-projection operators is LMMAX =           8
 
 POTCAR:    PAW_PBE Li_sv 10Sep2004               
   VRHFIN =Li: 1s2s2p                                                           
   LEXCH  = PE                                                                  
   EATOM  =   202.7858 eV,   14.9043 Ry                                         
                                                                                
   TITEL  = PAW_PBE Li_sv 10Sep2004                                             
   LULTRA =        F    use ultrasoft PP ?                                      
   IUNSCR =        0    unscreen: 0-lin 1-nonlin 2-no                           
   RPACOR =    0.000    partial core radius                                     
   POMASS =    7.010; ZVAL   =    3.000    mass and valenz                      
   RCORE  =    1.700    outmost cutoff radius                                   
   RWIGS  =    2.050; RWIGS  =    1.085    wigner-seitz radius (au A)           
   ENMAX  =  499.034; ENMIN  =  374.276 eV                                      
   ICORE  =        2    local potential                                         
   LCOR   =        T    correct aug charges                                     
   LPAW   =        T    paw PP                                                  
   EAUG   =  628.945                                                            
   RMAX   =    1.732    core radius for proj-oper                               
   RAUG   =    1.300    factor for augmentation sphere                          
   RDEP   =    1.728    radius for radial grids                                 
   RDEPT  =    1.329    core radius for aug-charge                              
                                                                                
   Atomic configuration                                                         
    4 entries                                                                   
     n  l   j            E        occ.                                          
     1  0  0.50       -51.8549   2.0000                                         
     2  0  0.50        -2.8742   1.0000                                         
     2  1  0.50        -1.3606   0.0000                                         
     3  2  1.50        -1.3606   0.0000                                         
   Description                                                                  
     l       E           TYP  RCUT    TYP  RCUT                                 
     0    -51.8548813     23  1.400                                             
     0     -2.8742052     23  1.700                                             
     1     -1.3605826     23  1.400                                             
     2     -1.3605826     23  1.400                                             
  local pseudopotential read in
  atomic valenz-charges read in
  non local Contribution for L=           0  read in
    real space projection operators read in
  non local Contribution for L=           0  read in
    real space projection operators read in
  non local Contribution for L=           1  read in
    real space projection operators read in
    PAW grid and wavefunctions read in
 
   number of l-projection  operators is LMAX  =           3
   number of lm-projection operators is LMMAX =           5
 
  PAW_PBE O 08Apr2002                   :
 energy of atom  1       EATOM= -432.3788
 kinetic energy error for atom=    0.0224 (will be added to EATOM!!)
  PAW_PBE O 08Apr2002                   :
 energy of atom  2       EATOM= -432.3788
 kinetic energy error for atom=    0.0224 (will be added to EATOM!!)
  PAW_PBE P 06Sep2000                   :
 energy of atom  3       EATOM= -176.0430
 kinetic energy error for atom=    0.0013 (will be added to EATOM!!)
  PAW_PBE N 08Apr2002                   :
 energy of atom  4       EATOM= -264.5486
 kinetic energy error for atom=    0.0138 (will be added to EATOM!!)
  PAW_PBE Li_sv 10Sep2004               :
 energy of atom  5       EATOM= -202.7858
 kinetic energy error for atom=    0.0143 (will be added to EATOM!!)
 
 
 POSCAR: modele divalent 1                       
  positions in direct lattice
  velocities in cartesian coordinates
 exchange correlation table for  LEXCH =        8
   RHO(1)=    0.500       N(1)  =     2000
   RHO(2)=  100.500       N(2)  =     4000
 


--------------------------------------------------------------------------------------------------------


 ion  position               nearest neighbor table
   1  0.547  0.406  0.360-   7 1.59  13 1.86  12 1.96
   2  0.648  0.399  0.491-   7 1.60  14 1.85  13 1.86
   3  0.504  0.320  0.508-   7 1.59  10 1.85  14 1.87
   4  0.385  0.611  0.569-   8 1.54  11 1.83
   5  0.368  0.563  0.411-   8 1.61  11 1.87  12 1.87
   6  0.335  0.449  0.537-   8 1.54  10 1.77
   7  0.545  0.408  0.466-   9 1.58   1 1.59   3 1.59   2 1.60  13 2.37  14 2.38  12 2.49
   8  0.394  0.528  0.509-   6 1.54   4 1.54   5 1.61   9 1.66  11 2.33  12 2.51
   9  0.500  0.497  0.498-   7 1.58   8 1.66  12 2.13
  10  0.388  0.344  0.540-   6 1.77   3 1.85
  11  0.343  0.670  0.471-   4 1.83   5 1.87   8 2.33
  12  0.468  0.510  0.361-   5 1.87   1 1.96   9 2.13   7 2.49   8 2.51
  13  0.670  0.403  0.369-   1 1.86   2 1.86   7 2.37
  14  0.616  0.303  0.562-   2 1.85   3 1.87   7 2.38
 
  LATTYP: Found a simple cubic cell.
 ALAT       =    15.0000000000
  
  Lattice vectors:
  
 A1 = (  15.0000000000,   0.0000000000,   0.0000000000)
 A2 = (   0.0000000000,  15.0000000000,   0.0000000000)
 A3 = (   0.0000000000,   0.0000000000,  15.0000000000)


Analysis of symmetry for initial positions (statically):
=====================================================================
 Subroutine PRICEL returns:
 Original cell was already a primitive cell.
 

 Routine SETGRP: Setting up the symmetry group for a 
 simple cubic supercell.


 Subroutine GETGRP returns: Found  1 space group operations
 (whereof  1 operations were pure point group operations)
 out of a pool of 48 trial point group operations.


The static configuration has the point symmetry C_1 .


Analysis of symmetry for dynamics (positions and initial velocities):
=====================================================================
 Subroutine PRICEL returns:
 Original cell was already a primitive cell.
 

 Routine SETGRP: Setting up the symmetry group for a 
 simple cubic supercell.


 Subroutine GETGRP returns: Found  1 space group operations
 (whereof  1 operations were pure point group operations)
 out of a pool of 48 trial point group operations.


The dynamic configuration has the point symmetry C_1 .


Analysis of constrained symmetry for selective dynamics:
=====================================================================
 Subroutine PRICEL returns:
 Original cell was already a primitive cell.
 

 Routine SETGRP: Setting up the symmetry group for a 
 simple cubic supercell.


 Subroutine GETGRP returns: Found  1 space group operations
 (whereof  1 operations were pure point group operations)
 out of a pool of 48 trial point group operations.


The constrained configuration has the point symmetry C_1 .


 irot  :   1
 --------------------------------------------------------------------
 isymop:   1   0   0
           0   1   0
           0   0   1

 gtrans:     0.0000000     0.0000000     0.0000000

 ptrans:     0.0000000     0.0000000     0.0000000
 rotmap:
 (   1->   1)  (   2->   2)  (   3->   3)  (   4->   4)  (   5->   5) 
 (   6->   6)  (   7->   7)  (   8->   8)  (   9->   9)  (  10->  10) 
 (  11->  11)  (  12->  12)  (  13->  13)  (  14->  14) 
 
 
 KPOINTS: molecular system                        

Automatic generation of k-mesh.
Space group operators:
 irot       det(A)        alpha          n_x          n_y          n_z        tau_x        tau_y        tau_z
    1     1.000000     0.000000     1.000000     0.000000     0.000000     0.000000     0.000000     0.000000
 
 Subroutine IBZKPT returns following result:
 ===========================================
 
 Found      1 irreducible k-points:
 
 Following reciprocal coordinates:
            Coordinates               Weight
  0.000000  0.000000  0.000000      1.000000
 
 Following cartesian coordinates:
            Coordinates               Weight
  0.000000  0.000000  0.000000      1.000000
 


--------------------------------------------------------------------------------------------------------




 Dimension of arrays:
   k-points           NKPTS =      1   k-points in BZ     NKDIM =      1   number of bands    NBANDS=     44
   number of dos      NEDOS =    301   number of ions     NIONS =     14
   non local maximal  LDIM  =      4   non local SUM 2l+1 LMDIM =      8
   total plane-waves  NPLWV = ******
   max r-space proj   IRMAX =      1   max aug-charges    IRDMAX=  12866
   dimension x,y,z NGX =   112 NGY =  112 NGZ =  112
   dimension x,y,z NGXF=   224 NGYF=  224 NGZF=  224
   support grid    NGXF=   224 NGYF=  224 NGZF=  224
   ions per type =               1   5   2   1   5
 NGX,Y,Z   is equivalent  to a cutoff of  12.41, 12.41, 12.41 a.u.
 NGXF,Y,Z  is equivalent  to a cutoff of  24.83, 24.83, 24.83 a.u.


 I would recommend the setting:
   dimension x,y,z NGX =   109 NGY =  109 NGZ =  109
 SYSTEM =  "P2O5 forme o"                          
 POSCAR =  modele divalent 1                       

 Startparameter for this run:
   NWRITE =      2    write-flag & timer
   PREC   = accura    normal or accurate (medium, high low for compatibility)
   ISTART =      1    job   : 0-new  1-cont  2-samecut
   ICHARG =      0    charge: 1-file 2-atom 10-const
   ISPIN  =      1    spin polarized calculation?
   LNONCOLLINEAR =      F non collinear calculations
   LSORBIT =      F    spin-orbit coupling
   INIWAV =      1    electr: 0-lowe 1-rand  2-diag
   LASPH  =      F    aspherical Exc in radial PAW
   METAGGA=      F    non-selfconsistent MetaGGA calc.

 Electronic Relaxation 1
   ENCUT  =  500.0 eV  36.75 Ry    6.06 a.u.  27.35 27.35 27.35*2*pi/ulx,y,z
   ENINI  =  500.0     initial cutoff
   ENAUG  =  628.9 eV  augmentation charge cutoff
   NELM   =     60;   NELMIN=  6; NELMDL=  0     # of ELM steps 
   EDIFF  = 0.1E-06   stopping-criterion for ELM
   LREAL  =      F    real-space projection
   NLSPLINE    = F    spline interpolate recip. space projectors
   LCOMPAT=      F    compatible to vasp.4.4
   GGA_COMPAT  = T    GGA compatible to vasp.4.4-vasp.4.6
   LMAXPAW     = -100 max onsite density
   LMAXMIX     =    2 max onsite mixed and CHGCAR
   VOSKOWN=      0    Vosko Wilk Nusair interpolation
   ROPT   =    0.00000   0.00000   0.00000   0.00000
   ROPT   =    0.00000
 Ionic relaxation
   EDIFFG = -.2E-01   stopping-criterion for IOM
   NSW    =    200    number of steps for IOM
   NBLOCK =      1;   KBLOCK =    200    inner block; outer block 
   IBRION =      2    ionic relax: 0-MD 1-quasi-New 2-CG
   NFREE  =      1    steps in history (QN), initial steepest desc. (CG)
   ISIF   =      2    stress and relaxation
   IWAVPR =     11    prediction:  0-non 1-charg 2-wave 3-comb
   ISYM   =      2    0-nonsym 1-usesym 2-fastsym
   LCORR  =      T    Harris-Foulkes like correction to forces

   POTIM  = 0.5000    time-step for ionic-motion
   TEIN   =    0.0    initial temperature
   TEBEG  =    0.0;   TEEND  =   0.0 temperature during run
   SMASS  =  -3.00    Nose mass-parameter (am)
   estimated Nose-frequenzy (Omega)   =  0.10E-29 period in steps =****** mass=  -0.514E-26a.u.
   SCALEE = 1.0000    scale energy and forces
   NPACO  =    256;   APACO  = 16.0  distance and # of slots for P.C.
   PSTRESS=    0.0 pullay stress

  Mass of Ions in am
   POMASS =  16.00 16.00 30.97 14.00  7.01
  Ionic Valenz
   ZVAL   =   6.50  6.00  5.00  5.00  3.00
  Atomic Wigner-Seitz radii
   RWIGS  =  -1.00 -1.00 -1.00 -1.00 -1.00
  virtual crystal weights 
   VCA    =   1.00  1.00  1.00  1.00  1.00
   NELECT =      66.5000    total number of electrons
   NUPDOWN=      -1.0000    fix difference up-down

 DOS related values:
   EMIN   =  10.00;   EMAX   =-10.00  energy-range for DOS
   EFERMI =   0.00
   ISMEAR =     0;   SIGMA  =   0.05  broadening in eV -4-tet -1-fermi 0-gaus

 Electronic relaxation 2 (details)
   IALGO  =     38    algorithm
   LDIAG  =      T    sub-space diagonalisation (order eigenvalues)
   LSUBROT=      T    optimize rotation matrix (better conditioning)
   TURBO    =      0    0=normal 1=particle mesh
   IRESTART =      0    0=no restart 2=restart with 2 vectors
   NREBOOT  =      0    no. of reboots
   NMIN     =      0    reboot dimension
   EREF     =   0.00    reference energy to select bands
   IMIX   =      4    mixing-type and parameters
     AMIX     =   0.40;   BMIX     =  1.00
     AMIX_MAG =   1.60;   BMIX_MAG =  1.00
     AMIN     =   0.10
     WC   =   100.;   INIMIX=   1;  MIXPRE=   1;  MAXMIX= -45

 Intra band minimization:
   WEIMIN = 0.0010     energy-eigenvalue tresh-hold
   EBREAK =  0.57E-09  absolut break condition
   DEPER  =   0.30     relativ break condition  

   TIME   =   0.40     timestep for ELM

  volume/ion in A,a.u.               =     241.07      1626.83
  Fermi-wavevector in a.u.,A,eV,Ry     =   0.442172  0.835583  2.660152  0.195516
  Thomas-Fermi vector in A             =   1.417912
 
 Write flags
   LWAVE  =      F    write WAVECAR
   LCHARG =      F    write CHGCAR
   LVTOT  =      T    write LOCPOT, total local potential
   LVHAR  =      F    write LOCPOT, Hartree potential only
   LELF   =      F    write electronic localiz. function (ELF)
   LORBIT =     11    0 simple, 1 ext, 2 COOP (PROOUT)


 Dipole corrections
   LMONO  =      F    monopole corrections only (constant potential shift)
   LDIPOL =      F    correct potential (dipole corrections)
   IDIPOL =      0    1-x, 2-y, 3-z, 4-all directions 
   EPSILON=  1.0000000 bulk dielectric constant

 Core level calculations are selected ICORELEVEL =  2
  CLNT =           1       CLN =     1
  CLL  =           0       CLZ = 0.500
 Exchange correlation treatment:
   GGA     =    --    GGA type
   LEXCH   =     8    internal setting for exchange type
   VOSKOWN=      0    Vosko Wilk Nusair interpolation
   LHFCALC =     F    Hartree Fock is set to
   LHFONE  =     F    Hartree Fock one center treatment
   AEXX    =    0.0000 exact exchange contribution

 Linear response parameters
   LEPSILON=     F    determine dielectric tensor
   LRPA    =     F    only Hartree local field effects (RPA)
   LNABLA  =     F    use nabla operator in PAW spheres
   LVEL    =     F    velocity operator in full k-point grid
   LINTERFAST=   F  fast interpolation
   KINTER  =     0    interpolate to denser k-point grid
   CSHIFT  =0.1000    complex shift for real part using Kramers Kronig
   OMEGAMAX=  -1.0    maximum frequency
   DEG_THRESHOLD= 0.2000000E-02 threshold for treating states as degnerate
   RTIME   =    0.100 relaxation time in fs

 Orbital magnetization related:
   ORBITALMAG=     F  switch on orbital magnetization
   LCHIMAG   =     F  perturbation theory with respect to B field
   DQ        =  0.001000  dq finite difference perturbation B field



--------------------------------------------------------------------------------------------------------


 conjugate gradient relaxation of ions
   using selective dynamics as specified on POSCAR
 charge density and potential will be updated during run
 non-spin polarized calculation
 Variant of blocked Davidson
 Davidson routine will perform the subspace rotation
 perform sub-space diagonalisation
    after iterative eigenvector-optimisation
 modified Broyden-mixing scheme, WC =      100.0
 initial mixing is a Kerker type mixing with AMIX =  0.4000 and BMIX =      1.0000
 Hartree-type preconditioning will be used
 using additional bands           10
 reciprocal scheme for non local part
 use partial core corrections
 calculate Harris-corrections to forces 
   (improved forces if not selfconsistent)
 use gradient corrections 
 use of overlap-Matrix (Vanderbilt PP)
 Gauss-broadening in eV      SIGMA  =   0.05


--------------------------------------------------------------------------------------------------------


  energy-cutoff  :      500.00
  volume of cell :     3375.00
      direct lattice vectors                 reciprocal lattice vectors
    15.000000000  0.000000000  0.000000000     0.066666667  0.000000000  0.000000000
     0.000000000 15.000000000  0.000000000     0.000000000  0.066666667  0.000000000
     0.000000000  0.000000000 15.000000000     0.000000000  0.000000000  0.066666667

  length of vectors
    15.000000000 15.000000000 15.000000000     0.066666667  0.066666667  0.066666667


 
 old parameters found on file WAVECAR:
  energy-cutoff  :      500.00
  volume of cell :     3375.00
      direct lattice vectors                 reciprocal lattice vectors
    15.000000000  0.000000000  0.000000000     0.066666667  0.000000000  0.000000000
     0.000000000 15.000000000  0.000000000     0.000000000  0.066666667  0.000000000
     0.000000000  0.000000000 15.000000000     0.000000000  0.000000000  0.066666667

  length of vectors

 
 k-points in units of 2pi/SCALE and weight: molecular system                        
   0.00000000  0.00000000  0.00000000       1.000
 
 k-points in reciprocal lattice and weights: molecular system                        
   0.00000000  0.00000000  0.00000000       1.000
 
 position of ions in fractional coordinates (direct lattice) 
   0.54694404  0.40571369  0.36040422
   0.64842780  0.39855750  0.49135740
   0.50449505  0.31960609  0.50849412
   0.38516106  0.61117675  0.56907991
   0.36761627  0.56343982  0.41142419
   0.33534249  0.44912924  0.53725283
   0.54539022  0.40778191  0.46625532
   0.39411022  0.52833429  0.50934912
   0.49997370  0.49747040  0.49845894
   0.38773302  0.34380228  0.54013175
   0.34319166  0.66991283  0.47104158
   0.46796368  0.50988233  0.36058475
   0.67029042  0.40266654  0.36918960
   0.61554305  0.30273570  0.56189832
 
 position of ions in cartesian coordinates  (Angst):
   8.20416056  6.08570539  5.40606325
   9.72641693  5.97836245  7.37036099
   7.56742580  4.79409129  7.62741182
   5.77741595  9.16765125  8.53619865
   5.51424400  8.45159730  6.17136292
   5.03013741  6.73693865  8.05879246
   8.18085331  6.11672860  6.99382987
   5.91165335  7.92501441  7.64023678
   7.49960557  7.46205598  7.47688408
   5.81599531  5.15703421  8.10197624
   5.14787489 10.04869252  7.06562370
   7.01945514  7.64823492  5.40877122
  10.05435629  6.03999807  5.53784404
   9.23314579  4.54103543  8.42847478
 


--------------------------------------------------------------------------------------------------------


 k-point  1 :   0.0000 0.0000 0.0000  plane waves:   85687

 maximum and minimum number of plane-waves per node :     14295    14269

 maximum number of plane-waves:     85687
 maximum index in each direction: 
   IXMAX=   27   IYMAX=   27   IZMAX=   27
   IXMIN=  -27   IYMIN=  -27   IZMIN=  -27

 NGX is ok and might be reduce to 110
 NGY is ok and might be reduce to 110
 NGZ is ok and might be reduce to 110

 parallel 3D FFT for wavefunctions:
    minimum data exchange during FFTs selected (reduces bandwidth)
 parallel 3D FFT for charge:
    minimum data exchange during FFTs selected (reduces bandwidth)


 total amount of memory used by VASP on root node   114021. kBytes
========================================================================

   base      :      30000. kBytes
   nonl-proj :       7777. kBytes
   fftplans  :      23720. kBytes
   grid      :      49995. kBytes
   one-center:          9. kBytes
   wavefun   :       2520. kBytes
 
 Broyden mixing: mesh for mixing (old mesh)
   NGX = 55   NGY = 55   NGZ = 55
  (NGX  =224   NGY  =224   NGZ  =224)
  gives a total of 166375 points

 charge density for first step will be calculated from the start-wavefunctions


--------------------------------------------------------------------------------------------------------


 Maximum index for augmentation-charges          629 (set IRDMAX)


--------------------------------------------------------------------------------------------------------


 initial charge from wavefunction
 First call to EWALD:  gamma=   0.118
 Maximum number of real-space cells 3x 3x 3
 Maximum number of reciprocal cells 3x 3x 3

 FEWALD executed in parallel
    FEWALD:  cpu time    0.00: real time    0.00


----------------------------------------- Iteration    1(   1)  ---------------------------------------


    POTLOK:  cpu time    0.75: real time    0.75
    SETDIJ:  cpu time    0.01: real time    0.01
     EDDAV:  cpu time    1.83: real time    1.85
       DOS:  cpu time    0.00: real time    0.00
    CHARGE:  cpu time    0.19: real time    0.20
    MIXING:  cpu time    0.02: real time    0.02
    --------------------------------------------
      LOOP:  cpu time    2.80: real time    2.84

 eigenvalue-minimisations  :   128
 total energy-change (2. order) :-0.1484862E+03  (-0.1477608E+02)
 number of electron      66.4999978 magnetization 
 augmentation part        8.5046290 magnetization 

 Broyden mixing:
  rms(total) = 0.20553E+01    rms(broyden)= 0.20530E+01
  rms(prec ) = 0.22660E+01
  weight for this iteration     100.00

 Free energy of the ion-electron system (eV)
  ---------------------------------------------------
  alpha Z        PSCENC =         4.74580453
  Ewald energy   TEWEN  =      4508.69376924
  -1/2 Hartree   DENC   =     -7857.38425460
  -exchange  EXHF       =         0.00000000
  -V(xc)+E(xc)   XCENC  =       264.92291994
  PAW double counting   =      7780.06100311    -7814.87143945
  entropy T*S    EENTRO =        -0.02247020
  eigenvalues    EBANDS =     -1259.24618077
  atomic energy  EATOM  =      4224.61466385
  ---------------------------------------------------
  free energy    TOTEN  =      -148.48618435 eV

  energy without entropy =     -148.46371416  energy(sigma->0) =     -148.47494926


--------------------------------------------------------------------------------------------------------




----------------------------------------- Iteration    1(   2)  ---------------------------------------


    POTLOK:  cpu time    0.75: real time    0.75
    SETDIJ:  cpu time    0.00: real time    0.00
     EDDAV:  cpu time    1.62: real time    1.66
       DOS:  cpu time    0.00: real time    0.00
    CHARGE:  cpu time    0.19: real time    0.19
    MIXING:  cpu time    0.02: real time    0.02
    --------------------------------------------
      LOOP:  cpu time    2.58: real time    2.64

 eigenvalue-minimisations  :   108
 total energy-change (2. order) : 0.6992986E+01  (-0.4655915E+01)
 number of electron      66.4999979 magnetization 
 augmentation part        8.1459768 magnetization 

 Broyden mixing:
  rms(total) = 0.55115E+00    rms(broyden)= 0.55020E+00
  rms(prec ) = 0.63058E+00
  weight for this iteration     100.00

 eigenvalues of (default mixing * dielectric matrix)
  average eigenvalue GAMMA=   1.2104
  1.2104

 Free energy of the ion-electron system (eV)
  ---------------------------------------------------
  alpha Z        PSCENC =         4.74580453
  Ewald energy   TEWEN  =      4508.69376924
  -1/2 Hartree   DENC   =     -7903.26423415
  -exchange  EXHF       =         0.00000000
  -V(xc)+E(xc)   XCENC  =       267.74579794
  PAW double counting   =      8118.09920815    -8155.06149665
  entropy T*S    EENTRO =        -0.02247020
  eigenvalues    EBANDS =     -1207.04424152
  atomic energy  EATOM  =      4224.61466385
  ---------------------------------------------------
  free energy    TOTEN  =      -141.49319881 eV

  energy without entropy =     -141.47072862  energy(sigma->0) =     -141.48196371


--------------------------------------------------------------------------------------------------------




----------------------------------------- Iteration    1(   3)  ---------------------------------------


    POTLOK:  cpu time    0.74: real time    0.75
    SETDIJ:  cpu time    0.00: real time    0.00
     EDDAV:  cpu time    1.65: real time    1.66
       DOS:  cpu time    0.00: real time    0.00
    CHARGE:  cpu time    0.19: real time    0.19
    MIXING:  cpu time    0.01: real time    0.02
    --------------------------------------------
      LOOP:  cpu time    2.60: real time    2.63

 eigenvalue-minimisations  :   112
 total energy-change (2. order) :-0.1631098E+00  (-0.1272950E+01)
 number of electron      66.4999979 magnetization 
 augmentation part        8.1145625 magnetization 

 Broyden mixing:
  rms(total) = 0.41948E+00    rms(broyden)= 0.41883E+00
  rms(prec ) = 0.45411E+00
  weight for this iteration     100.00

 eigenvalues of (default mixing * dielectric matrix)
  average eigenvalue GAMMA=   1.0140
  1.0140  1.0140

 Free energy of the ion-electron system (eV)
  ---------------------------------------------------
  alpha Z        PSCENC =         4.74580453
  Ewald energy   TEWEN  =      4508.69376924
  -1/2 Hartree   DENC   =     -7918.79416138
  -exchange  EXHF       =         0.00000000
  -V(xc)+E(xc)   XCENC  =       268.44155597
  PAW double counting   =      8251.77222123    -8289.36083440
  entropy T*S    EENTRO =        -0.02247020
  eigenvalues    EBANDS =     -1191.74685745
  atomic energy  EATOM  =      4224.61466385
  ---------------------------------------------------
  free energy    TOTEN  =      -141.65630861 eV

  energy without entropy =     -141.63383842  energy(sigma->0) =     -141.64507352


--------------------------------------------------------------------------------------------------------




----------------------------------------- Iteration    1(   4)  ---------------------------------------


    POTLOK:  cpu time    0.74: real time    0.74
    SETDIJ:  cpu time    0.00: real time    0.00
     EDDAV:  cpu time    1.74: real time    1.75
       DOS:  cpu time    0.00: real time    0.00
    CHARGE:  cpu time    0.19: real time    0.19
    MIXING:  cpu time    0.01: real time    0.02
    --------------------------------------------
      LOOP:  cpu time    2.69: real time    2.72

 eigenvalue-minimisations  :   120
 total energy-change (2. order) : 0.1385616E+00  (-0.1541130E+00)
 number of electron      66.4999979 magnetization 
 augmentation part        8.0960056 magnetization 

 Broyden mixing:
  rms(total) = 0.30340E+00    rms(broyden)= 0.30338E+00
  rms(prec ) = 0.32172E+00
  weight for this iteration     100.00

 eigenvalues of (default mixing * dielectric matrix)
  average eigenvalue GAMMA=   0.7769
  1.0323  1.0323  0.2661

 Free energy of the ion-electron system (eV)
  ---------------------------------------------------
  alpha Z        PSCENC =         4.74580453
  Ewald energy   TEWEN  =      4508.69376924
  -1/2 Hartree   DENC   =     -7921.96719327
  -exchange  EXHF       =         0.00000000
  -V(xc)+E(xc)   XCENC  =       268.54668907
  PAW double counting   =      8156.80104272    -8194.19776843
  entropy T*S    EENTRO =        -0.02247020
  eigenvalues    EBANDS =     -1188.73228454
  atomic energy  EATOM  =      4224.61466385
  ---------------------------------------------------
  free energy    TOTEN  =      -141.51774703 eV

  energy without entropy =     -141.49527683  energy(sigma->0) =     -141.50651193


--------------------------------------------------------------------------------------------------------




----------------------------------------- Iteration    1(   5)  ---------------------------------------


    POTLOK:  cpu time    0.74: real time    0.75
    SETDIJ:  cpu time    0.00: real time    0.00
     EDDAV:  cpu time    1.66: real time    1.67
       DOS:  cpu time    0.00: real time    0.00
    CHARGE:  cpu time    0.19: real time    0.19
    MIXING:  cpu time    0.02: real time    0.02
    --------------------------------------------
      LOOP:  cpu time    2.62: real time    2.65

 eigenvalue-minimisations  :   112
 total energy-change (2. order) :-0.1108211E-01  (-0.2572213E-01)
 number of electron      66.4999979 magnetization 
 augmentation part        8.1025782 magnetization 

 Broyden mixing:
  rms(total) = 0.27967E+00    rms(broyden)= 0.27966E+00
  rms(prec ) = 0.29777E+00
  weight for this iteration     100.00

 eigenvalues of (default mixing * dielectric matrix)
  average eigenvalue GAMMA=   0.9573
  1.0810  1.0810  0.8336  0.8336

 Free energy of the ion-electron system (eV)
  ---------------------------------------------------
  alpha Z        PSCENC =         4.74580453
  Ewald energy   TEWEN  =      4508.69376924
  -1/2 Hartree   DENC   =     -7923.98850915
  -exchange  EXHF       =         0.00000000
  -V(xc)+E(xc)   XCENC  =       268.60685316
  PAW double counting   =      8099.33427159    -8136.67450256
  entropy T*S    EENTRO =        -0.02247020
  eigenvalues    EBANDS =     -1186.83870961
  atomic energy  EATOM  =      4224.61466385
  ---------------------------------------------------
  free energy    TOTEN  =      -141.52882914 eV

  energy without entropy =     -141.50635894  energy(sigma->0) =     -141.51759404


--------------------------------------------------------------------------------------------------------




----------------------------------------- Iteration    1(   6)  ---------------------------------------


    POTLOK:  cpu time    0.74: real time    0.74
    SETDIJ:  cpu time    0.00: real time    0.00
     EDDAV:  cpu time    1.65: real time    1.67
       DOS:  cpu time    0.00: real time    0.00
    CHARGE:  cpu time    0.19: real time    0.19
    MIXING:  cpu time    0.02: real time    0.02
    --------------------------------------------
      LOOP:  cpu time    2.61: real time    2.64

 eigenvalue-minimisations  :   112
 total energy-change (2. order) : 0.1674704E-01  (-0.1474562E-01)
 number of electron      66.4999979 magnetization 
 augmentation part        8.1111003 magnetization 

 Broyden mixing:
  rms(total) = 0.18834E+00    rms(broyden)= 0.18833E+00
  rms(prec ) = 0.20688E+00
  weight for this iteration     100.00

 eigenvalues of (default mixing * dielectric matrix)
  average eigenvalue GAMMA=   1.2280
  1.9076  1.4458  1.0402  0.8732  0.8732

 Free energy of the ion-electron system (eV)
  ---------------------------------------------------
  alpha Z        PSCENC =         4.74580453
  Ewald energy   TEWEN  =      4508.69376924
  -1/2 Hartree   DENC   =     -7929.43699657
  -exchange  EXHF       =         0.00000000
  -V(xc)+E(xc)   XCENC  =       268.79071706
  PAW double counting   =      8018.45314352    -8055.68099478
  entropy T*S    EENTRO =        -0.02247020
  eigenvalues    EBANDS =     -1181.66971875
  atomic energy  EATOM  =      4224.61466385
  ---------------------------------------------------
  free energy    TOTEN  =      -141.51208211 eV

  energy without entropy =     -141.48961191  energy(sigma->0) =     -141.50084701


--------------------------------------------------------------------------------------------------------




----------------------------------------- Iteration    1(   7)  ---------------------------------------


    POTLOK:  cpu time    0.74: real time    0.74
    SETDIJ:  cpu time    0.00: real time    0.00
     EDDAV:  cpu time    1.74: real time    1.76
       DOS:  cpu time    0.00: real time    0.00
    CHARGE:  cpu time    0.19: real time    0.19
    MIXING:  cpu time    0.02: real time    0.02
    --------------------------------------------
      LOOP:  cpu time    2.69: real time    2.72

 eigenvalue-minimisations  :   120
 total energy-change (2. order) : 0.1392535E-01  (-0.1104541E-01)
 number of electron      66.4999979 magnetization 
 augmentation part        8.1266988 magnetization 

 Broyden mixing:
  rms(total) = 0.12008E+00    rms(broyden)= 0.12007E+00
  rms(prec ) = 0.13655E+00
  weight for this iteration     100.00

 eigenvalues of (default mixing * dielectric matrix)
  average eigenvalue GAMMA=   1.1881
  2.3487  1.3173  0.9687  0.9687  0.7627  0.7627

 Free energy of the ion-electron system (eV)
  ---------------------------------------------------
  alpha Z        PSCENC =         4.74580453
  Ewald energy   TEWEN  =      4508.69376924
  -1/2 Hartree   DENC   =     -7942.21449827
  -exchange  EXHF       =         0.00000000
  -V(xc)+E(xc)   XCENC  =       269.14998997
  PAW double counting   =      7813.07407711    -7849.94171558
  entropy T*S    EENTRO =        -0.02247020
  eigenvalues    EBANDS =     -1169.59777740
  atomic energy  EATOM  =      4224.61466385
  ---------------------------------------------------
  free energy    TOTEN  =      -141.49815675 eV

  energy without entropy =     -141.47568656  energy(sigma->0) =     -141.48692166


--------------------------------------------------------------------------------------------------------




----------------------------------------- Iteration    1(   8)  ---------------------------------------


    POTLOK:  cpu time    0.74: real time    0.74
    SETDIJ:  cpu time    0.00: real time    0.00
     EDDAV:  cpu time    1.92: real time    1.94
       DOS:  cpu time    0.00: real time    0.00
    CHARGE:  cpu time    0.19: real time    0.19
    MIXING:  cpu time    0.02: real time    0.02
    --------------------------------------------
      LOOP:  cpu time    2.88: real time    2.91

 eigenvalue-minimisations  :   136
 total energy-change (2. order) : 0.1221289E-01  (-0.4453097E-02)
 number of electron      66.4999979 magnetization 
 augmentation part        8.1401038 magnetization 

 Broyden mixing:
  rms(total) = 0.83524E-01    rms(broyden)= 0.83505E-01
  rms(prec ) = 0.95388E-01
  weight for this iteration     100.00

 eigenvalues of (default mixing * dielectric matrix)
  average eigenvalue GAMMA=   1.1027
  2.0890  1.4356  0.7765  0.7765  1.0020  1.0020  0.6374

 Free energy of the ion-electron system (eV)
  ---------------------------------------------------
  alpha Z        PSCENC =         4.74580453
  Ewald energy   TEWEN  =      4508.69376924
  -1/2 Hartree   DENC   =     -7944.75392008
  -exchange  EXHF       =         0.00000000
  -V(xc)+E(xc)   XCENC  =       269.18820930
  PAW double counting   =      7780.69222017    -7817.53957168
  entropy T*S    EENTRO =        -0.02247020
  eigenvalues    EBANDS =     -1167.10464898
  atomic energy  EATOM  =      4224.61466385
  ---------------------------------------------------
  free energy    TOTEN  =      -141.48594387 eV

  energy without entropy =     -141.46347367  energy(sigma->0) =     -141.47470877


--------------------------------------------------------------------------------------------------------




----------------------------------------- Iteration    1(   9)  ---------------------------------------


    POTLOK:  cpu time    0.74: real time    0.74
    SETDIJ:  cpu time    0.00: real time    0.00
     EDDAV:  cpu time    1.47: real time    1.48
       DOS:  cpu time    0.00: real time    0.00
    CHARGE:  cpu time    0.19: real time    0.19
    MIXING:  cpu time    0.02: real time    0.02
    --------------------------------------------
      LOOP:  cpu time    2.42: real time    2.46

 eigenvalue-minimisations  :    96
 total energy-change (2. order) :-0.2607115E-02  (-0.1800828E-02)
 number of electron      66.4999979 magnetization 
 augmentation part        8.1438755 magnetization 

 Broyden mixing:
  rms(total) = 0.41164E-01    rms(broyden)= 0.41153E-01
  rms(prec ) = 0.55008E-01
  weight for this iteration     100.00

 eigenvalues of (default mixing * dielectric matrix)
  average eigenvalue GAMMA=   1.2687
  2.0629  1.8255  1.8255  0.8872  0.8872  0.9810  0.8402  0.8402

 Free energy of the ion-electron system (eV)
  ---------------------------------------------------
  alpha Z        PSCENC =         4.74580453
  Ewald energy   TEWEN  =      4508.69376924
  -1/2 Hartree   DENC   =     -7945.48645615
  -exchange  EXHF       =         0.00000000
  -V(xc)+E(xc)   XCENC  =       269.16531483
  PAW double counting   =      7787.29932446    -7824.19210466
  entropy T*S    EENTRO =        -0.02247020
  eigenvalues    EBANDS =     -1166.30639688
  atomic energy  EATOM  =      4224.61466385
  ---------------------------------------------------
  free energy    TOTEN  =      -141.48855098 eV

  energy without entropy =     -141.46608078  energy(sigma->0) =     -141.47731588


--------------------------------------------------------------------------------------------------------




----------------------------------------- Iteration    1(  10)  ---------------------------------------


    POTLOK:  cpu time    0.73: real time    0.74
    SETDIJ:  cpu time    0.00: real time    0.00
     EDDAV:  cpu time    1.57: real time    1.58
       DOS:  cpu time    0.00: real time    0.00
    CHARGE:  cpu time    0.19: real time    0.19
    MIXING:  cpu time    0.02: real time    0.02
    --------------------------------------------
      LOOP:  cpu time    2.51: real time    2.55

 eigenvalue-minimisations  :   104
 total energy-change (2. order) :-0.2392894E-01  (-0.1017905E-01)
 number of electron      66.4999979 magnetization 
 augmentation part        8.1476868 magnetization 

 Broyden mixing:
  rms(total) = 0.75564E-01    rms(broyden)= 0.75540E-01
  rms(prec ) = 0.82125E-01
  weight for this iteration     100.00

 eigenvalues of (default mixing * dielectric matrix)
  average eigenvalue GAMMA=   1.3531
  2.8609  2.0640  2.0640  0.8630  0.8630  1.0050  0.8435  0.8074  0.8074

 Free energy of the ion-electron system (eV)
  ---------------------------------------------------
  alpha Z        PSCENC =         4.74580453
  Ewald energy   TEWEN  =      4508.69376924
  -1/2 Hartree   DENC   =     -7953.06077695
  -exchange  EXHF       =         0.00000000
  -V(xc)+E(xc)   XCENC  =       269.21307587
  PAW double counting   =      7787.74764781    -7824.71030713
  entropy T*S    EENTRO =        -0.02247020
  eigenvalues    EBANDS =     -1158.73388694
  atomic energy  EATOM  =      4224.61466385
  ---------------------------------------------------
  free energy    TOTEN  =      -141.51247992 eV

  energy without entropy =     -141.49000973  energy(sigma->0) =     -141.50124482


--------------------------------------------------------------------------------------------------------




----------------------------------------- Iteration    1(  11)  ---------------------------------------


    POTLOK:  cpu time    0.73: real time    0.73
    SETDIJ:  cpu time    0.00: real time    0.00
     EDDAV:  cpu time    1.74: real time    1.75
       DOS:  cpu time    0.00: real time    0.00
    CHARGE:  cpu time    0.19: real time    0.19
    MIXING:  cpu time    0.02: real time    0.02
    --------------------------------------------
      LOOP:  cpu time    2.69: real time    2.72

 eigenvalue-minimisations  :   120
 total energy-change (2. order) :-0.6958146E-02  (-0.1111121E-02)
 number of electron      66.4999979 magnetization 
 augmentation part        8.1514369 magnetization 

 Broyden mixing:
  rms(total) = 0.77950E-01    rms(broyden)= 0.77947E-01
  rms(prec ) = 0.84124E-01
  weight for this iteration     100.00

 eigenvalues of (default mixing * dielectric matrix)
  average eigenvalue GAMMA=   1.3074
  2.7593  2.1162  2.1162  0.8943  0.8943  1.1778  0.7909  0.7909  0.7669  0.7669

 Free energy of the ion-electron system (eV)
  ---------------------------------------------------
  alpha Z        PSCENC =         4.74580453
  Ewald energy   TEWEN  =      4508.69376924
  -1/2 Hartree   DENC   =     -7954.93199729
  -exchange  EXHF       =         0.00000000
  -V(xc)+E(xc)   XCENC  =       269.22653809
  PAW double counting   =      7792.97329593    -7829.93867558
  entropy T*S    EENTRO =        -0.02247020
  eigenvalues    EBANDS =     -1156.88036664
  atomic energy  EATOM  =      4224.61466385
  ---------------------------------------------------
  free energy    TOTEN  =      -141.51943807 eV

  energy without entropy =     -141.49696787  energy(sigma->0) =     -141.50820297


--------------------------------------------------------------------------------------------------------




----------------------------------------- Iteration    1(  12)  ---------------------------------------


    POTLOK:  cpu time    0.73: real time    0.73
    SETDIJ:  cpu time    0.00: real time    0.00
     EDDAV:  cpu time    1.56: real time    1.58
       DOS:  cpu time    0.00: real time    0.00
    CHARGE:  cpu time    0.19: real time    0.19
    MIXING:  cpu time    0.02: real time    0.02
    --------------------------------------------
      LOOP:  cpu time    2.51: real time    2.54

 eigenvalue-minimisations  :   104
 total energy-change (2. order) :-0.1061414E-02  (-0.4372139E-03)
 number of electron      66.4999979 magnetization 
 augmentation part        8.1523872 magnetization 

 Broyden mixing:
  rms(total) = 0.57572E-01    rms(broyden)= 0.57571E-01
  rms(prec ) = 0.62118E-01
  weight for this iteration     100.00

 eigenvalues of (default mixing * dielectric matrix)
  average eigenvalue GAMMA=   1.4765
  4.4528  2.3812  1.5660  1.5660  0.8773  0.8773  1.1060  0.8194  0.8194  0.8883
  0.8883

 Free energy of the ion-electron system (eV)
  ---------------------------------------------------
  alpha Z        PSCENC =         4.74580453
  Ewald energy   TEWEN  =      4508.69376924
  -1/2 Hartree   DENC   =     -7955.08406207
  -exchange  EXHF       =         0.00000000
  -V(xc)+E(xc)   XCENC  =       269.22115353
  PAW double counting   =      7805.05627135    -7842.01494027
  entropy T*S    EENTRO =        -0.02247020
  eigenvalues    EBANDS =     -1156.73068943
  atomic energy  EATOM  =      4224.61466385
  ---------------------------------------------------
  free energy    TOTEN  =      -141.52049948 eV

  energy without entropy =     -141.49802929  energy(sigma->0) =     -141.50926439


--------------------------------------------------------------------------------------------------------




----------------------------------------- Iteration    1(  13)  ---------------------------------------


    POTLOK:  cpu time    0.73: real time    0.74
    SETDIJ:  cpu time    0.00: real time    0.00
     EDDAV:  cpu time    1.48: real time    1.48
       DOS:  cpu time    0.00: real time    0.00
    CHARGE:  cpu time    0.19: real time    0.19
    MIXING:  cpu time    0.02: real time    0.02
    --------------------------------------------
      LOOP:  cpu time    2.43: real time    2.45

 eigenvalue-minimisations  :    96
 total energy-change (2. order) :-0.4269979E-02  (-0.1442939E-02)
 number of electron      66.4999979 magnetization 
 augmentation part        8.1519980 magnetization 

 Broyden mixing:
  rms(total) = 0.21145E-01    rms(broyden)= 0.21130E-01
  rms(prec ) = 0.22513E-01
  weight for this iteration     100.00

 eigenvalues of (default mixing * dielectric matrix)
  average eigenvalue GAMMA=   1.5206
  4.5015  2.9034  1.8889  1.8889  0.8771  0.8771  0.8596  0.8596  0.9821  0.9821
  0.8132  0.8132

 Free energy of the ion-electron system (eV)
  ---------------------------------------------------
  alpha Z        PSCENC =         4.74580453
  Ewald energy   TEWEN  =      4508.69376924
  -1/2 Hartree   DENC   =     -7956.04785185
  -exchange  EXHF       =         0.00000000
  -V(xc)+E(xc)   XCENC  =       269.22686406
  PAW double counting   =      7820.17335328    -7857.11709196
  entropy T*S    EENTRO =        -0.02247020
  eigenvalues    EBANDS =     -1155.79181042
  atomic energy  EATOM  =      4224.61466385
  ---------------------------------------------------
  free energy    TOTEN  =      -141.52476946 eV

  energy without entropy =     -141.50229927  energy(sigma->0) =     -141.51353436


--------------------------------------------------------------------------------------------------------




----------------------------------------- Iteration    1(  14)  ---------------------------------------


    POTLOK:  cpu time    0.73: real time    0.74
    SETDIJ:  cpu time    0.00: real time    0.00
     EDDAV:  cpu time    1.65: real time    1.66
       DOS:  cpu time    0.00: real time    0.00
    CHARGE:  cpu time    0.19: real time    0.19
    MIXING:  cpu time    0.02: real time    0.02
    --------------------------------------------
      LOOP:  cpu time    2.60: real time    2.63

 eigenvalue-minimisations  :   112
 total energy-change (2. order) :-0.4137942E-02  (-0.4953277E-03)
 number of electron      66.4999979 magnetization 
 augmentation part        8.1517834 magnetization 

 Broyden mixing:
  rms(total) = 0.12310E-01    rms(broyden)= 0.12303E-01
  rms(prec ) = 0.13001E-01
  weight for this iteration     100.00

 eigenvalues of (default mixing * dielectric matrix)
  average eigenvalue GAMMA=   1.5746
  5.1767  2.7983  2.1614  2.1614  0.8841  0.8841  1.1083  1.1083  0.8609  0.8609
  0.8839  0.8492  0.7319

 Free energy of the ion-electron system (eV)
  ---------------------------------------------------
  alpha Z        PSCENC =         4.74580453
  Ewald energy   TEWEN  =      4508.69376924
  -1/2 Hartree   DENC   =     -7956.14444248
  -exchange  EXHF       =         0.00000000
  -V(xc)+E(xc)   XCENC  =       269.22060109
  PAW double counting   =      7819.15413006    -7856.07556169
  entropy T*S    EENTRO =        -0.02247020
  eigenvalues    EBANDS =     -1155.71540181
  atomic energy  EATOM  =      4224.61466385
  ---------------------------------------------------
  free energy    TOTEN  =      -141.52890740 eV

  energy without entropy =     -141.50643721  energy(sigma->0) =     -141.51767231


--------------------------------------------------------------------------------------------------------




----------------------------------------- Iteration    1(  15)  ---------------------------------------


    POTLOK:  cpu time    0.74: real time    0.74
    SETDIJ:  cpu time    0.00: real time    0.00
     EDDAV:  cpu time    1.47: real time    1.48
       DOS:  cpu time    0.00: real time    0.00
    CHARGE:  cpu time    0.19: real time    0.19
    MIXING:  cpu time    0.02: real time    0.02
    --------------------------------------------
      LOOP:  cpu time    2.42: real time    2.46

 eigenvalue-minimisations  :    96
 total energy-change (2. order) :-0.2552496E-02  (-0.1657315E-03)
 number of electron      66.4999979 magnetization 
 augmentation part        8.1513518 magnetization 

 Broyden mixing:
  rms(total) = 0.16486E-01    rms(broyden)= 0.16484E-01
  rms(prec ) = 0.17984E-01
  weight for this iteration     100.00

 eigenvalues of (default mixing * dielectric matrix)
  average eigenvalue GAMMA=   1.7217
  6.6190  2.9702  2.4597  2.4597  1.3811  1.3811  0.8809  0.8809  0.8380  0.8380
  0.9278  0.9278  0.7695  0.7695

 Free energy of the ion-electron system (eV)
  ---------------------------------------------------
  alpha Z        PSCENC =         4.74580453
  Ewald energy   TEWEN  =      4508.69376924
  -1/2 Hartree   DENC   =     -7956.25208176
  -exchange  EXHF       =         0.00000000
  -V(xc)+E(xc)   XCENC  =       269.22371887
  PAW double counting   =      7807.28633009    -7844.19668607
  entropy T*S    EENTRO =        -0.02247020
  eigenvalues    EBANDS =     -1155.62450845
  atomic energy  EATOM  =      4224.61466385
  ---------------------------------------------------
  free energy    TOTEN  =      -141.53145990 eV

  energy without entropy =     -141.50898970  energy(sigma->0) =     -141.52022480


--------------------------------------------------------------------------------------------------------




----------------------------------------- Iteration    1(  16)  ---------------------------------------


    POTLOK:  cpu time    0.74: real time    0.75
    SETDIJ:  cpu time    0.00: real time    0.00
     EDDAV:  cpu time    1.65: real time    1.66
       DOS:  cpu time    0.00: real time    0.00
    CHARGE:  cpu time    0.19: real time    0.19
    MIXING:  cpu time    0.02: real time    0.02
    --------------------------------------------
      LOOP:  cpu time    2.61: real time    2.65

 eigenvalue-minimisations  :   112
 total energy-change (2. order) :-0.1496334E-02  (-0.1140259E-03)
 number of electron      66.4999979 magnetization 
 augmentation part        8.1514972 magnetization 

 Broyden mixing:
  rms(total) = 0.13331E-01    rms(broyden)= 0.13331E-01
  rms(prec ) = 0.14055E-01
  weight for this iteration     100.00

 eigenvalues of (default mixing * dielectric matrix)
  average eigenvalue GAMMA=   1.7752
  7.5449  3.3392  2.5643  2.0490  2.0490  0.8834  0.8834  1.1557  1.1557  0.8506
  0.8506  0.8631  0.8631  0.8635  0.7119

 Free energy of the ion-electron system (eV)
  ---------------------------------------------------
  alpha Z        PSCENC =         4.74580453
  Ewald energy   TEWEN  =      4508.69376924
  -1/2 Hartree   DENC   =     -7956.20832855
  -exchange  EXHF       =         0.00000000
  -V(xc)+E(xc)   XCENC  =       269.22004863
  PAW double counting   =      7796.21377445    -7833.12435587
  entropy T*S    EENTRO =        -0.02247020
  eigenvalues    EBANDS =     -1155.66586232
  atomic energy  EATOM  =      4224.61466385
  ---------------------------------------------------
  free energy    TOTEN  =      -141.53295623 eV

  energy without entropy =     -141.51048604  energy(sigma->0) =     -141.52172114


--------------------------------------------------------------------------------------------------------




----------------------------------------- Iteration    1(  17)  ---------------------------------------


    POTLOK:  cpu time    0.74: real time    0.74
    SETDIJ:  cpu time    0.00: real time    0.00
     EDDAV:  cpu time    1.56: real time    1.58
       DOS:  cpu time    0.00: real time    0.00
    CHARGE:  cpu time    0.19: real time    0.19
    MIXING:  cpu time    0.02: real time    0.02
    --------------------------------------------
      LOOP:  cpu time    2.51: real time    2.56

 eigenvalue-minimisations  :   104
 total energy-change (2. order) :-0.5165704E-03  (-0.2600439E-04)
 number of electron      66.4999979 magnetization 
 augmentation part        8.1516818 magnetization 

 Broyden mixing:
  rms(total) = 0.78972E-02    rms(broyden)= 0.78969E-02
  rms(prec ) = 0.84798E-02
  weight for this iteration     100.00

 eigenvalues of (default mixing * dielectric matrix)
  average eigenvalue GAMMA=   1.7683
  7.9126  3.1173  2.6189  2.3349  2.3349  0.8829  0.8829  1.2004  1.2004  0.8543
  0.8543  0.9554  0.8132  0.8132  0.7589  0.7589

 Free energy of the ion-electron system (eV)
  ---------------------------------------------------
  alpha Z        PSCENC =         4.74580453
  Ewald energy   TEWEN  =      4508.69376924
  -1/2 Hartree   DENC   =     -7956.18500986
  -exchange  EXHF       =         0.00000000
  -V(xc)+E(xc)   XCENC  =       269.22059359
  PAW double counting   =      7799.50044239    -7836.42531393
  entropy T*S    EENTRO =        -0.02247020
  eigenvalues    EBANDS =     -1155.67595241
  atomic energy  EATOM  =      4224.61466385
  ---------------------------------------------------
  free energy    TOTEN  =      -141.53347280 eV

  energy without entropy =     -141.51100261  energy(sigma->0) =     -141.52223771


--------------------------------------------------------------------------------------------------------




----------------------------------------- Iteration    1(  18)  ---------------------------------------


    POTLOK:  cpu time    0.74: real time    0.74
    SETDIJ:  cpu time    0.00: real time    0.00
     EDDAV:  cpu time    1.56: real time    1.57
       DOS:  cpu time    0.00: real time    0.00
    CHARGE:  cpu time    0.19: real time    0.19
    MIXING:  cpu time    0.02: real time    0.02
    --------------------------------------------
      LOOP:  cpu time    2.52: real time    2.55

 eigenvalue-minimisations  :   104
 total energy-change (2. order) :-0.5391512E-03  (-0.7581267E-04)
 number of electron      66.4999979 magnetization 
 augmentation part        8.1517566 magnetization 

 Broyden mixing:
  rms(total) = 0.33027E-02    rms(broyden)= 0.32976E-02
  rms(prec ) = 0.36301E-02
  weight for this iteration     100.00

 eigenvalues of (default mixing * dielectric matrix)
  average eigenvalue GAMMA=   1.8324
  7.9490  4.4235  2.5546  2.5546  2.1422  1.6396  0.8828  0.8828  1.1508  1.1508
  0.8517  0.8517  0.9118  0.9118  0.7997  0.7997  0.6943

 Free energy of the ion-electron system (eV)
  ---------------------------------------------------
  alpha Z        PSCENC =         4.74580453
  Ewald energy   TEWEN  =      4508.69376924
  -1/2 Hartree   DENC   =     -7956.05844522
  -exchange  EXHF       =         0.00000000
  -V(xc)+E(xc)   XCENC  =       269.21827210
  PAW double counting   =      7802.21265104    -7839.15165774
  entropy T*S    EENTRO =        -0.02247020
  eigenvalues    EBANDS =     -1155.78659955
  atomic energy  EATOM  =      4224.61466385
  ---------------------------------------------------
  free energy    TOTEN  =      -141.53401196 eV

  energy without entropy =     -141.51154176  energy(sigma->0) =     -141.52277686


--------------------------------------------------------------------------------------------------------




----------------------------------------- Iteration    1(  19)  ---------------------------------------


    POTLOK:  cpu time    0.74: real time    0.74
    SETDIJ:  cpu time    0.00: real time    0.00
     EDDAV:  cpu time    1.73: real time    1.75
       DOS:  cpu time    0.00: real time    0.00
    CHARGE:  cpu time    0.19: real time    0.19
    MIXING:  cpu time    0.02: real time    0.02
    --------------------------------------------
      LOOP:  cpu time    2.69: real time    2.73

 eigenvalue-minimisations  :   120
 total energy-change (2. order) :-0.4186357E-03  (-0.2054990E-04)
 number of electron      66.4999979 magnetization 
 augmentation part        8.1519639 magnetization 

 Broyden mixing:
  rms(total) = 0.53667E-02    rms(broyden)= 0.53664E-02
  rms(prec ) = 0.57709E-02
  weight for this iteration     100.00

 eigenvalues of (default mixing * dielectric matrix)
  average eigenvalue GAMMA=   1.8416
  8.0826  5.0655  2.4708  2.4708  2.1105  2.1105  0.8826  0.8826  1.1793  1.1793
  0.8501  0.8501  0.9038  0.9038  0.8438  0.8438  0.7894  0.7298

 Free energy of the ion-electron system (eV)
  ---------------------------------------------------
  alpha Z        PSCENC =         4.74580453
  Ewald energy   TEWEN  =      4508.69376924
  -1/2 Hartree   DENC   =     -7955.89287079
  -exchange  EXHF       =         0.00000000
  -V(xc)+E(xc)   XCENC  =       269.21566911
  PAW double counting   =      7801.66656403    -7838.60776297
  entropy T*S    EENTRO =        -0.02247020
  eigenvalues    EBANDS =     -1155.94779740
  atomic energy  EATOM  =      4224.61466385
  ---------------------------------------------------
  free energy    TOTEN  =      -141.53443059 eV

  energy without entropy =     -141.51196039  energy(sigma->0) =     -141.52319549


--------------------------------------------------------------------------------------------------------




----------------------------------------- Iteration    1(  20)  ---------------------------------------


    POTLOK:  cpu time    0.74: real time    0.74
    SETDIJ:  cpu time    0.00: real time    0.00
     EDDAV:  cpu time    1.56: real time    1.57
       DOS:  cpu time    0.00: real time    0.00
    CHARGE:  cpu time    0.19: real time    0.19
    MIXING:  cpu time    0.03: real time    0.03
    --------------------------------------------
      LOOP:  cpu time    2.52: real time    2.55

 eigenvalue-minimisations  :   104
 total energy-change (2. order) :-0.1055497E-03  (-0.9377222E-05)
 number of electron      66.4999979 magnetization 
 augmentation part        8.1520064 magnetization 

 Broyden mixing:
  rms(total) = 0.20592E-02    rms(broyden)= 0.20587E-02
  rms(prec ) = 0.22738E-02
  weight for this iteration     100.00

 eigenvalues of (default mixing * dielectric matrix)
  average eigenvalue GAMMA=   1.9274
  7.8054  6.8034  2.5575  2.5575  2.3990  2.3990  0.8826  0.8826  1.2211  1.2211
  0.9939  0.9939  0.8506  0.8506  0.9306  0.9306  0.8135  0.8135  0.7140

 Free energy of the ion-electron system (eV)
  ---------------------------------------------------
  alpha Z        PSCENC =         4.74580453
  Ewald energy   TEWEN  =      4508.69376924
  -1/2 Hartree   DENC   =     -7955.86333054
  -exchange  EXHF       =         0.00000000
  -V(xc)+E(xc)   XCENC  =       269.21629125
  PAW double counting   =      7801.15612086    -7838.09196038
  entropy T*S    EENTRO =        -0.02247020
  eigenvalues    EBANDS =     -1155.98342475
  atomic energy  EATOM  =      4224.61466385
  ---------------------------------------------------
  free energy    TOTEN  =      -141.53453614 eV

  energy without entropy =     -141.51206594  energy(sigma->0) =     -141.52330104


--------------------------------------------------------------------------------------------------------




----------------------------------------- Iteration    1(  21)  ---------------------------------------


    POTLOK:  cpu time    0.73: real time    0.74
    SETDIJ:  cpu time    0.00: real time    0.00
     EDDAV:  cpu time    1.64: real time    1.66
       DOS:  cpu time    0.00: real time    0.00
    CHARGE:  cpu time    0.19: real time    0.19
    MIXING:  cpu time    0.03: real time    0.03
    --------------------------------------------
      LOOP:  cpu time    2.60: real time    2.63

 eigenvalue-minimisations  :   112
 total energy-change (2. order) :-0.1213750E-03  (-0.6698495E-05)
 number of electron      66.4999979 magnetization 
 augmentation part        8.1520438 magnetization 

 Broyden mixing:
  rms(total) = 0.11266E-02    rms(broyden)= 0.11263E-02
  rms(prec ) = 0.12074E-02
  weight for this iteration     100.00

 eigenvalues of (default mixing * dielectric matrix)
  average eigenvalue GAMMA=   1.9278
  7.6046  7.6046  2.4772  2.4772  2.5482  2.5482  1.3307  1.3307  0.8826  0.8826
  1.0612  1.0612  0.8499  0.8499  0.9047  0.9047  0.9517  0.7889  0.7889  0.7083

 Free energy of the ion-electron system (eV)
  ---------------------------------------------------
  alpha Z        PSCENC =         4.74580453
  Ewald energy   TEWEN  =      4508.69376924
  -1/2 Hartree   DENC   =     -7955.78390701
  -exchange  EXHF       =         0.00000000
  -V(xc)+E(xc)   XCENC  =       269.21556011
  PAW double counting   =      7802.19293067    -7839.12695375
  entropy T*S    EENTRO =        -0.02247020
  eigenvalues    EBANDS =     -1156.06405496
  atomic energy  EATOM  =      4224.61466385
  ---------------------------------------------------
  free energy    TOTEN  =      -141.53465752 eV

  energy without entropy =     -141.51218732  energy(sigma->0) =     -141.52342242


--------------------------------------------------------------------------------------------------------




----------------------------------------- Iteration    1(  22)  ---------------------------------------


    POTLOK:  cpu time    0.73: real time    0.73
    SETDIJ:  cpu time    0.00: real time    0.00
     EDDAV:  cpu time    1.56: real time    1.57
       DOS:  cpu time    0.00: real time    0.00
    CHARGE:  cpu time    0.19: real time    0.19
    MIXING:  cpu time    0.03: real time    0.03
    --------------------------------------------
      LOOP:  cpu time    2.52: real time    2.55

 eigenvalue-minimisations  :   104
 total energy-change (2. order) :-0.5684375E-04  (-0.1333542E-05)
 number of electron      66.4999979 magnetization 
 augmentation part        8.1520378 magnetization 

 Broyden mixing:
  rms(total) = 0.72774E-03    rms(broyden)= 0.72772E-03
  rms(prec ) = 0.80974E-03
  weight for this iteration     100.00

 eigenvalues of (default mixing * dielectric matrix)
  average eigenvalue GAMMA=   2.0005
  8.2002  8.2002  3.5329  2.4576  2.4576  2.3682  1.6962  0.8826  0.8826  1.3302
  1.2085  1.0258  1.0258  0.8488  0.8488  0.9374  0.9374  0.8441  0.8061  0.8061
  0.7127

 Free energy of the ion-electron system (eV)
  ---------------------------------------------------
  alpha Z        PSCENC =         4.74580453
  Ewald energy   TEWEN  =      4508.69376924
  -1/2 Hartree   DENC   =     -7955.75935369
  -exchange  EXHF       =         0.00000000
  -V(xc)+E(xc)   XCENC  =       269.21581939
  PAW double counting   =      7801.05753088    -7837.99074868
  entropy T*S    EENTRO =        -0.02247020
  eigenvalues    EBANDS =     -1156.08972968
  atomic energy  EATOM  =      4224.61466385
  ---------------------------------------------------
  free energy    TOTEN  =      -141.53471436 eV

  energy without entropy =     -141.51224416  energy(sigma->0) =     -141.52347926


--------------------------------------------------------------------------------------------------------




----------------------------------------- Iteration    1(  23)  ---------------------------------------


    POTLOK:  cpu time    0.73: real time    0.74
    SETDIJ:  cpu time    0.00: real time    0.00
     EDDAV:  cpu time    1.65: real time    1.66
       DOS:  cpu time    0.00: real time    0.00
    CHARGE:  cpu time    0.19: real time    0.19
    MIXING:  cpu time    0.03: real time    0.03
    --------------------------------------------
      LOOP:  cpu time    2.60: real time    2.64

 eigenvalue-minimisations  :   112
 total energy-change (2. order) :-0.3945553E-04  (-0.1089333E-05)
 number of electron      66.4999979 magnetization 
 augmentation part        8.1520575 magnetization 

 Broyden mixing:
  rms(total) = 0.42857E-03    rms(broyden)= 0.42850E-03
  rms(prec ) = 0.47177E-03
  weight for this iteration     100.00

 eigenvalues of (default mixing * dielectric matrix)
  average eigenvalue GAMMA=   2.0512
  8.6636  8.6636  4.0527  2.4982  2.4982  2.2196  2.2196  1.3734  1.3734  0.8826
  0.8826  1.0657  1.0657  0.8489  0.8489  0.9572  0.9572  0.8746  0.8746  0.7989
  0.7989  0.7081

 Free energy of the ion-electron system (eV)
  ---------------------------------------------------
  alpha Z        PSCENC =         4.74580453
  Ewald energy   TEWEN  =      4508.69376924
  -1/2 Hartree   DENC   =     -7955.72096260
  -exchange  EXHF       =         0.00000000
  -V(xc)+E(xc)   XCENC  =       269.21549171
  PAW double counting   =      7801.24703236    -7838.18060462
  entropy T*S    EENTRO =        -0.02247020
  eigenvalues    EBANDS =     -1156.12747809
  atomic energy  EATOM  =      4224.61466385
  ---------------------------------------------------
  free energy    TOTEN  =      -141.53475382 eV

  energy without entropy =     -141.51228362  energy(sigma->0) =     -141.52351872


--------------------------------------------------------------------------------------------------------




----------------------------------------- Iteration    1(  24)  ---------------------------------------


    POTLOK:  cpu time    0.74: real time    0.74
    SETDIJ:  cpu time    0.00: real time    0.00
     EDDAV:  cpu time    1.47: real time    1.48
       DOS:  cpu time    0.00: real time    0.00
    CHARGE:  cpu time    0.19: real time    0.19
    MIXING:  cpu time    0.03: real time    0.03
    --------------------------------------------
      LOOP:  cpu time    2.44: real time    2.46

 eigenvalue-minimisations  :    96
 total energy-change (2. order) :-0.2239761E-04  (-0.6255539E-06)
 number of electron      66.4999979 magnetization 
 augmentation part        8.1520438 magnetization 

 Broyden mixing:
  rms(total) = 0.33903E-03    rms(broyden)= 0.33885E-03
  rms(prec ) = 0.36338E-03
  weight for this iteration     100.00

 eigenvalues of (default mixing * dielectric matrix)
  average eigenvalue GAMMA=   2.0952
  9.0824  9.0824  4.5681  2.4434  2.4434  2.5751  2.5751  1.4434  1.4434  0.8826
  0.8826  1.0528  1.0528  0.8487  0.8487  0.9838  0.9838  0.9205  0.8919  0.8919
  0.7922  0.7922  0.7095

 Free energy of the ion-electron system (eV)
  ---------------------------------------------------
  alpha Z        PSCENC =         4.74580453
  Ewald energy   TEWEN  =      4508.69376924
  -1/2 Hartree   DENC   =     -7955.70446442
  -exchange  EXHF       =         0.00000000
  -V(xc)+E(xc)   XCENC  =       269.21546166
  PAW double counting   =      7801.11237711    -7838.04555203
  entropy T*S    EENTRO =        -0.02247020
  eigenvalues    EBANDS =     -1156.14436594
  atomic energy  EATOM  =      4224.61466385
  ---------------------------------------------------
  free energy    TOTEN  =      -141.53477621 eV

  energy without entropy =     -141.51230602  energy(sigma->0) =     -141.52354111


[...]
      LOOP:  cpu time    2.16: real time    2.19

 eigenvalue-minimisations  :    72
 total energy-change (2. order) :-0.2169836E-06  (-0.1125097E-07)
 number of electron      66.5000016 magnetization 
 augmentation part        8.1736983 magnetization 

 Broyden mixing:
  rms(total) = 0.81792E-04    rms(broyden)= 0.81785E-04
  rms(prec ) = 0.92922E-04
  weight for this iteration     100.00

 eigenvalues of (default mixing * dielectric matrix)
  average eigenvalue GAMMA=   1.3378
  2.4251  0.8830  0.8830  1.2490  1.2490

 Free energy of the ion-electron system (eV)
  ---------------------------------------------------
  alpha Z        PSCENC =         4.74580453
  Ewald energy   TEWEN  =      4525.77540296
  -1/2 Hartree   DENC   =     -7979.96723589
  -exchange  EXHF       =         0.00000000
  -V(xc)+E(xc)   XCENC  =       269.43017032
  PAW double counting   =      7926.07304268    -7963.10658332
  entropy T*S    EENTRO =        -0.02247020
  eigenvalues    EBANDS =     -1149.29220924
  atomic energy  EATOM  =      4224.61466385
  ---------------------------------------------------
  free energy    TOTEN  =      -141.74941430 eV

  energy without entropy =     -141.72694410  energy(sigma->0) =     -141.73817920


--------------------------------------------------------------------------------------------------------




----------------------------------------- Iteration   79(   7)  ---------------------------------------


    POTLOK:  cpu time    0.75: real time    0.75
    SETDIJ:  cpu time    0.01: real time    0.01
     EDDAV:  cpu time    1.16: real time    1.17
       DOS:  cpu time    0.00: real time    0.00
    CHARGE:  cpu time    0.19: real time    0.19
    MIXING:  cpu time    0.02: real time    0.02
    --------------------------------------------
      LOOP:  cpu time    2.13: real time    2.16

 eigenvalue-minimisations  :    68
 total energy-change (2. order) :-0.1289072E-06  (-0.3409729E-08)
 number of electron      66.5000016 magnetization 
 augmentation part        8.1737012 magnetization 

 Broyden mixing:
  rms(total) = 0.47096E-04    rms(broyden)= 0.47091E-04
  rms(prec ) = 0.56319E-04
  weight for this iteration     100.00

 eigenvalues of (default mixing * dielectric matrix)
  average eigenvalue GAMMA=   1.4370
  2.5736  1.8683  1.3661  0.8565  0.9788  0.9788

 Free energy of the ion-electron system (eV)
  ---------------------------------------------------
  alpha Z        PSCENC =         4.74580453
  Ewald energy   TEWEN  =      4525.77540296
  -1/2 Hartree   DENC   =     -7979.96886563
  -exchange  EXHF       =         0.00000000
  -V(xc)+E(xc)   XCENC  =       269.43020049
  PAW double counting   =      7926.01685686    -7963.05039367
  entropy T*S    EENTRO =        -0.02247020
  eigenvalues    EBANDS =     -1149.29061362
  atomic energy  EATOM  =      4224.61466385
  ---------------------------------------------------
  free energy    TOTEN  =      -141.74941443 eV

  energy without entropy =     -141.72694423  energy(sigma->0) =     -141.73817933


--------------------------------------------------------------------------------------------------------




----------------------------------------- Iteration   79(   8)  ---------------------------------------


    POTLOK:  cpu time    0.75: real time    0.75
    SETDIJ:  cpu time    0.00: real time    0.00
     EDDAV:  cpu time    1.21: real time    1.22
       DOS:  cpu time    0.00: real time    0.00
    CHARGE:  cpu time    0.19: real time    0.19
    MIXING:  cpu time    0.02: real time    0.02
    --------------------------------------------
      LOOP:  cpu time    2.17: real time    2.20

 eigenvalue-minimisations  :    72
 total energy-change (2. order) :-0.1357757E-06  (-0.2934866E-08)
 number of electron      66.5000016 magnetization 
 augmentation part        8.1737024 magnetization 

 Broyden mixing:
  rms(total) = 0.12988E-04    rms(broyden)= 0.12976E-04
  rms(prec ) = 0.22827E-04
  weight for this iteration     100.00

 eigenvalues of (default mixing * dielectric matrix)
  average eigenvalue GAMMA=   1.4220
  2.5064  2.1134  1.3793  1.0431  1.0431  0.9344  0.9344

 Free energy of the ion-electron system (eV)
  ---------------------------------------------------
  alpha Z        PSCENC =         4.74580453
  Ewald energy   TEWEN  =      4525.77540296
  -1/2 Hartree   DENC   =     -7979.97063980
  -exchange  EXHF       =         0.00000000
  -V(xc)+E(xc)   XCENC  =       269.43023013
  PAW double counting   =      7925.97252523    -7963.00606509
  entropy T*S    EENTRO =        -0.02247020
  eigenvalues    EBANDS =     -1149.28886618
  atomic energy  EATOM  =      4224.61466385
  ---------------------------------------------------
  free energy    TOTEN  =      -141.74941456 eV

  energy without entropy =     -141.72694437  energy(sigma->0) =     -141.73817946


--------------------------------------------------------------------------------------------------------




----------------------------------------- Iteration   79(   9)  ---------------------------------------


    POTLOK:  cpu time    0.76: real time    0.76
    SETDIJ:  cpu time    0.00: real time    0.00
     EDDAV:  cpu time    1.21: real time    1.22
       DOS:  cpu time    0.00: real time    0.00
    --------------------------------------------
      LOOP:  cpu time    1.99: real time    2.02

 eigenvalue-minimisations  :    72
 total energy-change (2. order) :-0.7249764E-07  (-0.1468083E-08)
 number of electron      66.5000016 magnetization 
 augmentation part        8.1737024 magnetization 

 Free energy of the ion-electron system (eV)
  ---------------------------------------------------
  alpha Z        PSCENC =         4.74580453
  Ewald energy   TEWEN  =      4525.77540296
  -1/2 Hartree   DENC   =     -7979.97125551
  -exchange  EXHF       =         0.00000000
  -V(xc)+E(xc)   XCENC  =       269.43022955
  PAW double counting   =      7925.97452070    -7963.00805699
  entropy T*S    EENTRO =        -0.02247020
  eigenvalues    EBANDS =     -1149.28825352
  atomic energy  EATOM  =      4224.61466385
  ---------------------------------------------------
  free energy    TOTEN  =      -141.74941463 eV

  energy without entropy =     -141.72694444  energy(sigma->0) =     -141.73817954


--------------------------------------------------------------------------------------------------------




 the core state eigenenergies are
   1-  1s   -542.8603
   2-  1s   -509.4037
   3-  1s   -509.5107
   4-  1s   -507.7900
   5-  1s   -508.2890
   6-  1s   -507.9893
   7-  1s  -2085.0901  2s   -174.4779  2p   -125.0085
   8-  1s  -2083.8273  2s   -173.1951  2p   -123.7270
   9-  1s   -378.6974
  10-
  11-
  12-
  13-
  14-
 
 E-fermi :  -1.7977     XC(G=0):  -1.0514     alpha+bet : -0.5132


 k-point   1 :       0.0000    0.0000    0.0000
  band No.  band energies     occupation 
      1     -50.3903      2.00000
      2     -50.2678      2.00000
      3     -49.3763      2.00000
      4     -49.2383      2.00000
      5     -48.9411      2.00000
      6     -25.8941      2.00000
      7     -23.9588      2.00000
      8     -23.8193      2.00000
      9     -22.9655      2.00000
     10     -21.7922      2.00000
     11     -21.4747      2.00000
     12     -19.6411      2.00000
     13     -13.4574      2.00000
     14     -11.6495      2.00000
     15     -10.6664      2.00000
     16     -10.3011      2.00000
     17     -10.0284      2.00000
     18      -9.0931      2.00000
     19      -8.7223      2.00000
     20      -8.6457      2.00000
     21      -8.4356      2.00000
     22      -8.2907      2.00000
     23      -7.7232      2.00000
     24      -7.0370      2.00000
     25      -6.7511      2.00000
     26      -6.7343      2.00000
     27      -6.4379      2.00000
     28      -6.3700      2.00000
     29      -5.9474      2.00000
     30      -5.7410      2.00000
     31      -4.9471      2.00000
     32      -4.8622      2.00000
     33      -4.5998      2.00000
     34      -1.7738      0.50000
     35      -1.1819      0.00000
     36      -0.6778      0.00000
     37      -0.3311      0.00000
     38      -0.1664      0.00000
     39      -0.0205      0.00000
     40       0.1695      0.00000
     41       0.2966      0.00000
     42       0.3350      0.00000
     43       0.6713      0.00000
     44       0.7275      0.00000


--------------------------------------------------------------------------------------------------------


 soft charge-density along one line, spin component           1
         0         1         2         3         4         5         6         7         8         9
 total charge-density along one line
 
 pseudopotential strength for first ion, spin component:           1
 12.110 -14.715  -0.011  -0.077  -0.008   0.014   0.097   0.010
-14.715  17.897   0.014   0.099   0.010  -0.018  -0.124  -0.012
 -0.011   0.014 -11.924   0.003   0.007  15.149  -0.004  -0.009
 -0.077   0.099   0.003 -12.045   0.006  -0.004  15.312  -0.008
 -0.008   0.010   0.007   0.006 -11.938  -0.009  -0.008  15.168
  0.014  -0.018  15.149  -0.004  -0.009 -19.260   0.005   0.012
  0.097  -0.124  -0.004  15.312  -0.008   0.005 -19.480   0.011
  0.010  -0.012  -0.009  -0.008  15.168   0.012   0.011 -19.285
 total augmentation occupancy for first ion, spin component:           1
  1.193  -0.219   0.038   0.296   0.025   0.010   0.093   0.004
 -0.219   0.181   0.033   0.264   0.019   0.000   0.030  -0.003
  0.038   0.033   1.730   0.005  -0.022  -0.065  -0.002  -0.009
  0.296   0.264   0.005   1.913   0.001  -0.002   0.095  -0.006
  0.025   0.019  -0.022   0.001   1.758  -0.009  -0.007  -0.049
  0.010   0.000  -0.065  -0.002  -0.009   0.010   0.003   0.000
  0.093   0.030  -0.002   0.095  -0.007   0.003   0.026   0.000
  0.004  -0.003  -0.009  -0.006  -0.049   0.000   0.000   0.008


------------------------ aborting loop because EDIFF is reached ----------------------------------------


 


 total charge     
 
# of ion     s       p       d       tot
----------------------------------------
  1        1.536   3.997   0.000   5.533
  2        1.569   3.571   0.000   5.140
  3        1.566   3.576   0.000   5.142
  4        1.573   3.555   0.000   5.128
  5        1.563   3.558   0.000   5.121
  6        1.569   3.581   0.000   5.150
  7        0.921   1.483   0.000   2.404
  8        0.916   1.486   0.000   2.402
  9        1.239   2.683   0.000   3.922
 10        2.026   0.062   0.000   2.088
 11        2.021   0.062   0.000   2.083
 12        2.020   0.057   0.000   2.077
 13        2.017   0.048   0.000   2.066
 14        2.018   0.051   0.000   2.069
------------------------------------------------
tot       22.554  27.771   0.000  50.325
 
    CHARGE:  cpu time    0.19: real time    0.19
    FORLOC:  cpu time    0.09: real time    0.09
    FORNL :  cpu time    0.14: real time    0.14
    STRESS:  cpu time    0.87: real time    0.87
    FORCOR:  cpu time    0.78: real time    0.78
    FORHAR:  cpu time    0.26: real time    0.27
    MIXING:  cpu time    0.02: real time    0.02

  FORCE on cell =-STRESS in cart. coord.  units (eV):
  Direction    XX          YY          ZZ          XY          YZ          ZX
  --------------------------------------------------------------------------------------
  Alpha Z     4.74580     4.74580     4.74580
  Ewald    2014.53176  1823.72700   687.51371 -1176.13510  -263.40637  -486.95404
  Hartree  3148.96420  2871.49719  1959.51268  -960.96315  -144.15045  -379.25332
  E(xc)    -313.13777  -313.20534  -313.27728    -0.44789    -0.21345    -0.14389
  Local   -6047.67105 -5567.76067 -3529.46413  2132.05195   399.16342   861.16654
  n-local  -158.24502  -151.12936  -162.37116    -0.36695     0.68578    -2.20464
  augment   115.27514   114.13305   114.67703    -0.02081     0.53482     0.29725
  Kinetic  1235.09778  1217.48800  1238.17940     5.89257     7.38976     7.06452
  Fock        0.00000     0.00000     0.00000     0.00000     0.00000     0.00000
  -------------------------------------------------------------------------------------
  Total      -0.43914    -0.50432    -0.48393     0.01060     0.00352    -0.02758
  in kB      -0.20847    -0.23941    -0.22973     0.00503     0.00167    -0.01309
  external pressure =       -0.23 kB  Pullay stress =        0.00 kB


 VOLUME and BASIS-vectors are now :
 -----------------------------------------------------------------------------
  energy-cutoff  :      500.00
  volume of cell :     3375.00
      direct lattice vectors                 reciprocal lattice vectors
    15.000000000  0.000000000  0.000000000     0.066666667  0.000000000  0.000000000
     0.000000000 15.000000000  0.000000000     0.000000000  0.066666667  0.000000000
     0.000000000  0.000000000 15.000000000     0.000000000  0.000000000  0.066666667

  length of vectors
    15.000000000 15.000000000 15.000000000     0.066666667  0.066666667  0.066666667


 FORCES acting on ions
    electron-ion (+dipol)            ewald-force                    non-local-force                 convergence-correction
 -----------------------------------------------------------------------------------------------
   -.499E+02 0.896E+02 0.432E+03   0.464E+02 -.946E+02 -.467E+03   0.348E+01 0.502E+01 0.348E+02   -.107E-04 -.818E-04 -.624E-04
   -.409E+03 -.476E+01 -.130E+03   0.444E+03 0.693E+01 0.141E+03   -.355E+02 -.216E+01 -.109E+02   0.340E-04 -.112E-03 0.544E-04
   0.802E+02 0.371E+03 -.110E+03   -.943E+02 -.400E+03 0.118E+03   0.140E+02 0.295E+02 -.843E+01   -.331E-04 -.169E-03 -.429E-04
   0.660E+02 -.302E+03 -.303E+03   -.680E+02 0.330E+03 0.332E+03   0.195E+01 -.280E+02 -.295E+02   -.140E-03 0.731E-04 0.866E-04
   0.209E+03 -.155E+03 0.320E+03   -.221E+03 0.162E+03 -.349E+03   0.120E+02 -.637E+01 0.291E+02   -.224E-04 0.107E-03 0.445E-04
   0.338E+03 0.163E+03 -.154E+03   -.363E+03 -.186E+03 0.165E+03   0.249E+02 0.237E+02 -.107E+02   0.510E-04 0.177E-03 -.114E-03
   -.638E+02 0.713E+01 -.411E+02   0.615E+02 -.393E+01 0.474E+02   0.224E+01 -.320E+01 -.625E+01   -.239E-04 -.801E-04 0.487E-05
   0.584E+02 -.559E+02 -.741E+02   -.625E+02 0.573E+02 0.767E+02   0.402E+01 -.143E+01 -.258E+01   -.504E-04 0.355E-04 0.100E-04
   -.147E+03 -.189E+03 -.114E+03   0.156E+03 0.208E+03 0.120E+03   -.919E+01 -.190E+02 -.577E+01   -.833E-04 -.792E-04 -.416E-05
   0.113E+03 0.166E+03 -.789E+02   -.112E+03 -.162E+03 0.774E+02   -.153E+01 -.478E+01 0.153E+01   0.222E-04 -.751E-04 -.337E-04
   0.990E+02 -.205E+03 0.432E+02   -.965E+02 0.200E+03 -.412E+02   -.250E+01 0.542E+01 -.206E+01   -.107E-03 0.498E-04 0.104E-04
   -.181E+02 -.782E+02 0.198E+03   0.160E+02 0.782E+02 -.194E+03   0.216E+01 -.802E-01 -.352E+01   -.294E-04 -.244E-04 -.128E-04
   -.186E+03 0.298E+02 0.137E+03   0.183E+03 -.296E+02 -.134E+03   0.258E+01 -.149E+00 -.324E+01   -.216E-04 -.538E-04 0.184E-05
   -.112E+03 0.169E+03 -.110E+03   0.110E+03 -.166E+03 0.108E+03   0.182E+01 -.337E+01 0.244E+01   0.127E-04 -.961E-04 0.223E-04
 -----------------------------------------------------------------------------------------------
   -.204E+02 0.493E+01 0.150E+02   0.568E-13 0.000E+00 0.995E-13   0.204E+02 -.492E+01 -.150E+02   -.401E-03 -.330E-03 -.353E-04
 
 
 POSITION                                       TOTAL-FORCE (eV/Angst)
 -----------------------------------------------------------------------------------
      8.20530      6.04861      5.48678         0.004913     -0.006401     -0.002342
      9.70071      5.91353      7.40435        -0.005776      0.005875     -0.001873
      7.52950      4.77024      7.64850         0.005948     -0.000040      0.008143
      5.69613      9.10202      8.52940         0.001406      0.005305     -0.004360
      5.49926      8.36282      6.17210         0.003542      0.004876      0.006776
      5.06650      6.63480      8.06670         0.002411      0.002016     -0.003193
      8.17378      6.09477      7.11867        -0.004747      0.000228     -0.001888
      5.87861      7.86288      7.64818        -0.015416     -0.005441      0.002079
      7.49961      7.46206      7.47688         0.017062      0.001600      0.004231
      5.78407      5.04705      8.16631        -0.013108     -0.001393      0.003061
      5.06202      9.94700      7.05565         0.001874     -0.014079     -0.005583
      7.04438      7.66546      5.45714        -0.001480      0.005321      0.003921
     10.08598      5.80661      5.59448         0.000483      0.000484     -0.005100
      9.27042      4.27207      8.21603         0.002888      0.001648     -0.003871
 -----------------------------------------------------------------------------------
    total drift:                               -0.002348      0.001876      0.003968


--------------------------------------------------------------------------------------------------------



  FREE ENERGIE OF THE ION-ELECTRON SYSTEM (eV)
  ---------------------------------------------------
  free  energy   TOTEN  =      -141.74941463 eV

  energy  without entropy=     -141.72694444  energy(sigma->0) =     -141.73817954
 
 d Force = 0.3191987E-04[ 0.183E-04, 0.455E-04]  d Energy = 0.3135662E-04 0.563E-06
 d Force = 0.3960194E+00[ 0.396E+00, 0.396E+00]  d Ewald  = 0.3960194E+00-0.125E-07


--------------------------------------------------------------------------------------------------------


    POTLOK:  cpu time    0.76: real time    0.77


--------------------------------------------------------------------------------------------------------


 Conjugate gradient step on ions:
 trial-energy change:   -0.000031  1 .order   -0.000032   -0.000046   -0.000018
  (g-gl).g = 0.137E-03      g.g   = 0.121E-03  gl.gl    = 0.385E-03
 g(Force)  = 0.121E-03   g(Stress)= 0.000E+00 ortho     =-0.183E-04
 gamma     =   0.35753
 trial     =   0.39651
 opt step  =   0.74333  (harmonic =   0.66270) maximal distance =0.00068607
 next E    =  -141.749422   (d E  =  -0.00004)


--------------------------------------------------------------------------------------------------------


  
 reached required accuracy - stopping structural energy minimisation
     LOOP+:  cpu time   24.43: real time   24.79
    4ORBIT:  cpu time    0.00: real time    0.00
 


 total charge     
 
# of ion     s       p       d       tot
----------------------------------------
  1        1.536   3.997   0.000   5.533
  2        1.569   3.571   0.000   5.140
  3        1.566   3.576   0.000   5.142
  4        1.573   3.555   0.000   5.128
  5        1.563   3.558   0.000   5.121
  6        1.569   3.581   0.000   5.150
  7        0.921   1.483   0.000   2.404
  8        0.916   1.486   0.000   2.402
  9        1.239   2.683   0.000   3.922
 10        2.026   0.062   0.000   2.088
 11        2.021   0.062   0.000   2.083
 12        2.020   0.057   0.000   2.077
 13        2.017   0.048   0.000   2.066
 14        2.018   0.051   0.000   2.069
------------------------------------------------
tot       22.554  27.771   0.000  50.325
 

 total amount of memory used by VASP on root node   114021. kBytes
========================================================================

   base      :      30000. kBytes
   nonl-proj :       7777. kBytes
   fftplans  :      23720. kBytes
   grid      :      49995. kBytes
   one-center:          9. kBytes
   wavefun   :       2520. kBytes
 
  
  
 General timing and accounting informations for this job:
 ========================================================
  
                  Total CPU time used (sec):     3049.642
                            User time (sec):     2940.546
                          System time (sec):      109.096
                         Elapsed time (sec):     3105.446
  
                   Maximum memory used (kb):      177568.
                   Average memory used (kb):           0.
  
                          Minor page faults:      4073109
                          Major page faults:            0
                 Voluntary context switches:       166893
